30
Lattice="6.933200436225863 0.0 0.0 -3.46660021811293 6.0043277073009484 0.0 0.0 0.0 5.455197903576843" Properties=species:S:1:pos:R:3:cs_iso:R:1 #=T CELL(abcABC):=T 13.10185=T 10.30883=T 90.00000=T 120.00000=T Step:=T 4600=T Bead:=T 0=T positionsatomic_unit=T cellatomic_unit=T pbc="T T T"
O       -1.67915867       3.59198082       5.34435009    -102.83291153
O        1.54839369       2.53756877       1.80548385    -225.00868024
O        3.88463011       0.19736461       3.70851093       4.48102811
O        5.99822368       1.43066763       0.01273730      81.88830816
O        2.65398776       4.46292184       1.86770980      46.15570236
O        1.63861311       0.16692631       3.60851232     -34.52692460
C       -1.31931817       2.56931940       4.79059366     -12.85852800
C        1.96924832       3.52392334       1.27836514      -5.87303819
C        2.77585198       0.00955112       3.10648190       1.57735701
C       -1.18767475       2.47259110       3.35052255     113.96017713
C        1.77362738       3.69989064       5.27475906     134.96231044
C       -0.71492900       5.58398376       1.53351322     111.25847672
N        6.11882317       1.19876630       2.62690447     274.28666348
N        2.84055977       4.54274822       4.62161150     256.80602963
N       -1.96900755       5.95495029       0.93191282     262.20680057
H       -0.30948717       3.29931936       3.12473322      22.74701995
H        0.80223265       4.22109315       5.08011710      26.47735318
H       -0.56670646       4.44954424       1.50340833      23.95000972
H        4.77181845       3.06142246       3.01742666      23.46131379
H        1.42273526       2.69912128       4.87393907      26.35977363
H        3.43806963       0.18352395       0.80987926      24.08095481
H        6.02928638       1.22456369       1.57148698      17.42531267
H        2.75806633       4.64277330       3.64150122      24.51536672
H       -2.06185169       5.85196912       0.07438644      31.76091903
H        0.01468319       0.83924331       2.87664436      29.05506686
H        2.73141697       5.43279783       5.12910832      23.84471998
H       -2.66034317       5.42872317       1.44296042      24.28103220
H        5.37622879       0.58884194       2.88579912      24.80341107
H        3.69854653       4.12062885       4.74043295      27.75113021
H        1.32777971       1.07008628       1.28643509      10.81561814
30
Lattice="6.933200436225863 0.0 0.0 -3.46660021811293 6.0043277073009484 0.0 0.0 0.0 5.455197903576843" Properties=species:S:1:pos:R:3:cs_iso:R:1 #=T CELL(abcABC):=T 13.10185=T 10.30883=T 90.00000=T 120.00000=T Step:=T 4800=T Bead:=T 0=T positionsatomic_unit=T cellatomic_unit=T pbc="T T T"
O        5.07911695       3.15303362       0.10197086    -147.07706579
O        1.46986908       2.84525357       1.91512408     -53.44772067
O        0.26853256       5.97938497       3.89676043      32.48943277
O        6.07797069       1.16207315       5.33315376     -31.34221129
O        2.92403747       4.50752619       1.71709538     -24.07680173
O       -1.94131570       5.89713969       3.56269615    -182.38176497
C       -1.29328265       2.26726505       4.92622178      -3.74678189
C        2.11796299       3.65450311       1.21239262     -13.28974279
C       -0.81965052       5.92585708       3.15084282       6.40979265
C       -1.13972600       2.69697811       3.45595053     104.08780217
C        1.97217467       3.56538437       5.19800720     136.82490751
C        2.89762888       0.02077817       1.58158897     105.61440124
N        5.91477244       1.44357426       2.65409888     231.06177521
N        2.82195389       4.45190966       4.43240419     185.76201007
N        1.58804493       0.29168407       0.94291970     210.03589489
H       -0.17533811       3.44156220       3.19158418      21.31581462
H        0.94686207       3.83210027       4.81560787      25.66516482
H       -0.14454211       5.10469738       1.15240509      26.19489645
H        4.89155538       3.27873437       3.35824325      25.74119755
H        2.25043192       2.57478580       4.75310146      26.94060930
H        3.59904004       0.86372833       1.08120429      24.47179809
H       -0.89258966       1.69837309       1.70889313      26.26999990
H        2.93146183       4.38328067       3.19190697       8.64131585
H        1.62206044       0.26218349       5.42126177      26.54933238
H       -0.24952558       0.89002315       2.98684022      26.45530835
H        2.76215687       5.45237739       4.72663201      22.53999057
H       -2.59413252       5.79168582       1.44616194      24.11550781
H        5.07365584       0.81159909       2.56247185      22.83504282
H        3.83140705       4.30072373       4.70947609      23.17223097
H        1.37830025       1.31675165       1.23122603      18.15195863
30
Lattice="6.933200436225863 0.0 0.0 -3.46660021811293 6.0043277073009484 0.0 0.0 0.0 5.455197903576843" Properties=species:S:1:pos:R:3:cs_iso:R:1 #=T CELL(abcABC):=T 13.10185=T 10.30883=T 90.00000=T 120.00000=T Step:=T 5000=T Bead:=T 0=T positionsatomic_unit=T cellatomic_unit=T pbc="T T T"
O       -1.77798781       3.48421388       5.44889789    -124.42979249
O        1.57171982       2.74919203       1.76917700    -208.43895929
O        0.28926837       5.69902689       3.63876009      28.29472849
O        6.03822948       1.47702355       0.17974563    -174.17438690
O        2.80933302       4.56405290       1.82894228      82.03600934
O        1.56661326       0.28097617       3.56384976     -78.49553283
C       -1.35440262       2.40869824       5.04024359      15.53764237
C        2.07174465       3.67700901       1.19537957     -12.84945045
C       -0.85751315       5.82912349       3.04003311     -12.72430094
C       -1.27880436       2.32207723       3.39982599      92.22813842
C        1.96029993       3.72247063       5.19653608     121.38751697
C       -0.80220090       5.68516244       1.52487705     126.33522141
N        6.10707543       1.05935986       2.79526220     132.89941831
N        2.83910982       4.72718765       4.48670306     225.61715942
N        1.47867459       0.03714671       0.87286193     248.40674581
H       -0.52113689       3.13124210       3.02869814      26.09328608
H        0.90040561       4.01477754       5.02602989      24.64629475
H       -0.71157401       4.64766290       1.26484466      25.05742831
H        4.83866412       2.50926308       2.92772054      29.54001384
H        2.12311189       2.56539291       4.83445187      23.37950988
H        3.55328738       0.28955624       1.09297319      26.63102070
H       -0.79977198       1.48169619       1.77422535      14.46928110
H        2.82454157       4.60686333       3.51349855      25.58754439
H        1.71489400       0.05902390       5.36760320      24.37267701
H        0.25388547       0.93410890       3.02184000      16.38333579
H        2.92448727       5.69283551       4.84983505      23.58260633
H       -2.67706517       5.53096020       1.23345387      28.48968830
H        5.53932120       0.17590750       2.86757955      21.88978554
H        3.94191513       4.50308639       4.72890218      14.89479123
H        1.31570388       1.24342357       1.08839581      10.25709026
30
Lattice="6.933200436225863 0.0 0.0 -3.46660021811293 6.0043277073009484 0.0 0.0 0.0 5.455197903576843" Properties=species:S:1:pos:R:3:cs_iso:R:1 #=T CELL(abcABC):=T 13.10185=T 10.30883=T 90.00000=T 120.00000=T Step:=T 5200=T Bead:=T 0=T positionsatomic_unit=T cellatomic_unit=T pbc="T T T"
O       -1.90178352       3.57650768       5.41233820    -134.02704383
O        1.38207329       2.74987467       1.96225789    -218.37722980
O        0.64366999       5.80459774       3.74451615      24.88724555
O        5.74903413       1.48480775       0.02369127      -7.35117455
O        2.74259848       4.42719180       1.69926740     -25.78127807
O        1.93312668       0.07978775       3.61547100     -67.04362838
C        5.44729729       2.55259211       4.85574067     -11.91811167
C        1.94677416       3.51552530       1.26644278       4.85114045
C       -0.42538704       5.95170273       3.03354011     -22.55289184
C       -1.28408554       2.66085118       3.35079243     121.80553696
C        1.75584174       3.44954748       5.18472485      95.91703015
C       -0.46733862       5.95779454       1.56865059      98.17236529
N        5.88667313       1.39646162       2.78052990     208.04047654
N        2.74838239       4.34474599       4.44490336     121.79921978
N        1.77105029       0.20199964       0.94569788     165.99207716
H       -0.51375646       3.27460679       3.28878874      27.38324516
H        0.63691240       3.81907193       5.01004874      23.03636508
H       -0.25619903       4.85431189       1.39086821      24.30608371
H        4.84823693       3.22694909       2.83011910      28.19268266
H        1.70371778       2.40751818       4.68650450      24.54624591
H        3.91930338       0.68313074       1.10420763      21.57783355
H        5.61255933       1.45910032       1.59220956      11.32570403
H        2.69888315       4.27283609       3.28743404      13.08718887
H        1.93655046       0.30847115       5.30854702      16.16842011
H       -0.09137991       1.13405851       2.93080035      28.22607906
H        2.73374535       5.35590838       4.94208651      19.78903856
H       -2.54979276       5.51873621       1.21000073      16.87301699
H        5.15324410       0.54852922       3.25954641       9.43551187
H        3.83848215       4.07587105       4.69087022      13.68011598
H        1.26394506       1.08469157       1.21651491      22.21091322
30
Lattice="6.933200436225863 0.0 0.0 -3.46660021811293 6.0043277073009484 0.0 0.0 0.0 5.455197903576843" Properties=species:S:1:pos:R:3:cs_iso:R:1 #=T CELL(abcABC):=T 13.10185=T 10.30883=T 90.00000=T 120.00000=T Step:=T 5400=T Bead:=T 0=T positionsatomic_unit=T cellatomic_unit=T pbc="T T T"
O       -1.72164631       3.34073277       0.11665130    -130.72456521
O        1.23960291       2.85945139       1.73071640    -116.30834129
O        0.35992200       5.84142847       3.70689165     -99.49246819
O        5.83624254       1.16990498       0.04999137      72.54460768
O        2.92557208       4.31381558       1.77405072     -44.17754682
O        1.64698469       0.41026210       3.54768340     -84.87662349
C       -1.28846713       2.36253282       4.97278408      -3.02353527
C        2.08296850       3.57885723       1.19353803      -1.56704899
C        2.75526169       0.01809479       3.11984891       0.55836233
C       -1.22507170       2.56259885       3.44027101     109.52962478
C        1.93084593       3.71248505       5.07083533      98.58247936
C       -0.58163984       5.98086667       1.60458172     105.81407514
N        5.87249118       1.31218485       2.64519283     216.97526297
N        2.99853504       4.54826754       4.58495011     277.60667699
N        1.55655889       0.23587757       0.86450623     170.72333210
H       -0.33907083       3.13608407       3.46412102      25.00566773
H        0.96000684       4.28298042       4.93957292      24.08498886
H       -0.40107717       4.95339503       1.24881588      25.39197512
H        4.73433683       3.10872561       2.99621195      24.01996499
H        1.95188602       2.62790990       4.46770560      22.22400235
H        3.54086230       0.81801801       1.12791477      24.75661964
H        5.89048320       1.48970793       1.67036374      23.68362297
H        2.71843096       4.62325195       3.54539206      17.21657415
H        1.61700680       0.21661922       5.23160466      17.80294992
H       -0.06048866       1.19460697       2.96717070      21.26815544
H        2.94369111       5.41766336       4.89214277      30.03508081
H       -2.47673456       5.39670795       1.13090462      22.52107761
H        5.36723278       0.40681186       2.71918768      22.61924528
H        3.83172985       4.24221790       4.79604948      30.43343725
H        1.23946532       1.11886054       1.24924981      24.91507797
30
Lattice="6.933200436225863 0.0 0.0 -3.46660021811293 6.0043277073009484 0.0 0.0 0.0 5.455197903576843" Properties=species:S:1:pos:R:3:cs_iso:R:1 #=T CELL(abcABC):=T 13.10185=T 10.30883=T 90.00000=T 120.00000=T Step:=T 5600=T Bead:=T 0=T positionsatomic_unit=T cellatomic_unit=T pbc="T T T"
O       -1.75151307       3.19561651       0.13415912    -118.72427747
O        1.56672968       2.95547589       1.97868884     -57.80317992
O        0.15931092       5.92292176       3.67569136     -85.40054389
O        6.10622875       1.13325946       0.03131142     -30.01309285
O        3.05927400       4.65455808       1.60958774     -18.53649305
O        1.39629228       0.21801307       3.54844012     -36.92801774
C       -1.22374876       2.24934182       5.00027484      -0.67525753
C        2.19138633       3.75081336       1.25546764      -2.93244932
C       -0.93992192       5.96950891       3.05696679      -3.25359075
C       -1.11847424       2.34698560       3.41779156     109.65689315
C        1.96235314       3.71922148       5.19198516     113.32660818
C       -0.72874052       5.88783732       1.51968582     109.26154357
N        5.83587211       1.10510194       2.73071845     170.37109336
N        2.98639571       4.50153590       4.53393213     153.34123622
N        1.58421369       0.48224078       0.83213116     156.72652005
H       -0.24946684       2.70953549       3.14855149      26.28086282
H        1.04609868       4.29149488       4.91664367      25.70984300
H       -0.99578980       4.79301729       1.21714992      23.26655410
H        4.84264882       2.91059108       3.00237157      25.64495495
H        1.77604043       2.71668467       4.71283107      26.30081933
H        3.64949180       0.36115128       1.13062944      26.57612663
H        5.60462167       1.05647584       1.68552996      18.43000414
H        2.94514635       4.50413945       3.36982694      14.17570083
H        1.55671764       0.72097749       5.13802496      12.99821616
H       -0.26536650       0.57434249       2.94601949      22.91537612
H        2.92274099       5.58054411       4.85281432      17.21691935
H       -2.84072381       5.99457236       0.94839140      18.71211317
H        4.98769101       0.57662324       3.05483420      20.49589259
H        3.94461393       4.13672642       4.98781272      16.80311520
H        1.37621000       1.40677528       1.31040682      21.08061991
30
Lattice="6.933200436225863 0.0 0.0 -3.46660021811293 6.0043277073009484 0.0 0.0 0.0 5.455197903576843" Properties=species:S:1:pos:R:3:cs_iso:R:1 #=T CELL(abcABC):=T 13.10185=T 10.30883=T 90.00000=T 120.00000=T Step:=T 5800=T Bead:=T 0=T positionsatomic_unit=T cellatomic_unit=T pbc="T T T"
O       -1.97299490       3.43540258       0.10693931      23.49874147
O        1.41296136       2.89060935       1.83614438    -211.26023119
O        0.48821942       5.57403523       3.73951014     -32.10878378
O        5.67087466       1.24299493       0.17032627      54.71042305
O        2.82559463       4.67214793       1.66126189       0.16707156
O        1.93874655       0.39626642       3.54863592    -167.10002936
C        5.39871882       2.35317168       4.98414023     -20.90149316
C        2.05724520       3.70024519       1.22416681       2.55390723
C       -0.52789925       5.96606471       3.04860579      -4.10468872
C       -1.35875774       2.50119842       3.46532755      96.93390176
C        1.91122933       3.64651782       5.10829578     113.65008011
C       -0.51183713       5.64727336       1.43657325     102.68586892
N        6.02473546       1.44394469       2.84950815      81.48780356
N        2.84352845       4.53043427       4.48310995     168.47172929
N       -1.82022937       5.99915130       0.83222642     244.58499019
H       -1.01588795       3.47651435       3.11259389      26.52032318
H        1.02496334       4.19221066       4.59448059      20.82124276
H       -0.33090033       4.55569719       1.16921175      23.68939105
H        4.42076758       2.59456116       3.21474097      25.94918734
H        2.08410623       2.68742646       4.73082310      28.10104097
H        3.78675508       0.33050398       1.14268939      25.21819583
H        5.94615264       1.52579782       1.82598947      20.05809593
H        2.69288757       4.69181744       3.39093581      16.38100588
H        1.67017324       0.03874217       5.20573847      17.25506142
H        0.12466463       1.13447656       3.16780295      16.02926448
H        2.75499181       5.57086017       4.95776603      16.31803348
H       -2.47272869       5.21627439       1.05330607      20.22756331
H        5.46248467       0.52428179       3.06720636      19.34336207
H        3.77814536       4.03006547       4.60332314      18.99287215
H        1.31692628       0.82826817       1.05540690      32.62940969
30
Lattice="6.933200436225863 0.0 0.0 -3.46660021811293 6.0043277073009484 0.0 0.0 0.0 5.455197903576843" Properties=species:S:1:pos:R:3:cs_iso:R:1 #=T CELL(abcABC):=T 13.10185=T 10.30883=T 90.00000=T 120.00000=T Step:=T 6000=T Bead:=T 0=T positionsatomic_unit=T cellatomic_unit=T pbc="T T T"
O       -1.84111865       3.30187000       5.45082309     -53.24128898
O        1.42592620       2.82545705       1.74543282     -42.27063673
O        3.74970368       0.03866436       3.89268577     -31.75470707
O       -0.75108768       1.38697876       5.26543496     -76.67086915
O        2.79489706       4.55374982       1.72070966    -177.07839733
O       -1.86257413       6.00347360       3.82809969     -52.78958751
C       -1.28333412       2.40478233       4.77981961      -9.03176997
C        2.16260438       3.70304453       1.19543249       3.35401504
C        2.69194035       0.02032670       3.21304231      -9.68542935
C       -1.10285293       2.57417725       3.16116178     101.52130674
C        2.09192747       3.59789173       5.13880285     110.13093023
C       -0.78138836       5.79512547       1.75926551     123.57004661
N        5.86370683       1.24470418       2.63791135     185.38074441
N        3.06025827       4.49297911       4.45233300     191.13408880
N        1.48371765       0.20893292       1.01128940     210.52839664
H       -0.33581374       3.22739889       2.97137766      26.53105272
H        1.07771702       3.91125989       4.87065817      27.31354880
H       -0.78775436       4.56394706       1.48353773      22.44116020
H        4.82207441       3.02113090       2.87342696      26.78985525
H        2.43200321       2.57696601       4.72761628      26.12907755
H        3.53480322       0.10116069       1.17847236      28.10757743
H        5.77798013       1.40354201       1.62139368      22.73133564
H        2.98383979       4.30090365       3.34670718      15.20546147
H        1.33012925       0.13545667       5.35532629      13.24379072
H       -0.07777476       0.78610333       2.82992330      19.42357078
H        2.91554418       5.50032084       4.80363788      20.89320284
H       -2.53915630       5.52053541       1.47624037      25.11779992
H        5.01246708       0.60991378       2.91568705      17.20608381
H        3.88302299       4.10444661       4.87405020      22.58394033
H        1.26287612       1.19913673       1.13069824      23.62912426
30
Lattice="6.933200436225863 0.0 0.0 -3.46660021811293 6.0043277073009484 0.0 0.0 0.0 5.455197903576843" Properties=species:S:1:pos:R:3:cs_iso:R:1 #=T CELL(abcABC):=T 13.10185=T 10.30883=T 90.00000=T 120.00000=T Step:=T 6200=T Bead:=T 0=T positionsatomic_unit=T cellatomic_unit=T pbc="T T T"
O       -1.64647139       3.40844100       0.08802492    -175.76148350
O        1.53175635       2.53384865       1.93951385    -160.11263502
O        0.44981015       5.89768001       3.65293674       4.68458533
O        5.94879853       1.29864321       5.30643031      55.53285591
O        2.94007154       4.29971830       1.85939642     -99.80153053
O        1.56929619       0.08313639       3.61206310      36.27232479
C        5.50042668       2.46554775       4.81746528      -9.17888420
C        2.10281265       3.48067369       1.42408467       0.89198685
C        2.75443617       0.15968504       3.09725305     -20.96540173
C       -1.45999463       2.65579225       3.25855684     104.37140838
C        1.77047349       3.71162250       5.33860429      94.54112890
C        2.96348869       0.03543638       1.51883385      80.43485844
N        5.82772278       1.33275397       2.71839391     172.69933273
N        2.76661783       4.45162391       4.52957700     215.98147859
N        1.68235490       0.27316763       0.96122394     216.07910342
H       -0.55922918       3.35671922       2.88594729      23.72254582
H        0.73460380       4.27567778       5.16318734      22.78197330
H       -0.35361262       4.82687934       1.28989062      22.04032973
H        4.49220651       2.84103073       2.96671032      26.95572889
H        1.68121187       2.69160696       4.91701410      26.50877512
H        3.80655160       0.79037379       1.05668751      22.50859122
H        5.80512692       1.48943805       1.65982253      20.31976868
H        2.72734230       4.26686168       3.43767275      14.90163921
H        1.72108538       0.16004859       5.45184821      25.64806630
H       -0.09129789       0.95347150       3.01290749      17.25910416
H        2.57922560       5.40528062       4.58464847      28.72947772
H       -2.58586677       5.68373367       1.05991549      24.66438746
H        5.11601119       0.57888283       2.91732221      19.26288155
H        3.82795152       4.30689923       4.80995626      18.25263991
H        1.41829547       1.25544647       1.12316275      17.86068650
30
Lattice="6.933200436225863 0.0 0.0 -3.46660021811293 6.0043277073009484 0.0 0.0 0.0 5.455197903576843" Properties=species:S:1:pos:R:3:cs_iso:R:1 #=T CELL(abcABC):=T 13.10185=T 10.30883=T 90.00000=T 120.00000=T Step:=T 6400=T Bead:=T 0=T positionsatomic_unit=T cellatomic_unit=T pbc="T T T"
O        4.87064230       3.12190212       0.02455134    -283.45386170
O        1.36249373       2.87548546       1.84229342    -111.91761237
O        0.58091487       5.82592358       3.69131797      61.75863474
O        6.04987138       1.24797449       5.42232012      52.45797107
O        2.70124328       4.59435888       1.78470835    -136.55588144
O        1.71462941       0.23582200       3.59808223      25.61378391
C        5.44189968       2.29807904       4.89640794       4.69210227
C        2.07692530       3.71913681       1.25543060      -2.54510565
C        2.91028945       0.02403190       3.07415975     -20.20821894
C       -1.27608438       2.55635985       3.37093821     120.44715425
C        1.95696612       3.57220018       5.19081568     135.47660292
C       -0.60711443       5.92921897       1.57198441      81.57194457
N        6.16375031       1.31092012       2.73583030     150.00399889
N        2.77231178       4.58711973       4.50318693     220.01471436
N        1.54766871       0.22294977       0.85225048     210.99627607
H       -0.54175575       3.34501911       3.22257279      26.95385799
H        0.96593362       3.76561974       4.95682410      28.86410806
H       -0.31380949       4.80096024       1.21146126      22.95439864
H        4.73400345       2.84624313       2.91139013      28.65491272
H        2.21275451       2.70506923       4.79526630      29.85948529
H        3.75298299       0.55191066       0.98276675      22.12110853
H        5.96245130       1.46285748       1.69132974      19.72330462
H        2.78205393       4.58237301       3.27388182       9.32213253
H       -1.82385424       5.98994213       5.24945910      16.93575319
H        0.19449538       1.02908563       3.07672626      20.89699512
H        2.82164168       5.51053396       4.78092559      28.54020610
H       -2.60420806       5.72051148       1.22692911      32.27833092
H        5.36665068       0.49370011       2.88703740      15.41597252
H        3.75933841       4.13083668       4.77282918      17.00873498
H        1.25937297       1.21381610       1.26397681      17.49622364
30
Lattice="6.933200436225863 0.0 0.0 -3.46660021811293 6.0043277073009484 0.0 0.0 0.0 5.455197903576843" Properties=species:S:1:pos:R:3:cs_iso:R:1 #=T CELL(abcABC):=T 13.10185=T 10.30883=T 90.00000=T 120.00000=T Step:=T 6600=T Bead:=T 0=T positionsatomic_unit=T cellatomic_unit=T pbc="T T T"
O        5.03738075       3.17858758       0.21030243      19.00342202
O        1.59200318       2.65281298       1.81653836     -51.09530542
O        3.78318472       0.07041500       3.63155798       2.83694675
O        5.97832662       1.15827895       5.40469852      14.28195179
O        2.83007147       4.51695083       1.78450197      21.34885698
O        1.54704958       0.21842636       3.53533240    -205.15939317
C        5.57594027       2.28702453       4.90160446     -14.32542229
C        2.12577894       3.59958510       1.19885626     -13.23668975
C        2.62289330       0.13062422       3.06475098      -9.43377865
C       -1.29924118       2.53446250       3.39448659     104.00589056
C        1.85507305       3.78082829       5.20788693     135.58302959
C       -0.71648478       5.92313344       1.57453504     122.10375697
N       -0.79532689       1.38777253       2.74974237     165.71807539
N        2.90945864       4.53991712       4.50779078     200.87362195
N        1.54266799       0.17706005       0.81790159     247.46814227
H       -0.75945926       3.45527847       3.22419208      26.98395138
H        0.97320452       4.38164551       4.76625151      24.73366303
H       -0.40151480       4.83528797       1.55716215      27.76291281
H        4.54238838       2.87170184       2.96049778      24.39848476
H        1.77160592       2.93883856       4.84406702      29.18344864
H        3.62308586       0.36946729       1.25586452      29.12881233
H        5.90059049       1.45441181       1.71695779      19.49907835
H        2.74930316       4.53458831       3.45164832      19.33734072
H       -1.80202039       5.91091576       5.24012441      17.56580226
H        0.20939331       1.14449918       2.82325567      21.36334378
H        2.78283711       5.52127626       4.82880555      22.90025996
H       -2.64696557       5.64965465       1.13090991      29.70059295
H        5.64378079       0.45092460       3.21113727      17.05946590
H        3.93612064       4.02271519       4.72147783      14.28551033
H        1.41372867       1.20996898       0.94945504      20.44522403
30
Lattice="6.933200436225863 0.0 0.0 -3.46660021811293 6.0043277073009484 0.0 0.0 0.0 5.455197903576843" Properties=species:S:1:pos:R:3:cs_iso:R:1 #=T CELL(abcABC):=T 13.10185=T 10.30883=T 90.00000=T 120.00000=T Step:=T 6800=T Bead:=T 0=T positionsatomic_unit=T cellatomic_unit=T pbc="T T T"
O       -1.85385594       3.48632001       0.00405848       0.69641749
O        1.39553556       2.73659232       1.88225159     -80.71633122
O        0.38739635       5.98652887       3.64715813     -67.38921962
O        5.97896163       1.37169083       5.39300371     -52.95106607
O        2.90859608       4.39830401       1.76523463      58.52129650
O       -1.81533449       5.93213418       3.57128470    -136.71580164
C       -1.33265343       2.46125612       4.88323672     -19.89346981
C        2.01020664       3.59871725       1.24320660      -9.01273185
C        2.74647206       0.00432804       3.03740310     -11.29552726
C       -1.09531216       2.50982930       3.38034698     123.81989492
C        1.72212786       3.68765606       5.24661212     142.79048342
C       -0.63713995       5.83121535       1.55679173     150.25862494
N        5.90609393       1.25549410       2.71613433     210.25658830
N        2.72288134       4.56226957       4.64062484     175.77766919
N        1.59495070       0.24575043       0.93526780     241.43317393
H       -0.17545453       2.96657803       3.29660998      26.81889772
H        0.84804881       4.15749663       5.27778595      27.74681204
H       -0.31318559       4.81386158       1.49613214      27.67685646
H       -1.77787139       3.26726181       3.02021014      27.61048584
H        1.63777701       2.75804516       4.74498388      28.45703842
H        3.59399699       0.29022989       1.10686410      29.83398030
H        6.07701817       1.24559319       1.66974460      20.97426116
H        2.52481031       4.69418287       3.60099271      21.63273770
H        1.65697556       0.18601796       5.27952694      15.22520844
H        0.17741671       0.76397843       2.90774940      10.60585624
H        2.74007430       5.59335020       4.92147506      20.82381579
H       -2.60061494       5.59213309       1.19890918      25.07720198
H        5.07461895       0.56600794       3.04428241      15.62312661
H        3.64366556       4.00497717       4.90517111      17.20902850
H        1.47719818       1.20135927       1.00999292      28.18288158
30
Lattice="6.933200436225863 0.0 0.0 -3.46660021811293 6.0043277073009484 0.0 0.0 0.0 5.455197903576843" Properties=species:S:1:pos:R:3:cs_iso:R:1 #=T CELL(abcABC):=T 13.10185=T 10.30883=T 90.00000=T 120.00000=T Step:=T 7000=T Bead:=T 0=T positionsatomic_unit=T cellatomic_unit=T pbc="T T T"
O        4.92477183       3.09068067       0.20121434    -168.62935591
O        1.65215475       2.63200044       2.04502650     -57.60405617
O        3.90898020       0.09862014       3.65651927    -158.56986751
O        6.16380323       1.33252113       5.33532339       7.15023742
O        2.87845415       4.41990503       1.70389241    -180.99589158
O        1.75153952       0.31464612       3.60121496     -12.30881176
C        5.44258761       2.30932406       4.91199750      -3.48994924
C        2.15955103       3.51126013       1.33977086       8.62391241