30
Lattice="6.933200436225863 0.0 0.0 -3.46660021811293 6.0043277073009484 0.0 0.0 0.0 5.455197903576843" Properties=species:S:1:pos:R:3 #=T CELL(abcABC):=T 13.10185=T 10.30883=T 90.00000=T 120.00000=T Step:=T 4600=T Bead:=T 0=T positionsatomic_unit=T cellatomic_unit=T pbc="T T T"
O        5.25404177       3.59198082      -0.11084781
O        1.54839369       2.53756877       1.80548385
O        0.41802989       6.20169232       3.70851093
O        5.99822368       1.43066763       5.46793520
O        2.65398776       4.46292184       1.86770980
O        1.63861311       0.16692631       3.60851232
C        5.61388227       2.56931940       4.79059366
C        1.96924832       3.52392334       1.27836514
C        2.77585198       0.00955112       3.10648190
C       -1.18767475       2.47259110       3.35052255
C        1.77362738       3.69989064       5.27475906
C       -0.71492900       5.58398376       1.53351322
N        6.11882317       1.19876630       2.62690447
N        2.84055977       4.54274822       4.62161150
N        1.49759267      -0.04937742       0.93191282
H       -0.30948717       3.29931936       3.12473322
H        0.80223265       4.22109315       5.08011710
H       -0.56670646       4.44954424       1.50340833
H        4.77181845       3.06142246       3.01742666
H        1.42273526       2.69912128       4.87393907
H        3.43806963       0.18352395       0.80987926
H        6.02928638       1.22456369       1.57148698
H        2.75806633       4.64277330       3.64150122
H        1.40474853      -0.15235859       5.52958434
H        0.01468319       0.83924331       2.87664436
H        2.73141697       5.43279783       5.12910832
H       -2.66034317       5.42872317       1.44296042
H        5.37622879       0.58884194       2.88579912
H        3.69854653       4.12062885       4.74043295
H        1.32777971       1.07008628       1.28643509
30
Lattice="6.933200436225863 0.0 0.0 -3.46660021811293 6.0043277073009484 0.0 0.0 0.0 5.455197903576843" Properties=species:S:1:pos:R:3 #=T CELL(abcABC):=T 13.10185=T 10.30883=T 90.00000=T 120.00000=T Step:=T 4800=T Bead:=T 0=T positionsatomic_unit=T cellatomic_unit=T pbc="T T T"
O        5.07911695       3.15303362       0.10197086
O        1.46986908       2.84525357       1.91512408
O        0.26853256       5.97938497       3.89676043
O        6.07797069       1.16207315       5.33315376
O        2.92403747       4.50752619       1.71709538
O        1.52528452      -0.10718802       3.56269615
C        5.63991779       2.26726505       4.92622178
C        2.11796299       3.65450311       1.21239262
C        2.64694970      -0.07847063       3.15084282
C       -1.13972600       2.69697811       3.45595053
C        1.97217467       3.56538437       5.19800720
C       -0.56897134       6.02510588       1.58158897
N        5.91477244       1.44357426       2.65409888
N        2.82195389       4.45190966       4.43240419
N        1.58804493       0.29168407       0.94291970
H       -0.17533811       3.44156220       3.19158418
H        0.94686207       3.83210027       4.81560787
H       -0.14454211       5.10469738       1.15240509
H        4.89155538       3.27873437       3.35824325
H        2.25043192       2.57478580       4.75310146
H        3.59904004       0.86372833       1.08120429
H        6.04061078       1.69837309       1.70889313
H        2.93146183       4.38328067       3.19190697
H        1.62206044       0.26218349       5.42126177
H       -0.24952558       0.89002315       2.98684022
H        2.76215687       5.45237739       4.72663201
H       -2.59413252       5.79168582       1.44616194
H        5.07365584       0.81159909       2.56247185
H        3.83140705       4.30072373       4.70947609
H        1.37830025       1.31675165       1.23122603
30
Lattice="6.933200436225863 0.0 0.0 -3.46660021811293 6.0043277073009484 0.0 0.0 0.0 5.455197903576843" Properties=species:S:1:pos:R:3 #=T CELL(abcABC):=T 13.10185=T 10.30883=T 90.00000=T 120.00000=T Step:=T 5000=T Bead:=T 0=T positionsatomic_unit=T cellatomic_unit=T pbc="T T T"
O        5.15521263       3.48421388      -0.00630001
O        1.57171982       2.74919203       1.76917700
O        0.28926837       5.69902689       3.63876009
O        6.03822948       1.47702355       5.63494353
O        2.80933302       4.56405290       1.82894228
O        1.56661326       0.28097617       3.56384976
C        5.57879782       2.40869824       5.04024359
C        2.07174465       3.67700901       1.19537957
C        2.60908707      -0.17520422       3.04003311
C       -1.27880436       2.32207723       3.39982599
C        1.96029993       3.72247063       5.19653608
C       -0.80220090       5.68516244       1.52487705
N        6.10707543       1.05935986       2.79526220
N        2.83910982       4.72718765       4.48670306
N        1.47867459       0.03714671       0.87286193
H       -0.52113689       3.13124210       3.02869814
H        0.90040561       4.01477754       5.02602989
H       -0.71157401       4.64766290       1.26484466
H        4.83866412       2.50926308       2.92772054
H        2.12311189       2.56539291       4.83445187
H        3.55328738       0.28955624       1.09297319
H        6.13342846       1.48169619       1.77422535
H        2.82454157       4.60686333       3.51349855
H        1.71489400       0.05902390       5.36760320
H        0.25388547       0.93410890       3.02184000
H        2.92448727       5.69283551       4.84983505
H       -2.67706517       5.53096020       1.23345387
H        5.53932120       0.17590750       2.86757955
H        3.94191513       4.50308639       4.72890218
H        1.31570388       1.24342357       1.08839581
30
Lattice="6.933200436225863 0.0 0.0 -3.46660021811293 6.0043277073009484 0.0 0.0 0.0 5.455197903576843" Properties=species:S:1:pos:R:3 #=T CELL(abcABC):=T 13.10185=T 10.30883=T 90.00000=T 120.00000=T Step:=T 5200=T Bead:=T 0=T positionsatomic_unit=T cellatomic_unit=T pbc="T T T"
O        5.03141692       3.57650768      -0.04285970
O        1.38207329       2.74987467       1.96225789
O        0.64366999       5.80459774       3.74451615
O        5.74903413       1.48480775       5.47888917
O        2.74259848       4.42719180       1.69926740
O        1.93312668       0.07978775       3.61547100
C        5.44729729       2.55259211       4.85574067
C        1.94677416       3.51552530       1.26644278
C        3.04121318      -0.05262498       3.03354011
C       -1.28408554       2.66085118       3.35079243
C        1.75584174       3.44954748       5.18472485
C       -0.46733862       5.95779454       1.56865059
N        5.88667313       1.39646162       2.78052990
N        2.74838239       4.34474599       4.44490336
N        1.77105029       0.20199964       0.94569788
H       -0.51375646       3.27460679       3.28878874
H        0.63691240       3.81907193       5.01004874
H       -0.25619903       4.85431189       1.39086821
H        4.84823693       3.22694909       2.83011910
H        1.70371778       2.40751818       4.68650450
H        3.91930338       0.68313074       1.10420763
H        5.61255933       1.45910032       1.59220956
H        2.69888315       4.27283609       3.28743404
H        1.93655046       0.30847115       5.30854702
H       -0.09137991       1.13405851       2.93080035
H        2.73374535       5.35590838       4.94208651
H       -2.54979276       5.51873621       1.21000073
H        5.15324410       0.54852922       3.25954641
H        3.83848215       4.07587105       4.69087022
H        1.26394506       1.08469157       1.21651491
30
Lattice="6.933200436225863 0.0 0.0 -3.46660021811293 6.0043277073009484 0.0 0.0 0.0 5.455197903576843" Properties=species:S:1:pos:R:3 #=T CELL(abcABC):=T 13.10185=T 10.30883=T 90.00000=T 120.00000=T Step:=T 5400=T Bead:=T 0=T positionsatomic_unit=T cellatomic_unit=T pbc="T T T"
O        5.21155413       3.34073277       0.11665130
O        1.23960291       2.85945139       1.73071640
O        0.35992200       5.84142847       3.70689165
O        5.83624254       1.16990498       5.50518927
O        2.92557208       4.31381558       1.77405072
O        1.64698469       0.41026210       3.54768340
C        5.64473331       2.36253282       4.97278408
C        2.08296850       3.57885723       1.19353803
C        2.75526169       0.01809479       3.11984891
C       -1.22507170       2.56259885       3.44027101
C        1.93084593       3.71248505       5.07083533
C       -0.58163984       5.98086667       1.60458172
N        5.87249118       1.31218485       2.64519283
N        2.99853504       4.54826754       4.58495011
N        1.55655889       0.23587757       0.86450623
H       -0.33907083       3.13608407       3.46412102
H        0.96000684       4.28298042       4.93957292
H       -0.40107717       4.95339503       1.24881588
H        4.73433683       3.10872561       2.99621195
H        1.95188602       2.62790990       4.46770560
H        3.54086230       0.81801801       1.12791477
H        5.89048320       1.48970793       1.67036374
H        2.71843096       4.62325195       3.54539206
H        1.61700680       0.21661922       5.23160466
H       -0.06048866       1.19460697       2.96717070
H        2.94369111       5.41766336       4.89214277
H       -2.47673456       5.39670795       1.13090462
H        5.36723278       0.40681186       2.71918768
H        3.83172985       4.24221790       4.79604948
H        1.23946532       1.11886054       1.24924981
30
Lattice="6.933200436225863 0.0 0.0 -3.46660021811293 6.0043277073009484 0.0 0.0 0.0 5.455197903576843" Properties=species:S:1:pos:R:3 #=T CELL(abcABC):=T 13.10185=T 10.30883=T 90.00000=T 120.00000=T Step:=T 5600=T Bead:=T 0=T positionsatomic_unit=T cellatomic_unit=T pbc="T T T"
O        5.18168737       3.19561651       0.13415912
O        1.56672968       2.95547589       1.97868884
O        0.15931092       5.92292176       3.67569136
O        6.10622875       1.13325946       5.48650932
O        3.05927400       4.65455808       1.60958774
O        1.39629228       0.21801307       3.54844012
C        5.70945168       2.24934182       5.00027484
C        2.19138633       3.75081336       1.25546764
C        2.52667830      -0.03481880       3.05696679
C       -1.11847424       2.34698560       3.41779156
C        1.96235314       3.71922148       5.19198516
C       -0.72874052       5.88783732       1.51968582
N        5.83587211       1.10510194       2.73071845
N        2.98639571       4.50153590       4.53393213
N        1.58421369       0.48224078       0.83213116
H       -0.24946684       2.70953549       3.14855149
H        1.04609868       4.29149488       4.91664367
H       -0.99578980       4.79301729       1.21714992
H        4.84264882       2.91059108       3.00237157
H        1.77604043       2.71668467       4.71283107
H        3.64949180       0.36115128       1.13062944
H        5.60462167       1.05647584       1.68552996
H        2.94514635       4.50413945       3.36982694
H        1.55671764       0.72097749       5.13802496
H       -0.26536650       0.57434249       2.94601949
H        2.92274099       5.58054411       4.85281432
H       -2.84072381       5.99457236       0.94839140
H        4.98769101       0.57662324       3.05483420
H        3.94461393       4.13672642       4.98781272
H        1.37621000       1.40677528       1.31040682
30
Lattice="6.933200436225863 0.0 0.0 -3.46660021811293 6.0043277073009484 0.0 0.0 0.0 5.455197903576843" Properties=species:S:1:pos:R:3 #=T CELL(abcABC):=T 13.10185=T 10.30883=T 90.00000=T 120.00000=T Step:=T 5800=T Bead:=T 0=T positionsatomic_unit=T cellatomic_unit=T pbc="T T T"
O        4.96020554       3.43540258       0.10693931
O        1.41296136       2.89060935       1.83614438
O        0.48821942       5.57403523       3.73951014
O        5.67087466       1.24299493       5.62552417
O        2.82559463       4.67214793       1.66126189
O        1.93874655       0.39626642       3.54863592
C        5.39871882       2.35317168       4.98414023
C        2.05724520       3.70024519       1.22416681
C        2.93870097      -0.03826300       3.04860579
C       -1.35875774       2.50119842       3.46532755
C        1.91122933       3.64651782       5.10829578
C       -0.51183713       5.64727336       1.43657325
N        6.02473546       1.44394469       2.84950815
N        2.84352845       4.53043427       4.48310995
N        1.64637085      -0.00517641       0.83222642
H       -1.01588795       3.47651435       3.11259389
H        1.02496334       4.19221066       4.59448059
H       -0.33090033       4.55569719       1.16921175
H        4.42076758       2.59456116       3.21474097
H        2.08410623       2.68742646       4.73082310
H        3.78675508       0.33050398       1.14268939
H        5.94615264       1.52579782       1.82598947
H        2.69288757       4.69181744       3.39093581
H        1.67017324       0.03874217       5.20573847
H        0.12466463       1.13447656       3.16780295
H        2.75499181       5.57086017       4.95776603
H       -2.47272869       5.21627439       1.05330607
H        5.46248467       0.52428179       3.06720636
H        3.77814536       4.03006547       4.60332314
H        1.31692628       0.82826817       1.05540690
30
Lattice="6.933200436225863 0.0 0.0 -3.46660021811293 6.0043277073009484 0.0 0.0 0.0 5.455197903576843" Properties=species:S:1:pos:R:3 #=T CELL(abcABC):=T 13.10185=T 10.30883=T 90.00000=T 120.00000=T Step:=T 6000=T Bead:=T 0=T positionsatomic_unit=T cellatomic_unit=T pbc="T T T"
O        5.09208179       3.30187000      -0.00437481
O        1.42592620       2.82545705       1.74543282
O        0.28310346       6.04299207       3.89268577
O        6.18211276       1.38697876       5.26543496
O        2.79489706       4.55374982       1.72070966
O        1.60402609      -0.00085411       3.82809969
C        5.64986632       2.40478233       4.77981961
C        2.16260438       3.70304453       1.19543249
C        2.69194035       0.02032670       3.21304231
C       -1.10285293       2.57417725       3.16116178
C        2.09192747       3.59789173       5.13880285
C       -0.78138836       5.79512547       1.75926551
N        5.86370683       1.24470418       2.63791135
N        3.06025827       4.49297911       4.45233300
N        1.48371765       0.20893292       1.01128940
H       -0.33581374       3.22739889       2.97137766
H        1.07771702       3.91125989       4.87065817
H       -0.78775436       4.56394706       1.48353773
H        4.82207441       3.02113090       2.87342696
H        2.43200321       2.57696601       4.72761628
H        3.53480322       0.10116069       1.17847236
H        5.77798013       1.40354201       1.62139368
H        2.98383979       4.30090365       3.34670718
H        1.33012925       0.13545667       5.35532629
H       -0.07777476       0.78610333       2.82992330
H        2.91554418       5.50032084       4.80363788
H       -2.53915630       5.52053541       1.47624037
H        5.01246708       0.60991378       2.91568705
H        3.88302299       4.10444661       4.87405020
H        1.26287612       1.19913673       1.13069824
30
Lattice="6.933200436225863 0.0 0.0 -3.46660021811293 6.0043277073009484 0.0 0.0 0.0 5.455197903576843" Properties=species:S:1:pos:R:3 #=T CELL(abcABC):=T 13.10185=T 10.30883=T 90.00000=T 120.00000=T Step:=T 6200=T Bead:=T 0=T positionsatomic_unit=T cellatomic_unit=T pbc="T T T"
O        5.28672905       3.40844100       0.08802492
O        1.53175635       2.53384865       1.93951385
O        0.44981015       5.89768001       3.65293674
O        5.94879853       1.29864321       5.30643031
O        2.94007154       4.29971830       1.85939642
O        1.56929619       0.08313639       3.61206310
C        5.50042668       2.46554775       4.81746528
C        2.10281265       3.48067369       1.42408467
C        2.75443617       0.15968504       3.09725305
C       -1.45999463       2.65579225       3.25855684
C        1.77047349       3.71162250       5.33860429
C       -0.50311153       6.03976409       1.51883385
N        5.82772278       1.33275397       2.71839391
N        2.76661783       4.45162391       4.52957700
N        1.68235490       0.27316763       0.96122394
H       -0.55922918       3.35671922       2.88594729
H        0.73460380       4.27567778       5.16318734
H       -0.35361262       4.82687934       1.28989062
H        4.49220651       2.84103073       2.96671032
H        1.68121187       2.69160696       4.91701410
H        3.80655160       0.79037379       1.05668751
H        5.80512692       1.48943805       1.65982253
H        2.72734230       4.26686168       3.43767275
H        1.72108538       0.16004859       5.45184821
H       -0.09129789       0.95347150       3.01290749
H        2.57922560       5.40528062       4.58464847
H       -2.58586677       5.68373367       1.05991549
H        5.11601119       0.57888283       2.91732221
H        3.82795152       4.30689923       4.80995626
H        1.41829547       1.25544647       1.12316275
30
Lattice="6.933200436225863 0.0 0.0 -3.46660021811293 6.0043277073009484 0.0 0.0 0.0 5.455197903576843" Properties=species:S:1:pos:R:3 #=T CELL(abcABC):=T 13.10185=T 10.30883=T 90.00000=T 120.00000=T Step:=T 6400=T Bead:=T 0=T positionsatomic_unit=T cellatomic_unit=T pbc="T T T"
O        4.87064230       3.12190212       0.02455134
O        1.36249373       2.87548546       1.84229342
O        0.58091487       5.82592358       3.69131797
O        6.04987138       1.24797449       5.42232012
O        2.70124328       4.59435888       1.78470835
O        1.71462941       0.23582200       3.59808223
C        5.44189968       2.29807904       4.89640794
C        2.07692530       3.71913681       1.25543060
C        2.91028945       0.02403190       3.07415975
C       -1.27608438       2.55635985       3.37093821
C        1.95696612       3.57220018       5.19081568
C       -0.60711443       5.92921897       1.57198441
N        6.16375031       1.31092012       2.73583030
N        2.77231178       4.58711973       4.50318693
N        1.54766871       0.22294977       0.85225048
H       -0.54175575       3.34501911       3.22257279
H        0.96593362       3.76561974       4.95682410
H       -0.31380949       4.80096024       1.21146126
H        4.73400345       2.84624313       2.91139013
H        2.21275451       2.70506923       4.79526630
H        3.75298299       0.55191066       0.98276675
H        5.96245130       1.46285748       1.69132974
H        2.78205393       4.58237301       3.27388182
H        1.64274598      -0.01438558       5.24945910
H        0.19449538       1.02908563       3.07672626
H        2.82164168       5.51053396       4.78092559
H       -2.60420806       5.72051148       1.22692911
H        5.36665068       0.49370011       2.88703740
H        3.75933841       4.13083668       4.77282918
H        1.25937297       1.21381610       1.26397681
30
Lattice="6.933200436225863 0.0 0.0 -3.46660021811293 6.0043277073009484 0.0 0.0 0.0 5.455197903576843" Properties=species:S:1:pos:R:3 #=T CELL(abcABC):=T 13.10185=T 10.30883=T 90.00000=T 120.00000=T Step:=T 6600=T Bead:=T 0=T positionsatomic_unit=T cellatomic_unit=T pbc="T T T"
O        5.03738075       3.17858758       0.21030243
O        1.59200318       2.65281298       1.81653836
O        0.31658450       6.07474271       3.63155798
O        5.97832662       1.15827895       5.40469852
O        2.83007147       4.51695083       1.78450197
O        1.54704958       0.21842636       3.53533240
C        5.57594027       2.28702453       4.90160446
C        2.12577894       3.59958510       1.19885626
C        2.62289330       0.13062422       3.06475098
C       -1.29924118       2.53446250       3.39448659
C        1.85507305       3.78082829       5.20788693
C       -0.71648478       5.92313344       1.57453504
N        6.13787355       1.38777253       2.74974237
N        2.90945864       4.53991712       4.50779078
N        1.54266799       0.17706005       0.81790159
H       -0.75945926       3.45527847       3.22419208
H        0.97320452       4.38164551       4.76625151
H       -0.40151480       4.83528797       1.55716215
H        4.54238838       2.87170184       2.96049778
H        1.77160592       2.93883856       4.84406702
H        3.62308586       0.36946729       1.25586452
H        5.90059049       1.45441181       1.71695779
H        2.74930316       4.53458831       3.45164832
H        1.66457983      -0.09341195       5.24012441
H        0.20939331       1.14449918       2.82325567
H        2.78283711       5.52127626       4.82880555
H       -2.64696557       5.64965465       1.13090991
H        5.64378079       0.45092460       3.21113727
H        3.93612064       4.02271519       4.72147783
H        1.41372867       1.20996898       0.94945504
30
Lattice="6.933200436225863 0.0 0.0 -3.46660021811293 6.0043277073009484 0.0 0.0 0.0 5.455197903576843" Properties=species:S:1:pos:R:3 #=T CELL(abcABC):=T 13.10185=T 10.30883=T 90.00000=T 120.00000=T Step:=T 6800=T Bead:=T 0=T positionsatomic_unit=T cellatomic_unit=T pbc="T T T"
O        5.07934450       3.48632001       0.00405848
O        1.39553556       2.73659232       1.88225159
O        0.38739635       5.98652887       3.64715813
O        5.97896163       1.37169083       5.39300371
O        2.90859608       4.39830401       1.76523463
O        1.65126573      -0.07219353       3.57128470
C        5.60054701       2.46125612       4.88323672
C        2.01020664       3.59871725       1.24320660
C        2.74647206       0.00432804       3.03740310
C       -1.09531216       2.50982930       3.38034698
C        1.72212786       3.68765606       5.24661212
C       -0.63713995       5.83121535       1.55679173
N        5.90609393       1.25549410       2.71613433
N        2.72288134       4.56226957       4.64062484
N        1.59495070       0.24575043       0.93526780
H       -0.17545453       2.96657803       3.29660998
H        0.84804881       4.15749663       5.27778595
H       -0.31318559       4.81386158       1.49613214
H        5.15532905       3.26726181       3.02021014
H        1.63777701       2.75804516       4.74498388
H        3.59399699       0.29022989       1.10686410
H        6.07701817       1.24559319       1.66974460
H        2.52481031       4.69418287       3.60099271
H        1.65697556       0.18601796       5.27952694
H        0.17741671       0.76397843       2.90774940
H        2.74007430       5.59335020       4.92147506
H       -2.60061494       5.59213309       1.19890918
H        5.07461895       0.56600794       3.04428241
H        3.64366556       4.00497717       4.90517111
H        1.47719818       1.20135927       1.00999292
30
Lattice="6.933200436225863 0.0 0.0 -3.46660021811293 6.0043277073009484 0.0 0.0 0.0 5.455197903576843" Properties=species:S:1:pos:R:3 #=T CELL(abcABC):=T 13.10185=T 10.30883=T 90.00000=T 120.00000=T Step:=T 7000=T Bead:=T 0=T positionsatomic_unit=T cellatomic_unit=T pbc="T T T"
O        4.92477183       3.09068067       0.20121434
O        1.65215475       2.63200044       2.04502650
O        0.44237998       6.10294785       3.65651927
O        6.16380323       1.33252113       5.33532339
O        2.87845415       4.41990503       1.70389241
O        1.75153952       0.31464612       3.60121496
C        5.44258761       2.30932406       4.91199750
C        2.15955103       3.51126013       1.33977086
C        2.89424479       0.07317462       3.02489335
C       -1.59574975       2.49137689       3.41872820
C        1.81301404       3.61432797       5.31696094
C       -0.62455611       5.85068908       1.56522681
N        6.03870574       1.48106647       2.61316703
N        2.76832708       4.52732800       4.51480767
N        1.51586516       0.07315134       0.85230869
H       -1.05326903       3.37654219       3.09006682
H        0.95837168       4.25965429       5.38559523
H       -0.41384357       4.87599228       1.36691236
H        4.13855209       2.68329359       3.08437816
H        1.64662485       2.73181385       4.61737279
H        3.70483844       0.40266258       1.11301314
H        6.15877605       1.54065182       1.62531488
H        2.50828410       4.34045965       3.52432551
H        1.63332663       0.07738053       5.15713884
H       -0.14757959       1.18817217       3.19324050
H        2.60873781       5.44020631       4.92051725
H       -2.55456065       5.23900255       1.07122930
H        5.34474274       0.62668870       2.62296739
H        3.68467150       4.21869068       4.89705882
H        1.21636144       1.01119944       1.15916797
30
Lattice="6.933200436225863 0.0 0.0 -3.46660021811293 6.0043277073009484 0.0 0.0 0.0 5.455197903576843" Properties=species:S:1:pos:R:3 #=T CELL(abcABC):=T 13.10185=T 10.30883=T 90.00000=T 120.00000=T Step:=T 7200=T Bead:=T 0=T positionsatomic_unit=T cellatomic_unit=T pbc="T T T"
O        4.87711943       3.29209080       0.19472610
O        1.89340135       2.81776810       1.80178490
O        0.31309563       5.56207582       3.58052413
O        6.02314793       1.39103755       5.61298267
O        2.59323292       4.87810370       1.43007495
O        1.56825900       0.15611098       3.56926324
C        5.53768076       2.36451724       5.05925693
C        2.20338278       3.84966895       1.17527613
C        2.71400174      -0.18608675       3.05499295
C       -1.34197753       2.55073999       3.53961874
C        2.01475227       3.60134197       5.09705606
C       -0.82761199       5.56715593       1.50578434
N        5.99891161       1.29700276       2.87859173
N        2.74476281       4.55747522       4.48926957
N        1.66540006       0.35409311       0.81307549
H       -0.69839221       3.37805035       3.17123202
H        0.92897059       3.63665396       4.98481757
H       -1.00149962       4.51759643       1.16065496
H        4.50967465       2.65529482       3.18735605
H        2.23242402       2.49454666       4.79140330
H        3.56733175      -0.30760489       0.96536740
H        5.88482101       1.35871011       1.57890604
H        2.53870650       4.60344485       3.50647637
H        1.73831539       0.12404866       5.22335478
H        0.00763328       0.87697893       3.23235728
H        2.61067989       5.58795259       4.98866469
H       -2.68504517       5.98107834       1.05303619
H        5.19626620       0.62351892       2.99066088
H        3.98705394       4.41174511       4.73777648
H        1.55217201       1.41575542       1.11321422
30
Lattice="6.933200436225863 0.0 0.0 -3.46660021811293 6.0043277073009484 0.0 0.0 0.0 5.455197903576843" Properties=species:S:1:pos:R:3 #=T CELL(abcABC):=T 13.10185=T 10.30883=T 90.00000=T 120.00000=T Step:=T 7400=T Bead:=T 0=T positionsatomic_unit=T cellatomic_unit=T pbc="T T T"
O        5.06539009       3.52880765      -0.18134956
O        1.65431380       2.59632332       1.91454727
O        0.34258298       5.71363218       3.70225606
O        5.80089350       1.40404473       5.27867497
O        2.83746937       4.50551002       1.92119374
O        1.64522782       0.31052754       3.54523331
C        5.43872462       2.47811571       4.69091784
C        2.14439539       3.55311805       1.37284973
C        2.81978956      -0.15673806       3.11609705
C       -1.17940900       2.54897254       3.18858903
C        1.91321904       3.65052370       5.38559523
C       -0.53066949       5.81391126       1.48328901
N        5.93276446       1.23957116       2.54621553
N        2.66763524       4.69300280       4.68434017
N        1.61248234       0.18033513       0.86192384
H       -0.24953351       3.07214359       2.95393598
H        0.93439466       4.00808874       5.07978901
H       -0.12865780       4.66145855       1.33413512
H        4.86817633       3.14620194       2.67136594
H        1.99219344       2.62790990       4.97919242
H        3.63090710       0.64613067       1.27269765
H        5.99965246       1.41669735       1.51467981
H        2.88332787       4.65684412       3.62279481
H        1.54277382       0.08924150       5.36416355
H       -0.06934497       0.84584744       2.90996665
H        2.34192666       5.55281522       4.81946028
H       -2.72946430       5.52550968       1.02216399
H        5.29251295       0.56200736       3.16622071
H        3.74820981       4.60168798       4.84804643
H        1.50433439       1.23207801       1.33896122
30
Lattice="6.933200436225863 0.0 0.0 -3.46660021811293 6.0043277073009484 0.0 0.0 0.0 5.455197903576843" Properties=species:S:1:pos:R:3 #=T CELL(abcABC):=T 13.10185=T 10.30883=T 90.00000=T 120.00000=T Step:=T 7600=T Bead:=T 0=T positionsatomic_unit=T cellatomic_unit=T pbc="T T T"
O        5.31383880       3.43231218       0.07454519
O        1.28539790       2.79012389       1.86904862
O        0.28947052       6.02542339       3.59837857
O        5.92091089       1.24759348       5.40993738
O        3.01605080       4.26869793       1.81242136
O        1.52067009       0.29958680       3.37038257
C        5.74718201       2.41126475       4.98226694
C        2.12244512       3.54760931       1.34118376
C        2.65412534       0.01154622       2.96916570
C       -1.22047844       2.64528279       3.42458090
C        1.78317903       3.66567933       5.28906272
C       -0.65122664       5.77776846       1.35507996
N        5.96229255       1.39937738       2.77727017
N        2.81573077       4.39111779       4.56424869
N        1.55408234       0.18644765       0.83382982
H       -0.47592029       3.21017946       3.02081340
H        0.64640055       4.16189938       5.41316536
H       -0.48955613       4.57849944       1.14250418
H        4.72373212       2.85707539       3.01873902
H        1.75552952       2.80410475       4.68807616
H        3.61675690       0.60039917       1.10447222
H        5.83920593       1.32857876       1.70885609