30
Lattice="13.10185 0.0 0.0 -6.550924999999998 11.346534936573148 0.0 0.0 0.0 10.30883" Properties=species:S:1:pos:R:3 #=T CELL(abcABC):=T 13.10185=T 10.30883=T 90.00000=T 120.00000=T Step:=T 4600=T Bead:=T 0=T positionsatomic_unit=T cellatomic_unit=T pbc="T T T"
O        9.92870000       6.78786000      -0.20947200
O        2.92604000       4.79531000       3.41187000
O        0.78996200      11.71950000       7.00807000
O       11.33500000       2.70357000      10.33290000
O        5.01531000       8.43370000       3.52946000
O        3.09653000       0.31544500       6.81910000
C       10.60870000       4.85531000       9.05291000
C        3.72134000       6.65925000       2.41576000
C        5.24560000       0.01804900       5.87040000
C       -2.24438000       4.67252000       6.33157000
C        3.35167000       6.99178000       9.96785000
C       -1.35102000      10.55220000       2.89792000
N       11.56290000       2.26534000       4.96413000
N        5.36788000       8.58455000       8.73358000
N        2.83004000      -0.09330980       1.76106000
H       -0.58484600       6.23481000       5.90489000
H        1.51600000       7.97671000       9.60003000
H       -1.07092000       8.40842000       2.84103000
H        9.01743000       5.78525000       5.70211000
H        2.68858000       5.10060000       9.21041000
H        6.49701000       0.34681000       1.53045000
H       11.39370000       2.31409000       2.96968000
H        5.21199000       8.77357000       6.88144000
H        2.65459000      -0.28791600      10.44940000
H        0.02774720       1.58594000       5.43607000
H        5.16163000      10.26650000       9.69261000
H       -5.02732000      10.25880000       2.72680000
H       10.15960000       1.11275000       5.45337000
H        6.98924000       7.78686000       8.95812000
H        2.50914000       2.02217000       2.43101000
30
Lattice="13.10185 0.0 0.0 -6.550924999999998 11.346534936573148 0.0 0.0 0.0 10.30883" Properties=species:S:1:pos:R:3 #=T CELL(abcABC):=T 13.10185=T 10.30883=T 90.00000=T 120.00000=T Step:=T 4800=T Bead:=T 0=T positionsatomic_unit=T cellatomic_unit=T pbc="T T T"
O        9.59814000       5.95837000       0.19269700
O        2.77765000       5.37675000       3.61906000
O        0.50745300      11.29940000       7.36381000
O       11.48570000       2.19600000      10.07820000
O        5.52563000       8.51799000       3.24484000
O        2.88237000      -0.20255600       6.73252000
C       10.65790000       4.28451000       9.30921000
C        4.00237000       6.90601000       2.29109000
C        5.00201000      -0.14828800       5.95423000
C       -2.15377000       5.09655000       6.53080000
C        3.72687000       6.73760000       9.82281000
C       -1.07520000      11.38580000       2.98877000
N       11.17730000       2.72796000       5.01552000
N        5.33272000       8.41289000       8.37603000
N        3.00097000       0.55120300       1.78186000
H       -0.33134100       6.50361000       6.03122000
H        1.78931000       7.24162000       9.10018000
H       -0.27314500       9.64648000       2.17773000
H        9.24370000       6.19591000       6.34616000
H        4.25270000       4.86564000       8.98206000
H        6.80120000       1.63221000       2.04318000
H       11.41510000       3.20946000       3.22934000
H        5.53966000       8.28320000       6.03183000
H        3.06525000       0.49545500      10.24470000
H       -0.47153500       1.68190000       5.64431000
H        5.21972000      10.30350000       8.93204000
H       -4.90220000      10.94470000       2.73285000
H        9.58782000       1.53370000       4.84237000
H        7.24031000       8.12719000       8.89962000
H        2.60461000       2.48830000       2.32668000
30
Lattice="13.10185 0.0 0.0 -6.550924999999998 11.346534936573148 0.0 0.0 0.0 10.30883" Properties=species:S:1:pos:R:3 #=T CELL(abcABC):=T 13.10185=T 10.30883=T 90.00000=T 120.00000=T Step:=T 5000=T Bead:=T 0=T positionsatomic_unit=T cellatomic_unit=T pbc="T T T"
O        9.74194000       6.58421000      -0.01190530
O        2.97012000       5.19522000       3.34326000
O        0.54663800      10.76960000       6.87626000
O       11.41060000       2.79117000      10.64850000
O        5.30887000       8.62481000       3.45620000
O        2.96047000       0.53096800       6.73470000
C       10.54240000       4.55178000       9.52468000
C        3.91503000       6.94854000       2.25894000
C        4.93046000      -0.33108800       5.74483000
C       -2.41659000       4.38809000       6.42474000
C        3.70443000       7.03445000       9.82003000
C       -1.51594000      10.74340000       2.88160000
N       11.54070000       2.00190000       5.28228000
N        5.36514000       8.93309000       8.47864000
N        2.79429000       0.07019710       1.64947000
H       -0.98480600       5.91719000       5.72341000
H        1.70152000       7.58683000       9.49782000
H       -1.34468000       8.78281000       2.39021000
H        9.14375000       4.74182000       5.53259000
H        4.01210000       4.84789000       9.13579000
H        6.71474000       0.54718200       2.06542000
H       11.59050000       2.80000000       3.35280000
H        5.33761000       8.70571000       6.63955000
H        3.24068000       0.11153900      10.14330000
H        0.47977400       1.76521000       5.71045000
H        5.52648000      10.75790000       9.16486000
H       -5.05892000      10.45200000       2.33089000
H       10.46780000       0.33241700       5.41894000
H        7.44914000       8.50960000       8.93633000
H        2.48632000       2.34973000       2.05677000
30
Lattice="13.10185 0.0 0.0 -6.550924999999998 11.346534936573148 0.0 0.0 0.0 10.30883" Properties=species:S:1:pos:R:3 #=T CELL(abcABC):=T 13.10185=T 10.30883=T 90.00000=T 120.00000=T Step:=T 5200=T Bead:=T 0=T positionsatomic_unit=T cellatomic_unit=T pbc="T T T"
O        9.50800000       6.75862000      -0.08099310
O        2.61174000       5.19651000       3.70813000
O        1.21636000      10.96910000       7.07611000
O       10.86410000       2.80588000      10.35360000
O        5.18276000       8.36618000       3.21115000
O        3.65308000       0.15077700       6.83225000
C       10.29390000       4.82370000       9.17602000
C        3.67887000       6.64338000       2.39323000
C        5.74706000      -0.09944680       5.73256000
C       -2.42657000       5.02828000       6.33208000
C        3.31806000       6.51870000       9.79771000
C       -0.88314200      11.25860000       2.96432000
N       11.12420000       2.63893000       5.25444000
N        5.19369000       8.21038000       8.39965000
N        3.34680000       0.38172400       1.78711000
H       -0.97085900       6.18811000       6.21491000
H        1.20359000       7.21700000       9.46762000
H       -0.48414600       9.17332000       2.62836000
H        9.16184000       6.09805000       5.34815000
H        3.21956000       4.54955000       8.85621000
H        7.40641000       1.29093000       2.08665000
H       10.60620000       2.75730000       3.00884000
H        5.10015000       8.07449000       6.21235000
H        3.65955000       0.58292600      10.03170000
H       -0.17268300       2.14306000       5.53841000
H        5.16603000      10.12120000       9.33919000
H       -4.81841000      10.42890000       2.28657000
H        9.73822000       1.03657000       6.15965000
H        7.25368000       7.70228000       8.86446000
H        2.38851000       2.04977000       2.29888000
30
Lattice="13.10185 0.0 0.0 -6.550924999999998 11.346534936573148 0.0 0.0 0.0 10.30883" Properties=species:S:1:pos:R:3 #=T CELL(abcABC):=T 13.10185=T 10.30883=T 90.00000=T 120.00000=T Step:=T 5400=T Bead:=T 0=T positionsatomic_unit=T cellatomic_unit=T pbc="T T T"
O        9.84841000       6.31307000       0.22043900
O        2.34251000       5.40358000       3.27058000
O        0.68015400      11.03870000       7.00501000
O       11.02890000       2.21080000      10.40330000
O        5.52853000       8.15193000       3.35247000
O        3.11235000       0.77528300       6.70415000
C       10.66700000       4.46454000       9.39720000
C        3.93624000       6.76306000       2.25546000
C        5.20669000       0.03419420       5.89566000
C       -2.31505000       4.84261000       6.50117000
C        3.64877000       7.01558000       9.58249000
C       -1.09914000      11.30220000       3.03222000
N       11.09740000       2.47967000       4.99869000
N        5.66641000       8.59498000       8.66430000
N        2.94147000       0.44574400       1.63368000
H       -0.64075100       5.92634000       6.54624000
H        1.81415000       8.09366000       9.33444000
H       -0.75792600       9.36056000       2.35992000
H        8.94660000       5.87464000       5.66202000
H        3.68853000       4.96603000       8.44274000
H        6.69126000       1.54583000       2.13145000
H       11.13140000       2.81514000       3.15653000
H        5.13709000       8.73668000       6.69982000
H        3.05570000       0.40935100       9.88630000
H       -0.11430700       2.25748000       5.60714000
H        5.56277000      10.23790000       9.24481000
H       -4.68035000      10.19830000       2.13710000
H       10.14260000       0.76876300       5.13852000
H        7.24092000       8.01663000       9.06322000
H        2.34225000       2.11434000       2.36074000
30
Lattice="13.10185 0.0 0.0 -6.550924999999998 11.346534936573148 0.0 0.0 0.0 10.30883" Properties=species:S:1:pos:R:3 #=T CELL(abcABC):=T 13.10185=T 10.30883=T 90.00000=T 120.00000=T Step:=T 5600=T Bead:=T 0=T positionsatomic_unit=T cellatomic_unit=T pbc="T T T"
O        9.79197000       6.03884000       0.25352400
O        2.96069000       5.58504000       3.73918000
O        0.30105400      11.19270000       6.94605000
O       11.53910000       2.14155000      10.36800000
O        5.78119000       8.79584000       3.04168000
O        2.63861000       0.41198500       6.70558000
C       10.78930000       4.25064000       9.44915000
C        4.14112000       7.08801000       2.37249000
C        4.77473000      -0.06579800       5.77683000
C       -2.11361000       4.43516000       6.45869000
C        3.70831000       7.02831000       9.81143000
C       -1.37712000      11.12640000       2.87179000
N       11.02820000       2.08834000       5.16031000
N        5.64347000       8.50667000       8.56789000
N        2.99373000       0.91130300       1.57250000
H       -0.47142400       5.12028000       5.94990000
H        1.97684000       8.10975000       9.29111000
H       -1.88177000       9.05749000       2.30008000
H        9.15128000       5.50022000       5.67366000
H        3.35623000       5.13379000       8.90596000
H        6.89654000       0.68247700       2.13658000
H       10.59120000       1.99645000       3.18519000
H        5.56552000       8.51159000       6.36805000
H        2.94177000       1.36245000       9.70946000
H       -0.50147000       1.08535000       5.56717000
H        5.52318000      10.54570000       9.17049000
H       -5.36819000      11.32810000       1.79220000
H        9.42537000       1.08966000       5.77280000
H        7.45424000       7.81728000       9.42560000
H        2.60066000       2.65842000       2.47631000
30
Lattice="13.10185 0.0 0.0 -6.550924999999998 11.346534936573148 0.0 0.0 0.0 10.30883" Properties=species:S:1:pos:R:3 #=T CELL(abcABC):=T 13.10185=T 10.30883=T 90.00000=T 120.00000=T Step:=T 5800=T Bead:=T 0=T positionsatomic_unit=T cellatomic_unit=T pbc="T T T"
O        9.37343000       6.49197000       0.20208600
O        2.67011000       5.46246000       3.46981000
O        0.92260100      10.53340000       7.06665000
O       10.71640000       2.34892000      10.63070000
O        5.33960000       8.82908000       3.13933000
O        3.66370000       0.74883500       6.70595000
C       10.20210000       4.44685000       9.41866000
C        3.88763000       6.99245000       2.31334000
C        5.55334000      -0.07230660       5.76103000
C       -2.56768000       4.72658000       6.54852000
C        3.61170000       6.89092000       9.65328000
C       -0.96723200      10.67180000       2.71473000
N       11.38510000       2.72866000       5.38479000
N        5.37349000       8.56128000       8.47185000
N        3.11119000      -0.00978200       1.57268000
H       -1.91975000       6.56966000       5.88195000
H        1.93690000       7.92213000       8.68231000
H       -0.62531100       8.60902000       2.20949000
H        8.35404000       4.90301000       6.07498000
H        3.93839000       5.07850000       8.93996000
H        7.15593000       0.62456200       2.15937000
H       11.23660000       2.88334000       3.45062000
H        5.08882000       8.86625000       6.40794000
H        3.15617000       0.07321210       9.83742000
H        0.23558200       2.14385000       5.98628000
H        5.20618000      10.52740000       9.36882000
H       -4.67278000       9.85733000       1.99046000
H       10.32260000       0.99074900       5.79618000
H        7.13966000       7.61572000       8.69902000
H        2.48863000       1.56520000       1.99443000
30
Lattice="13.10185 0.0 0.0 -6.550924999999998 11.346534936573148 0.0 0.0 0.0 10.30883" Properties=species:S:1:pos:R:3 #=T CELL(abcABC):=T 13.10185=T 10.30883=T 90.00000=T 120.00000=T Step:=T 6000=T Bead:=T 0=T positionsatomic_unit=T cellatomic_unit=T pbc="T T T"
O        9.62264000       6.23963000      -0.00826719
O        2.69461000       5.33934000       3.29839000
O        0.53498800      11.41960000       7.35611000
O       11.68250000       2.62101000       9.95023000
O        5.28159000       8.60534000       3.25167000
O        3.03117000      -0.00161403       7.23406000
C       10.67670000       4.54438000       9.03255000
C        4.08673000       6.99774000       2.25904000
C        5.08703000       0.03841190       6.07177000
C       -2.08409000       4.86449000       5.97373000
C        3.95317000       6.79903000       9.71093000
C       -1.47661000      10.95120000       3.32453000
N       11.08080000       2.35215000       4.98493000
N        5.78305000       8.49050000       8.41369000
N        2.80382000       0.39482600       1.91106000
H       -0.63459600       6.09890000       5.61509000
H        2.03659000       7.39121000       9.20421000
H       -1.48864000       8.62461000       2.80348000
H        9.11240000       5.70911000       5.42999000
H        4.59582000       4.86976000       8.93390000
H        6.67981000       0.19116600       2.22699000
H       10.91880000       2.65231000       3.06399000
H        5.63864000       8.12753000       6.32436000
H        2.51358000       0.25597600      10.12010000
H       -0.14697300       1.48552000       5.34778000
H        5.50958000      10.39410000       9.07756000
H       -4.79831000      10.43230000       2.78969000
H        9.47219000       1.15257000       5.50985000
H        7.33785000       7.75628000       9.21062000
H        2.38649000       2.26604000       2.13671000
30
Lattice="13.10185 0.0 0.0 -6.550924999999998 11.346534936573148 0.0 0.0 0.0 10.30883" Properties=species:S:1:pos:R:3 #=T CELL(abcABC):=T 13.10185=T 10.30883=T 90.00000=T 120.00000=T Step:=T 6200=T Bead:=T 0=T positionsatomic_unit=T cellatomic_unit=T pbc="T T T"
O        9.99047000       6.44102000       0.16634300
O        2.89460000       4.78828000       3.66515000
O        0.85001800      11.14500000       6.90305000
O       11.24160000       2.45408000      10.02770000
O        5.55593000       8.12529000       3.51375000
O        2.96554000       0.15710500       6.82581000
C       10.39430000       4.65921000       9.10369000
C        3.97374000       6.57752000       2.69113000
C        5.20513000       0.30176100       5.85296000
C       -2.75899000       5.01872000       6.15778000
C        3.34571000       7.01395000      10.08850000
C       -0.95074300      11.41350000       2.87018000
N       11.01280000       2.51854000       5.13702000
N        5.22815000       8.41235000       8.55966000
N        3.17919000       0.51621200       1.81645000
H       -1.05679000       6.34328000       5.45365000
H        1.38820000       8.07986000       9.75701000
H       -0.66823100       9.12148000       2.43754000
H        8.48904000       5.36877000       5.60627000
H        3.17703000       5.08640000       9.29181000
H        7.19334000       1.49359000       1.99685000
H       10.97010000       2.81463000       3.13661000
H        5.15393000       8.06320000       6.49626000
H        3.25238000       0.30244800      10.30250000
H       -0.17252800       1.80180000       5.69357000
H        4.87403000      10.21450000       8.66373000
H       -4.88658000      10.74070000       2.00295000
H        9.66786000       1.09393000       5.51294000
H        7.23378000       8.13886000       9.08950000
H        2.68019000       2.37245000       2.12247000
30
Lattice="13.10185 0.0 0.0 -6.550924999999998 11.346534936573148 0.0 0.0 0.0 10.30883" Properties=species:S:1:pos:R:3 #=T CELL(abcABC):=T 13.10185=T 10.30883=T 90.00000=T 120.00000=T Step:=T 6400=T Bead:=T 0=T positionsatomic_unit=T cellatomic_unit=T pbc="T T T"
O        9.20418000       5.89954000       0.04639530
O        2.57474000       5.43388000       3.48143000
O        1.09777000      11.00940000       6.97558000
O       11.43260000       2.35833000      10.24670000
O        5.10461000       8.68208000       3.37261000
O        3.24018000       0.44563900       6.79939000
C       10.28370000       4.34274000       9.25287000
C        3.92482000       7.02815000       2.37242000
C        5.49965000       0.04541370       5.80932000
C       -2.41145000       4.83082000       6.37015000
C        3.69813000       6.75048000       9.80922000
C       -1.14728000      11.20460000       2.97062000
N       11.64780000       2.47728000       5.16997000
N        5.23891000       8.66840000       8.50979000
N        2.92467000       0.42131400       1.61052000
H       -1.02377000       6.32117000       6.08978000
H        1.82535000       7.11599000       9.36704000
H       -0.59301400       9.07250000       2.28933000
H        8.94597000       5.37862000       5.50173000
H        4.18150000       5.11184000       9.06174000
H        7.09211000       1.04296000       1.85716000
H       11.26740000       2.76440000       3.19615000
H        5.25732000       8.65943000       6.18674000
H        3.10434000      -0.02718480       9.92004000
H        0.36754300       1.94469000       5.81417000
H        5.33213000      10.41340000       9.03464000
H       -4.92124000      10.81020000       2.31856000
H       10.14150000       0.93295800       5.45571000
H        7.10412000       7.80615000       9.01934000
H        2.37987000       2.29378000       2.38857000
30
Lattice="13.10185 0.0 0.0 -6.550924999999998 11.346534936573148 0.0 0.0 0.0 10.30883" Properties=species:S:1:pos:R:3 #=T CELL(abcABC):=T 13.10185=T 10.30883=T 90.00000=T 120.00000=T Step:=T 6600=T Bead:=T 0=T positionsatomic_unit=T cellatomic_unit=T pbc="T T T"
O        9.51927000       6.00666000       0.39741400
O        3.00845000       5.01309000       3.43276000
O        0.59825800      11.47960000       6.86265000
O       11.29740000       2.18883000      10.21340000
O        5.34806000       8.53580000       3.37222000
O        2.92350000       0.41276600       6.68081000
C       10.53700000       4.32185000       9.26269000
C        4.01714000       6.80223000       2.26551000
C        4.95655000       0.24684400       5.79154000
C       -2.45521000       4.78944000       6.41465000
C        3.50558000       7.14473000       9.84148000
C       -1.35396000      11.19310000       2.97544000
N       11.59890000       2.62251000       5.19626000
N        5.49808000       8.57920000       8.51849000
N        2.91522000       0.33459500       1.54561000
H       -1.43517000       6.52953000       6.09284000
H        1.83909000       8.28011000       9.00691000
H       -0.75875300       9.13737000       2.94261000
H        8.58387000       5.42673000       5.59453000
H        3.34785000       5.55360000       9.15396000
H        6.84664000       0.69819200       2.37324000
H       11.15050000       2.74844000       3.24458000
H        5.19543000       8.56913000       6.52267000
H        3.14560000      -0.17652300       9.90240000
H        0.39569600       2.16279000       5.33518000
H        5.25880000      10.43370000       9.12512000
H       -5.00204000      10.67630000       2.13711000
H       10.66520000       0.85212400       6.06817000
H        7.43819000       7.60183000       8.92230000
H        2.67156000       2.28651000       1.79421000
30
Lattice="13.10185 0.0 0.0 -6.550924999999998 11.346534936573148 0.0 0.0 0.0 10.30883" Properties=species:S:1:pos:R:3 #=T CELL(abcABC):=T 13.10185=T 10.30883=T 90.00000=T 120.00000=T Step:=T 6800=T Bead:=T 0=T positionsatomic_unit=T cellatomic_unit=T pbc="T T T"
O        9.59857000       6.58819000       0.00766942
O        2.63718000       5.17141000       3.55694000
O        0.73207300      11.31290000       6.89213000
O       11.29860000       2.59212000      10.19130000
O        5.49645000       8.31159000       3.33581000
O        3.12044000      -0.13642600       6.74875000
C       10.58350000       4.65110000       9.22798000
C        3.79874000       6.80059000       2.34932000
C        5.19008000       0.00817881       5.73986000
C       -2.06984000       4.74289000       6.38793000
C        3.25435000       6.96866000       9.91466000
C       -1.20402000      11.01940000       2.94191000
N       11.16090000       2.37254000       5.13275000
N        5.14550000       8.62144000       8.76951000
N        3.01402000       0.46440100       1.76740000
H       -0.33156100       5.60602000       6.22969000
H        1.60258000       7.85653000       9.97357000
H       -0.59183500       9.09688000       2.82728000
H        9.74216000       6.17423000       5.70737000
H        3.09495000       5.21195000       8.96672000
H        6.79167000       0.54845500       2.09167000
H       11.48390000       2.35383000       3.15536000
H        4.77120000       8.87072000       6.80489000
H        3.13123000       0.35152300       9.97686000
H        0.33526900       1.44371000       5.49485000
H        5.17799000      10.56990000       9.30024000
H       -4.91445000      10.56760000       2.26561000
H        9.58964000       1.06960000       5.75286000
H        6.88553000       7.56831000       9.26943000
H        2.79150000       2.27024000       1.90861000
30
Lattice="13.10185 0.0 0.0 -6.550924999999998 11.346534936573148 0.0 0.0 0.0 10.30883" Properties=species:S:1:pos:R:3 #=T CELL(abcABC):=T 13.10185=T 10.30883=T 90.00000=T 120.00000=T Step:=T 7000=T Bead:=T 0=T positionsatomic_unit=T cellatomic_unit=T pbc="T T T"
O        9.30647000       5.84054000       0.38024000
O        3.12212000       4.97376000       3.86454000
O        0.83597700      11.53290000       6.90982000
O       11.64790000       2.51810000      10.08230000
O        5.43949000       8.35241000       3.21989000
O        3.30993000       0.59459500       6.80531000
C       10.28500000       4.36399000       9.28233000
C        4.08096000       6.63532000       2.53180000
C        5.46933000       0.13828000       5.71622000
C       -3.01553000       4.70802000       6.46046000
C        3.42610000       6.83009000      10.04760000
C       -1.18024000      11.05620000       2.95785000
N       11.41150000       2.79881000       4.93817000
N        5.23138000       8.55541000       8.53175000
N        2.86457000       0.13823600       1.61063000
H       -1.99039000       6.38074000       5.83938000
H        1.81106000       8.04958000      10.17730000
H       -0.78205100       9.21429000       2.58309000
H        7.82073000       5.07069000       5.82863000
H        3.11167000       5.16238000       8.72557000
H        7.00113000       0.76092200       2.10329000
H       11.63840000       2.91141000       3.07140000
H        4.73997000       8.20228000       6.66001000
H        3.08654000       0.14622800       9.74558000
H       -0.27888500       2.24532000       6.03435000
H        4.92980000      10.28050000       9.29843000
H       -4.82742000       9.90028000       2.02433000
H       10.10010000       1.18427000       4.95669000
H        6.96302000       7.97217000       9.25410000
H        2.29859000       1.91089000       2.19051000
30
Lattice="13.10185 0.0 0.0 -6.550924999999998 11.346534936573148 0.0 0.0 0.0 10.30883" Properties=species:S:1:pos:R:3 #=T CELL(abcABC):=T 13.10185=T 10.30883=T 90.00000=T 120.00000=T Step:=T 7200=T Bead:=T 0=T positionsatomic_unit=T cellatomic_unit=T pbc="T T T"
O        9.21642000       6.22115000       0.36797900
O        3.57801000       5.32481000       3.40488000
O        0.59166500      10.51080000       6.76621000
O       11.38210000       2.62868000      10.60700000
O        4.90050000       9.21828000       2.70245000
O        2.96358000       0.29500700       6.74493000
C       10.46470000       4.46829000       9.56061000
C        4.16379000       7.27482000       2.22095000
C        5.12872000      -0.35165300       5.77310000
C       -2.53597000       4.82020000       6.68891000
C        3.80733000       6.80555000       9.63204000
C       -1.56396000      10.52040000       2.84552000
N       11.33630000       2.45098000       5.43975000
N        5.18685000       8.61238000       8.48349000
N        3.14715000       0.66913900       1.53649000
H       -1.31977000       6.38359000       5.99276000
H        1.75550000       6.87228000       9.41994000
H       -1.89256000       8.53702000       2.19332000
H        8.52205000       5.01778000       6.02323000
H        4.21867000       4.71401000       9.05444000
H        6.74128000      -0.58128900       1.82428000
H       11.12070000       2.56759000       2.98370000
H        4.79746000       8.69925000       6.62628000
H        3.28494000       0.23441800       9.87071000
H        0.01442480       1.65725000       6.10827000
H        4.93347000      10.55970000       9.42721000
H       -5.07400000      11.30260000       1.98995000
H        9.81952000       1.17828000       5.65153000
H        7.53444000       8.33699000       8.95310000
H        2.93318000       2.67539000       2.10367000
30
Lattice="13.10185 0.0 0.0 -6.550924999999998 11.346534936573148 0.0 0.0 0.0 10.30883" Properties=species:S:1:pos:R:3 #=T CELL(abcABC):=T 13.10185=T 10.30883=T 90.00000=T 120.00000=T Step:=T 7400=T Bead:=T 0=T positionsatomic_unit=T cellatomic_unit=T pbc="T T T"
O        9.57220000       6.66848000      -0.34270100
O        3.12620000       4.90634000       3.61797000
O        0.64738800      10.79720000       6.99625000
O       10.96210000       2.65326000       9.97525000
O        5.36204000       8.51418000       3.63053000
O        3.10903000       0.58681200       6.69952000
C       10.27770000       4.68296000       8.86455000
C        4.05232000       6.71442000       2.59431000
C        5.32863000      -0.29619200       5.88857000
C       -2.22876000       4.81686000       6.02556000
C        3.61546000       6.89849000      10.17730000
C       -1.00282000      10.98670000       2.80301000
N       11.21130000       2.34245000       4.81165000
N        5.04110000       8.86849000       8.85212000
N        3.04715000       0.34078400       1.62880000
H       -0.47155000       5.80551000       5.58213000
H        1.76575000       7.57419000       9.59941000
H       -0.24312800       8.80888000       2.52115000
H        9.19952000       5.94546000       5.04815000
H        3.76470000       4.96603000       9.40931000
H        6.86142000       1.22101000       2.40505000
H       11.33770000       2.67717000       2.86233000
H        5.44870000       8.80016000       6.84609000
H        2.91542000       0.16864200      10.13680000
H       -0.13104300       1.59842000       5.49904000
H        4.42560000      10.49330000       9.10746000
H       -5.15794000      10.44170000       1.93161000
H       10.00140000       1.06204000       5.98329000
H        7.08309000       8.69593000       9.16148000
H        2.84278000       2.32829000       2.53027000
30
Lattice="13.10185 0.0 0.0 -6.550924999999998 11.346534936573148 0.0 0.0 0.0 10.30883" Properties=species:S:1:pos:R:3 #=T CELL(abcABC):=T 13.10185=T 10.30883=T 90.00000=T 120.00000=T Step:=T 7600=T Bead:=T 0=T positionsatomic_unit=T cellatomic_unit=T pbc="T T T"
O       10.04170000       6.48613000       0.14087000
O        2.42905000       5.27257000       3.53199000
O        0.54702000      11.38640000       6.79995000
O       11.18890000       2.35761000      10.22330000
O        5.69951000       8.06667000       3.42498000
O        2.87365000       0.56613700       6.36910000
C       10.86060000       4.55663000       9.41512000
C        4.01084000       6.70401000       2.53447000
C        5.01557000       0.02181920       5.61091000
C       -2.30637000       4.99886000       6.47152000
C        3.36972000       6.92713000       9.99488000
C       -1.23064000      10.91840000       2.56073000
N       11.26710000       2.64444000       5.24828000
N        5.32096000       8.29801000       8.62518000
N        2.93679000       0.35233500       1.57571000
H       -0.89935900       6.06636000       5.70851000
H        1.22152000       7.86485000      10.22940000
H       -0.92512700       8.65211000       2.15902000
H        8.92656000       5.39909000       5.70459000
H        3.31747000       5.29899000       8.85918000
H        6.83468000       1.13459000       2.08715000
H       11.03450000       2.51065000       3.22927000
H        5.40579000       8.17561000       6.52340000
H        2.90461000       0.70893000      10.09320000
H       -0.43740500       1.79340000       5.70288000
H        5.13315000      10.50900000       8.60444000
H       -5.00082000      10.26330000       2.28265000