30
Lattice="13.10185 0.0 0.0 -6.550924999999998 11.346534936573148 0.0 0.0 0.0 10.30883" Properties=species:S:1:pos:R:3:cs_iso:R:1 #=T CELL(abcABC):=T 13.10185=T 10.30883=T 90.00000=T 120.00000=T Step:=T 4600=T Bead:=T 0=T positionsatomic_unit=T cellatomic_unit=T pbc="T T T"
O       -3.17315000       6.78786000      10.09935800     -92.04366927
O        2.92604000       4.79531000       3.41187000     -88.11147197
O        7.34088700       0.37296506       7.00807000     -76.65758289
O       11.33500000       2.70357000       0.02407000     -27.57364044
O        5.01531000       8.43370000       3.52946000     -63.14265599
O        3.09653000       0.31544500       6.81910000     -88.46870313
C       -2.49315000       4.85531000       9.05291000    -124.58269605
C        3.72134000       6.65925000       2.41576000    -114.48474213
C        5.24560000       0.01804900       5.87040000    -115.95925479
C       -2.24438000       4.67252000       6.33157000    -154.84313544
C        3.35167000       6.99178000       9.96785000    -164.43013083
C       -1.35102000      10.55220000       2.89792000    -159.66472967
N       11.56290000       2.26534000       4.96413000    -263.78441944
N        5.36788000       8.58455000       8.73358000    -258.48716636
N       -3.72088500      11.25322514       1.76106000    -269.16529995
H       -0.58484600       6.23481000       5.90489000      10.69246893
H        1.51600000       7.97671000       9.60003000       9.71986013
H       -1.07092000       8.40842000       2.84103000      10.05769836
H        9.01743000       5.78525000       5.70211000      10.30489559
H        2.68858000       5.10060000       9.21041000       9.82164518
H        6.49701000       0.34681000       1.53045000      10.07458017
H       11.39370000       2.31409000       2.96968000      11.89291470
H        5.21199000       8.77357000       6.88144000      12.33916925
H       -3.89633500      11.05861894       0.14057000      11.21169042
H        0.02774720       1.58594000       5.43607000      12.10204919
H        5.16163000      10.26650000       9.69261000      12.59581453
H       -5.02732000      10.25880000       2.72680000      12.60548862
H       10.15960000       1.11275000       5.45337000      12.42040667
H        6.98924000       7.78686000       8.95812000      12.12589345
H        2.50914000       2.02217000       2.43101000      11.96209091
30
Lattice="13.10185 0.0 0.0 -6.550924999999998 11.346534936573148 0.0 0.0 0.0 10.30883" Properties=species:S:1:pos:R:3:cs_iso:R:1 #=T CELL(abcABC):=T 13.10185=T 10.30883=T 90.00000=T 120.00000=T Step:=T 4800=T Bead:=T 0=T positionsatomic_unit=T cellatomic_unit=T pbc="T T T"
O        9.59814000       5.95837000       0.19269700     -93.28910900
O        2.77765000       5.37675000       3.61906000     -85.53586422
O        0.50745300      11.29940000       7.36381000     -54.38115056
O       11.48570000       2.19600000      10.07820000     -85.97040887
O        5.52563000       8.51799000       3.24484000     -71.51991490
O       -3.66855500      11.14397894       6.73252000     -89.23980856
C       -2.44395000       4.28451000       9.30921000    -111.98111786
C        4.00237000       6.90601000       2.29109000    -115.65096127
C       -1.54891500      11.19824694       5.95423000    -116.27660052
C       -2.15377000       5.09655000       6.53080000    -157.71971195
C        3.72687000       6.73760000       9.82281000    -162.64292669
C        5.47572500       0.03926506       2.98877000    -159.30938912
N       11.17730000       2.72796000       5.01552000    -259.85686467
N        5.33272000       8.41289000       8.37603000    -264.80633280
N        3.00097000       0.55120300       1.78186000    -251.32418191
H       -0.33134100       6.50361000       6.03122000      10.88139091
H        1.78931000       7.24162000       9.10018000       9.97867473
H       -0.27314500       9.64648000       2.17773000       9.69668580
H        9.24370000       6.19591000       6.34616000       9.67715111
H        4.25270000       4.86564000       8.98206000       9.85560074
H        6.80120000       1.63221000       2.04318000      10.36531417
H       -1.68675000       3.20946000       3.22934000      12.46527319
H        5.53966000       8.28320000       6.03183000      11.94881171
H        3.06525000       0.49545500      10.24470000      12.35668624
H       -0.47153500       1.68190000       5.64431000      12.57082905
H        5.21972000      10.30350000       8.93204000      12.57690361
H       -4.90220000      10.94470000       2.73285000      12.53051877
H        9.58782000       1.53370000       4.84237000      12.57287622
H        7.24031000       8.12719000       8.89962000      12.62255398
H        2.60461000       2.48830000       2.32668000      12.22990013
30
Lattice="13.10185 0.0 0.0 -6.550924999999998 11.346534936573148 0.0 0.0 0.0 10.30883" Properties=species:S:1:pos:R:3:cs_iso:R:1 #=T CELL(abcABC):=T 13.10185=T 10.30883=T 90.00000=T 120.00000=T Step:=T 5000=T Bead:=T 0=T positionsatomic_unit=T cellatomic_unit=T pbc="T T T"
O       -3.35991000       6.58421000      10.29692470     -91.25480021
O        2.97012000       5.19522000       3.34326000     -89.45635607
O        0.54663800      10.76960000       6.87626000     -65.87078249
O       11.41060000       2.79117000       0.33967000     -88.49619381
O        5.30887000       8.62481000       3.45620000     -53.91007592
O        2.96047000       0.53096800       6.73470000     -85.82873900
C       -2.55945000       4.55178000       9.52468000    -106.89264367
C        3.91503000       6.94854000       2.25894000    -117.15275515
C       -1.62046500      11.01544694       5.74483000    -118.18718922
C       -2.41659000       4.38809000       6.42474000    -160.81547552
C        3.70443000       7.03445000       9.82003000    -158.30970819
C       -1.51594000      10.74340000       2.88160000    -165.16350564
N       11.54070000       2.00190000       5.28228000    -251.25333166
N        5.36514000       8.93309000       8.47864000    -257.96434337
N        2.79429000       0.07019710       1.64947000    -265.13227830
H       -0.98480600       5.91719000       5.72341000      10.17684289
H        1.70152000       7.58683000       9.49782000       9.93091965
H       -1.34468000       8.78281000       2.39021000       9.60762410
H        9.14375000       4.74182000       5.53259000       8.38210034
H        4.01210000       4.84789000       9.13579000      10.62756377
H        6.71474000       0.54718200       2.06542000      10.14630356
H       -1.51135000       2.80000000       3.35280000      12.25248215
H        5.33761000       8.70571000       6.63955000      12.08282645
H        3.24068000       0.11153900      10.14330000      12.41810068
H        0.47977400       1.76521000       5.71045000      12.06407039
H        5.52648000      10.75790000       9.16486000      12.55942994
H       -5.05892000      10.45200000       2.33089000      11.89964701
H       10.46780000       0.33241700       5.41894000      12.66739393
H        7.44914000       8.50960000       8.93633000      12.03715185
H        2.48632000       2.34973000       2.05677000      12.06194458
30
Lattice="13.10185 0.0 0.0 -6.550924999999998 11.346534936573148 0.0 0.0 0.0 10.30883" Properties=species:S:1:pos:R:3:cs_iso:R:1 #=T CELL(abcABC):=T 13.10185=T 10.30883=T 90.00000=T 120.00000=T Step:=T 5200=T Bead:=T 0=T positionsatomic_unit=T cellatomic_unit=T pbc="T T T"
O       -3.59385000       6.75862000      10.22783690     -84.39651279
O        2.61174000       5.19651000       3.70813000     -83.42202613
O        1.21636000      10.96910000       7.07611000     -54.32640676
O       10.86410000       2.80588000       0.04477000     -76.09324189
O        5.18276000       8.36618000       3.21115000     -71.27410457
O        3.65308000       0.15077700       6.83225000     -83.52024529
C       10.29390000       4.82370000       9.17602000    -115.25503946
C        3.67887000       6.64338000       2.39323000    -111.72462922
C       -0.80386500      11.24708814       5.73256000    -119.56903763
C       -2.42657000       5.02828000       6.33208000    -161.43390522
C        3.31806000       6.51870000       9.79771000    -157.88778337
C       -0.88314200      11.25860000       2.96432000    -151.98966907
N       11.12420000       2.63893000       5.25444000    -273.67799756
N        5.19369000       8.21038000       8.39965000    -262.90148335
N        3.34680000       0.38172400       1.78711000    -257.13753774
H       -0.97085900       6.18811000       6.21491000       8.74249985
H        1.20359000       7.21700000       9.46762000      10.33099149
H       -0.48414600       9.17332000       2.62836000      10.07389993
H        9.16184000       6.09805000       5.34815000       9.78480629
H        3.21956000       4.54955000       8.85621000      10.01053368
H        7.40641000       1.29093000       2.08665000      11.01059275
H       10.60620000       2.75730000       3.00884000      12.13158808
H        5.10015000       8.07449000       6.21235000      12.08205515
H        3.65955000       0.58292600      10.03170000      12.30790961
H       -0.17268300       2.14306000       5.53841000      12.70538680
H        5.16603000      10.12120000       9.33919000      12.40025831
H       -4.81841000      10.42890000       2.28657000      12.35809785
H        9.73822000       1.03657000       6.15965000      11.73641736
H        7.25368000       7.70228000       8.86446000      11.91667119
H        2.38851000       2.04977000       2.29888000      12.50744237
30
Lattice="13.10185 0.0 0.0 -6.550924999999998 11.346534936573148 0.0 0.0 0.0 10.30883" Properties=species:S:1:pos:R:3:cs_iso:R:1 #=T CELL(abcABC):=T 13.10185=T 10.30883=T 90.00000=T 120.00000=T Step:=T 5400=T Bead:=T 0=T positionsatomic_unit=T cellatomic_unit=T pbc="T T T"
O       -3.25344000       6.31307000       0.22043900     -92.89804257
O        2.34251000       5.40358000       3.27058000     -91.76924173
O        0.68015400      11.03870000       7.00501000     -92.73355997
O       11.02890000       2.21080000       0.09447000     -53.83057732
O        5.52853000       8.15193000       3.35247000     -85.06631074
O        3.11235000       0.77528300       6.70415000     -87.62235696
C       -2.43485000       4.46454000       9.39720000    -119.47103584
C        3.93624000       6.76306000       2.25546000    -112.49407014
C        5.20669000       0.03419420       5.89566000    -111.25685161
C       -2.31505000       4.84261000       6.50117000    -163.13352309
C        3.64877000       7.01558000       9.58249000    -156.56513239
C       -1.09914000      11.30220000       3.03222000    -163.23087899
N       11.09740000       2.47967000       4.99869000    -256.78550584
N        5.66641000       8.59498000       8.66430000    -273.56032582
N        2.94147000       0.44574400       1.63368000    -249.77758657
H       -0.64075100       5.92634000       6.54624000       9.60415380
H        1.81415000       8.09366000       9.33444000       9.92950447
H       -0.75792600       9.36056000       2.35992000       9.75179426
H        8.94660000       5.87464000       5.66202000      10.43408505
H        3.68853000       4.96603000       8.44274000      10.73134886
H        6.69126000       1.54583000       2.13145000      10.15561410
H       11.13140000       2.81514000       3.15653000      12.20673152
H        5.13709000       8.73668000       6.69982000      12.42188877
H        3.05570000       0.40935100       9.88630000      12.20928873
H       -0.11430700       2.25748000       5.60714000      12.60276214
H        5.56277000      10.23790000       9.24481000      12.03844367
H       -4.68035000      10.19830000       2.13710000      12.55859020
H       10.14260000       0.76876300       5.13852000      12.56344630
H        7.24092000       8.01663000       9.06322000      11.57339679
H        2.34225000       2.11434000       2.36074000      12.53676335
30
Lattice="13.10185 0.0 0.0 -6.550924999999998 11.346534936573148 0.0 0.0 0.0 10.30883" Properties=species:S:1:pos:R:3:cs_iso:R:1 #=T CELL(abcABC):=T 13.10185=T 10.30883=T 90.00000=T 120.00000=T Step:=T 5600=T Bead:=T 0=T positionsatomic_unit=T cellatomic_unit=T pbc="T T T"
O       -3.30988000       6.03884000       0.25352400     -90.46168089
O        2.96069000       5.58504000       3.73918000     -88.80709437
O        0.30105400      11.19270000       6.94605000     -81.68977684
O       11.53910000       2.14155000       0.05917000     -73.45945584
O        5.78119000       8.79584000       3.04168000     -64.47619703
O        2.63861000       0.41198500       6.70558000     -83.55430879
C       -2.31255000       4.25064000       9.44915000    -114.14065233
C        4.14112000       7.08801000       2.37249000    -117.34751327
C       -1.77619500      11.28073694       5.77683000    -114.72592284
C       -2.11361000       4.43516000       6.45869000    -158.93596797
C        3.70831000       7.02831000       9.81143000    -162.56537235
C       -1.37712000      11.12640000       2.87179000    -161.39864424
N       11.02820000       2.08834000       5.16031000    -255.16939469
N        5.64347000       8.50667000       8.56789000    -256.78207126
N        2.99373000       0.91130300       1.57250000    -258.16496525
H       -0.47142400       5.12028000       5.94990000       8.71268185
H        1.97684000       8.10975000       9.29111000       9.76537032
H       -1.88177000       9.05749000       2.30008000      10.15090904
H        9.15128000       5.50022000       5.67366000      10.43939233
H        3.35623000       5.13379000       8.90596000       9.87183350
H        6.89654000       0.68247700       2.13658000       9.77364170
H       10.59120000       1.99645000       3.18519000      12.31246795
H        5.56552000       8.51159000       6.36805000      12.32053532
H        2.94177000       1.36245000       9.70946000      12.08954865
H       -0.50147000       1.08535000       5.56717000      12.54910966
H        5.52318000      10.54570000       9.17049000      12.29149746
H       -5.36819000      11.32810000       1.79220000      12.39467052
H        9.42537000       1.08966000       5.77280000      12.18181127
H        7.45424000       7.81728000       9.42560000      12.34197217
H        2.60066000       2.65842000       2.47631000      12.42353441
30
Lattice="13.10185 0.0 0.0 -6.550924999999998 11.346534936573148 0.0 0.0 0.0 10.30883" Properties=species:S:1:pos:R:3:cs_iso:R:1 #=T CELL(abcABC):=T 13.10185=T 10.30883=T 90.00000=T 120.00000=T Step:=T 5800=T Bead:=T 0=T positionsatomic_unit=T cellatomic_unit=T pbc="T T T"
O       -3.72842000       6.49197000       0.20208600     -61.73030093
O        2.67011000       5.46246000       3.46981000     -91.13603163
O        0.92260100      10.53340000       7.06665000     -70.11930383
O       10.71640000       2.34892000       0.32187000     -58.74107285
O        5.33960000       8.82908000       3.13933000     -56.95971685
O        3.66370000       0.74883500       6.70595000     -89.56004380
C       10.20210000       4.44685000       9.41866000    -125.26998957
C        3.88763000       6.99245000       2.31334000    -115.91995596
C       -0.99758500      11.27422834       5.76103000    -113.75869081
C       -2.56768000       4.72658000       6.54852000    -158.77499742
C        3.61170000       6.89092000       9.65328000    -162.48355595
C       -0.96723200      10.67180000       2.71473000    -163.31464095
N       11.38510000       2.72866000       5.38479000    -264.35477237
N        5.37349000       8.56128000       8.47185000    -253.80941881
N       -3.43973500      11.33675294       1.57268000    -262.20591948
H       -1.91975000       6.56966000       5.88195000       9.67921685
H        1.93690000       7.92213000       8.68231000       9.89456316
H       -0.62531100       8.60902000       2.20949000      10.00661113
H        8.35404000       4.90301000       6.07498000      10.29850394
H        3.93839000       5.07850000       8.93996000       9.37738197
H        7.15593000       0.62456200       2.15937000       9.91508876
H       11.23660000       2.88334000       3.45062000      12.47194169
H        5.08882000       8.86625000       6.40794000      12.36031128
H        3.15617000       0.07321210       9.83742000      12.21762152
H        0.23558200       2.14385000       5.98628000      12.43841497
H        5.20618000      10.52740000       9.36882000      12.38965314
H       -4.67278000       9.85733000       1.99046000      12.44475976
H       10.32260000       0.99074900       5.79618000      12.46509324
H        7.13966000       7.61572000       8.69902000      12.57438435
H        2.48863000       1.56520000       1.99443000      12.06223008
30
Lattice="13.10185 0.0 0.0 -6.550924999999998 11.346534936573148 0.0 0.0 0.0 10.30883" Properties=species:S:1:pos:R:3:cs_iso:R:1 #=T CELL(abcABC):=T 13.10185=T 10.30883=T 90.00000=T 120.00000=T Step:=T 6000=T Bead:=T 0=T positionsatomic_unit=T cellatomic_unit=T pbc="T T T"
O       -3.47921000       6.23963000      10.30056281     -84.29704987
O        2.69461000       5.33934000       3.29839000     -78.36623198
O        7.08591300       0.07306506       7.35611000     -83.43568757
O       -1.41935000       2.62101000       9.95023000     -89.68988774
O        5.28159000       8.60534000       3.25167000     -84.07756506
O       -3.51975500      11.34492091       7.23406000     -84.97116953
C       -2.42515000       4.54438000       9.03255000    -112.85140841
C        4.08673000       6.99774000       2.25904000    -110.41612448
C        5.08703000       0.03841190       6.07177000    -114.02662155
C       -2.08409000       4.86449000       5.97373000    -163.58321815
C        3.95317000       6.79903000       9.71093000    -164.61466871
C       -1.47661000      10.95120000       3.32453000    -158.35838781
N       11.08080000       2.35215000       4.98493000    -254.05523228
N        5.78305000       8.49050000       8.41369000    -254.40943534
N        2.80382000       0.39482600       1.91106000    -251.94451759
H       -0.63459600       6.09890000       5.61509000       9.25643207
H        2.03659000       7.39121000       9.20421000       9.80540253
H       -1.48864000       8.62461000       2.80348000      10.94958428
H        9.11240000       5.70911000       5.42999000       9.99895280
H        4.59582000       4.86976000       8.93390000      10.03881524
H        6.67981000       0.19116600       2.22699000       9.53838309
H       10.91880000       2.65231000       3.06399000      12.63332684
H        5.63864000       8.12753000       6.32436000      12.23671046
H        2.51358000       0.25597600      10.12010000      12.00394415
H       -0.14697300       1.48552000       5.34778000      12.53332813
H        5.50958000      10.39410000       9.07756000      12.62568477
H       -4.79831000      10.43230000       2.78969000      12.45089215
H        9.47219000       1.15257000       5.50985000      12.37136775
H        7.33785000       7.75628000       9.21062000      11.98092145
H        2.38649000       2.26604000       2.13671000      12.42445997
30
Lattice="13.10185 0.0 0.0 -6.550924999999998 11.346534936573148 0.0 0.0 0.0 10.30883" Properties=species:S:1:pos:R:3:cs_iso:R:1 #=T CELL(abcABC):=T 13.10185=T 10.30883=T 90.00000=T 120.00000=T Step:=T 6200=T Bead:=T 0=T positionsatomic_unit=T cellatomic_unit=T pbc="T T T"
O       -3.11138000       6.44102000       0.16634300     -91.96599365
O        2.89460000       4.78828000       3.66515000     -88.57582992
O        0.85001800      11.14500000       6.90305000     -54.38365449
O       11.24160000       2.45408000      10.02770000     -43.85364523
O        5.55593000       8.12529000       3.51375000     -86.90800510
O        2.96554000       0.15710500       6.82581000     -70.13565321
C       10.39430000       4.65921000       9.10369000    -118.29596687
C        3.97374000       6.57752000       2.69113000    -109.66734844
C        5.20513000       0.30176100       5.85296000    -124.74343136
C       -2.75899000       5.01872000       6.15778000    -160.47016791
C        3.34571000       7.01395000      10.08850000    -159.73067563
C        5.60018200       0.06696506       2.87018000    -146.15777894
N       11.01280000       2.51854000       5.13702000    -252.75964346
N        5.22815000       8.41235000       8.55966000    -260.85316293
N        3.17919000       0.51621200       1.81645000    -265.78067333
H       -1.05679000       6.34328000       5.45365000      10.44119539
H        1.38820000       8.07986000       9.75701000      10.37450168
H       -0.66823100       9.12148000       2.43754000      10.73967600
H        8.48904000       5.36877000       5.60627000       9.37582242
H        3.17703000       5.08640000       9.29181000       9.77572232
H        7.19334000       1.49359000       1.99685000      10.53685678
H       10.97010000       2.81463000       3.13661000      12.52221030
H        5.15393000       8.06320000       6.49626000      11.98541360
H        3.25238000       0.30244800      10.30250000      12.50025851
H       -0.17252800       1.80180000       5.69357000      12.42676111
H        4.87403000      10.21450000       8.66373000      12.55560565
H       -4.88658000      10.74070000       2.00295000      12.62749176
H        9.66786000       1.09393000       5.51294000      12.25142841
H        7.23378000       8.13886000       9.08950000      12.33733177
H        2.68019000       2.37245000       2.12247000      12.21359225
30
Lattice="13.10185 0.0 0.0 -6.550924999999998 11.346534936573148 0.0 0.0 0.0 10.30883" Properties=species:S:1:pos:R:3:cs_iso:R:1 #=T CELL(abcABC):=T 13.10185=T 10.30883=T 90.00000=T 120.00000=T Step:=T 6400=T Bead:=T 0=T positionsatomic_unit=T cellatomic_unit=T pbc="T T T"
O        9.20418000       5.89954000       0.04639530     -75.63231853
O        2.57474000       5.43388000       3.48143000     -86.13149201
O        1.09777000      11.00940000       6.97558000     -58.78111700
O       11.43260000       2.35833000      10.24670000     -52.43412297
O        5.10461000       8.68208000       3.37261000     -83.80496271
O        3.24018000       0.44563900       6.79939000     -51.38620701
C       10.28370000       4.34274000       9.25287000    -115.09943845
C        3.92482000       7.02815000       2.37242000    -109.05731313
C        5.49965000       0.04541370       5.80932000    -127.26731892
C       -2.41145000       4.83082000       6.37015000    -165.32971591
C        3.69813000       6.75048000       9.80922000    -161.72195068
C       -1.14728000      11.20460000       2.97062000    -150.03327604
N       11.64780000       2.47728000       5.16997000    -254.27647157
N        5.23891000       8.66840000       8.50979000    -266.52943758
N        2.92467000       0.42131400       1.61052000    -263.94283896
H       -1.02377000       6.32117000       6.08978000       9.67596293
H        1.82535000       7.11599000       9.36704000       9.32759969
H       -0.59301400       9.07250000       2.28933000      10.52861841
H        8.94597000       5.37862000       5.50173000       9.51780880
H        4.18150000       5.11184000       9.06174000       8.69742321
H        7.09211000       1.04296000       1.85716000      10.70064413
H       11.26740000       2.76440000       3.19615000      12.37249872
H        5.25732000       8.65943000       6.18674000      11.89229241
H       -3.44658500      11.31935014       9.92004000      12.24417293
H        0.36754300       1.94469000       5.81417000      12.52114918
H        5.33213000      10.41340000       9.03464000      12.37221587
H       -4.92124000      10.81020000       2.31856000      12.10861938
H       10.14150000       0.93295800       5.45571000      12.13355090
H        7.10412000       7.80615000       9.01934000      12.27837696
H        2.37987000       2.29378000       2.38857000      12.36812395
30
Lattice="13.10185 0.0 0.0 -6.550924999999998 11.346534936573148 0.0 0.0 0.0 10.30883" Properties=species:S:1:pos:R:3:cs_iso:R:1 #=T CELL(abcABC):=T 13.10185=T 10.30883=T 90.00000=T 120.00000=T Step:=T 6600=T Bead:=T 0=T positionsatomic_unit=T cellatomic_unit=T pbc="T T T"
O        9.51927000       6.00666000       0.39741400     -68.40954451
O        3.00845000       5.01309000       3.43276000     -86.51356664
O        7.14918300       0.13306506       6.86265000     -70.19809700
O       11.29740000       2.18883000      10.21340000     -64.57376551
O        5.34806000       8.53580000       3.37222000     -65.92325964
O        2.92350000       0.41276600       6.68081000     -82.30761781
C       10.53700000       4.32185000       9.26269000    -121.69427745
C        4.01714000       6.80223000       2.26551000    -119.48244877
C        4.95655000       0.24684400       5.79154000    -113.40483434
C       -2.45521000       4.78944000       6.41465000    -156.14020477
C        3.50558000       7.14473000       9.84148000    -156.26155809
C       -1.35396000      11.19310000       2.97544000    -165.25147790
N       -1.50295000       2.62251000       5.19626000    -258.12948457
N        5.49808000       8.57920000       8.51849000    -256.13410029
N        2.91522000       0.33459500       1.54561000    -257.74344278
H       -1.43517000       6.52953000       6.09284000       9.62253355
H        1.83909000       8.28011000       9.00691000      10.09304801
H       -0.75875300       9.13737000       2.94261000       9.94465675
H        8.58387000       5.42673000       5.59453000      10.54931801
H        3.34785000       5.55360000       9.15396000       8.04343409
H        6.84664000       0.69819200       2.37324000       9.16033873
H       11.15050000       2.74844000       3.24458000      12.49123829
H        5.19543000       8.56913000       6.52267000      12.31188601
H       -3.40532500      11.17001194       9.90240000      12.31317698
H        0.39569600       2.16279000       5.33518000      12.49763532
H        5.25880000      10.43370000       9.12512000      12.56773880
H       -5.00204000      10.67630000       2.13711000      12.28672091
H       10.66520000       0.85212400       6.06817000      12.39134359
H        7.43819000       7.60183000       8.92230000      12.26370862
H        2.67156000       2.28651000       1.79421000      12.47820830
30
Lattice="13.10185 0.0 0.0 -6.550924999999998 11.346534936573148 0.0 0.0 0.0 10.30883" Properties=species:S:1:pos:R:3:cs_iso:R:1 #=T CELL(abcABC):=T 13.10185=T 10.30883=T 90.00000=T 120.00000=T Step:=T 6800=T Bead:=T 0=T positionsatomic_unit=T cellatomic_unit=T pbc="T T T"
O       -3.50328000       6.58819000       0.00766942     -70.69866037
O        2.63718000       5.17141000       3.55694000     -90.78177378
O        0.73207300      11.31290000       6.89213000     -76.21138138
O       11.29860000       2.59212000      10.19130000     -83.88879010
O        5.49645000       8.31159000       3.33581000     -61.10615941
O       -3.43048500      11.21010894       6.74875000     -91.42691153
C       -2.51835000       4.65110000       9.22798000    -118.66678866
C        3.79874000       6.80059000       2.34932000    -120.07706566
C        5.19008000       0.00817881       5.73986000    -113.19202363
C       -2.06984000       4.74289000       6.38793000    -162.82686453
C        3.25435000       6.96866000       9.91466000    -160.59567593
C       -1.20402000      11.01940000       2.94191000    -164.43370270
N       11.16090000       2.37254000       5.13275000    -272.00056669
N        5.14550000       8.62144000       8.76951000    -252.15985960
N        3.01402000       0.46440100       1.76740000    -254.12871783
H       -0.33156100       5.60602000       6.22969000       9.18430254
H        1.60258000       7.85653000       9.97357000       8.85845368
H       -0.59183500       9.09688000       2.82728000       9.60343626
H       -3.35969000       6.17423000       5.70737000       9.62026173
H        3.09495000       5.21195000       8.96672000       9.48573774
H        6.79167000       0.54845500       2.09167000       8.81332471
H       11.48390000       2.35383000       3.15536000      12.42496564
H        4.77120000       8.87072000       6.80489000      12.53180242
H        3.13123000       0.35152300       9.97686000      12.14466883
H        0.33526900       1.44371000       5.49485000      12.26566298
H        5.17799000      10.56990000       9.30024000      12.47832874
H       -4.91445000      10.56760000       2.26561000      12.58892464
H        9.58964000       1.06960000       5.75286000      12.03749919
H        6.88553000       7.56831000       9.26943000      12.33811613
H        2.79150000       2.27024000       1.90861000      12.23023358
30
Lattice="13.10185 0.0 0.0 -6.550924999999998 11.346534936573148 0.0 0.0 0.0 10.30883" Properties=species:S:1:pos:R:3:cs_iso:R:1 #=T CELL(abcABC):=T 13.10185=T 10.30883=T 90.00000=T 120.00000=T Step:=T 7000=T Bead:=T 0=T positionsatomic_unit=T cellatomic_unit=T pbc="T T T"
O        9.30647000       5.84054000       0.38024000     -89.58771672
O        3.12212000       4.97376000       3.86454000     -91.72524765
O        7.38690200       0.18636506       6.90982000     -89.07495064
O       11.64790000       2.51810000      10.08230000     -72.06300347
O        5.43949000       8.35241000       3.21989000     -91.51696218
O        3.30993000       0.59459500       6.80531000     -60.29482100
C       10.28500000       4.36399000       9.28233000    -112.82793895
C        4.08096000       6.63532000       2.53180000    -109.91462599
C        5.46933000       0.13828000       5.71622000    -115.16267519
C       10.08632000       4.70802000       6.46046000    -157.62347531
C        3.42610000       6.83009000      10.04760000    -166.25054813
C       -1.18024000      11.05620000       2.95785000    -164.37202439