24
Lattice="10.4054 0.0 0.0 0.0 12.30042 0.0 -2.794647295547531 0.0 11.524401686056802" Properties=species:S:1:pos:R:3 #=T CELL(abcABC):=T 10.40540=T 12.30042=T 11.85841=T 90.00000=T 103.63100=T Step:=T 95500=T Bead:=T 0=T positionsatomic_unit=T cellatomic_unit=T pbc="T T T"
C        1.95224000       4.61313000       0.18409500
C        5.47829000       7.68147000      11.43540000
C        1.79388000      10.69100000       5.24001000
C        5.99419000       1.60108000       6.14129000
C        0.38348300       4.71674000       2.30336000
C        6.95173000       7.41134000       9.47147000
C        3.74747000      10.90950000       3.50291000
C        3.94179000       1.50938000       7.92185000
C       -1.21550000       5.87543000       9.47983000
C        8.53939000       6.19936000       1.92563000
C        2.06001000      12.02680000       7.52309000
C        5.91240000       0.13501400       3.86461000
H        3.75394000       3.58780000       0.17551300
H        3.49019000       8.87869000      11.28990000
H        0.17464500       9.46770000       4.73819000
H        7.48367000       3.13280000       6.49432000
H        1.12007000       3.82911000       4.10554000
H        6.79305000       8.85569000       7.99561000
H        3.39482000       9.52655000       2.16851000
H        4.47947000       2.62478000       9.55649000
H        0.05547460       5.55654000       7.70601000
H        7.33033000       6.16133000       3.42119000
H        0.61881200      12.04400000       8.85284000
H        7.70795000      -0.03339850       2.46480000
24
Lattice="10.4054 0.0 0.0 0.0 12.30042 0.0 -2.794647295547531 0.0 11.524401686056802" Properties=species:S:1:pos:R:3 #=T CELL(abcABC):=T 10.40540=T 12.30042=T 11.85841=T 90.00000=T 103.63100=T Step:=T 95510=T Bead:=T 0=T positionsatomic_unit=T cellatomic_unit=T pbc="T T T"
C        2.05359000       4.49357000       0.18753500
C        5.33936000       7.68085000      11.50750000
C        1.87137000      10.67490000       5.35132000
C        5.77395000       1.65222000       6.05472000
C        0.36170400       4.75072000       2.15770000
C        7.06034000       7.60530000       9.39661000
C        3.82502000      10.78730000       3.64542000
C        4.02588000       1.51018000       7.90416000
C       -1.26316000       5.91644000       9.48299000
C        8.63002000       6.31300000       2.05434000
C        2.04490000      12.20940000       7.73175000
C        5.84294000       0.16761600       3.94469000
H        3.82485000       3.55943000       0.63503900
H        3.77746000       8.59913000      11.34640000
H        0.16574200       9.81008000       4.89573000
H        7.39236000       2.58710000       6.24783000
H        0.49425200       3.51915000       3.97564000
H        6.58965000       8.74789000       7.86713000
H        3.92210000       9.77498000       1.78513000
H        4.23675000       2.59892000       9.40991000
H       -0.20587000       5.67008000       7.83262000
H        7.25985000       6.17792000       4.00851000
H        0.69122500      11.77680000       9.18228000
H        7.52032000       0.30763900       2.59182000
24
Lattice="10.4054 0.0 0.0 0.0 12.30042 0.0 -2.794647295547531 0.0 11.524401686056802" Properties=species:S:1:pos:R:3 #=T CELL(abcABC):=T 10.40540=T 12.30042=T 11.85841=T 90.00000=T 103.63100=T Step:=T 95520=T Bead:=T 0=T positionsatomic_unit=T cellatomic_unit=T pbc="T T T"
C        2.18826000       4.39963000       0.20427900
C        5.41466000       7.66698000      11.38640000
C        1.73514000      10.70560000       5.35797000
C        5.83689000       1.63442000       5.99039000
C        0.33855700       4.64996000       2.19372000
C        7.09129000       7.59337000       9.36042000
C        3.84254000      10.87310000       3.63343000
C        4.09387000       1.39516000       8.07422000
C       -1.39341000       5.84884000       9.62778000
C        8.76039000       6.28910000       2.16020000
C        2.00181000      12.04810000       7.74298000
C        5.71026000       0.29665500       3.82663000
H        3.66710000       3.18881000       0.05605650
H        3.95471000       9.37280000      11.42550000
H        0.06511080       9.45765000       4.99570000
H        7.54704000       2.83330000       6.57208000
H        0.50740500       3.57346000       3.90787000
H        6.61767000       8.45285000       7.54432000
H        3.99580000       9.56709000       1.91174000
H        4.21182000       2.63487000       9.70687000
H       -0.17374000       5.64877000       7.92121000
H        7.45633000       6.41003000       3.39867000
H        0.71407800      11.71920000       9.21955000
H        7.23873000       0.23560500       2.79144000
24
Lattice="10.4054 0.0 0.0 0.0 12.30042 0.0 -2.794647295547531 0.0 11.524401686056802" Properties=species:S:1:pos:R:3 #=T CELL(abcABC):=T 10.40540=T 12.30042=T 11.85841=T 90.00000=T 103.63100=T Step:=T 95530=T Bead:=T 0=T positionsatomic_unit=T cellatomic_unit=T pbc="T T T"
C        2.00156000       4.61162000       0.19146800
C        5.35733000       7.55305000      11.37580000
C        1.80356000      10.89900000       5.36786000
C        5.94180000       1.73379000       6.08131000
C        0.49292400       4.77191000       2.15384000
C        7.00295000       7.56680000       9.38978000
C        3.75369000      10.74270000       3.55842000
C        4.03725000       1.33042000       7.98205000
C       -1.28488000       6.02973000       9.65197000
C        8.82847000       6.32274000       2.08436000
C        1.91090000      11.94380000       7.63725000
C        5.80061000       0.25776800       3.84553000
H        3.50767000       3.17914000       0.47327900
H        3.96095000       8.90112000      10.98330000
H        0.45067400       9.31795000       5.35052000
H        7.66886000       2.86663000       6.47276000
H        0.76005200       3.30874000       3.44404000
H        6.47701000       8.50640000       7.58969000
H        3.69351000       9.27099000       2.09620000
H        4.19420000       2.37449000       9.68271000
H       -0.11328600       5.97159000       7.92635000
H        7.55567000       6.56532000       3.70617000
H        0.26222100      11.99370000       8.83457000
H        7.52048000       0.55759200       2.54753000
24
Lattice="10.4054 0.0 0.0 0.0 12.30042 0.0 -2.794647295547531 0.0 11.524401686056802" Properties=species:S:1:pos:R:3 #=T CELL(abcABC):=T 10.40540=T 12.30042=T 11.85841=T 90.00000=T 103.63100=T Step:=T 95540=T Bead:=T 0=T positionsatomic_unit=T cellatomic_unit=T pbc="T T T"
C        2.07909000       4.82117000       0.23952900
C        5.43648000       7.67422000      11.30950000
C        1.81269000      10.84820000       5.40886000
C        5.80098000       1.69485000       6.15486000
C        0.41276700       4.69709000       2.24350000
C        7.08975000       7.43030000       9.36225000
C        3.66322000      10.92700000       3.57956000
C        3.98519000       1.40068000       7.87235000
C       -1.13181000       6.06732000       9.54830000
C        8.63033000       6.37602000       2.04530000
C        1.96756000      12.13050000       7.55382000
C        5.64317000       0.21172800       3.88912000
H        3.92014000       3.45236000       0.35742200
H        3.46457000       8.83071000      11.14350000
H        0.24254000       9.40930000       5.05368000
H        7.37357000       2.97790000       6.21162000
H        0.62236000       3.24555000       3.76980000
H        6.77458000       8.25470000       7.67190000
H        3.58836000       9.67341000       2.12573000
H        4.00945000       2.64562000       9.81479000
H        0.26870200       5.96470000       8.13732000
H        7.40625000       6.47237000       3.75669000
H        0.31829100      11.46920000       8.86114000
H        6.68969000       0.11445900       2.17464000
24
Lattice="10.4054 0.0 0.0 0.0 12.30042 0.0 -2.794647295547531 0.0 11.524401686056802" Properties=species:S:1:pos:R:3 #=T CELL(abcABC):=T 10.40540=T 12.30042=T 11.85841=T 90.00000=T 103.63100=T Step:=T 95550=T Bead:=T 0=T positionsatomic_unit=T cellatomic_unit=T pbc="T T T"
C        2.14369000       4.79287000       0.29446900
C        5.36434000       7.75724000      11.39880000
C        1.83277000      10.66420000       5.34456000
C        5.88700000       1.61622000       6.07673000
C        0.27452600       4.64795000       2.28673000
C        6.90179000       7.47694000       9.24930000
C        3.68477000      10.88860000       3.56584000
C        4.05043000       1.48295000       8.00261000
C       -1.22403000       6.06257000       9.48795000
C        8.65247000       6.19000000       1.90217000
C        1.88320000      12.30190000       7.54157000
C        5.67513000       0.10341300       3.96240000
H        3.91287000       3.84274000      -0.11065800
H        3.52669000       8.74447000      11.43250000
H        0.19065200       9.77686000       4.97320000
H        7.27494000       3.16185000       5.96892000
H        0.77727600       3.59456000       4.10716000
H        6.71135000       8.80404000       7.45905000
H        3.26373000       9.79683000       1.74843000
H        4.21349000       2.70120000       9.50014000
H        0.23839800       6.13178000       7.95709000
H        7.03474000       6.39837000       3.47845000
H        0.50350400      11.89450000       9.10745000
H        7.16041000       0.64575600       2.31772000
24
Lattice="10.4054 0.0 0.0 0.0 12.30042 0.0 -2.794647295547531 0.0 11.524401686056802" Properties=species:S:1:pos:R:3 #=T CELL(abcABC):=T 10.40540=T 12.30042=T 11.85841=T 90.00000=T 103.63100=T Step:=T 95560=T Bead:=T 0=T positionsatomic_unit=T cellatomic_unit=T pbc="T T T"
C        2.03690000       4.71011000       0.23212600
C        5.33331000       7.61032000      11.39880000
C        1.84525000      10.46590000       5.44338000
C        5.83666000       1.59654000       6.05911000
C        0.25136000       4.78263000       2.28246000
C        7.06534000       7.39820000       9.22178000
C        3.63495000      10.88040000       3.48860000
C        3.98204000       1.57968000       7.97999000
C       -1.14291000       6.20726000       9.51770000
C        8.46142000       6.00509000       1.89054000
C        1.95452000      12.27690000       7.49034000
C        5.68396000       0.26085600       3.93720000
H        3.81149000       3.83087000       0.85990400
H        3.51704000       8.49130000      11.41130000
H        0.25378100       9.31535000       4.96820000
H        7.16064000       2.97311000       6.19016000
H        0.57703500       3.55936000       4.04914000
H        6.52584000       8.59918000       7.71284000
H        3.09183000      10.06220000       1.75665000
H        4.54283000       2.63959000       9.59063000
H        0.34121300       6.22992000       8.11202000
H        6.95295000       6.22616000       3.28172000
H        0.52109300      12.38130000       8.95754000
H        7.19118000       0.62461100       2.58236000
24
Lattice="10.4054 0.0 0.0 0.0 12.30042 0.0 -2.794647295547531 0.0 11.524401686056802" Properties=species:S:1:pos:R:3 #=T CELL(abcABC):=T 10.40540=T 12.30042=T 11.85841=T 90.00000=T 103.63100=T Step:=T 95570=T Bead:=T 0=T positionsatomic_unit=T cellatomic_unit=T pbc="T T T"
C        1.97601000       4.78022000       0.28833800
C        5.40819000       7.69652000      11.29160000
C        1.88974000      10.57070000       5.48191000
C        5.78811000       1.65122000       6.07601000
C        0.39741500       4.85585000       2.15458000
C        7.06138000       7.60685000       9.30615000
C        3.55944000      10.82060000       3.50072000
C        4.05161000       1.57237000       7.96766000
C       -1.05289000       6.13650000       9.56849000
C        8.39136000       6.19638000       1.95311000
C        1.96845000      12.24950000       7.53000000
C        5.68690000       0.21163400       3.88070000
H        3.62745000       3.68983000       0.64805400
H        3.79019000       8.57758000      10.92390000
H        0.03232710       9.33747000       5.02314000
H        7.35206000       2.92410000       6.58779000
H        0.95042100       4.12316000       4.00208000
H        6.59582000       8.66487000       7.68968000
H        3.98132000       9.73497000       1.57303000
H        4.04275000       2.58510000       9.72554000
H        0.38564200       6.19025000       8.10893000
H        7.26268000       5.52344000       3.30647000
H        0.40232700      12.19030000       8.77744000
H        7.33038000       0.02640340       2.61004000
24
Lattice="10.4054 0.0 0.0 0.0 12.30042 0.0 -2.794647295547531 0.0 11.524401686056802" Properties=species:S:1:pos:R:3 #=T CELL(abcABC):=T 10.40540=T 12.30042=T 11.85841=T 90.00000=T 103.63100=T Step:=T 95580=T Bead:=T 0=T positionsatomic_unit=T cellatomic_unit=T pbc="T T T"
C        2.11504000       4.78488000       0.22359600
C        5.36115000       7.40014000      11.22590000
C        1.77317000      10.64700000       5.34421000
C        5.90506000       1.58633000       6.07901000
C        0.28547000       4.85633000       2.17117000
C        7.20931000       7.45139000       9.36993000
C        3.68074000      10.76750000       3.52365000
C        4.02130000       1.42041000       7.89830000
C       -1.04162000       6.07016000       9.47079000
C        8.48671000       6.16528000       2.04500000
C        2.02113000      12.19340000       7.43261000
C        5.73774000       0.11090900       3.84622000
H        3.76616000       3.42663000       0.53281800
H        3.89221000       9.25671000      10.71760000
H        0.05712800       9.61384000       5.25631000
H        7.60690000       2.84369000       6.42484000
H        0.94421700       4.09729000       3.75524000
H        6.92252000       8.70133000       7.51316000
H        3.52388000       9.79424000       1.68647000
H        3.99759000       2.92009000       9.68491000
H        0.24053800       6.06713000       8.02625000
H        6.93003000       6.09082000       3.49825000
H        0.50321600      12.41090000       8.83400000
H        7.00308000      -0.01948600       2.41802000
24
Lattice="10.4054 0.0 0.0 0.0 12.30042 0.0 -2.794647295547531 0.0 11.524401686056802" Properties=species:S:1:pos:R:3 #=T CELL(abcABC):=T 10.40540=T 12.30042=T 11.85841=T 90.00000=T 103.63100=T Step:=T 95590=T Bead:=T 0=T positionsatomic_unit=T cellatomic_unit=T pbc="T T T"
C        2.28901000       4.65471000       0.26036100
C        5.38745000       7.56710000      11.21310000
C        1.73520000      10.75680000       5.36526000
C        5.96503000       1.63696000       6.01792000
C        0.28323300       4.72052000       2.20982000
C        7.27295000       7.54106000       9.52328000
C        3.76338000      10.75190000       3.58381000
C        3.97601000       1.65131000       7.77719000
C       -0.99817500       6.04500000       9.73640000
C        8.48289000       6.12094000       1.89721000
C        1.92035000      12.23070000       7.46149000
C        5.73490000       0.01497960       3.82404000
H        3.99900000       3.66413000       0.64708600
H        3.84929000       8.44335000      10.81150000
H        0.30237500       9.47211000       5.35578000
H        7.90535000       2.57249000       6.01649000
H        0.47083200       3.23865000       3.85140000
H        7.13051000       8.46480000       7.90130000
H        3.02754000       9.33111000       2.18403000
H        4.07937000       2.68069000       9.39255000
H        0.51582700       6.18750000       8.24552000
H        6.75740000       5.97386000       3.45227000
H        0.07661190      12.21200000       8.57443000
H        7.03976000       0.34453600       2.22651000
24
Lattice="10.4054 0.0 0.0 0.0 12.30042 0.0 -2.794647295547531 0.0 11.524401686056802" Properties=species:S:1:pos:R:3 #=T CELL(abcABC):=T 10.40540=T 12.30042=T 11.85841=T 90.00000=T 103.63100=T Step:=T 95600=T Bead:=T 0=T positionsatomic_unit=T cellatomic_unit=T pbc="T T T"
C        2.21041000       4.66404000       0.30458400
C        5.34569000       7.40863000      11.24630000
C        1.78252000      10.77770000       5.40730000
C        5.87280000       1.64867000       5.93610000
C        0.42472900       4.77464000       2.16869000
C        7.21256000       7.61111000       9.38638000
C        3.58728000      10.81130000       3.59991000
C        3.98543000       1.49695000       7.69005000
C       -1.04007000       5.99749000       9.69452000
C        8.52912000       6.10866000       1.83262000
C        1.91443000      12.17570000       7.51777000
C        5.73172000      -0.02633680       3.85653000
H        3.99580000       3.39436000       0.38940100
H        3.10605000       8.38529000      11.05370000
H        0.20500000       9.31960000       5.11541000
H        7.40276000       2.63891000       6.59590000
H        0.74299300       3.72603000       3.96618000
H        7.19586000       8.81089000       7.76799000
H        3.70864000       9.60419000       1.79972000
H        4.10188000       2.80059000       9.27680000
H        0.25482400       5.53318000       8.03582000
H        7.41169000       6.42679000       3.56435000
H        0.57543600      12.03390000       8.94924000
H        7.44822000      -0.04890820       2.48752000
24
Lattice="10.4054 0.0 0.0 0.0 12.30042 0.0 -2.794647295547531 0.0 11.524401686056802" Properties=species:S:1:pos:R:3 #=T CELL(abcABC):=T 10.40540=T 12.30042=T 11.85841=T 90.00000=T 103.63100=T Step:=T 95610=T Bead:=T 0=T positionsatomic_unit=T cellatomic_unit=T pbc="T T T"
C        2.28075000       4.54462000       0.42771200
C        5.21213000       7.55677000      11.21550000
C        1.81443000      10.76310000       5.31411000
C        5.97722000       1.54980000       6.10255000
C        0.49624600       4.81867000       2.29214000
C        7.29086000       7.62110000       9.42207000
C        3.59084000      10.70670000       3.52251000
C        3.89552000       1.58433000       7.79948000
C       -0.99128100       6.02390000       9.71833000
C        8.67543000       6.05960000       1.91565000
C        1.95038000      12.20160000       7.55842000
C        5.75888000       0.18301500       3.86547000
H        3.92594000       3.59831000       0.37767700
H        3.73858000       8.60571000      11.29480000
H        0.18702300       9.53493000       4.91491000
H        7.34363000       3.11142000       6.49471000
H        0.70305700       3.75233000       4.27367000
H        6.62135000       9.01563000       7.63875000
H        3.15558000       9.45759000       2.13157000
H        4.21793000       2.83325000       9.42597000
H        0.21897600       6.24193000       7.99670000
H        7.37576000       6.48497000       3.36533000
H        0.53918500      11.88580000       9.20439000
H        7.30934000      -0.10346800       2.53100000
24
Lattice="10.4054 0.0 0.0 0.0 12.30042 0.0 -2.794647295547531 0.0 11.524401686056802" Properties=species:S:1:pos:R:3 #=T CELL(abcABC):=T 10.40540=T 12.30042=T 11.85841=T 90.00000=T 103.63100=T Step:=T 95620=T Bead:=T 0=T positionsatomic_unit=T cellatomic_unit=T pbc="T T T"
C        2.18811000       4.78739000       0.45289200
C        5.29356000       7.56149000      11.28370000
C        1.78235000      10.60250000       5.45827000
C        5.93928000       1.47324000       5.92674000
C        0.49151200       4.79410000       2.43416000
C        7.12531000       7.60103000       9.45191000
C        3.75149000      10.81180000       3.44759000
C        4.09250000       1.54641000       7.71949000
C       -1.16037000       6.02152000       9.60152000
C        8.72474000       6.14723000       1.99326000
C        1.97821000      12.19120000       7.65843000
C        5.75550000       0.02046150       3.88617000
H        3.90785000       3.42922000       0.67701500
H        3.49419000       8.50967000      11.29030000
H        0.22388200       9.29048000       5.26873000
H        7.53928000       2.76350000       6.00529000
H        0.61252100       3.63081000       3.78225000
H        7.49720000       9.21091000       7.85329000
H        3.81231000       9.30896000       1.97659000
H        4.06922000       2.93817000       9.20803000
H        0.23124300       5.63906000       8.27789000
H        7.30572000       6.08636000       3.53223000
H        0.90567800      12.05420000       9.46226000
H        7.38636000       0.16788400       2.39640000
24
Lattice="10.4054 0.0 0.0 0.0 12.30042 0.0 -2.794647295547531 0.0 11.524401686056802" Properties=species:S:1:pos:R:3 #=T CELL(abcABC):=T 10.40540=T 12.30042=T 11.85841=T 90.00000=T 103.63100=T Step:=T 95630=T Bead:=T 0=T positionsatomic_unit=T cellatomic_unit=T pbc="T T T"
C        2.10841000       4.89916000       0.25093200
C        5.51882000       7.62432000      11.47950000
C        1.76418000      10.58990000       5.48565000
C        5.89626000       1.59401000       6.05300000
C        0.44429700       4.82459000       2.29652000
C        7.17384000       7.63614000       9.51893000
C        3.73255000      10.73590000       3.61682000
C        4.04071000       1.63413000       7.81526000
C       -1.26416000       5.99885000       9.49244000
C        8.63433000       6.40695000       2.04611000
C        2.03644000      12.21680000       7.50230000
C        5.89084000      -0.01122020       3.76983000
H        3.51022000       3.40354000       0.30084000
H        3.97799000       8.90110000      10.71280000
H        0.03130220       9.97768000       4.99208000
H        7.43853000       3.02514000       6.15896000
H        1.21352000       3.84503000       4.00219000
H        6.64197000       8.71680000       8.08013000
H        3.67176000       9.73585000       1.65737000
H        4.49712000       2.66697000       9.58273000
H        0.14046700       5.89143000       8.02106000
H        7.50212000       6.26212000       3.48991000
H        0.86483300      12.14390000       9.00324000
H        7.47669000       0.33438900       2.73552000
24
Lattice="10.4054 0.0 0.0 0.0 12.30042 0.0 -2.794647295547531 0.0 11.524401686056802" Properties=species:S:1:pos:R:3 #=T CELL(abcABC):=T 10.40540=T 12.30042=T 11.85841=T 90.00000=T 103.63100=T Step:=T 95640=T Bead:=T 0=T positionsatomic_unit=T cellatomic_unit=T pbc="T T T"
C        2.01228000       4.81803000       0.14478400
C        5.54872000       7.81268000      11.45620000
C        1.83977000      10.78510000       5.35999000
C        5.94996000       1.66572000       5.94867000
C        0.42652700       4.85153000       2.24265000
C        7.06969000       7.51550000       9.29247000
C        3.73533000      10.75770000       3.53467000
C        3.99993000       1.70154000       7.71387000
C       -1.06678000       6.16669000       9.48850000
C        8.80632000       6.29260000       2.16149000
C        2.05857000      12.23110000       7.47127000
C        5.85767000      -0.08024240       3.89426000
H        3.89488000       3.87974000       0.72626600
H        3.65586000       8.81063000      11.32210000
H       -0.01924590       9.37616000       5.18120000
H        7.52455000       2.86584000       6.24554000
H        0.57996100       3.68446000       4.00039000
H        6.70803000       8.51572000       7.57858000
H        3.21406000       9.76305000       1.89132000
H        4.16050000       2.90218000       9.40605000
H        0.40592100       6.26741000       7.89952000
H        7.14455000       5.93976000       3.75956000
H        0.40953400      11.92540000       8.79670000
H        7.05910000      -0.18542500       2.08410000
24
Lattice="10.4054 0.0 0.0 0.0 12.30042 0.0 -2.794647295547531 0.0 11.524401686056802" Properties=species:S:1:pos:R:3 #=T CELL(abcABC):=T 10.40540=T 12.30042=T 11.85841=T 90.00000=T 103.63100=T Step:=T 95650=T Bead:=T 0=T positionsatomic_unit=T cellatomic_unit=T pbc="T T T"
C        2.14667000       4.71925000       0.15516900
C        5.67132000       7.80959000      11.40040000
C        1.87009000      10.71430000       5.37508000
C        5.92350000       1.56965000       5.85796000
C        0.51755000       4.90795000       2.16268000
C        7.09265000       7.51700000       9.20932000
C        3.66943000      10.62870000       3.63101000
C        4.10237000       1.48184000       7.76807000
C       -1.12179000       6.05108000       9.46248000
C        8.61602000       6.25267000       2.08935000
C        1.93870000      12.23400000       7.53345000
C        5.77650000      -0.06720300       3.94076000
H        3.96825000       4.12811000       0.34638800
H        3.97693000       9.17375000      11.59790000
H        0.28572900       9.47594000       5.23891000
H        7.58541000       2.78766000       6.11621000
H        0.78631800       3.51569000       3.98581000
H        6.51109000       8.55271000       7.40486000
H        3.06860000       9.63152000       1.82942000
H        4.02730000       2.84905000       9.49465000
H        0.28397800       6.13531000       7.90514000
H        6.90726000       6.24242000       3.27318000
H        0.16254400      12.49830000       8.65980000
H        7.29805000      -0.24465400       2.63901000
24
Lattice="10.4054 0.0 0.0 0.0 12.30042 0.0 -2.794647295547531 0.0 11.524401686056802" Properties=species:S:1:pos:R:3 #=T CELL(abcABC):=T 10.40540=T 12.30042=T 11.85841=T 90.00000=T 103.63100=T Step:=T 95660=T Bead:=T 0=T positionsatomic_unit=T cellatomic_unit=T pbc="T T T"
C        2.15748000       4.57659000       0.19145000
C        5.54081000       7.75397000      11.42980000
C        1.73156000      10.75940000       5.48946000
C        5.83174000       1.63289000       5.88548000
C        0.37823200       4.76148000       2.26816000
C        7.02125000       7.48027000       9.15264000
C        3.62887000      10.67550000       3.59190000
C        4.03214000       1.47119000       7.81211000
C       -1.07584000       6.02349000       9.50300000
C        8.60502000       6.41097000       2.08725000
C        1.91011000      12.31960000       7.53284000
C        5.64461000      -0.09619840       3.91576000
H        4.23140000       3.70126000       0.21062400
H        3.78955000       9.02685000      11.69720000
H        0.26927100       9.33013000       5.30506000
H        7.53203000       2.56001000       6.14067000
H        1.25851000       3.73869000       3.61306000
H        6.37471000       8.05539000       7.21534000
H        3.59750000       9.30182000       2.26047000
H        4.27564000       2.30162000       9.51916000
H        0.10982000       5.50566000       7.79815000
H        6.96222000       6.81557000       3.51236000
H        0.61632200      13.02640000       8.91757000
H        7.28747000       0.25449800       2.32448000
24
Lattice="10.4054 0.0 0.0 0.0 12.30042 0.0 -2.794647295547531 0.0 11.524401686056802" Properties=species:S:1:pos:R:3 #=T CELL(abcABC):=T 10.40540=T 12.30042=T 11.85841=T 90.00000=T 103.63100=T Step:=T 95670=T Bead:=T 0=T positionsatomic_unit=T cellatomic_unit=T pbc="T T T"
C        2.16991000       4.74153000       0.20645400
C        5.51848000       7.65624000      11.37000000
C        1.73415000      10.65720000       5.63264000
C        5.78081000       1.63490000       5.91598000
C        0.28787300       4.64523000       2.14267000
C        7.07812000       7.45957000       9.28647000
C        3.52226000      10.68030000       3.72580000
C        4.09650000       1.44702000       7.89193000
C       -1.11137000       6.19473000       9.55696000
C        8.78010000       6.35572000       2.08790000
C        1.93757000      12.29110000       7.82612000
C        5.69844000       0.05596940       3.83188000
H        3.80328000       3.69507000       0.44937400
H        4.39574000       9.32158000      10.85960000
H        0.31504500       9.48230000       5.19051000
H        7.47354000       2.89548000       6.17456000
H        0.64323100       3.80186000       4.01408000
H        6.52295000       8.47019000       7.71979000
H        3.49502000       9.02574000       2.23944000
H        4.68137000       2.82957000       9.43108000
H        0.40401200       6.00572000       8.25247000
H        8.21438000       6.44145000       4.00691000
H        0.46474600      12.20530000       9.22889000
H        7.35255000      -0.38853700       2.54493000
24
Lattice="10.4054 0.0 0.0 0.0 12.30042 0.0 -2.794647295547531 0.0 11.524401686056802" Properties=species:S:1:pos:R:3 #=T CELL(abcABC):=T 10.40540=T 12.30042=T 11.85841=T 90.00000=T 103.63100=T Step:=T 95680=T Bead:=T 0=T positionsatomic_unit=T cellatomic_unit=T pbc="T T T"
C        2.15818000       4.72586000       0.16877900
C        5.41800000       7.66091000      11.36500000
C        1.71948000      10.74090000       5.60211000
C        5.89608000       1.52919000       6.01501000
C        0.41655000       4.70387000       2.13688000
C        7.06862000       7.54036000       9.43860000
C        3.57199000      10.67480000       3.67762000
C        4.14417000       1.55084000       7.82038000
C       -1.13618000       6.14788000       9.59619000
C        8.86549000       6.34731000       1.96181000
C        1.89343000      12.38210000       7.73272000
C        5.57773000      -0.01747170       3.79019000
H        3.28667000       3.00190000       0.35822700
H        4.00975000       9.17383000      11.44750000
H       -0.01766950       9.52749000       5.50996000
H        7.18052000       2.96559000       6.19841000
H        0.75567400       3.71612000       3.78979000
H        6.67319000       8.52857000       7.81152000
H        3.38463000       9.29283000       2.43273000
H        4.74671000       2.65820000       9.47174000
H        0.27801000       6.49000000       8.09716000
H        7.83824000       6.80440000       3.62674000
H        0.53503300      12.04550000       9.26383000
H        6.76567000      -0.09123680       2.11575000
24