24
Lattice="5.5062983558 0.0 0.0 0.0 6.509099354340001 0.0 -1.478863071915956 0.0 6.09844831102248" Properties=species:S:1:pos:R:3:CS:R:1:CSerr:R:1:CSens:R:16:center_atoms_mask:L:1 #=T CELL(abcABC):=T 10.40540=T 12.30042=T 11.85841=T 90.00000=T 103.63100=T Step:=T 95500=T Bead:=T 0=T positionsatomic_unit=T cellatomic_unit=T pbc="T T T"
C        1.03308051       2.44116229       0.09741884      33.50676972       0.39452979      33.75246495      33.50122202      33.75835177      33.45224397      33.53766043      32.94439973      33.10778059      33.84131133      33.25005415      34.19362307      33.64088328      33.92183656      32.77778613      32.91862178      33.60186259      33.90821323  T
C        2.89898507       4.06485725       6.05135067      43.48177098       0.90577529      42.84264056      43.71607985      43.71689363      44.65510455      43.18764114      42.88639084      42.67426704      42.89439666      42.95842077      42.70725078      42.95279483      43.52880429      43.23854327      45.78012541      45.16571196      42.80327013  T
C        0.94928004       5.65743131       2.77289277      32.19435233       0.65792302      32.04757014      31.27419817      31.40898113      32.96783982      32.20238512      32.27250511      31.05606411      32.53621557      31.36358956      33.31635761      33.07241674      32.69493131      32.22599333      31.85678167      32.05491662      32.75889136  T
C        3.17198748       0.84725471       3.24982942      17.44358860       0.62122134      16.42442871      17.54016835      18.05389422      17.52999034      17.15430977      18.69771796      18.14076939      16.78809771      16.97334831      16.82246802      17.34509015      16.78507374      18.40754461      17.12336158      17.61983621      17.69131861  T
C        0.20293038       2.49599032       1.21888513      33.78555777       0.51209784      34.30864409      33.71298891      32.74618556      33.82133415      34.72298864      33.81218184      34.20039999      33.32375381      34.13935699      34.16286411      34.33033325      33.49881928      33.68069079      33.66727661      33.58154025      32.85956603  T
C        3.67869563       3.92191067       5.01208408      45.59404686       0.96900505      46.01428998      45.42442717      45.32254562      45.85153247      45.88407739      45.18406223      47.21251023      45.52558506      44.47420066      45.75033601      47.97313671      46.28626646      45.02496319      44.52062774      43.96439338      45.09179547  T
C        1.98307493       5.77305648       1.85365941      40.36819824       0.78919569      40.01950960      41.44992007      39.74834714      39.97697113      40.20835178      39.28329654      41.18499319      40.22307298      41.61280103      39.08299999      40.32082142      41.27821029      40.66972912      39.60250707      39.77353143      41.45610908  T
C        2.08590461       0.79872918       4.19206082      36.46989000       0.52357576      36.53592848      37.37912380      36.24617853      37.36363631      36.80317805      35.72152382      35.90685687      36.75541142      36.53412727      36.55101649      36.43923699      36.81362831      36.27236087      36.31531370      35.27589475      36.60482428  T
C       -0.64321464       3.10914242       5.01650800      30.58472165       0.71673888      30.95731284      31.44327968      29.60489833      30.88088742      31.16587467      31.99691625      29.91005638      29.25478536      30.45422533      31.20281483      31.01585327      30.12694547      30.80139425      29.84029603      30.00796534      30.69204089  T
C        4.51884878       3.28055873       1.01899911      43.79841117       0.81025834      44.31446701      44.28461750      44.45972905      44.22044156      43.59641821      44.09637274      45.45951733      43.80684860      43.78983414      43.30079316      44.48287914      41.65423609      43.33860237      43.25711174      42.97670247      43.73600765  T
C        1.09010991       6.36430594       3.98104620      45.90535205       0.57482003      44.65349303      45.45639800      45.72182825      45.98698577      45.13147056      45.85035213      47.16905006      46.06736478      46.91957962      45.69133399      46.15362676      45.90768638      45.71192703      46.16966868      45.89447379      46.00039390  T
C        3.12870609       0.07144630       2.04506273      30.32869762       0.48084332      30.19544181      29.96875600      30.53290692      30.29474534      29.60390079      30.27748919      30.84295536      29.65557564      30.61582320      31.09023486      31.05196261      29.94375757      30.89896248      29.56003399      30.43938618      30.28723006  T
H        1.98649871       1.89858124       0.09287744      23.87234868       0.04659136      23.92022127      23.90420470      23.86276924      23.84443319      23.79867338      23.86688128      23.82221220      23.98023664      23.86625360      23.81811285      23.92399889      23.89816981      23.88873582      23.81192112      23.85678309      23.89397183  F
H        1.84692827       4.69839854       5.97435541      22.43242025       0.05631790      22.49668002      22.31145698      22.41280229      22.48080699      22.44682434      22.34391039      22.45409780      22.38466704      22.51610299      22.35897336      22.49792279      22.43011097      22.45249974      22.42167426      22.46576612      22.44442794  F
H        0.09241812       5.01008908       2.50734117      23.53128504       0.05368197      23.51358158      23.55292013      23.50035284      23.61120327      23.40128129      23.48711403      23.54804341      23.57857054      23.55950592      23.47622293      23.59190098      23.53103253      23.49266161      23.59238026      23.48781356      23.57597579  F
H        3.96018604       1.65780571       3.43664477      22.49233875       0.07339849      22.53016261      22.50714249      22.43043765      22.40128546      22.48851780      22.51801802      22.57190763      22.57576390      22.57128769      22.30629250      22.48345424      22.48118206      22.58091341      22.45642814      22.55144227      22.42318405  F
H        0.59271528       2.02627694       2.17255734      24.57131978       0.05366226      24.66450045      24.62745475      24.53812827      24.62308559      24.54626648      24.52994017      24.51858928      24.61718103      24.52231147      24.65436970      24.51972528      24.54387680      24.49140043      24.63056768      24.56699706      24.54672206  F
H        3.59472582       4.68622747       4.23109291      26.06983417       0.05392107      25.98141237      26.10357659      26.10954943      26.12959434      26.03740555      26.02078310      26.14201016      26.04909220      26.08904325      26.09206701      26.06487141      26.00371908      26.10384086      26.02325620      25.99884273      26.16828245  F
H        1.79646066       5.04123115       1.14752562      25.13137599       0.05690220      24.99180319      25.14614083      25.07211445      25.17899956      25.06900555      25.24803476      25.10128804      25.16607349      25.08564767      25.14346064      25.14218330      25.14501379      25.16566662      25.15113251      25.17995935      25.11549200  F
H        2.37043250       1.38897321       5.05707471      24.77949863       0.05865978      24.81700697      24.82732528      24.82271626      24.81018228      24.85613979      24.73827240      24.71842932      24.77112381      24.86708770      24.69849848      24.66291053      24.80661973      24.78697560      24.74301629      24.83259517      24.71307855  F
H        0.02935588       2.94039317       4.07784325      22.47320553       0.07707143      22.54612214      22.42529856      22.50524428      22.37585799      22.53155385      22.54154495      22.43053309      22.48102837      22.30387669      22.50129713      22.56399394      22.44430772      22.54983316      22.34320321      22.47943450      22.54815890  F
H        3.87904204       3.26043413       1.81041506      25.03684315       0.05370901      25.01733581      25.05562281      24.96753993      25.04439045      25.07081653      25.02068259      25.08785935      25.03778732      25.03519054      25.11801884      24.94742934      25.11196786      25.11403068      24.95200403      24.98147298      25.02734140  F
H        0.32746108       6.37340779       4.68471931      24.87410017       0.06891753      24.92792329      24.85960450      24.95347804      24.99023449      24.79483019      25.02491808      24.86001051      24.84504518      24.81411791      24.77402493      24.91590732      24.85110493      24.86858833      24.81835169      24.81091295      24.87655041  F
H        4.07886986       6.49142564       1.30431547      22.49443636       0.06079509      22.60334606      22.49377069      22.40412361      22.41071677      22.52243250      22.50771417      22.49385364      22.53633171      22.48895180      22.55488909      22.40144577      22.54556432      22.48854970      22.52206194      22.54709007      22.39013990  F
24
Lattice="5.5062983558 0.0 0.0 0.0 6.509099354340001 0.0 -1.478863071915956 0.0 6.09844831102248" Properties=species:S:1:pos:R:3:CS:R:1:CSerr:R:1:CSens:R:16:center_atoms_mask:L:1 #=T CELL(abcABC):=T 10.40540=T 12.30042=T 11.85841=T 90.00000=T 103.63100=T Step:=T 95510=T Bead:=T 0=T positionsatomic_unit=T cellatomic_unit=T pbc="T T T"
C        1.08671260       2.37789389       0.09923921      38.12954880       0.42898935      38.36430939      38.23059260      37.78536776      38.69516379      38.37614569      37.81700730      37.65170437      37.75597855      38.42932768      37.67632583      38.27403485      37.16764088      38.42188751      38.08689999      38.64652920      38.69386537  T
C        2.82546651       4.06452916       6.08950433      44.19558342       0.84508480      43.26199751      45.13867601      45.59843945      44.31172374      44.29642467      44.74505750      45.30646608      43.62661706      44.93067530      43.97028782      44.01039848      44.50022754      44.24222888      42.71468602      42.50770044      43.96772824  T
C        0.99028596       5.64891156       2.83179546      30.87752808       0.49516596      31.39202426      30.32180259      30.45521590      31.63794286      31.24065337      30.98639233      30.94766747      30.25023027      31.09793074      30.46058043      31.16208799      30.37715495      31.06628382      29.91560666      31.18847426      31.54040138  T
C        3.05544154       0.87431682       3.20401857      49.03446930       0.67034272      48.18243989      48.79826980      49.63249168      48.55580816      48.45877444      49.00455282      49.59702500      48.60382061      48.74965299      49.61463578      49.85782442      49.54337832      47.90267024      50.17802564      49.65173030      48.22040876  T
C        0.19140544       2.51397176       1.14180521      33.22946083       0.34097712      33.06568561      33.45690534      33.85382942      33.12496334      32.80134986      32.93487510      33.48712364      33.72906749      33.31644906      33.20085421      33.43178551      33.30010643      33.10686833      32.38916171      33.13781923      33.33452906  T
C        3.73616954       4.02454984       4.97246989      35.94852422       0.56382318      35.81769717      35.61310101      35.94158891      35.83264474      37.34489559      35.01058204      35.30087800      36.64738084      35.35591020      35.69160471      36.44438303      35.79805194      36.66100220      35.94032827      35.83759514      35.93874378  T
C        2.02411261       5.70839105       1.92907242      38.21706929       0.36355865      38.21363279      38.66339193      38.70577525      37.67570240      38.10334233      38.37725785      37.79320705      37.60857903      37.92376132      38.88396299      38.17603626      38.61616263      38.22848383      38.42074646      38.03202725      38.05103934  T
C        2.13040310       0.79915252       4.18269968      56.82046107       0.60459321      57.40692198      55.74745042      56.48211964      56.34425482      56.30381032      57.27714387      56.85080352      57.80278938      57.23280200      57.25474209      57.83460276      56.21144644      55.94423742      56.82393132      56.95408920      56.65623185  T
C       -0.66843522       3.13084397       5.01818020      38.28544696       0.44364889      38.59356095      38.46322273      38.64772238      37.93743074      38.90783952      37.80333135      38.58054550      37.68631246      38.33722105      39.03265529      37.98569791      38.80562073      38.13221661      38.31444774      37.65725507      37.68207126  T
C        4.56680809       3.34069440       1.08710948      30.96450106       0.82277223      30.42695827      31.27340058      31.98119247      30.13592226      31.52629834      32.15262702      30.06450727      29.93777984      30.98957763      32.62246291      31.77169113      30.79003622      30.34939579      30.44419103      31.02660542      29.93937083  T
C        1.08211405       6.46093366       4.09146427      34.45383774       0.52366051      35.17148625      33.94290030      35.07137556      33.83983248      34.23306950      34.18467700      34.67984163      34.11100661      34.68885866      33.45847482      34.49535602      33.89513269      35.21309710      35.20321793      34.37573643      34.69734090  T
C        3.09194946       0.08869853       2.08743922      34.10231382       0.94038562      33.25797653      34.24912228      34.06784326      34.31094776      33.96085328      36.40059445      33.44179405      34.62364297      32.78423925      34.17141794      34.71005043      35.75843263      34.22567118      33.02007504      33.56962582      33.08473418  T
H        2.02402265       1.88356849       0.33604803      23.98262490       0.04567890      23.99262332      23.99811852      23.94002739      24.01946508      24.03657941      24.05581069      23.95611013      24.00572573      23.93438573      24.00662551      23.97698863      24.02514554      23.98555640      23.92329805      23.87307403      23.99246426  F
H        1.99894495       4.55046182       6.00425391      25.63121544       0.06137537      25.66466255      25.57157782      25.53847202      25.59532480      25.65349722      25.60524395      25.54874847      25.70782855      25.70386614      25.62322432      25.53359618      25.62876607      25.65548447      25.72455434      25.62587673      25.71872342  F
H        0.08770685       5.19126870       2.59070771      24.19085344       0.05456057      24.20283624      24.17553495      24.10665030      24.14499865      24.25936407      24.24197323      24.15650737      24.16953720      24.19947386      24.23468525      24.14309052      24.17525288      24.11671175      24.17871479      24.22380084      24.32452307  F
H        3.91186689       1.36903382       3.30620794      25.43131119       0.08487054      25.50207664      25.44036012      25.40410861      25.28603946      25.47360798      25.58856599      25.41029120      25.39931903      25.56549170      25.36111320      25.37710913      25.46473599      25.34793905      25.50954320      25.47490980      25.29576797  F
H        0.26154679       1.86225324       2.10381725      24.55817458       0.05578263      24.55021747      24.60621431      24.46655031      24.46181645      24.57523805      24.56044592      24.53492483      24.59725937      24.64137424      24.60636083      24.47907525      24.57664586      24.59933866      24.56934121      24.62248229      24.48350823  F
H        3.48709122       4.62918219       4.16310425      25.98324428       0.04100500      25.98690678      26.00765969      26.04199945      26.05596851      26.00252477      26.03267327      25.93132866      25.91242781      26.01543655      25.95829012      25.95682568      26.01079246      25.94173599      25.96688109      25.94198940      25.96846817  F
H        2.07548511       5.17269459       0.94464974      23.91484814       0.04882757      23.91745598      23.92143217      23.88697519      23.87847319      23.89540975      23.94503291      23.86745716      23.96493790      24.02040342      23.94002186      23.89570219      23.99910106      23.93175914      23.83995404      23.87634318      23.85711114  F
H        2.24199065       1.37528869       4.97950794      26.94821567       0.06202814      26.99733951      26.89266074      27.07999080      26.94408795      26.93183467      26.85399993      27.00507229      26.85790416      27.02077209      26.96712511      26.85798606      27.01027020      26.93738162      26.92981493      26.94503116      26.94017942  F
H       -0.10894167       3.00047592       4.14484235      24.04522624       0.06415471      24.08326738      23.90015483      24.11443682      24.07915330      24.08893594      24.10362914      24.01830403      24.08559812      24.01230363      24.00797219      24.15616535      24.00549312      23.93514323      24.01947064      24.04383845      24.06975370  F
H        3.84174564       3.26921317       2.12121130      21.92068198       0.08384482      21.99431474      21.83877285      21.88772657      21.99821235      21.86501793      22.05363503      21.91607730      21.73563971      21.92077155      21.91181563      21.92264591      21.92755067      22.04558567      21.97644734      21.78499244      21.95170596  F
H        0.36578037       6.23201169       4.85905138      23.78999941       0.04319889      23.80286061      23.75144326      23.80855426      23.82096430      23.77384700      23.79746236      23.80977582      23.84575059      23.69603648      23.84475583      23.81014995      23.79911575      23.80100542      23.74554034      23.70489928      23.82782923  F
H        3.97958038       0.16279548       1.37153153      23.43314050       0.05720834      23.46113479      23.43962940      23.45181062      23.52489809      23.45677706      23.52292488      23.49360520      23.33611083      23.38952373      23.40707220      23.44416977      23.42272175      23.46013514      23.31601374      23.43238719      23.37133354  F
24
Lattice="5.5062983558 0.0 0.0 0.0 6.509099354340001 0.0 -1.478863071915956 0.0 6.09844831102248" Properties=species:S:1:pos:R:3:CS:R:1:CSerr:R:1:CSens:R:16:center_atoms_mask:L:1 #=T CELL(abcABC):=T 10.40540=T 12.30042=T 11.85841=T 90.00000=T 103.63100=T Step:=T 95520=T Bead:=T 0=T positionsatomic_unit=T cellatomic_unit=T pbc="T T T"
C        1.15797686       2.32818300       0.10809975      38.78082560       0.89007446      37.97392409      38.22901379      39.59380208      37.32342964      37.87304289      38.51229530      39.55174859      38.73140043      40.10711788      38.00776066      38.37563658      40.32305240      37.70182183      39.24139467      39.79474355      39.15302530  T
C        2.86531353       4.05718948       6.02542099      19.87468789       0.85777216      19.62598100      18.99237853      20.40083711      19.46651851      18.51155013      18.87567914      21.53838304      20.17446164      20.02361523      19.04110567      18.92107909      20.44870914      19.94826123      21.32130715      20.71583884      19.98930081  T
C        0.91819618       5.66515729       2.83531449      25.72825475       0.58993540      25.39111747      25.21318048      25.89706341      25.80672132      25.98029009      26.31880279      26.59651926      25.19494962      24.55080763      26.37379791      26.07737230      25.78116282      25.78669720      24.68080969      25.48824338      26.51454059  T
C        3.08874794       0.86489747       3.16997661      28.22372076       0.48046635      28.34673126      28.67402420      27.20707330      28.61921510      28.13355262      28.14111862      27.85376466      28.63603219      28.40389062      28.59067353      28.08020048      28.43104079      28.49145288      28.11337374      28.78753596      27.06985218  T
C        0.17915658       2.46065188       1.16086617      38.83056577       0.48127165      37.94392214      39.50097385      39.04965785      38.46126674      38.59300017      38.59671401      38.61584946      39.30960644      38.13638201      38.79480651      39.87761356      38.54366924      38.90157279      39.28727208      38.94734790      38.72939763  T
C        3.75254757       4.01823676       4.95331897      41.06398706       0.44355244      41.99601452      40.99104277      40.49118089      41.00102857      41.58489392      40.68126205      40.56392492      40.47843830      40.76633066      40.52237147      41.25202871      41.41918064      41.04866282      41.33672579      41.34039902      41.55030782  T
C        2.03338379       5.75379444       1.92272759      35.34598379       0.49296643      36.14905937      34.96351048      35.01752832      35.24202902      34.93851668      35.03544619      34.53747863      35.56491852      35.98244687      36.12533080      34.90785475      34.64237013      35.76133988      35.55198010      35.62849453      35.48743632  T
C        2.16638184       0.73828658       4.27269152      31.83387649       0.44960026      31.01692476      31.90326366      31.55760512      31.05182301      32.20745910      31.54952361      31.73609522      31.82335234      32.73939383      31.68335729      31.84150090      32.12866310      32.64446504      31.88087531      31.62900909      31.94871237  T
C       -0.73736052       3.09507160       5.09479974      32.49051466       1.39861082      33.27231916      30.62052914      31.94274134      33.23552926      30.21610868      34.81165146      32.91784970      32.83861507      33.26996552      32.06993709      30.67924511      32.56826333      34.18056151      34.70602879      31.80864525      30.71024423  T
C        4.63579690       3.32804707       1.14312816      45.11574096       0.98587206      43.74337197      46.06262843      44.55131239      45.94897092      45.19552992      43.38857682      47.01879167      46.22847014      45.64196532      44.55409587      43.75367639      44.81097806      45.52354961      44.40729107      45.07121700      45.95142971  T
C        1.05931181       6.37557741       4.09740693      27.33660978       0.59825212      27.32043479      26.69548859      27.28790576      27.60703839      28.16989089      26.68351263      27.38603514      26.59084938      27.66148874      27.08813495      28.54351934      26.20039450      28.12306588      27.36738153      27.21683638      27.44377967  T
C        3.02173826       0.15698300       2.02496458      54.97185698       1.25743765      54.50338179      52.53233439      55.69736046      56.24373004      54.41360966      52.42497577      55.83969236      56.01987479      56.50882971      56.02742390      56.58980266      54.48279099      54.42292967      54.56520694      53.82893245      55.44883616  T
H        1.94054498       1.68744491       0.02966381      24.31550967       0.05360592      24.31320079      24.35350155      24.23983256      24.31800173      24.32715434      24.33949337      24.38488279      24.24945457      24.34242613      24.40603415      24.27986761      24.29046907      24.25414305      24.37989469      24.22045158      24.34934670  F
H        2.09274157       4.95987019       6.04611181      22.58393365       0.09841238      22.60129622      22.75519432      22.63913718      22.42731844      22.55848987      22.54148639      22.45399329      22.58432084      22.61391249      22.60584600      22.53002086      22.62209796      22.76349993      22.53308355      22.69144439      22.42179669  F
H        0.03445514       5.00477085       2.64360954      22.97818314       0.06639945      22.80266038      23.05998154      22.94811501      22.93301216      23.00864139      23.05491105      23.01671969      22.97968979      22.97273062      23.05164766      22.91101015      22.93764631      22.92032667      23.04437281      22.98153910      23.02792589  F
H        3.99371999       1.49931719       3.47779358      22.91144417       0.05832433      22.91288678      22.87232221      22.95744579      22.89396417      22.90769856      22.89562717      23.03978762      22.94609422      22.92023957      22.76033632      22.90469729      22.98690904      22.88876778      22.92660257      22.85546972      22.91425798  F
H        0.26850706       1.89099284       2.06795492      25.40241051       0.04242932      25.39041278      25.36832727      25.35719404      25.43922079      25.36257921      25.38037172      25.40003008      25.41098373      25.43650511      25.46126541      25.39394324      25.47625913      25.45600919      25.40864634      25.38747380      25.30934634  F
H        3.50191876       4.47305380       3.99228062      25.37205675       0.05085202      25.26712061      25.36572290      25.45949092      25.37625864      25.33633622      25.40721210      25.31220564      25.38995274      25.36183761      25.41771315      25.30887694      25.43640104      25.32907642      25.36388824      25.43353822      25.38727661  F
H        2.11448546       5.06268398       1.01164884      23.83092496       0.08570579      23.76552162      23.78888061      23.70925977      23.79591228      23.89221879      24.05350547      23.70050819      23.82703960      23.95726792      23.79475368      23.83382311      23.87513023      23.84877593      23.81559802      23.76817332      23.86843083  F
H        2.22879827       1.39431260       5.13665235      24.90085484       0.05728817      24.96936670      24.88719426      24.93998907      24.85723783      24.88995070      24.80928001      24.87218228      24.79604425      24.90213844      24.88992709      24.95963177      24.85966165      24.93747290      24.86369612      24.98737041      24.99253388  F
H       -0.09193921       2.98919916       4.19172214      23.61405280       0.06010318      23.59542030      23.58943103      23.72604533      23.70057392      23.71567416      23.69239397      23.59135698      23.61478602      23.57478458      23.59511400      23.53956900      23.57024062      23.51445042      23.60748954      23.59444798      23.60306695  F
H        3.94571834       3.39204045       1.79849799      25.15216668       0.06802876      25.01568529      25.18987032      25.11923316      25.19319265      25.20926596      25.12101518      25.25165616      25.05150098      25.17979972      25.25617968      25.14404711      25.09289284      25.09978823      25.24095602      25.15175052      25.11783304  F
H        0.37787365       6.20153110       4.87877381      23.70934315       0.04909126      23.65685765      23.70566664      23.76581937      23.67436161      23.66985255      23.66642683      23.72402826      23.83190380      23.62889502      23.68263985      23.74903103      23.75757225      23.71054662      23.74170894      23.68995036      23.69422957  F
H        3.83056943       0.12467675       1.47716584      25.63650775       0.03974850      25.54507086      25.63128309      25.62982207      25.62672462      25.66411058      25.69084478      25.67309063      25.61175527      25.59815289      25.62616348      25.64836354      25.60646347      25.65801467      25.60101105      25.65732117      25.71593181  F
24
Lattice="5.5062983558 0.0 0.0 0.0 6.509099354340001 0.0 -1.478863071915956 0.0 6.09844831102248" Properties=species:S:1:pos:R:3:CS:R:1:CSerr:R:1:CSens:R:16:center_atoms_mask:L:1 #=T CELL(abcABC):=T 10.40540=T 12.30042=T 11.85841=T 90.00000=T 103.63100=T Step:=T 95530=T Bead:=T 0=T positionsatomic_unit=T cellatomic_unit=T pbc="T T T"
C        1.05917952       2.44036324       0.10132046      47.15274263       0.71572786      46.70894192      47.29017142      47.16894081      47.34103624      46.98834153      46.53815064      47.94393572      47.81680949      47.14575791      46.07695525      48.92741935      46.77508913      47.07155657      45.86610991      47.74353665      47.04112954  T
C        2.83497582       3.99690034       6.01981172      37.58311653       0.57605519      37.77563519      37.04014416      37.53022897      37.20459126      37.87739096      36.88444145      37.68000621      37.85462565      38.92308162      37.25913448      38.33387605      37.18677832      36.68585743      37.11683774      37.67153956      38.30569545  T
C        0.95440247       5.76750012       2.84054805      41.57418166       1.34479765      41.26445419      41.19539150      41.03332388      40.78906933      41.60502941      41.82213391      38.19604048      42.12616030      41.04127817      40.78113704      42.93011122      39.98093072      42.23401337      42.99605657      43.38756257      43.80421394  T
C        3.14426390       0.91748179       3.21808938      23.82312487       0.37501757      23.69401348      24.09851991      23.51338363      23.89315061      23.41667047      23.49401299      24.79548674      23.39026375      23.51584884      24.05477234      24.37937855      23.83101163      23.59590747      23.76883444      24.12412334      23.60461972  T
C        0.26084404       2.52518502       1.13976259      51.36544289       0.63844382      51.57886754      51.83234146      52.19462705      51.17606345      51.02362903      51.45273948      51.79175054      51.84408463      51.83606289      50.36230004      52.51516801      51.47583254      51.10266135      50.57528378      50.10072798      50.98494654  T
C        3.70580007       4.00417652       4.96885561      32.94973331       0.53696216      33.58986940      32.84037488      33.04904505      32.89793677      32.75782113      34.01156634      33.09780201      33.22519517      31.98405858      31.91548917      32.82797496      33.51326602      32.97427798      33.10066960      32.23653297      33.17385299  T