
     Program PWSCF v.6.1 (svn rev. 13369) starts on 18Dec2017 at  7: 7:40 

     This program is part of the open-source Quantum ESPRESSO suite
     for quantum simulation of materials; please cite
         "P. Giannozzi et al., J. Phys.:Condens. Matter 21 395502 (2009);
          URL http://www.quantum-espresso.org", 
     in publications or presentations arising from this work. More details at
     http://www.quantum-espresso.org/quote

     Parallel version (MPI), running on     8 processors
     R & G space division:  proc/nbgrp/npool/nimage =       8
     Waiting for input...
     Reading input from standard input

     Current dimensions of program PWSCF are:
     Max number of different atomic species (ntypx) = 10
     Max number of k-points (npk) =  40000
     Max angular momentum in pseudopotentials (lmaxx) =  3
               file C.pbe-n-kjpaw_psl.0.1.UPF: wavefunction(s)  2P renormalized
               file N.pbe-n-kjpaw_psl.0.1.UPF: wavefunction(s)  2P renormalized
               file H.pbe-kjpaw_psl.0.1.UPF: wavefunction(s)  1S renormalized
               file O.pbe-n-kjpaw_psl.0.1.UPF: wavefunction(s)  2P renormalized

     -------------------------------------
     Parameters for Dispersion Correction:
     -------------------------------------
       atom      VdW radius       C_6     

        C          2.744         60.710
        N          2.640         42.670
        H          1.892          4.857
        O          2.536         24.284

     Subspace diagonalization in iterative solution of the eigenvalue problem:
     a serial algorithm will be used

 
     Parallelization info
     --------------------
     sticks:   dense  smooth     PW     G-vecs:    dense   smooth      PW
     Min         546     546    149               114486   114486   16105
     Max         547     547    150               114503   114503   16112
     Sum        4375    4375   1197               915991   915991  128871
 


     bravais-lattice index     =            0
     lattice parameter (alat)  =      20.2339  a.u.
     unit-cell volume          =    6779.6312 (a.u.)^3
     number of atoms/cell      =          104
     number of atomic types    =            4
     number of electrons       =       352.00
     number of Kohn-Sham states=          211
     kinetic-energy cutoff     =     100.0000  Ry
     charge density cutoff     =     400.0000  Ry
     convergence threshold     =      1.0E-08
     mixing beta               =       0.5000
     number of iterations used =            8  plain     mixing
     Exchange-correlation      =  SLA  PW   PBX  PBC ( 1  4  3  4 0 0)

     celldm(1)=  20.233865  celldm(2)=   0.000000  celldm(3)=   0.000000
     celldm(4)=   0.000000  celldm(5)=   0.000000  celldm(6)=   0.000000

     crystal axes: (cart. coord. in units of alat)
               a(1) = (   1.000000   0.000000   0.000000 )  
               a(2) = (   0.000000   0.336359   0.000000 )  
               a(3) = (   0.000000   0.000000   2.433134 )  

     reciprocal axes: (cart. coord. in units 2 pi/alat)
               b(1) = (  1.000000  0.000000  0.000000 )  
               b(2) = (  0.000000  2.973011  0.000000 )  
               b(3) = (  0.000000  0.000000  0.410993 )  


     PseudoPot. # 1 for  C read from file:
     /scratch/ahofstet/pseudo/C.pbe-n-kjpaw_psl.0.1.UPF
     MD5 check sum: 430fe95172b1e11ef3f8ed03bac87931
     Pseudo is Projector augmented-wave + core cor, Zval =  4.0
     Generated using "atomic" code by A. Dal Corso  v.5.0.99 svn rev. 10869
     Shape of augmentation charge: BESSEL
     Using radial grid of 1073 points,  4 beta functions with: 
                l(1) =   0
                l(2) =   0
                l(3) =   1
                l(4) =   1
     Q(r) pseudized with 0 coefficients 


     PseudoPot. # 2 for  N read from file:
     /scratch/ahofstet/pseudo/N.pbe-n-kjpaw_psl.0.1.UPF
     MD5 check sum: f73187c8b701007e77325f868c9291d7
     Pseudo is Projector augmented-wave + core cor, Zval =  5.0
     Generated using "atomic" code by A. Dal Corso  v.5.0.99 svn rev. 10869
     Shape of augmentation charge: PSQ
     Using radial grid of 1085 points,  4 beta functions with: 
                l(1) =   0
                l(2) =   0
                l(3) =   1
                l(4) =   1
     Q(r) pseudized with 0 coefficients 


     PseudoPot. # 3 for  H read from file:
     /scratch/ahofstet/pseudo/H.pbe-kjpaw_psl.0.1.UPF
     MD5 check sum: 94e484f906d9e9773b2f6e52662335b2
     Pseudo is Projector augmented-wave, Zval =  1.0
     Generated using "atomic" code by A. Dal Corso  v.5.0.99 svn rev. 10869
     Shape of augmentation charge: PSQ
     Using radial grid of  929 points,  2 beta functions with: 
                l(1) =   0
                l(2) =   0
     Q(r) pseudized with 0 coefficients 


     PseudoPot. # 4 for  O read from file:
     /scratch/ahofstet/pseudo/O.pbe-n-kjpaw_psl.0.1.UPF
     MD5 check sum: 3f94a2996a3169367d6eb21d9b593f20
     Pseudo is Projector augmented-wave + core cor, Zval =  6.0
     Generated using "atomic" code by A. Dal Corso  v.5.0.99 svn rev. 10869
     Shape of augmentation charge: BESSEL
     Using radial grid of 1095 points,  4 beta functions with: 
                l(1) =   0
                l(2) =   0
                l(3) =   1
                l(4) =   1
     Q(r) pseudized with 0 coefficients 


     atomic species   valence    mass     pseudopotential
        C              4.00    12.01070      C( 1.00)
        N              5.00    14.00670      N( 1.00)
        H              1.00     1.00794      H( 1.00)
        O              6.00    15.99940      O( 1.00)

     No symmetry found
          (note:  1 additional sym.ops. were found but ignored
           their fractional translations are incommensurate with FFT grid)


   Cartesian axes

     site n.     atom                  positions (alat units)
         1           N   tau(   1) = (   0.4671877   0.2079660   0.8427842  )
         2           N   tau(   2) = (   0.5328710   0.1285164   2.0590745  )
         3           N   tau(   3) = (   1.0328710   0.2078429   2.0590745  )
         4           N   tau(   4) = (  -0.0328123   0.1283933   0.8427842  )
         5           C   tau(   5) = (   0.4401670   0.1556165   0.9569204  )
         6           C   tau(   6) = (   0.5598954   0.1808181   2.1732135  )
         7           C   tau(   7) = (   1.0598954   0.1555412   2.1732135  )
         8           C   tau(   8) = (  -0.0598330   0.1807428   0.9569204  )
         9           H   tau(   9) = (   0.5164531   0.0978175   0.9927104  )
        10           H   tau(  10) = (   0.4835975   0.2385909   2.2090155  )
        11           H   tau(  11) = (   0.9835975   0.0977684   2.2090155  )
        12           H   tau(  12) = (   0.0164531   0.2385418   0.9927104  )
        13           C   tau(  13) = (   0.3679472   0.2253688   1.0465642  )
        14           C   tau(  14) = (   0.6321357   0.1111127   2.2628187  )
        15           C   tau(  15) = (   0.1321357   0.2252466   2.2628187  )
        16           C   tau(  16) = (   0.8679472   0.1109906   1.0465642  )
        17           H   tau(  17) = (   0.3532162   0.1940456   1.1426268  )
        18           H   tau(  18) = (   0.6470743   0.1424316   2.3588341  )
        19           H   tau(  19) = (   0.1470743   0.1939277   2.3588341  )
        20           H   tau(  20) = (   0.8532162   0.1423137   1.1426268  )
        21           N   tau(  21) = (   0.3126331   0.3241586   1.0107382  )
        22           N   tau(  22) = (   0.6874597   0.0123180   2.2269878  )
        23           N   tau(  23) = (   0.1874597   0.3240413   2.2269878  )
        24           N   tau(  24) = (   0.8126331   0.0122007   1.0107382  )
        25           C   tau(  25) = (   0.3438287   0.3795497   0.8986435  )
        26           C   tau(  26) = (   0.6562414  -0.0430394   2.1148967  )
        27           C   tau(  27) = (   0.1562414   0.3793987   2.1148967  )
        28           C   tau(  28) = (   0.8438287  -0.0431904   0.8986435  )
        29           H   tau(  29) = (   0.2679474   0.4370323   0.8615778  )
        30           H   tau(  30) = (   0.7320586  -0.1005663   2.0778722  )
        31           H   tau(  31) = (   0.2320586   0.4369256   2.0778722  )
        32           H   tau(  32) = (   0.7679474  -0.1006730   0.8615778  )
        33           C   tau(  33) = (   0.4130972   0.3077568   0.8061423  )
        34           C   tau(  34) = (   0.5870023   0.0287488   2.0224011  )
        35           C   tau(  35) = (   0.0870023   0.3076105   2.0224011  )
        36           C   tau(  36) = (   0.9130972   0.0286025   0.8061423  )
        37           C   tau(  37) = (   0.4147476   0.3296776   0.6715065  )
        38           C   tau(  38) = (   0.5852402   0.0067825   1.8877747  )
        39           C   tau(  39) = (   0.0852402   0.3295768   1.8877747  )
        40           C   tau(  40) = (   0.9147476   0.0066817   0.6715065  )
        41           N   tau(  41) = (   0.4719193  -0.0949091   0.6057388  )
        42           N   tau(  42) = (   0.5280051   0.4312861   1.8219649  )
        43           N   tau(  43) = (   0.0280051  -0.0949268   1.8219649  )
        44           N   tau(  44) = (   0.9719193   0.4312684   0.6057388  )
        45           H   tau(  45) = (   0.5401058  -0.1456955   0.6466987  )
        46           H   tau(  46) = (   0.4598571   0.4821085   1.8629448  )
        47           H   tau(  47) = (   0.9598571  -0.1457492   1.8629448  )
        48           H   tau(  48) = (   0.0401058   0.4820548   0.6466987  )
        49           N   tau(  49) = (   0.4652360   0.2312656   0.4733625  )
        50           N   tau(  50) = (   0.5347431   0.1051101   1.6895999  )
        51           N   tau(  51) = (   0.0347431   0.2312492   1.6895999  )
        52           N   tau(  52) = (   0.9652360   0.1050937   0.4733625  )
        53           C   tau(  53) = (   0.3974803  -0.0171533   0.4247725  )
        54           C   tau(  54) = (   0.6025436   0.3535635   1.6410297  )
        55           C   tau(  55) = (   0.1025436  -0.0172042   1.6410297  )
        56           C   tau(  56) = (   0.8974803   0.3535126   0.4247725  )
        57           N   tau(  57) = (   0.3476206   0.0761227   0.4883728  )
        58           N   tau(  58) = (   0.6523971   0.2602952   1.7046404  )
        59           N   tau(  59) = (   0.1523971   0.0760641   1.7046404  )
        60           N   tau(  60) = (   0.8476206   0.2602366   0.4883728  )
        61           H   tau(  61) = (   0.2771259   0.1242067   0.4471381  )
        62           H   tau(  62) = (   0.7228085   0.2121320   1.6633280  )
        63           H   tau(  63) = (   0.2228085   0.1242273   1.6633280  )
        64           H   tau(  64) = (   0.7771259   0.2121526   0.4471381  )
        65           N   tau(  65) = (   0.3511631   0.4201171   0.6214320  )
        66           N   tau(  66) = (   0.6489190  -0.0836169   1.8377108  )
        67           N   tau(  67) = (   0.1489190   0.4199763   1.8377108  )
        68           N   tau(  68) = (   0.8511631  -0.0837578   0.6214320  )
        69           C   tau(  69) = (   0.3704474   0.3013760   0.2902685  )
        70           C   tau(  70) = (   0.6294247   0.0351002   1.5065235  )
        71           C   tau(  71) = (   0.1294247   0.3012591   1.5065235  )
        72           C   tau(  72) = (   0.8704474   0.0349833   0.2902685  )
        73           N   tau(  73) = (   0.3119725   0.2013739   0.2642695  )
        74           N   tau(  74) = (   0.6879591   0.1350783   1.4805109  )
        75           N   tau(  75) = (   0.1879591   0.2012810   1.4805109  )
        76           N   tau(  76) = (   0.8119725   0.1349854   0.2642695  )
        77           C   tau(  77) = (   0.3146613   0.1497692   0.1465158  )
        78           C   tau(  78) = (   0.6852280   0.1867430   1.3627998  )
        79           C   tau(  79) = (   0.1852280   0.1496163   1.3627998  )
        80           C   tau(  80) = (   0.8146613   0.1865901   0.1465158  )
        81           H   tau(  81) = (   0.2326161   0.0922302   0.1263802  )
        82           H   tau(  82) = (   0.7672725   0.2442527   1.3426631  )
        83           H   tau(  83) = (   0.2672725   0.0921066   1.3426631  )
        84           H   tau(  84) = (   0.7326161   0.2441291   0.1263802  )
        85           C   tau(  85) = (   0.3699781   0.2186981   0.0451677  )
        86           C   tau(  86) = (   0.6299700   0.1177710   1.2614424  )
        87           C   tau(  87) = (   0.1299700   0.2185883   1.2614424  )
        88           C   tau(  88) = (   0.8699781   0.1176612   0.0451677  )
        89           H   tau(  89) = (   0.3696118   0.1858632   2.3818307  )
        90           H   tau(  90) = (   0.6303992   0.1505639   1.1649903  )
        91           H   tau(  91) = (   0.1303992   0.1857954   1.1649903  )
        92           H   tau(  92) = (   0.8696118   0.1504961   2.3818307  )
        93           N   tau(  93) = (   0.4312975   0.3172994   0.0704613  )
        94           N   tau(  94) = (   0.5686465   0.0191814   1.2867559  )
        95           N   tau(  95) = (   0.0686465   0.3171779   1.2867559  )
        96           N   tau(  96) = (   0.9312975   0.0190599   0.0704613  )
        97           C   tau(  97) = (   0.4196016   0.3738480   0.1858708  )
        98           C   tau(  98) = (   0.5803052  -0.0373451   1.4021415  )
        99           C   tau(  99) = (   0.0803052   0.3737044   1.4021415  )
       100           C   tau( 100) = (   0.9196016  -0.0374887   0.1858708  )
       101           H   tau( 101) = (   0.5010476   0.4313794   0.2081318  )
       102           H   tau( 102) = (   0.4988351  -0.0948351   1.4243312  )
       103           H   tau( 103) = (   0.9988351   0.4311944   1.4243312  )
       104           H   tau( 104) = (   0.0010476  -0.0950201   0.2081318  )

     number of k points=     6
                       cart. coord. in units 2pi/alat
        k(    1) = (   0.0000000   0.0000000   0.0000000), wk =   0.2000000
        k(    2) = (   0.0000000   0.5946022   0.0000000), wk =   0.4000000
        k(    3) = (   0.0000000   1.1892045   0.0000000), wk =   0.4000000
        k(    4) = (  -0.5000000   0.0000000   0.0000000), wk =   0.2000000
        k(    5) = (  -0.5000000   0.5946022   0.0000000), wk =   0.4000000
        k(    6) = (  -0.5000000   1.1892045   0.0000000), wk =   0.4000000

     Dense  grid:   915991 G-vectors     FFT dimensions: ( 135,  45, 320)

     Estimated max dynamical RAM per process >     922.42MB

     Estimated total allocated dynamical RAM >    7379.33MB

     Check: negative/imaginary core charge=   -0.000002    0.000000

     Initial potential from superposition of free atoms

     starting charge  351.99780, renormalised to  352.00000
     Starting wfc are  320 randomized atomic wfcs
     Checking if some PAW data can be deallocated... 

     total cpu time spent up to now is       50.4 secs

     per-process dynamical memory:   582.7 Mb

     Self-consistent Calculation

     iteration #  1     ecut=   100.00 Ry     beta=0.50
     Davidson diagonalization with overlap
     ethr =  1.00E-02,  avg # of iterations =  4.2

     total cpu time spent up to now is      206.9 secs

     total energy              =   -1674.44545829 Ry
     Harris-Foulkes estimate   =   -1679.77104451 Ry
     estimated scf accuracy    <      10.40004690 Ry

     iteration #  2     ecut=   100.00 Ry     beta=0.50
     Davidson diagonalization with overlap
     ethr =  2.95E-03,  avg # of iterations =  3.0

     total cpu time spent up to now is      287.6 secs

     total energy              =   -1673.78357570 Ry
     Harris-Foulkes estimate   =   -1676.37734179 Ry
     estimated scf accuracy    <       5.30275807 Ry

     iteration #  3     ecut=   100.00 Ry     beta=0.50
     Davidson diagonalization with overlap
     ethr =  1.51E-03,  avg # of iterations =  7.7

     total cpu time spent up to now is      407.0 secs

     total energy              =   -1674.20401477 Ry
     Harris-Foulkes estimate   =   -1677.40385638 Ry
     estimated scf accuracy    <      13.36474678 Ry

     iteration #  4     ecut=   100.00 Ry     beta=0.50
     Davidson diagonalization with overlap
     ethr =  1.51E-03,  avg # of iterations =  8.3

     total cpu time spent up to now is      500.0 secs

     total energy              =   -1675.91319322 Ry
     Harris-Foulkes estimate   =   -1676.09710767 Ry
     estimated scf accuracy    <       0.51712969 Ry

     iteration #  5     ecut=   100.00 Ry     beta=0.50
     Davidson diagonalization with overlap
     ethr =  1.47E-04,  avg # of iterations =  7.5

     total cpu time spent up to now is      654.2 secs

     total energy              =   -1675.99902134 Ry
     Harris-Foulkes estimate   =   -1676.15502856 Ry
     estimated scf accuracy    <       0.72837464 Ry

     iteration #  6     ecut=   100.00 Ry     beta=0.50
     Davidson diagonalization with overlap
     ethr =  1.47E-04,  avg # of iterations =  6.8

     total cpu time spent up to now is      736.1 secs

     total energy              =   -1676.05343080 Ry
     Harris-Foulkes estimate   =   -1676.11357295 Ry
     estimated scf accuracy    <       0.19986492 Ry

     iteration #  7     ecut=   100.00 Ry     beta=0.50
     Davidson diagonalization with overlap
     ethr =  5.68E-05,  avg # of iterations =  8.7

     total cpu time spent up to now is      840.7 secs

     total energy              =   -1676.06169693 Ry
     Harris-Foulkes estimate   =   -1676.10297756 Ry
     estimated scf accuracy    <       0.21394287 Ry

     iteration #  8     ecut=   100.00 Ry     beta=0.50
     Davidson diagonalization with overlap
     ethr =  5.68E-05,  avg # of iterations = 12.3

     total cpu time spent up to now is      943.9 secs

     total energy              =   -1676.07031213 Ry
     Harris-Foulkes estimate   =   -1676.10113364 Ry
     estimated scf accuracy    <       0.22665333 Ry

     iteration #  9     ecut=   100.00 Ry     beta=0.50
     Davidson diagonalization with overlap
     ethr =  5.68E-05,  avg # of iterations =  4.0

     total cpu time spent up to now is     1019.8 secs

     total energy              =   -1676.08110702 Ry
     Harris-Foulkes estimate   =   -1676.08562509 Ry
     estimated scf accuracy    <       0.02451417 Ry

     iteration # 10     ecut=   100.00 Ry     beta=0.50
     Davidson diagonalization with overlap
     ethr =  6.96E-06,  avg # of iterations = 12.5

     total cpu time spent up to now is     1131.4 secs

     total energy              =   -1676.08270741 Ry
     Harris-Foulkes estimate   =   -1676.08372583 Ry
     estimated scf accuracy    <       0.00474351 Ry

     iteration # 11     ecut=   100.00 Ry     beta=0.50
     Davidson diagonalization with overlap
     ethr =  1.35E-06,  avg # of iterations =  8.8

     total cpu time spent up to now is     1264.8 secs

     total energy              =   -1676.08406941 Ry
     Harris-Foulkes estimate   =   -1676.08429012 Ry
     estimated scf accuracy    <       0.00068647 Ry

     iteration # 12     ecut=   100.00 Ry     beta=0.50
     Davidson diagonalization with overlap
     ethr =  1.95E-07,  avg # of iterations =  2.0

     total cpu time spent up to now is     1342.5 secs

     total energy              =   -1676.08414328 Ry
     Harris-Foulkes estimate   =   -1676.08425933 Ry
     estimated scf accuracy    <       0.00059422 Ry

     iteration # 13     ecut=   100.00 Ry     beta=0.50
     Davidson diagonalization with overlap
     ethr =  1.69E-07,  avg # of iterations =  1.0

     total cpu time spent up to now is     1413.3 secs

     total energy              =   -1676.08418606 Ry
     Harris-Foulkes estimate   =   -1676.08422540 Ry
     estimated scf accuracy    <       0.00014258 Ry

     iteration # 14     ecut=   100.00 Ry     beta=0.50
     Davidson diagonalization with overlap
     ethr =  4.05E-08,  avg # of iterations =  3.8

     total cpu time spent up to now is     1506.2 secs

     total energy              =   -1676.08421206 Ry
     Harris-Foulkes estimate   =   -1676.08424559 Ry
     estimated scf accuracy    <       0.00014635 Ry

     iteration # 15     ecut=   100.00 Ry     beta=0.50
     Davidson diagonalization with overlap
     ethr =  4.05E-08,  avg # of iterations =  1.0

     total cpu time spent up to now is     1577.0 secs

     total energy              =   -1676.08422824 Ry
     Harris-Foulkes estimate   =   -1676.08423399 Ry
     estimated scf accuracy    <       0.00001906 Ry

     iteration # 16     ecut=   100.00 Ry     beta=0.50
     Davidson diagonalization with overlap
     ethr =  5.41E-09,  avg # of iterations =  4.0

     total cpu time spent up to now is     1704.7 secs

     total energy              =   -1676.08423533 Ry
     Harris-Foulkes estimate   =   -1676.08423987 Ry
     estimated scf accuracy    <       0.00001999 Ry

     iteration # 17     ecut=   100.00 Ry     beta=0.50
     Davidson diagonalization with overlap
     ethr =  5.41E-09,  avg # of iterations =  1.0

     total cpu time spent up to now is     1775.4 secs

     total energy              =   -1676.08423707 Ry
     Harris-Foulkes estimate   =   -1676.08423746 Ry
     estimated scf accuracy    <       0.00000121 Ry

     iteration # 18     ecut=   100.00 Ry     beta=0.50
     Davidson diagonalization with overlap
     ethr =  3.43E-10,  avg # of iterations =  4.0

     total cpu time spent up to now is     1906.7 secs

     total energy              =   -1676.08423742 Ry
     Harris-Foulkes estimate   =   -1676.08423787 Ry
     estimated scf accuracy    <       0.00000179 Ry

     iteration # 19     ecut=   100.00 Ry     beta=0.50
     Davidson diagonalization with overlap
     ethr =  3.43E-10,  avg # of iterations =  1.7

     total cpu time spent up to now is     1978.8 secs

     total energy              =   -1676.08423746 Ry
     Harris-Foulkes estimate   =   -1676.08423788 Ry
     estimated scf accuracy    <       0.00000305 Ry

     iteration # 20     ecut=   100.00 Ry     beta=0.50
     Davidson diagonalization with overlap
     ethr =  3.43E-10,  avg # of iterations =  1.0

     total cpu time spent up to now is     2049.1 secs

     total energy              =   -1676.08423765 Ry
     Harris-Foulkes estimate   =   -1676.08423770 Ry
     estimated scf accuracy    <       0.00000021 Ry

     iteration # 21     ecut=   100.00 Ry     beta=0.50
     Davidson diagonalization with overlap
     ethr =  5.88E-11,  avg # of iterations =  3.7

     total cpu time spent up to now is     2130.2 secs

     total energy              =   -1676.08423768 Ry
     Harris-Foulkes estimate   =   -1676.08423770 Ry
     estimated scf accuracy    <       0.00000007 Ry

     iteration # 22     ecut=   100.00 Ry     beta=0.50
     Davidson diagonalization with overlap
     ethr =  1.88E-11,  avg # of iterations =  4.0

     total cpu time spent up to now is     2248.4 secs

     total energy              =   -1676.08423769 Ry
     Harris-Foulkes estimate   =   -1676.08423771 Ry
     estimated scf accuracy    <       0.00000009 Ry

     iteration # 23     ecut=   100.00 Ry     beta=0.50
     Davidson diagonalization with overlap
     ethr =  1.88E-11,  avg # of iterations =  1.0

     total cpu time spent up to now is     2319.0 secs

     total energy              =   -1676.08423770 Ry
     Harris-Foulkes estimate   =   -1676.08423770 Ry
     estimated scf accuracy    <       0.00000003 Ry

     iteration # 24     ecut=   100.00 Ry     beta=0.50
     Davidson diagonalization with overlap
     ethr =  8.01E-12,  avg # of iterations =  1.5

     total cpu time spent up to now is     2390.1 secs

     total energy              =   -1676.08423770 Ry
     Harris-Foulkes estimate   =   -1676.08423770 Ry
     estimated scf accuracy    <       0.00000001 Ry

     iteration # 25     ecut=   100.00 Ry     beta=0.50
     Davidson diagonalization with overlap
     ethr =  3.72E-12,  avg # of iterations =  2.8

     total cpu time spent up to now is     2464.2 secs

     End of self-consistent calculation

          k = 0.0000 0.0000 0.0000 (114393 PWs)   bands (ev):

   -19.9402 -19.9373 -19.9341 -19.9312 -18.0898 -18.0877 -18.0833 -18.0822
   -17.5305 -17.5257 -17.5210 -17.5205 -16.5942 -16.5929 -16.5821 -16.5787
   -16.0523 -16.0462 -16.0443 -16.0399 -15.4788 -15.4721 -15.4677 -15.4559
   -14.8968 -14.8954 -14.8942 -14.8854 -12.2522 -12.2513 -12.2438 -12.2431
   -11.6552 -11.6507 -11.6408 -11.6373 -10.9241 -10.9195 -10.9121 -10.8714
   -10.5334 -10.5216 -10.5039 -10.4988 -10.1004 -10.0932 -10.0569 -10.0566
    -9.6671  -9.6493  -9.6473  -9.6379  -8.1715  -8.1533  -8.1502  -8.1466
    -7.9111  -7.8953  -7.8888  -7.8823  -7.2778  -7.2750  -7.2471  -7.2429
    -6.6955  -6.6882  -6.6710  -6.6660  -6.2812  -6.2673  -6.2635  -6.2470
    -6.1961  -6.1770  -6.1752  -6.1672  -5.5508  -5.5361  -5.4749  -5.4717
    -5.4630  -5.4456  -5.4089  -5.4004  -5.3742  -5.3672  -5.3591  -5.3587
    -5.0029  -4.9760  -4.9580  -4.8591  -4.7939  -4.7478  -4.6952  -4.6388
    -4.3408  -4.2228  -4.1284  -3.9746  -3.8656  -3.8119  -3.7892  -3.7540
    -3.2871  -3.2717  -3.2554  -3.2490  -3.0788  -3.0356  -2.8642  -2.8452
    -2.8094  -2.7810  -2.7774  -2.7301  -2.4610  -2.4458  -2.3040  -2.2990
    -2.1768  -2.1743  -2.1049  -2.0998  -1.6969  -1.6731  -1.6087  -1.6003
    -1.4446  -1.4394  -1.4004  -1.3727  -0.9846  -0.9562  -0.9043  -0.8750
    -0.7145  -0.6786  -0.6732  -0.6547  -0.5690  -0.5567  -0.5491  -0.5248
    -0.3285  -0.3063  -0.2648  -0.2637   0.0486   0.0688   0.0920   0.1572
     0.2903   0.3094   0.3595   0.3680   0.8172   0.8243   0.8270   0.8370
     1.1070   1.1100   1.1266   1.1395   1.5842   1.5881   1.7419   1.7460
     1.9936   1.9996   2.0006   2.0022   2.3757   2.3799   2.4214   2.4295
     4.4664   4.4948   4.5222   4.5250   4.8973   4.9312   4.9533   4.9575
     6.3861   6.4202   6.4419   6.5165   6.6061   6.6590   7.0582   7.0605
     7.1748   7.2056   7.2410   7.2542   7.2857   7.4867   7.6456   7.7536
     7.8629   7.9136   7.9744   7.9926   8.0354   8.2190   8.2868   8.4550
     8.7570   8.8476   8.8831

          k = 0.0000 0.5946 0.0000 (114426 PWs)   bands (ev):

   -19.7216 -19.7189 -19.7156 -19.7129 -17.8630 -17.8610 -17.8571 -17.8560
   -17.3163 -17.3118 -17.3085 -17.3079 -16.8535 -16.8517 -16.8414 -16.8395
   -15.9833 -15.9753 -15.9729 -15.9691 -15.4446 -15.4391 -15.4354 -15.4259
   -14.8923 -14.8909 -14.8903 -14.8843 -12.5783 -12.5775 -12.5737 -12.5721
   -12.3625 -12.3614 -12.3584 -12.3498 -11.7710 -11.7533 -11.7510 -11.7368
   -10.4216 -10.3989 -10.3877 -10.3783  -9.6462  -9.6454  -9.6195  -9.6166
    -9.1051  -9.0872  -9.0833  -9.0752  -8.5774  -8.5516  -8.5474  -8.5233
    -8.2363  -8.2206  -8.2176  -8.1999  -7.3441  -7.3426  -7.3245  -7.3211
    -6.9329  -6.9284  -6.9145  -6.9095  -6.3853  -6.3841  -6.3697  -6.3562
    -6.0697  -6.0077  -5.9878  -5.9707  -5.7060  -5.6873  -5.6784  -5.6750
    -5.5749  -5.4643  -5.4267  -5.3481  -5.0546  -5.0124  -5.0002  -4.9733
    -4.8681  -4.8067  -4.7867  -4.7444  -4.4439  -4.4288  -4.3976  -4.3844
    -4.2246  -4.1558  -4.1335  -4.1072  -3.8594  -3.7327  -3.7264  -3.6981
    -3.5331  -3.4505  -3.4334  -3.4165  -3.2654  -3.2427  -3.1952  -3.1610
    -2.8455  -2.8068  -2.7988  -2.7518  -2.4241  -2.3523  -2.3305  -2.3276
    -2.2282  -2.1839  -2.1180  -2.1155  -1.8162  -1.7993  -1.6974  -1.6914
    -1.3037  -1.2680  -1.2626  -1.2446  -0.9665  -0.9649  -0.9462  -0.9449
    -0.3681  -0.3505  -0.3165  -0.3098  -0.2322  -0.1836  -0.1559  -0.1406
     0.0542   0.0983   0.1030   0.1232   0.2193   0.2297   0.2547   0.2621
     0.4195   0.4291   0.4529   0.4742   0.5371   0.5465   0.5613   0.5875
     0.9844   0.9865   0.9937   1.0044   1.8373   1.8424   1.8538   1.8557
     2.2814   2.2828   2.3545   2.3568   2.9192   2.9247   3.0442   3.0488
     4.7092   4.7637   4.7697   4.7709   5.1477   5.2267   5.2492   5.2596
     6.0652   6.1313   6.1604   6.2348   6.2364   6.2935   6.3318   6.3537
     7.0079   7.0326   7.1519   7.1809   7.2821   7.3006   7.4360   7.4671
     7.8815   7.9221   7.9799   8.0299   8.3435   8.4441   8.6074   8.6677
     8.7381   8.7548   8.8798

          k = 0.0000 1.1892 0.0000 (114552 PWs)   bands (ev):

   -19.2030 -19.2015 -19.1973 -19.1958 -17.5834 -17.5796 -17.5733 -17.5696
   -17.3488 -17.3472 -17.3458 -17.3449 -16.7710 -16.7671 -16.7662 -16.7646
   -15.8400 -15.8368 -15.8344 -15.8318 -15.4442 -15.4415 -15.4409 -15.4386
   -15.0346 -15.0332 -15.0328 -15.0327 -13.2809 -13.2724 -13.2691 -13.2652
   -13.0120 -13.0093 -13.0061 -13.0029 -12.6160 -12.6001 -12.5944 -12.5834
   -10.4152 -10.4041 -10.3905 -10.3650  -9.2665  -9.2441  -9.2141  -9.1821
    -8.9799  -8.9664  -8.9632  -8.9510  -8.7070  -8.7029  -8.6833  -8.6722
    -8.4226  -8.4075  -8.4044  -8.3981  -7.3312  -7.3303  -7.3189  -7.3090
    -7.0523  -7.0467  -7.0369  -7.0303  -6.5740  -6.5723  -6.5546  -6.5434
    -5.9606  -5.9189  -5.9025  -5.8894  -5.7735  -5.7137  -5.7013  -5.6450
    -5.4501  -5.4271  -5.4087  -5.3936  -5.1633  -5.1537  -5.0930  -5.0093
    -4.8946  -4.8832  -4.8665  -4.8587  -4.5111  -4.4976  -4.4610  -4.4396
    -4.3749  -4.3605  -4.3555  -4.3507  -3.9520  -3.9376  -3.9153  -3.8445
    -3.6309  -3.5558  -3.5413  -3.4499  -3.0613  -3.0107  -2.9753  -2.9543
    -2.6670  -2.6159  -2.5976  -2.5149  -2.5021  -2.4575  -2.4379  -2.4045
    -2.2700  -2.2628  -2.2131  -2.2100  -2.0442  -2.0240  -1.9454  -1.9290
    -1.2100  -1.2035  -1.1946  -1.1884  -0.6519  -0.6434  -0.6320  -0.6161
    -0.4091  -0.3934  -0.3911  -0.3785  -0.0285  -0.0190   0.0078   0.0109
     0.1692   0.1779   0.1843   0.1854   0.4976   0.5203   0.5282   0.5307
     0.8243   0.8332   0.9053   0.9120   1.5366   1.5434   1.5883   1.5964
     1.8347   1.8442   1.8681   1.8775   2.0791   2.0859   2.1086   2.1104
     2.2915   2.3003   2.3344   2.3462   4.2480   4.2483   4.2677   4.2680
     4.5970   4.6005   4.6480   4.6568   4.8289   4.8463   4.8822   4.8971
     5.4734   5.5233   5.5321   5.6231   5.9852   6.0312   6.0634   6.1388
     6.6089   6.7028   6.7886   6.8058   7.8207   7.8660   7.9678   7.9919
     8.3232   8.3916   8.4705   8.4751   8.7796   8.7881   8.8084   8.8947
     9.0208   9.0699   9.1375

          k =-0.5000 0.0000 0.0000 (114460 PWs)   bands (ev):

   -19.9372 -19.9372 -19.9342 -19.9342 -18.0866 -18.0866 -18.0849 -18.0849
   -17.5261 -17.5261 -17.5228 -17.5227 -16.5883 -16.5882 -16.5857 -16.5857
   -16.0502 -16.0502 -16.0413 -16.0412 -15.4769 -15.4769 -15.4604 -15.4604
   -14.8966 -14.8966 -14.8893 -14.8893 -12.2480 -12.2480 -12.2472 -12.2472
   -11.6480 -11.6480 -11.6440 -11.6440 -10.9255 -10.9255 -10.8883 -10.8883
   -10.5284 -10.5283 -10.5003 -10.5003 -10.0969 -10.0969 -10.0566 -10.0566
    -9.6609  -9.6609  -9.6399  -9.6399  -8.1647  -8.1647  -8.1459  -8.1459
    -7.9035  -7.9035  -7.8860  -7.8860  -7.2624  -7.2624  -7.2586  -7.2586
    -6.6915  -6.6915  -6.6693  -6.6693  -6.2731  -6.2731  -6.2556  -6.2556
    -6.1895  -6.1895  -6.1687  -6.1687  -5.5036  -5.5036  -5.4957  -5.4957
    -5.4508  -5.4508  -5.4256  -5.4256  -5.3768  -5.3768  -5.3584  -5.3584
    -4.9931  -4.9931  -4.9084  -4.9084  -4.7809  -4.7809  -4.6559  -4.6559
    -4.2981  -4.2981  -4.0360  -4.0360  -3.8362  -3.8362  -3.7770  -3.7770
    -3.2800  -3.2800  -3.2471  -3.2470  -2.9637  -2.9637  -2.9329  -2.9329
    -2.7998  -2.7998  -2.7454  -2.7454  -2.3764  -2.3764  -2.3641  -2.3640
    -2.1525  -2.1525  -2.1442  -2.1442  -1.6635  -1.6634  -1.6418  -1.6418
    -1.4273  -1.4273  -1.4050  -1.4050  -0.9433  -0.9433  -0.9132  -0.9132
    -0.6940  -0.6940  -0.6645  -0.6644  -0.5582  -0.5582  -0.5401  -0.5401
    -0.3008  -0.3008  -0.2844  -0.2844   0.0563   0.0563   0.1257   0.1257
     0.3002   0.3002   0.3638   0.3638   0.8236   0.8236   0.8324   0.8324
     1.1135   1.1135   1.1243   1.1243   1.6666   1.6666   1.6707   1.6707
     1.9952   1.9952   2.0017   2.0017   2.3973   2.3973   2.4041   2.4041
     4.4928   4.4928   4.5179   4.5179   4.9116   4.9116   4.9606   4.9606
     6.3974   6.3974   6.4478   6.4478   6.9272   6.9272   6.9884   6.9885
     7.1116   7.1116   7.1244   7.1244   7.3826   7.3826   7.5584   7.5584
     7.9154   7.9154   7.9782   7.9782   8.0979   8.0979   8.2520   8.2520
     8.8341   8.8350   8.8823

          k =-0.5000 0.5946 0.0000 (114458 PWs)   bands (ev):

   -19.7186 -19.7186 -19.7159 -19.7159 -17.8601 -17.8601 -17.8585 -17.8585
   -17.3127 -17.3127 -17.3095 -17.3095 -16.8474 -16.8474 -16.8456 -16.8456
   -15.9803 -15.9803 -15.9701 -15.9701 -15.4430 -15.4430 -15.4295 -15.4295
   -14.8916 -14.8916 -14.8873 -14.8873 -12.5760 -12.5760 -12.5747 -12.5747
   -12.3626 -12.3626 -12.3534 -12.3534 -11.7651 -11.7651 -11.7410 -11.7410
   -10.4120 -10.4120 -10.3813 -10.3813  -9.6334  -9.6334  -9.6304  -9.6304
    -9.0977  -9.0977  -9.0778  -9.0777  -8.5689  -8.5689  -8.5310  -8.5310
    -8.2277  -8.2277  -8.2098  -8.2098  -7.3358  -7.3358  -7.3306  -7.3306
    -6.9240  -6.9240  -6.9185  -6.9185  -6.3785  -6.3785  -6.3687  -6.3687
    -6.0373  -6.0373  -5.9810  -5.9810  -5.6941  -5.6940  -5.6796  -5.6796
    -5.5370  -5.5370  -5.3724  -5.3724  -5.0432  -5.0432  -4.9812  -4.9812
    -4.8494  -4.8494  -4.7512  -4.7512  -4.4213  -4.4213  -4.4053  -4.4053
    -4.1771  -4.1771  -4.1266  -4.1266  -3.8060  -3.8060  -3.7057  -3.7056
    -3.5078  -3.5078  -3.4075  -3.4075  -3.2596  -3.2596  -3.1735  -3.1735
    -2.8295  -2.8295  -2.7698  -2.7698  -2.3879  -2.3879  -2.3206  -2.3206
    -2.1867  -2.1867  -2.1443  -2.1443  -1.7629  -1.7629  -1.7380  -1.7380
    -1.2848  -1.2848  -1.2557  -1.2557  -0.9666  -0.9666  -0.9469  -0.9469
    -0.3591  -0.3591  -0.3135  -0.3135  -0.1996  -0.1996  -0.1584  -0.1584
     0.0738   0.0738   0.1139   0.1139   0.2280   0.2280   0.2492   0.2492
     0.4201   0.4202   0.4709   0.4709   0.5332   0.5332   0.5764   0.5764
     0.9921   0.9921   1.0013   1.0013   1.8448   1.8448   1.8494   1.8494
     2.3182   2.3182   2.3197   2.3197   2.9807   2.9807   2.9866   2.9866
     4.7346   4.7346   4.7748   4.7749   5.1895   5.1895   5.2501   5.2501
     6.1113   6.1113   6.1882   6.1882   6.2680   6.2680   6.3185   6.3185
     7.0739   7.0739   7.1294   7.1294   7.4042   7.4042   7.4186   7.4186
     7.8358   7.8358   7.9331   7.9331   8.4675   8.4676   8.5406   8.5406
     8.7503   8.7505   8.8858

          k =-0.5000 1.1892 0.0000 (114558 PWs)   bands (ev):

   -19.2001 -19.2001 -19.1987 -19.1987 -17.5783 -17.5783 -17.5746 -17.5746
   -17.3474 -17.3473 -17.3460 -17.3460 -16.7687 -16.7687 -16.7657 -16.7657
   -15.8388 -15.8387 -15.8327 -15.8327 -15.4433 -15.4433 -15.4394 -15.4393
   -15.0339 -15.0339 -15.0328 -15.0328 -13.2776 -13.2776 -13.2662 -13.2662
   -13.0101 -13.0101 -13.0051 -13.0051 -12.6102 -12.6102 -12.5868 -12.5868
   -10.4117 -10.4117 -10.3757 -10.3757  -9.2578  -9.2578  -9.1954  -9.1954
    -8.9724  -8.9723  -8.9579  -8.9579  -8.7016  -8.7015  -8.6812  -8.6811
    -8.4142  -8.4142  -8.4024  -8.4024  -7.3265  -7.3265  -7.3183  -7.3183
    -7.0457  -7.0457  -7.0386  -7.0386  -6.5646  -6.5646  -6.5560  -6.5559
    -5.9389  -5.9389  -5.8961  -5.8961  -5.7528  -5.7528  -5.6641  -5.6641
    -5.4381  -5.4381  -5.4011  -5.4011  -5.1639  -5.1639  -5.0512  -5.0512
    -4.8817  -4.8817  -4.8690  -4.8690  -4.4886  -4.4885  -4.4683  -4.4683
    -4.3697  -4.3697  -4.3508  -4.3508  -3.9513  -3.9513  -3.8718  -3.8718
    -3.6083  -3.6082  -3.4811  -3.4811  -3.0412  -3.0412  -2.9584  -2.9584
    -2.6502  -2.6502  -2.5420  -2.5420  -2.4846  -2.4846  -2.4147  -2.4146
    -2.2665  -2.2665  -2.2152  -2.2152  -1.9922  -1.9922  -1.9769  -1.9769
    -1.2056  -1.2055  -1.1940  -1.1940  -0.6412  -0.6412  -0.6310  -0.6310
    -0.4016  -0.4016  -0.3865  -0.3865  -0.0182  -0.0182   0.0046   0.0046
     0.1768   0.1769   0.1890   0.1890   0.5111   0.5111   0.5278   0.5278
     0.8607   0.8607   0.8686   0.8686   1.5663   1.5663   1.5698   1.5698
     1.8431   1.8431   1.8649   1.8649   2.0904   2.0904   2.1060   2.1060
     2.3106   2.3106   2.3209   2.3209   4.2575   4.2575   4.2649   4.2649
     4.6182   4.6182   4.6309   4.6310   4.8373   4.8373   4.8710   4.8710
     5.4929   5.4929   5.5777   5.5777   5.9983   5.9983   6.0993   6.0993
     6.6767   6.6767   6.7488   6.7488   7.9297   7.9298   7.9599   7.9599
     8.4118   8.4118   8.4396   8.4396   8.7769   8.7770   8.8204   8.8204
     9.0519   9.0520   9.1858

     highest occupied, lowest unoccupied level (ev):     4.2680    4.4664

!    total energy              =   -1676.08423769 Ry
     Harris-Foulkes estimate   =   -1676.08423770 Ry
     estimated scf accuracy    <          4.5E-09 Ry

     total all-electron energy =     -6588.209791 Ry

     The total energy is the sum of the following terms:

     one-electron contribution =   -1135.26881889 Ry
     hartree contribution      =     711.50846518 Ry
     xc contribution           =    -364.33598791 Ry
     ewald contribution        =    -356.31295864 Ry
     Dispersion Correction     =      -0.55319347 Ry
     one-center paw contrib.   =    -531.12174396 Ry

     convergence has been achieved in  25 iterations

     Forces acting on atoms (cartesian axes, Ry/au):

     atom    1 type  2   force =     0.08415767    0.00702689   -0.03360586
     atom    2 type  2   force =    -0.08405310   -0.00726878   -0.03378378
     atom    3 type  2   force =    -0.08405075    0.00727100   -0.03378732
     atom    4 type  2   force =     0.08416117   -0.00702533   -0.03361152
     atom    5 type  1   force =     0.01503097   -0.07245565   -0.03171473
     atom    6 type  1   force =    -0.01545440    0.07283449   -0.03174087
     atom    7 type  1   force =    -0.01545088   -0.07283364   -0.03174385
     atom    8 type  1   force =     0.01502826    0.07245562   -0.03171658
     atom    9 type  3   force =     0.00796210    0.00025710    0.00708875
     atom   10 type  3   force =    -0.00793852   -0.00015129    0.00709386
     atom   11 type  3   force =    -0.00793759    0.00015131    0.00709332
     atom   12 type  3   force =     0.00796278   -0.00025631    0.00708969
     atom   13 type  1   force =    -0.01289002    0.01923572    0.02252992
     atom   14 type  1   force =     0.01349249   -0.01965420    0.02265431
     atom   15 type  1   force =     0.01349126    0.01965514    0.02264897
     atom   16 type  1   force =    -0.01289700   -0.01923640    0.02253186
     atom   17 type  3   force =     0.00253833   -0.00811117   -0.00449986
     atom   18 type  3   force =    -0.00277595    0.00830210   -0.00430956
     atom   19 type  3   force =    -0.00277673   -0.00830200   -0.00431047
     atom   20 type  3   force =     0.00253717    0.00811028   -0.00449995
     atom   21 type  2   force =    -0.05743575   -0.01988340    0.06318171
     atom   22 type  2   force =     0.05734768    0.02001018    0.06305359
     atom   23 type  2   force =     0.05734036   -0.02000947    0.06304709
     atom   24 type  2   force =    -0.05744115    0.01988265    0.06318281
     atom   25 type  1   force =    -0.00520097    0.06887813    0.00129932
     atom   26 type  1   force =     0.00514279   -0.06890773    0.00145695
     atom   27 type  1   force =     0.00513538    0.06890513    0.00145583
     atom   28 type  1   force =    -0.00520605   -0.06887861    0.00130057
     atom   29 type  3   force =    -0.00744444   -0.00118038   -0.00544750
     atom   30 type  3   force =     0.00782348    0.00093641   -0.00566932
     atom   31 type  3   force =     0.00781964   -0.00093753   -0.00566916
     atom   32 type  3   force =    -0.00744350    0.00118109   -0.00544696
     atom   33 type  1   force =    -0.02025470    0.00676974   -0.02333711
     atom   34 type  1   force =     0.01976135   -0.00665283   -0.02324863
     atom   35 type  1   force =     0.01975934    0.00665163   -0.02324757
     atom   36 type  1   force =    -0.02025703   -0.00676842   -0.02334061
     atom   37 type  1   force =    -0.03437561    0.01998391    0.07672111
     atom   38 type  1   force =     0.03500615   -0.02028231    0.07625044
     atom   39 type  1   force =     0.03500368    0.02028223    0.07625489
     atom   40 type  1   force =    -0.03437703   -0.01998329    0.07672208
     atom   41 type  2   force =     0.08355995   -0.01435719   -0.11410661
     atom   42 type  2   force =    -0.08353521    0.01439103   -0.11358330
     atom   43 type  2   force =    -0.08353619   -0.01438976   -0.11357849
     atom   44 type  2   force =     0.08355880    0.01435657   -0.11410594
     atom   45 type  3   force =     0.00867898   -0.00210734    0.00685432
     atom   46 type  3   force =    -0.00863108    0.00216314    0.00674449
     atom   47 type  3   force =    -0.00863102   -0.00216284    0.00674479
     atom   48 type  3   force =     0.00867946    0.00210763    0.00685439
     atom   49 type  2   force =     0.07548710    0.04594737    0.05924838
     atom   50 type  2   force =    -0.07544417   -0.04559809    0.05930286
     atom   51 type  2   force =    -0.07544571    0.04559697    0.05930475
     atom   52 type  2   force =     0.07548443   -0.04595004    0.05924589
     atom   53 type  1   force =     0.01873053   -0.02079902   -0.06135988
     atom   54 type  1   force =    -0.01908525    0.02085683   -0.06122483
     atom   55 type  1   force =    -0.01908766   -0.02085744   -0.06122213
     atom   56 type  1   force =     0.01873107    0.02080018   -0.06135947
     atom   57 type  2   force =    -0.08259715   -0.00260887    0.10853820
     atom   58 type  2   force =     0.08263296    0.00257258    0.10826084
     atom   59 type  2   force =     0.08263187   -0.00257319    0.10826241
     atom   60 type  2   force =    -0.08259884    0.00261178    0.10853668
     atom   61 type  3   force =    -0.00473174    0.00226880   -0.00356347
     atom   62 type  3   force =     0.00467396   -0.00214959   -0.00337188
     atom   63 type  3   force =     0.00467470    0.00214977   -0.00337193
     atom   64 type  3   force =    -0.00473222   -0.00226888   -0.00356391
     atom   65 type  2   force =    -0.07005537   -0.02831519   -0.05553796
     atom   66 type  2   force =     0.06960538    0.02826573   -0.05538204
     atom   67 type  2   force =     0.06960037   -0.02826929   -0.05537392
     atom   68 type  2   force =    -0.07005438    0.02831842   -0.05553553
     atom   69 type  1   force =     0.01772051    0.00626088    0.00703751
     atom   70 type  1   force =    -0.01694275   -0.00605779    0.00702344
     atom   71 type  1   force =    -0.01694616    0.00605963    0.00702428
     atom   72 type  1   force =     0.01772091   -0.00625917    0.00703753
     atom   73 type  2   force =    -0.06591150    0.00552102    0.06077286
     atom   74 type  2   force =     0.06568520   -0.00563754    0.06122303
     atom   75 type  2   force =     0.06568702    0.00563643    0.06122212
     atom   76 type  2   force =    -0.06590908   -0.00552532    0.06077639
     atom   77 type  1   force =    -0.00547669   -0.07670095    0.02307361
     atom   78 type  1   force =     0.00543459    0.07633542    0.02291650
     atom   79 type  1   force =     0.00543791   -0.07633647    0.02291398
     atom   80 type  1   force =    -0.00547725    0.07670140    0.02307407
     atom   81 type  3   force =    -0.00869530    0.00307514   -0.00524268
     atom   82 type  3   force =     0.00886776   -0.00289070   -0.00527213
     atom   83 type  3   force =     0.00886915    0.00289013   -0.00527301
     atom   84 type  3   force =    -0.00869744   -0.00307360   -0.00524330
     atom   85 type  1   force =     0.01192233    0.01882184   -0.02552375
     atom   86 type  1   force =    -0.01198034   -0.01872340   -0.02516650
     atom   87 type  1   force =    -0.01198004    0.01872369   -0.02517279
     atom   88 type  1   force =     0.01192388   -0.01882459   -0.02552931
     atom   89 type  3   force =    -0.00179242   -0.00909160    0.00225179
     atom   90 type  3   force =     0.00176926    0.00922035    0.00186295
     atom   91 type  3   force =     0.00176896   -0.00922033    0.00186215
     atom   92 type  3   force =    -0.00179229    0.00909135    0.00225178
     atom   93 type  2   force =     0.04339794   -0.01915794   -0.07036935
     atom   94 type  2   force =    -0.04333267    0.01935542   -0.07100531
     atom   95 type  2   force =    -0.04333486   -0.01935656   -0.07100850
     atom   96 type  2   force =     0.04339800    0.01916165   -0.07037381
     atom   97 type  1   force =     0.00120993    0.07019519   -0.00920336
     atom   98 type  1   force =    -0.00142330   -0.07045930   -0.00911056
     atom   99 type  1   force =    -0.00143146    0.07046086   -0.00910959
     atom  100 type  1   force =     0.00121524   -0.07019714   -0.00920411
     atom  101 type  3   force =     0.00860048   -0.00012874    0.00488382
     atom  102 type  3   force =    -0.00875491   -0.00012444    0.00506739
     atom  103 type  3   force =    -0.00875647    0.00012504    0.00506740
     atom  104 type  3   force =     0.00860143    0.00012810    0.00488286

     Total force =     0.718718     Total SCF correction =     0.000197


     Computing stress (Cartesian axis) and pressure

          total   stress  (Ry/bohr**3)                   (kbar)     P=  100.65
   0.00042603  -0.00000000   0.00000005         62.67     -0.00      0.01
  -0.00000000   0.00134714  -0.00000000         -0.00    198.17     -0.00
   0.00000005  -0.00000000   0.00027935          0.01     -0.00     41.09


     Writing output data file scf.save
 
     init_run     :     47.85s CPU     49.71s WALL (       1 calls)
     electrons    :   2323.51s CPU   2414.34s WALL (       1 calls)
     forces       :     23.44s CPU     23.69s WALL (       1 calls)
     stress       :    107.73s CPU    108.17s WALL (       1 calls)

     Called by init_run:
     wfcinit      :     41.18s CPU     42.92s WALL (       1 calls)
     potinit      :      2.39s CPU      2.41s WALL (       1 calls)

     Called by electrons:
     c_bands      :   2073.71s CPU   2148.64s WALL (      25 calls)
     sum_band     :    227.76s CPU    240.79s WALL (      25 calls)
     v_of_rho     :      3.31s CPU      3.68s WALL (      26 calls)
     newd         :      7.24s CPU      9.32s WALL (      26 calls)
     PAW_pot      :     10.45s CPU     10.46s WALL (      26 calls)
     mix_rho      :      0.97s CPU      1.05s WALL (      25 calls)

     Called by c_bands:
     init_us_2    :     10.88s CPU     10.94s WALL (     318 calls)
     cegterg      :   2026.31s CPU   2101.15s WALL (     150 calls)

     Called by sum_band:
     sum_band:bec :      0.17s CPU      0.17s WALL (     150 calls)
     addusdens    :      8.15s CPU     10.08s WALL (      25 calls)

     Called by *egterg:
     h_psi        :   1053.32s CPU   1111.05s WALL (     854 calls)
     s_psi        :    275.45s CPU    275.50s WALL (     854 calls)
     g_psi        :      4.50s CPU      4.50s WALL (     698 calls)
     cdiaghg      :    138.79s CPU    138.81s WALL (     848 calls)

     Called by h_psi:
     h_psi:pot    :   1046.31s CPU   1103.95s WALL (     854 calls)
     h_psi:calbec :    267.63s CPU    268.02s WALL (     854 calls)
     vloc_psi     :    502.35s CPU    559.53s WALL (     854 calls)
     add_vuspsi   :    276.34s CPU    276.40s WALL (     854 calls)

     General routines
     calbec       :    389.35s CPU    389.94s WALL (    1034 calls)
     fft          :      2.31s CPU      2.90s WALL (     362 calls)
     fftw         :    546.72s CPU    613.54s WALL (  192666 calls)
 
     Parallel routines
     fft_scatter  :    120.58s CPU    182.33s WALL (  193028 calls)
 
     PWSCF        : 41m52.72s CPU    44m 6.06s WALL

 
   This run was terminated on:   7:51:46  18Dec2017            

=------------------------------------------------------------------------------=
   JOB DONE.
=------------------------------------------------------------------------------=
