
     Program PWSCF v.6.1 (svn rev. 13369) starts on  4Nov2017 at  1:54:44 

     This program is part of the open-source Quantum ESPRESSO suite
     for quantum simulation of materials; please cite
         "P. Giannozzi et al., J. Phys.:Condens. Matter 21 395502 (2009);
          URL http://www.quantum-espresso.org", 
     in publications or presentations arising from this work. More details at
     http://www.quantum-espresso.org/quote

     Parallel version (MPI), running on     8 processors
     R & G space division:  proc/nbgrp/npool/nimage =       8
     Waiting for input...
     Reading input from standard input

     Current dimensions of program PWSCF are:
     Max number of different atomic species (ntypx) = 10
     Max number of k-points (npk) =  40000
     Max angular momentum in pseudopotentials (lmaxx) =  3
               file C.pbe-n-kjpaw_psl.0.1.UPF: wavefunction(s)  2P renormalized
               file N.pbe-n-kjpaw_psl.0.1.UPF: wavefunction(s)  2P renormalized
               file H.pbe-kjpaw_psl.0.1.UPF: wavefunction(s)  1S renormalized
               file O.pbe-n-kjpaw_psl.0.1.UPF: wavefunction(s)  2P renormalized

     -------------------------------------
     Parameters for Dispersion Correction:
     -------------------------------------
       atom      VdW radius       C_6     

        C          2.744         60.710
        N          2.640         42.670
        H          1.892          4.857
        O          2.536         24.284

     Subspace diagonalization in iterative solution of the eigenvalue problem:
     a serial algorithm will be used

 
     Parallelization info
     --------------------
     sticks:   dense  smooth     PW     G-vecs:    dense   smooth      PW
     Min        1305    1305    348                70210    70210    9714
     Max        1306    1306    349                70211    70211    9716
     Sum       10443   10443   2787               561687   561687   77721
 


     bravais-lattice index     =            0
     lattice parameter (alat)  =       9.5167  a.u.
     unit-cell volume          =    4156.8372 (a.u.)^3
     number of atoms/cell      =           72
     number of atomic types    =            4
     number of electrons       =       192.00
     number of Kohn-Sham states=          115
     kinetic-energy cutoff     =     100.0000  Ry
     charge density cutoff     =     400.0000  Ry
     convergence threshold     =      1.0E-08
     mixing beta               =       0.5000
     number of iterations used =            8  plain     mixing
     Exchange-correlation      =  SLA  PW   PBX  PBC ( 1  4  3  4 0 0)

     celldm(1)=   9.516661  celldm(2)=   0.000000  celldm(3)=   0.000000
     celldm(4)=   0.000000  celldm(5)=   0.000000  celldm(6)=   0.000000

     crystal axes: (cart. coord. in units of alat)
               a(1) = (   1.000000   0.000000   0.000000 )  
               a(2) = (   0.000000   3.616164   0.000000 )  
               a(3) = (  -0.351261   0.000000   1.333709 )  

     reciprocal axes: (cart. coord. in units 2 pi/alat)
               b(1) = (  1.000000  0.000000  0.263371 )  
               b(2) = (  0.000000  0.276536  0.000000 )  
               b(3) = (  0.000000  0.000000  0.749789 )  


     PseudoPot. # 1 for  C read from file:
     /scratch/ahofstet/pseudo/C.pbe-n-kjpaw_psl.0.1.UPF
     MD5 check sum: 430fe95172b1e11ef3f8ed03bac87931
     Pseudo is Projector augmented-wave + core cor, Zval =  4.0
     Generated using "atomic" code by A. Dal Corso  v.5.0.99 svn rev. 10869
     Shape of augmentation charge: BESSEL
     Using radial grid of 1073 points,  4 beta functions with: 
                l(1) =   0
                l(2) =   0
                l(3) =   1
                l(4) =   1
     Q(r) pseudized with 0 coefficients 


     PseudoPot. # 2 for  N read from file:
     /scratch/ahofstet/pseudo/N.pbe-n-kjpaw_psl.0.1.UPF
     MD5 check sum: f73187c8b701007e77325f868c9291d7
     Pseudo is Projector augmented-wave + core cor, Zval =  5.0
     Generated using "atomic" code by A. Dal Corso  v.5.0.99 svn rev. 10869
     Shape of augmentation charge: PSQ
     Using radial grid of 1085 points,  4 beta functions with: 
                l(1) =   0
                l(2) =   0
                l(3) =   1
                l(4) =   1
     Q(r) pseudized with 0 coefficients 


     PseudoPot. # 3 for  H read from file:
     /scratch/ahofstet/pseudo/H.pbe-kjpaw_psl.0.1.UPF
     MD5 check sum: 94e484f906d9e9773b2f6e52662335b2
     Pseudo is Projector augmented-wave, Zval =  1.0
     Generated using "atomic" code by A. Dal Corso  v.5.0.99 svn rev. 10869
     Shape of augmentation charge: PSQ
     Using radial grid of  929 points,  2 beta functions with: 
                l(1) =   0
                l(2) =   0
     Q(r) pseudized with 0 coefficients 


     PseudoPot. # 4 for  O read from file:
     /scratch/ahofstet/pseudo/O.pbe-n-kjpaw_psl.0.1.UPF
     MD5 check sum: 3f94a2996a3169367d6eb21d9b593f20
     Pseudo is Projector augmented-wave + core cor, Zval =  6.0
     Generated using "atomic" code by A. Dal Corso  v.5.0.99 svn rev. 10869
     Shape of augmentation charge: BESSEL
     Using radial grid of 1095 points,  4 beta functions with: 
                l(1) =   0
                l(2) =   0
                l(3) =   1
                l(4) =   1
     Q(r) pseudized with 0 coefficients 


     atomic species   valence    mass     pseudopotential
        C              4.00    12.01070      C( 1.00)
        N              5.00    14.00670      N( 1.00)
        H              1.00     1.00794      H( 1.00)
        O              6.00    15.99940      O( 1.00)

      2 Sym. Ops., with inversion, found
          (note:  2 additional sym.ops. were found but ignored
           their fractional translations are incommensurate with FFT grid)


   Cartesian axes

     site n.     atom                  positions (alat units)
         1           O   tau(   1) = (   0.4113543   1.0394875   0.2044122  )
         2           O   tau(   2) = (   0.9130153   2.8475693   0.4624424  )
         3           O   tau(   3) = (   0.2373849   2.5766761   1.1292971  )
         4           O   tau(   4) = (  -0.2642761   0.7685943   0.8712668  )
         5           N   tau(   5) = (   0.4230954   1.0538557   1.2672432  )
         6           N   tau(   6) = (   0.5500134   2.8619375   0.7333208  )
         7           N   tau(   7) = (   0.2256438   2.5623080   0.0664661  )
         8           N   tau(   8) = (   0.0987258   0.7542262   0.6003885  )
         9           C   tau(   9) = (   0.5949191   0.9238324   0.0806151  )
        10           C   tau(  10) = (   0.7294505   2.7319142   0.5862396  )
        11           C   tau(  11) = (   0.0538201   2.6923312   1.2530942  )
        12           C   tau(  12) = (  -0.0807113   0.8842494   0.7474697  )
        13           C   tau(  13) = (   0.6263391   0.6262202   0.0921734  )
        14           C   tau(  14) = (   0.6980305   2.4343020   0.5746812  )
        15           C   tau(  15) = (   0.0224001   2.9899434   1.2415358  )
        16           C   tau(  16) = (  -0.0492913   1.1818616   0.7590281  )
        17           H   tau(  17) = (   0.3961652   1.2521289   1.2293617  )
        18           H   tau(  18) = (   0.5769436   3.0602107   0.7712022  )
        19           H   tau(  19) = (   0.2525740   2.3640348   0.1043475  )
        20           H   tau(  20) = (   0.0717956   0.5559530   0.5625071  )
        21           H   tau(  21) = (   0.4899175   0.5414746   0.2381902  )
        22           H   tau(  22) = (   0.8344521   2.3495565   0.4286644  )
        23           H   tau(  23) = (   0.1588217   3.0746890   1.0955191  )
        24           H   tau(  24) = (  -0.1857129   1.2666072   0.9050448  )
        25           H   tau(  25) = (   0.8308942   0.5729033   0.1425942  )
        26           H   tau(  26) = (   0.4934754   2.3809852   0.5242605  )
        27           H   tau(  27) = (  -0.1821550   3.0432603   1.1911151  )
        28           H   tau(  28) = (   0.1552638   1.2351785   0.8094488  )
        29           H   tau(  29) = (   0.2309078   0.5410824   1.2298108  )
        30           H   tau(  30) = (   0.7422010   2.3491642   0.7707531  )
        31           H   tau(  31) = (   0.4178314   3.0750813   0.1038985  )
        32           H   tau(  32) = (  -0.0934618   1.2669994   0.5629561  )
        33           H   tau(  33) = (   0.5497895   0.9514929   1.1437363  )
        34           H   tau(  34) = (   0.4233193   2.7595747   0.8568276  )
        35           H   tau(  35) = (   0.0989497   2.6646707   0.1899730  )
        36           H   tau(  36) = (   0.2254199   0.8565889   0.4768817  )
        37           O   tau(  37) = (   0.5454356   3.4133155   0.8945554  )
        38           O   tau(  38) = (   0.4276732   1.6052337   1.1060085  )
        39           O   tau(  39) = (   0.1033036   0.2028482   0.4391539  )
        40           O   tau(  40) = (   0.2210660   2.0109300   0.2277008  )
        41           N   tau(  41) = (   0.5254391   0.2412523   0.8195973  )
        42           N   tau(  42) = (   0.4476697   2.0493341   1.1809667  )
        43           N   tau(  43) = (   0.1233001   3.3749113   0.5141120  )
        44           N   tau(  44) = (   0.2010695   1.5668295   0.1527426  )
        45           C   tau(  45) = (   0.6397229   0.0266835   0.9281923  )
        46           C   tau(  46) = (   0.3333859   1.8347653   1.0723716  )
        47           C   tau(  47) = (   0.0090163   3.5894801   0.4055170  )
        48           C   tau(  48) = (   0.3153533   1.7813983   0.2613376  )
        49           C   tau(  49) = (  -0.1156421   0.0750851   1.0894309  )
        50           C   tau(  50) = (   0.0887509   1.8831669   0.9111330  )
        51           C   tau(  51) = (   0.7643813   3.5410786   0.2442784  )
        52           C   tau(  52) = (   0.5599883   1.7329967   0.4225763  )
        53           H   tau(  53) = (  -0.0438421   3.5055804   1.1761784  )
        54           H   tau(  54) = (   0.0169509   1.6974985   0.8243855  )
        55           H   tau(  55) = (   0.6925813   0.1105833   0.1575309  )
        56           H   tau(  56) = (   0.6317883   1.9186651   0.5093238  )
        57           H   tau(  57) = (  -0.1545602   0.2182463   1.2489470  )
        58           H   tau(  58) = (   0.1276690   2.0263281   0.7516170  )
        59           H   tau(  59) = (   0.8032994   3.3979174   0.0847623  )
        60           H   tau(  60) = (   0.5210702   1.5898356   0.5820923  )
        61           H   tau(  61) = (   0.0454382   0.1597455   0.9646644  )
        62           H   tau(  62) = (  -0.0723294   1.9678273   1.0358996  )
        63           H   tau(  63) = (   0.6033010   3.4564182   0.3690449  )
        64           H   tau(  64) = (   0.7210686   1.6483364   0.2978097  )
        65           H   tau(  65) = (   0.6126412   0.4262716   0.8380842  )
        66           H   tau(  66) = (   0.3604676   2.2343534   1.1624797  )
        67           H   tau(  67) = (   0.0360980   3.1898920   0.4956250  )
        68           H   tau(  68) = (   0.2882716   1.3818102   0.1712296  )
        69           H   tau(  69) = (   0.3746665   0.2179302   0.6813905  )
        70           H   tau(  70) = (   0.5984422   2.0260120   1.3191734  )
        71           H   tau(  71) = (   0.2740726   3.3982334   0.6523187  )
        72           H   tau(  72) = (   0.0502969   1.5901516   0.0145359  )

     number of k points=     7
                       cart. coord. in units 2pi/alat
        k(    1) = (   0.0000000   0.0000000   0.0000000), wk =   0.1666667
        k(    2) = (   0.0000000   0.0000000   0.2499295), wk =   0.3333333
        k(    3) = (   0.2500000   0.0000000   0.0658428), wk =   0.3333333
        k(    4) = (   0.2500000   0.0000000   0.3157724), wk =   0.3333333
        k(    5) = (   0.2500000   0.0000000  -0.1840867), wk =   0.3333333
        k(    6) = (  -0.5000000   0.0000000  -0.1316857), wk =   0.1666667
        k(    7) = (  -0.5000000   0.0000000   0.1182439), wk =   0.3333333

     Dense  grid:   561687 G-vectors     FFT dimensions: (  64, 225,  90)

     Estimated max dynamical RAM per process >     341.57MB

     Estimated total allocated dynamical RAM >    2732.58MB

     Check: negative/imaginary core charge=   -0.000002    0.000000

     Initial potential from superposition of free atoms

     starting charge  191.99888, renormalised to  192.00000
     Starting wfc are  168 randomized atomic wfcs
     Checking if some PAW data can be deallocated... 

     total cpu time spent up to now is       19.2 secs

     per-process dynamical memory:   247.9 Mb

     Self-consistent Calculation

     iteration #  1     ecut=   100.00 Ry     beta=0.50
     Davidson diagonalization with overlap
     ethr =  1.00E-02,  avg # of iterations =  4.0

     total cpu time spent up to now is       61.7 secs

     total energy              =    -900.61868729 Ry
     Harris-Foulkes estimate   =    -905.05350948 Ry
     estimated scf accuracy    <       8.17886283 Ry

     iteration #  2     ecut=   100.00 Ry     beta=0.50
     Davidson diagonalization with overlap
     ethr =  4.26E-03,  avg # of iterations =  2.1

     total cpu time spent up to now is       85.8 secs

     total energy              =    -901.72743994 Ry
     Harris-Foulkes estimate   =    -902.04203498 Ry
     estimated scf accuracy    <       0.72225564 Ry

     iteration #  3     ecut=   100.00 Ry     beta=0.50
     Davidson diagonalization with overlap
     ethr =  3.76E-04,  avg # of iterations =  5.7

     total cpu time spent up to now is      131.4 secs

     total energy              =    -902.31387998 Ry
     Harris-Foulkes estimate   =    -902.54296935 Ry
     estimated scf accuracy    <       0.64201123 Ry

     iteration #  4     ecut=   100.00 Ry     beta=0.50
     Davidson diagonalization with overlap
     ethr =  3.34E-04,  avg # of iterations =  1.0

     total cpu time spent up to now is      152.4 secs

     total energy              =    -902.19344341 Ry
     Harris-Foulkes estimate   =    -902.33903660 Ry
     estimated scf accuracy    <       0.23299238 Ry

     iteration #  5     ecut=   100.00 Ry     beta=0.50
     Davidson diagonalization with overlap
     ethr =  1.21E-04,  avg # of iterations =  7.0

     total cpu time spent up to now is      198.2 secs

     total energy              =    -902.38099923 Ry
     Harris-Foulkes estimate   =    -902.47004115 Ry
     estimated scf accuracy    <       0.38037167 Ry

     iteration #  6     ecut=   100.00 Ry     beta=0.50
     Davidson diagonalization with overlap
     ethr =  1.21E-04,  avg # of iterations =  1.0

     total cpu time spent up to now is      219.2 secs

     total energy              =    -902.31884087 Ry
     Harris-Foulkes estimate   =    -902.38786182 Ry
     estimated scf accuracy    <       0.22023317 Ry

     iteration #  7     ecut=   100.00 Ry     beta=0.50
     Davidson diagonalization with overlap
     ethr =  1.15E-04,  avg # of iterations =  3.7

     total cpu time spent up to now is      246.1 secs

     total energy              =    -902.34291765 Ry
     Harris-Foulkes estimate   =    -902.35212407 Ry
     estimated scf accuracy    <       0.01871673 Ry

     iteration #  8     ecut=   100.00 Ry     beta=0.50
     Davidson diagonalization with overlap
     ethr =  9.75E-06,  avg # of iterations =  7.0

     total cpu time spent up to now is      280.2 secs

     total energy              =    -902.34833083 Ry
     Harris-Foulkes estimate   =    -902.34814738 Ry
     estimated scf accuracy    <       0.00028867 Ry

     iteration #  9     ecut=   100.00 Ry     beta=0.50
     Davidson diagonalization with overlap
     ethr =  1.50E-07,  avg # of iterations =  4.1

     total cpu time spent up to now is      321.9 secs

     total energy              =    -902.34886008 Ry
     Harris-Foulkes estimate   =    -902.34892250 Ry
     estimated scf accuracy    <       0.00041185 Ry

     iteration # 10     ecut=   100.00 Ry     beta=0.50
     Davidson diagonalization with overlap
     ethr =  1.50E-07,  avg # of iterations =  1.0

     total cpu time spent up to now is      342.9 secs

     total energy              =    -902.34874322 Ry
     Harris-Foulkes estimate   =    -902.34886670 Ry
     estimated scf accuracy    <       0.00028562 Ry

     iteration # 11     ecut=   100.00 Ry     beta=0.50
     Davidson diagonalization with overlap
     ethr =  1.49E-07,  avg # of iterations =  3.3

     total cpu time spent up to now is      366.6 secs

     total energy              =    -902.34876128 Ry
     Harris-Foulkes estimate   =    -902.34877494 Ry
     estimated scf accuracy    <       0.00003385 Ry

     iteration # 12     ecut=   100.00 Ry     beta=0.50
     Davidson diagonalization with overlap
     ethr =  1.76E-08,  avg # of iterations =  4.0

     total cpu time spent up to now is      405.3 secs

     total energy              =    -902.34879727 Ry
     Harris-Foulkes estimate   =    -902.34880147 Ry
     estimated scf accuracy    <       0.00000904 Ry

     iteration # 13     ecut=   100.00 Ry     beta=0.50
     Davidson diagonalization with overlap
     ethr =  4.71E-09,  avg # of iterations =  2.0

     total cpu time spent up to now is      427.4 secs

     total energy              =    -902.34879658 Ry
     Harris-Foulkes estimate   =    -902.34879780 Ry
     estimated scf accuracy    <       0.00000179 Ry

     iteration # 14     ecut=   100.00 Ry     beta=0.50
     Davidson diagonalization with overlap
     ethr =  9.33E-10,  avg # of iterations =  4.0

     total cpu time spent up to now is      468.6 secs

     total energy              =    -902.34879856 Ry
     Harris-Foulkes estimate   =    -902.34879984 Ry
     estimated scf accuracy    <       0.00000374 Ry

     iteration # 15     ecut=   100.00 Ry     beta=0.50
     Davidson diagonalization with overlap
     ethr =  9.33E-10,  avg # of iterations =  2.0

     total cpu time spent up to now is      490.6 secs

     total energy              =    -902.34879795 Ry
     Harris-Foulkes estimate   =    -902.34879866 Ry
     estimated scf accuracy    <       0.00000147 Ry

     iteration # 16     ecut=   100.00 Ry     beta=0.50
     Davidson diagonalization with overlap
     ethr =  7.67E-10,  avg # of iterations =  3.3

     total cpu time spent up to now is      522.7 secs

     total energy              =    -902.34879866 Ry
     Harris-Foulkes estimate   =    -902.34879868 Ry
     estimated scf accuracy    <       0.00000013 Ry

     iteration # 17     ecut=   100.00 Ry     beta=0.50
     Davidson diagonalization with overlap
     ethr =  6.92E-11,  avg # of iterations =  1.0

     total cpu time spent up to now is      543.7 secs

     total energy              =    -902.34879863 Ry
     Harris-Foulkes estimate   =    -902.34879867 Ry
     estimated scf accuracy    <       0.00000010 Ry

     iteration # 18     ecut=   100.00 Ry     beta=0.50
     Davidson diagonalization with overlap
     ethr =  5.09E-11,  avg # of iterations =  3.0

     total cpu time spent up to now is      569.8 secs

     End of self-consistent calculation

          k = 0.0000 0.0000 0.0000 ( 70173 PWs)   bands (ev):

   -20.0789 -20.0722 -19.9272 -19.9129 -19.8815 -19.8809 -19.8231 -19.8165
   -16.5151 -16.5086 -16.4818 -16.4611 -16.3911 -16.3177 -16.2983 -16.2540
   -12.4260 -12.4010 -12.2811 -12.2775 -12.1469 -12.1019 -12.0992 -12.0950
    -9.1182  -8.8103  -8.7942  -8.4763  -8.3240  -8.3000  -8.2118  -8.1804
    -7.4084  -7.2765  -7.2532  -7.1864  -7.1004  -6.8966  -6.6390  -6.5959
    -6.0184  -5.9735  -5.7797  -5.7714  -5.5871  -5.5601  -5.5445  -5.5045
    -5.3527  -5.3490  -5.2101  -5.1474  -4.7174  -4.6134  -4.5766  -4.3372
    -4.2414  -4.1682  -4.1583  -4.0703  -4.0291  -3.8935  -3.8219  -3.6898
    -3.6867  -3.6113  -3.5985  -3.5690  -3.5321  -3.3854  -3.3609  -3.3071
    -3.3044  -3.0652  -3.0042  -2.9679  -2.7583  -2.7387  -2.6702  -2.6382
    -0.9648  -0.9338  -0.7570  -0.7546  -0.7201  -0.6316  -0.6006  -0.5918
    -0.5081  -0.4393  -0.3899  -0.3856  -0.1289  -0.1141  -0.0339   0.0159
     5.0328   5.0863   5.1611   5.2191   5.3218   5.3662   5.4836   5.4869
     5.6199   5.9641   6.3045   6.9555   7.1781   7.7437   7.7449   7.7561
     8.1711   8.2023   8.2376

          k = 0.0000 0.0000 0.2499 ( 70169 PWs)   bands (ev):

   -20.0698 -20.0663 -19.9024 -19.8906 -19.8892 -19.8868 -19.8495 -19.8413
   -16.4907 -16.4818 -16.4795 -16.4352 -16.4167 -16.3590 -16.2948 -16.2736
   -12.3942 -12.3774 -12.2512 -12.2418 -12.1809 -12.1575 -12.1303 -12.1213
    -8.9958  -8.8132  -8.6712  -8.4201  -8.3995  -8.3505  -8.3231  -8.2067
    -7.3353  -7.2589  -7.2551  -7.1667  -7.0979  -6.8628  -6.8516  -6.7085
    -6.0744  -6.0442  -5.7329  -5.7218  -5.5844  -5.5741  -5.4206  -5.4186
    -5.1806  -5.1802  -5.0695  -5.0403  -4.7784  -4.7368  -4.6100  -4.5573
    -4.4028  -4.1816  -4.1228  -4.0603  -4.0500  -3.7627  -3.7586  -3.6978
    -3.6861  -3.5858  -3.5797  -3.5174  -3.4879  -3.4514  -3.3545  -3.3113
    -3.2594  -3.1660  -2.9512  -2.9461  -2.9161  -2.8716  -2.7512  -2.7269
    -0.8717  -0.8597  -0.7816  -0.7362  -0.7104  -0.6459  -0.6412  -0.6045
    -0.4976  -0.4217  -0.3511  -0.3193  -0.2043  -0.1390  -0.1361  -0.0615
     5.0443   5.1061   5.1463   5.1661   5.2455   5.3395   5.3540   5.4017
     6.3129   6.5146   6.7725   7.1660   7.4294   7.6085   7.7249   7.7920
     7.8305   8.0491   8.1166

          k = 0.2500 0.0000 0.0658 ( 70177 PWs)   bands (ev):

   -20.0488 -20.0441 -19.9174 -19.9060 -19.9059 -19.8813 -19.8330 -19.8237
   -16.5517 -16.5063 -16.4779 -16.4127 -16.3686 -16.3589 -16.3047 -16.2745
   -12.3575 -12.3542 -12.3327 -12.3041 -12.2559 -12.1715 -12.1532 -12.0938
    -8.9370  -8.7187  -8.7100  -8.4798  -8.3515  -8.3119  -8.2898  -8.1996
    -7.3726  -7.2088  -7.1697  -7.1331  -7.0743  -6.8603  -6.7325  -6.6884
    -6.2023  -6.0790  -5.7876  -5.7053  -5.6763  -5.6477  -5.6275  -5.5231
    -5.3908  -5.3250  -5.1367  -5.1308  -4.7554  -4.7234  -4.6695  -4.3509
    -4.3327  -4.2486  -4.2061  -4.0644  -4.0204  -3.8778  -3.7633  -3.7179
    -3.7054  -3.6424  -3.5639  -3.4481  -3.4336  -3.4046  -3.2756  -3.2282
    -3.1766  -3.1569  -3.0166  -2.9597  -2.7623  -2.7209  -2.5685  -2.5650
    -0.9029  -0.8822  -0.7448  -0.7153  -0.6408  -0.5944  -0.4798  -0.4579
    -0.3986  -0.3662  -0.3219  -0.2585  -0.2474  -0.1669  -0.0738  -0.0580
     4.6685   4.7045   5.0931   5.1544   5.2725   5.3050   5.3677   5.3687
     6.2489   6.5870   6.6722   7.3681   7.4514   7.8585   7.8929   7.9272
     7.9279   8.0108   8.1368

          k = 0.2500 0.0000 0.3158 ( 70152 PWs)   bands (ev):

   -20.0407 -20.0381 -19.9218 -19.9125 -19.8977 -19.8762 -19.8411 -19.8314
   -16.5814 -16.5237 -16.4962 -16.4219 -16.3563 -16.3124 -16.3116 -16.2506
   -12.4617 -12.4361 -12.2292 -12.2033 -12.2011 -12.1797 -12.1546 -12.1528
    -8.8936  -8.8232  -8.7618  -8.5865  -8.3320  -8.2785  -8.2722  -8.1076
    -7.3938  -7.2578  -7.2465  -7.1204  -7.0618  -6.8284  -6.6728  -6.5858
    -6.1494  -5.9927  -5.7370  -5.7054  -5.6534  -5.4911  -5.3952  -5.3867
    -5.3413  -5.3120  -5.0750  -5.0605  -4.8961  -4.8411  -4.7383  -4.7163
    -4.5760  -4.3961  -4.3338  -4.1695  -3.9795  -3.9647  -3.8186  -3.6957
    -3.6483  -3.6361  -3.5112  -3.4216  -3.4018  -3.3237  -3.3154  -3.1272
    -3.0954  -3.0754  -2.9054  -2.8731  -2.8433  -2.8109  -2.7127  -2.6953
    -0.9182  -0.8626  -0.7292  -0.6742  -0.5908  -0.5886  -0.5342  -0.4287
    -0.4266  -0.3967  -0.3950  -0.2240  -0.2098  -0.1858  -0.0307  -0.0016
     4.6757   4.7231   5.0386   5.0505   5.2348   5.3259   5.3554   5.4230
     6.8486   7.0733   7.2214   7.3488   7.5633   7.5874   7.8086   7.8160
     7.8964   7.9978   8.0232

          k = 0.2500 0.0000-0.1841 ( 70237 PWs)   bands (ev):

   -20.0473 -20.0452 -19.9094 -19.9092 -19.8783 -19.8624 -19.8617 -19.8474
   -16.5466 -16.5100 -16.4649 -16.4047 -16.3735 -16.3712 -16.3030 -16.2804
   -12.4817 -12.4621 -12.2492 -12.2368 -12.2140 -12.1695 -12.1262 -12.0824
    -8.9134  -8.7740  -8.5600  -8.4823  -8.4617  -8.3517  -8.2968  -8.2053
    -7.2711  -7.2391  -7.2040  -7.1619  -6.9723  -6.9280  -6.7953  -6.7568
    -6.0671  -6.0556  -5.7437  -5.7225  -5.6222  -5.5759  -5.4607  -5.4231
    -5.3899  -5.2908  -5.2443  -5.2181  -4.7157  -4.6956  -4.6555  -4.5942
    -4.4954  -4.3612  -4.0979  -4.0824  -4.0134  -3.8556  -3.8504  -3.6642
    -3.6613  -3.6040  -3.5480  -3.5101  -3.4598  -3.4579  -3.2805  -3.2032
    -3.0898  -3.0011  -2.9970  -2.9848  -2.7758  -2.7236  -2.6892  -2.6750
    -0.9063  -0.8667  -0.7012  -0.7005  -0.6533  -0.5794  -0.5278  -0.4496
    -0.4299  -0.4070  -0.2694  -0.2088  -0.1949  -0.1762  -0.1356  -0.0849
     4.7441   4.7591   4.9675   4.9904   5.2015   5.2288   5.4466   5.4541
     6.4924   6.6269   7.0203   7.4457   7.5994   7.6527   7.8632   7.8833
     7.9729   8.1135   8.1268

          k =-0.5000 0.0000-0.1317 ( 70202 PWs)   bands (ev):

   -19.9970 -19.9970 -19.9526 -19.9526 -19.8646 -19.8646 -19.8494 -19.8494
   -16.5462 -16.5462 -16.4326 -16.4326 -16.3330 -16.3330 -16.3294 -16.3294
   -12.4695 -12.4695 -12.2543 -12.2543 -12.1982 -12.1982 -12.1665 -12.1665
    -8.7127  -8.7126  -8.5962  -8.5962  -8.4137  -8.4137  -8.2260  -8.2260
    -7.2019  -7.2019  -7.1708  -7.1708  -6.9464  -6.9464  -6.7433  -6.7432
    -6.1098  -6.1098  -5.8577  -5.8577  -5.6621  -5.6621  -5.5515  -5.5515
    -5.3790  -5.3790  -5.0165  -5.0165  -4.9856  -4.9855  -4.5981  -4.5981
    -4.4786  -4.4786  -3.9150  -3.9150  -3.9089  -3.9089  -3.8431  -3.8431
    -3.6861  -3.6861  -3.5330  -3.5330  -3.3855  -3.3855  -3.3082  -3.3082
    -2.9810  -2.9810  -2.9409  -2.9409  -2.8724  -2.8724  -2.4177  -2.4177
    -0.8924  -0.8924  -0.6193  -0.6193  -0.4487  -0.4487  -0.4235  -0.4235
    -0.3925  -0.3925  -0.2030  -0.2030  -0.1967  -0.1966  -0.0814  -0.0814
     4.3951   4.3951   5.0797   5.0797   5.1225   5.1225   5.3646   5.3646
     7.0037   7.0037   7.4796   7.4796   7.6484   7.6484   7.9323   7.9323
     7.9815   7.9816   8.2765

          k =-0.5000 0.0000 0.1182 ( 70231 PWs)   bands (ev):

   -20.0039 -20.0038 -19.9492 -19.9437 -19.8785 -19.8592 -19.8498 -19.8361
   -16.6091 -16.5382 -16.5101 -16.3771 -16.3400 -16.3290 -16.3122 -16.2614
   -12.4888 -12.4822 -12.2976 -12.2782 -12.2080 -12.1861 -12.1461 -12.1122
    -8.7531  -8.7291  -8.6476  -8.5549  -8.5350  -8.3230  -8.2360  -8.1348
    -7.3335  -7.1591  -7.1102  -7.0497  -7.0431  -6.8151  -6.7207  -6.6434
    -6.2032  -6.1366  -5.7168  -5.6977  -5.6617  -5.5925  -5.5481  -5.5210
    -5.4545  -5.3295  -5.2707  -5.2382  -4.8624  -4.8472  -4.7266  -4.6596
    -4.4901  -4.4894  -4.3031  -4.1256  -4.0673  -3.8166  -3.7794  -3.7237
    -3.7105  -3.5952  -3.5489  -3.4309  -3.3979  -3.3769  -3.3022  -3.1148
    -3.1041  -3.0214  -2.8306  -2.8167  -2.7672  -2.7271  -2.5306  -2.5111
    -0.9075  -0.8726  -0.7272  -0.6532  -0.5307  -0.4313  -0.4049  -0.3984
    -0.3816  -0.3517  -0.3046  -0.2919  -0.1567  -0.1304  -0.0558   0.0041
     4.4588   4.4820   4.8512   4.8632   5.1793   5.2161   5.3785   5.3935
     7.2265   7.2944   7.3153   7.4922   7.5664   7.7445   7.8176   7.8270
     8.0180   8.0309   8.1810

     highest occupied, lowest unoccupied level (ev):     0.0159    4.3951

!    total energy              =    -902.34879864 Ry
     Harris-Foulkes estimate   =    -902.34879864 Ry
     estimated scf accuracy    <          5.9E-09 Ry

     total all-electron energy =     -3347.739797 Ry

     The total energy is the sum of the following terms:

     one-electron contribution =    -445.88915988 Ry
     hartree contribution      =     294.54675344 Ry
     xc contribution           =    -198.17574303 Ry
     ewald contribution        =    -303.80149995 Ry
     Dispersion Correction     =      -0.30495414 Ry
     one-center paw contrib.   =    -248.72419508 Ry

     convergence has been achieved in  18 iterations

     Forces acting on atoms (cartesian axes, Ry/au):

     atom    1 type  4   force =     0.00683354   -0.00083881    0.00105174
     atom    2 type  4   force =    -0.00683354   -0.00083775   -0.00105187
     atom    3 type  4   force =    -0.00683354    0.00083881   -0.00105174
     atom    4 type  4   force =     0.00683354    0.00083775    0.00105187
     atom    5 type  2   force =    -0.00768292    0.00438010   -0.00321229
     atom    6 type  2   force =     0.00768290    0.00438012    0.00321239
     atom    7 type  2   force =     0.00768292   -0.00438010    0.00321229
     atom    8 type  2   force =    -0.00768290   -0.00438012   -0.00321239
     atom    9 type  1   force =    -0.00218972    0.00291472    0.00365016
     atom   10 type  1   force =     0.00218977    0.00292227   -0.00365020
     atom   11 type  1   force =     0.00218972   -0.00291472   -0.00365016
     atom   12 type  1   force =    -0.00218977   -0.00292227    0.00365020
     atom   13 type  1   force =    -0.00276614    0.00122599   -0.00266985
     atom   14 type  1   force =     0.00276603    0.00123699    0.00266980
     atom   15 type  1   force =     0.00276614   -0.00122599    0.00266985
     atom   16 type  1   force =    -0.00276603   -0.00123699   -0.00266980
     atom   17 type  3   force =    -0.00070895   -0.00132779    0.00063996
     atom   18 type  3   force =     0.00070891   -0.00132779   -0.00063988
     atom   19 type  3   force =     0.00070895    0.00132779   -0.00063996
     atom   20 type  3   force =    -0.00070891    0.00132779    0.00063988
     atom   21 type  3   force =    -0.00069517   -0.00171019    0.00168111
     atom   22 type  3   force =     0.00069512   -0.00171032   -0.00168107
     atom   23 type  3   force =     0.00069517    0.00171019   -0.00168111
     atom   24 type  3   force =    -0.00069512    0.00171032    0.00168107
     atom   25 type  3   force =     0.00371131   -0.00275450    0.00193632
     atom   26 type  3   force =    -0.00371114   -0.00275467   -0.00193630
     atom   27 type  3   force =    -0.00371131    0.00275450   -0.00193632
     atom   28 type  3   force =     0.00371114    0.00275467    0.00193630
     atom   29 type  3   force =    -0.00004199   -0.00018779   -0.00119718
     atom   30 type  3   force =     0.00004192   -0.00018791    0.00119693
     atom   31 type  3   force =     0.00004199    0.00018779    0.00119718
     atom   32 type  3   force =    -0.00004192    0.00018791   -0.00119693
     atom   33 type  3   force =     0.00125858   -0.00266430   -0.00183921
     atom   34 type  3   force =    -0.00125853   -0.00266401    0.00183914
     atom   35 type  3   force =    -0.00125858    0.00266430    0.00183921
     atom   36 type  3   force =     0.00125853    0.00266401   -0.00183914
     atom   37 type  4   force =     0.00283730    0.00548163    0.00338500
     atom   38 type  4   force =    -0.00283833    0.00548235   -0.00338523
     atom   39 type  4   force =    -0.00283730   -0.00548163   -0.00338500
     atom   40 type  4   force =     0.00283833   -0.00548235    0.00338523
     atom   41 type  2   force =     0.00556248    0.00013962   -0.00076740
     atom   42 type  2   force =    -0.00556210    0.00013984    0.00076775
     atom   43 type  2   force =    -0.00556248   -0.00013962    0.00076740
     atom   44 type  2   force =     0.00556210   -0.00013984   -0.00076775
     atom   45 type  1   force =    -0.01458902    0.00133265   -0.01566792
     atom   46 type  1   force =     0.01458990    0.00135459    0.01566779
     atom   47 type  1   force =     0.01458902   -0.00133265    0.01566792
     atom   48 type  1   force =    -0.01458990   -0.00135459   -0.01566779
     atom   49 type  1   force =     0.02160573    0.00208735    0.00392545
     atom   50 type  1   force =    -0.02160575    0.00209963   -0.00392555
     atom   51 type  1   force =    -0.02160573   -0.00208735   -0.00392545
     atom   52 type  1   force =     0.02160575   -0.00209963    0.00392555
     atom   53 type  3   force =    -0.00143868   -0.00017606    0.00031774
     atom   54 type  3   force =     0.00143885   -0.00017562   -0.00031752
     atom   55 type  3   force =     0.00143868    0.00017606   -0.00031774
     atom   56 type  3   force =    -0.00143885    0.00017562    0.00031752
     atom   57 type  3   force =    -0.00172200    0.00163671    0.00208015
     atom   58 type  3   force =     0.00172204    0.00163675   -0.00208028
     atom   59 type  3   force =     0.00172200   -0.00163671   -0.00208015
     atom   60 type  3   force =    -0.00172204   -0.00163675    0.00208028
     atom   61 type  3   force =    -0.01383978   -0.00518128    0.00607669
     atom   62 type  3   force =     0.01383975   -0.00518147   -0.00607664
     atom   63 type  3   force =     0.01383978    0.00518128   -0.00607669
     atom   64 type  3   force =    -0.01383975    0.00518147    0.00607664
     atom   65 type  3   force =     0.00001759   -0.00060222   -0.00049138
     atom   66 type  3   force =    -0.00001762   -0.00060215    0.00049136
     atom   67 type  3   force =    -0.00001759    0.00060222    0.00049138
     atom   68 type  3   force =     0.00001762    0.00060215   -0.00049136
     atom   69 type  3   force =     0.00153554    0.00082803    0.00308598
     atom   70 type  3   force =    -0.00153552    0.00082790   -0.00308599
     atom   71 type  3   force =    -0.00153554   -0.00082803   -0.00308598
     atom   72 type  3   force =     0.00153552   -0.00082790    0.00308599

     Total force =     0.078384     Total SCF correction =     0.000091


     Computing stress (Cartesian axis) and pressure

          total   stress  (Ry/bohr**3)                   (kbar)     P=   -3.82
  -0.00002656   0.00000000   0.00003050         -3.91      0.00      4.49
   0.00000000  -0.00002014   0.00000000          0.00     -2.96      0.00
   0.00003050   0.00000000  -0.00003122          4.49      0.00     -4.59


     Writing output data file scf.save
 
     init_run     :     17.74s CPU     18.50s WALL (       1 calls)
     electrons    :    527.46s CPU    550.85s WALL (       1 calls)
     forces       :      9.60s CPU      9.70s WALL (       1 calls)
     stress       :     26.90s CPU     27.07s WALL (       1 calls)

     Called by init_run:
     wfcinit      :     11.15s CPU     11.71s WALL (       1 calls)
     potinit      :      2.40s CPU      2.47s WALL (       1 calls)

     Called by electrons:
     c_bands      :    462.19s CPU    482.01s WALL (      18 calls)
     sum_band     :     54.85s CPU     57.45s WALL (      18 calls)
     v_of_rho     :      1.58s CPU      1.74s WALL (      19 calls)
     newd         :      3.10s CPU      3.75s WALL (      19 calls)
     PAW_pot      :      5.25s CPU      5.28s WALL (      19 calls)
     mix_rho      :      0.33s CPU      0.35s WALL (      18 calls)

     Called by c_bands:
     init_us_2    :      3.38s CPU      3.39s WALL (     273 calls)
     cegterg      :    450.89s CPU    470.70s WALL (     126 calls)

     Called by sum_band:
     sum_band:bec :      0.03s CPU      0.03s WALL (     126 calls)
     addusdens    :      3.11s CPU      3.73s WALL (      18 calls)

     Called by *egterg:
     h_psi        :    276.40s CPU    291.60s WALL (     548 calls)
     s_psi        :     44.89s CPU     44.90s WALL (     548 calls)
     g_psi        :      1.49s CPU      1.49s WALL (     415 calls)
     cdiaghg      :     22.41s CPU     22.43s WALL (     541 calls)

     Called by h_psi:
     h_psi:pot    :    274.65s CPU    289.82s WALL (     548 calls)
     h_psi:calbec :     44.39s CPU     44.53s WALL (     548 calls)
     vloc_psi     :    185.32s CPU    200.34s WALL (     548 calls)
     add_vuspsi   :     44.94s CPU     44.95s WALL (     548 calls)

     General routines
     calbec       :     64.04s CPU     64.23s WALL (     709 calls)
     fft          :      1.06s CPU      1.35s WALL (     271 calls)
     fftw         :    200.02s CPU    216.19s WALL (   97618 calls)
 
     Parallel routines
     fft_scatter  :     42.28s CPU     53.19s WALL (   97889 calls)
 
     PWSCF        :  9m46.11s CPU    10m37.83s WALL

 
   This run was terminated on:   2: 5:22   4Nov2017            

=------------------------------------------------------------------------------=
   JOB DONE.
=------------------------------------------------------------------------------=
