
     Program PWSCF v.6.1 (svn rev. 13369) starts on  4Nov2017 at 20: 6:47 

     This program is part of the open-source Quantum ESPRESSO suite
     for quantum simulation of materials; please cite
         "P. Giannozzi et al., J. Phys.:Condens. Matter 21 395502 (2009);
          URL http://www.quantum-espresso.org", 
     in publications or presentations arising from this work. More details at
     http://www.quantum-espresso.org/quote

     Parallel version (MPI), running on     8 processors
     R & G space division:  proc/nbgrp/npool/nimage =       8
     Waiting for input...
     Reading input from standard input

     Current dimensions of program PWSCF are:
     Max number of different atomic species (ntypx) = 10
     Max number of k-points (npk) =  40000
     Max angular momentum in pseudopotentials (lmaxx) =  3
               file C.pbe-n-kjpaw_psl.0.1.UPF: wavefunction(s)  2P renormalized
               file N.pbe-n-kjpaw_psl.0.1.UPF: wavefunction(s)  2P renormalized
               file H.pbe-kjpaw_psl.0.1.UPF: wavefunction(s)  1S renormalized
               file O.pbe-n-kjpaw_psl.0.1.UPF: wavefunction(s)  2P renormalized

     -------------------------------------
     Parameters for Dispersion Correction:
     -------------------------------------
       atom      VdW radius       C_6     

        C          2.744         60.710
        N          2.640         42.670
        H          1.892          4.857
        O          2.536         24.284

     Subspace diagonalization in iterative solution of the eigenvalue problem:
     a serial algorithm will be used

 
     Parallelization info
     --------------------
     sticks:   dense  smooth     PW     G-vecs:    dense   smooth      PW
     Min        1012    1012    274                82963    82963   11837
     Max        1013    1013    275                82966    82966   11840
     Sum        8103    8103   2199               663725   663725   94715
 


     bravais-lattice index     =            0
     lattice parameter (alat)  =       8.3214  a.u.
     unit-cell volume          =    4911.7340 (a.u.)^3
     number of atoms/cell      =           88
     number of atomic types    =            4
     number of electrons       =       224.00
     number of Kohn-Sham states=          134
     kinetic-energy cutoff     =     100.0000  Ry
     charge density cutoff     =     400.0000  Ry
     convergence threshold     =      1.0E-08
     mixing beta               =       0.5000
     number of iterations used =            8  plain     mixing
     Exchange-correlation      =  SLA  PW   PBX  PBC ( 1  4  3  4 0 0)

     celldm(1)=   8.321409  celldm(2)=   0.000000  celldm(3)=   0.000000
     celldm(4)=   0.000000  celldm(5)=   0.000000  celldm(6)=   0.000000

     crystal axes: (cart. coord. in units of alat)
               a(1) = (   1.000000   0.000000   0.000000 )  
               a(2) = (   0.000000   3.670944   0.000000 )  
               a(3) = (  -0.386907   0.000000   2.322023 )  

     reciprocal axes: (cart. coord. in units 2 pi/alat)
               b(1) = (  1.000000  0.000000  0.166625 )  
               b(2) = (  0.000000  0.272410  0.000000 )  
               b(3) = (  0.000000  0.000000  0.430659 )  


     PseudoPot. # 1 for  C read from file:
     /scratch/ahofstet/pseudo/C.pbe-n-kjpaw_psl.0.1.UPF
     MD5 check sum: 430fe95172b1e11ef3f8ed03bac87931
     Pseudo is Projector augmented-wave + core cor, Zval =  4.0
     Generated using "atomic" code by A. Dal Corso  v.5.0.99 svn rev. 10869
     Shape of augmentation charge: BESSEL
     Using radial grid of 1073 points,  4 beta functions with: 
                l(1) =   0
                l(2) =   0
                l(3) =   1
                l(4) =   1
     Q(r) pseudized with 0 coefficients 


     PseudoPot. # 2 for  N read from file:
     /scratch/ahofstet/pseudo/N.pbe-n-kjpaw_psl.0.1.UPF
     MD5 check sum: f73187c8b701007e77325f868c9291d7
     Pseudo is Projector augmented-wave + core cor, Zval =  5.0
     Generated using "atomic" code by A. Dal Corso  v.5.0.99 svn rev. 10869
     Shape of augmentation charge: PSQ
     Using radial grid of 1085 points,  4 beta functions with: 
                l(1) =   0
                l(2) =   0
                l(3) =   1
                l(4) =   1
     Q(r) pseudized with 0 coefficients 


     PseudoPot. # 3 for  H read from file:
     /scratch/ahofstet/pseudo/H.pbe-kjpaw_psl.0.1.UPF
     MD5 check sum: 94e484f906d9e9773b2f6e52662335b2
     Pseudo is Projector augmented-wave, Zval =  1.0
     Generated using "atomic" code by A. Dal Corso  v.5.0.99 svn rev. 10869
     Shape of augmentation charge: PSQ
     Using radial grid of  929 points,  2 beta functions with: 
                l(1) =   0
                l(2) =   0
     Q(r) pseudized with 0 coefficients 


     PseudoPot. # 4 for  O read from file:
     /scratch/ahofstet/pseudo/O.pbe-n-kjpaw_psl.0.1.UPF
     MD5 check sum: 3f94a2996a3169367d6eb21d9b593f20
     Pseudo is Projector augmented-wave + core cor, Zval =  6.0
     Generated using "atomic" code by A. Dal Corso  v.5.0.99 svn rev. 10869
     Shape of augmentation charge: BESSEL
     Using radial grid of 1095 points,  4 beta functions with: 
                l(1) =   0
                l(2) =   0
                l(3) =   1
                l(4) =   1
     Q(r) pseudized with 0 coefficients 


     atomic species   valence    mass     pseudopotential
        C              4.00    12.01070      C( 1.00)
        N              5.00    14.00670      N( 1.00)
        H              1.00     1.00794      H( 1.00)
        O              6.00    15.99940      O( 1.00)

      2 Sym. Ops., with inversion, found
          (note:  2 additional sym.ops. were found but ignored
           their fractional translations are incommensurate with FFT grid)


   Cartesian axes

     site n.     atom                  positions (alat units)
         1           O   tau(   1) = (  -0.0812257   1.5007321   0.7913434  )
         2           O   tau(   2) = (   0.8877722   3.3362039   0.3696682  )
         3           O   tau(   3) = (   0.6943186   2.1702114   1.5306797  )
         4           O   tau(   4) = (  -0.2746793   0.3347396   1.9523549  )
         5           H   tau(   5) = (  -0.0432069   1.7188176   0.7401926  )
         6           H   tau(   6) = (   0.8497534   3.5542894   0.4208189  )
         7           H   tau(   7) = (   0.6562998   1.9521259   1.5818304  )
         8           H   tau(   8) = (  -0.2366605   0.1166541   1.9012041  )
         9           N   tau(   9) = (   0.3554178   1.3918981   1.4967314  )
        10           N   tau(  10) = (   0.0642215   3.2273699   1.9863032  )
        11           N   tau(  11) = (   0.2576751   2.2790454   0.8252917  )
        12           N   tau(  12) = (   0.5488714   0.4435736   0.3357198  )
        13           N   tau(  13) = (   0.5293384   1.5812780   1.6716260  )
        14           N   tau(  14) = (  -0.1096991   3.4167498   1.8114085  )
        15           N   tau(  15) = (   0.0837544   2.0896656   0.6503970  )
        16           N   tau(  16) = (   0.7227920   0.2541938   0.5106145  )
        17           C   tau(  17) = (   0.1716245   1.4087612   0.9640443  )
        18           C   tau(  18) = (   0.6349219   3.2442330   0.1969673  )
        19           C   tau(  19) = (   0.4414684   2.2621823   1.3579788  )
        20           C   tau(  20) = (  -0.0218291   0.4267105   2.1250558  )
        21           H   tau(  21) = (   0.3959632   1.4942780   0.8696913  )
        22           H   tau(  22) = (   0.4105832   3.3297498   0.2913202  )
        23           H   tau(  23) = (   0.2171297   2.1766655   1.4523317  )
        24           H   tau(  24) = (   0.2025097   0.3411938   2.0307029  )
        25           H   tau(  25) = (   0.1885417   1.1601214   0.9534996  )
        26           H   tau(  26) = (   0.6180047   2.9955932   0.2075119  )
        27           H   tau(  27) = (   0.4245512   2.5108221   1.3685234  )
        28           H   tau(  28) = (  -0.0049118   0.6753503   2.1145111  )
        29           C   tau(  29) = (   0.1256225   1.5064504   1.2937220  )
        30           C   tau(  30) = (   0.2940169   3.3419222   2.1893125  )
        31           C   tau(  31) = (   0.4874704   2.1644931   1.0283010  )
        32           C   tau(  32) = (   0.3190760   0.3290213   0.1327105  )
        33           H   tau(  33) = (   0.1211508   1.7540292   1.3138653  )
        34           H   tau(  34) = (   0.2984885   3.5895010   2.1691693  )
        35           H   tau(  35) = (   0.4919421   1.9169144   1.0081578  )
        36           H   tau(  36) = (   0.3146044   0.0814426   0.1528537  )
        37           H   tau(  37) = (  -0.1025858   1.4231993   1.3618336  )
        38           H   tau(  38) = (   0.5222251   3.2586711   2.1212009  )
        39           H   tau(  39) = (   0.7156787   2.2477442   0.9601894  )
        40           H   tau(  40) = (   0.0908678   0.4122725   0.2008221  )
        41           C   tau(  41) = (   0.1217281   0.8852532   1.5420319  )
        42           C   tau(  42) = (   0.2979112   2.7207250   1.9410027  )
        43           C   tau(  43) = (   0.4913648   2.7856904   0.7799911  )
        44           C   tau(  44) = (   0.3151817   0.9502186   0.3810204  )
        45           H   tau(  45) = (   0.0650451   0.8723442   1.3001177  )
        46           H   tau(  46) = (   0.7415013   2.7078159  -0.1391062  )
        47           H   tau(  47) = (   0.5480478   2.7985994   1.0219054  )
        48           H   tau(  48) = (  -0.1284084   0.9631276   2.4611292  )
        49           H   tau(  49) = (  -0.1006241   0.9672489   1.6526402  )
        50           H   tau(  50) = (   0.5202634   2.8027207   1.8303944  )
        51           H   tau(  51) = (   0.7137169   2.7036947   0.6693829  )
        52           H   tau(  52) = (   0.0928295   0.8682229   0.4916287  )
        53           H   tau(  53) = (   0.1731136   0.6585904   1.6292319  )
        54           H   tau(  54) = (   0.2465257   2.4940621   1.8538027  )
        55           H   tau(  55) = (   0.4399793   3.0123532   0.6927911  )
        56           H   tau(  56) = (   0.3665671   1.1768814   0.4682204  )
        57           C   tau(  57) = (   0.3542154   1.1015492   1.6171414  )
        58           C   tau(  58) = (   0.0654239   2.9370209   1.8658932  )
        59           C   tau(  59) = (   0.2588775   2.5693944   0.7048817  )
        60           C   tau(  60) = (   0.5476690   0.7339226   0.4561299  )
        61           C   tau(  61) = (  -0.4374177   1.1022375   1.8526839  )
        62           C   tau(  62) = (   0.8570570   2.9377093   1.6303507  )
        63           C   tau(  63) = (   1.0505106   2.5687060   0.4693392  )
        64           C   tau(  64) = (  -0.2439641   0.7332342   0.6916723  )
        65           H   tau(  65) = (  -0.4021757   0.9151259   2.0086104  )
        66           H   tau(  66) = (   0.8218150   2.7505976   1.4744242  )
        67           H   tau(  67) = (   1.0152686   2.7558177   0.3134126  )
        68           H   tau(  68) = (  -0.2087221   0.9203459   0.8475989  )
        69           C   tau(  69) = (  -0.3357393   1.4096458   1.8836405  )
        70           C   tau(  70) = (   0.7553786   3.2451175   1.5993941  )
        71           C   tau(  71) = (   0.9488322   2.2612978   0.4383825  )
        72           C   tau(  72) = (  -0.1422857   0.4258260   0.7226290  )
        73           C   tau(  73) = (  -0.0957202   1.5394150   2.0759064  )
        74           C   tau(  74) = (   0.5153595   3.3748867   1.4071281  )
        75           C   tau(  75) = (   0.7088131   2.1315286   0.2461166  )
        76           C   tau(  76) = (   0.0977333   0.2960568   0.9148949  )
        77           H   tau(  77) = (  -0.1194245   1.7873475   2.0890175  )
        78           H   tau(  78) = (   0.5390638  -0.0481243   1.3940170  )
        79           H   tau(  79) = (   0.7325174   1.8835960   0.2330055  )
        80           H   tau(  80) = (   0.0740290   3.7190678   0.9280060  )
        81           H   tau(  81) = (   0.1364590   1.4929364   1.9856444  )
        82           H   tau(  82) = (   0.2831803   3.3284082   1.4973902  )
        83           H   tau(  83) = (   0.4766339   2.1780072   0.3363787  )
        84           H   tau(  84) = (   0.3299126   0.3425354   0.8246328  )
        85           H   tau(  85) = (  -0.1007237   1.4473429   2.3074491  )
        86           H   tau(  86) = (   0.5203630   3.2828147   1.1755854  )
        87           H   tau(  87) = (   0.7138166   2.2236007   0.0145739  )
        88           H   tau(  88) = (   0.0927299   0.3881289   1.1464376  )

     number of k points=    12
                       cart. coord. in units 2pi/alat
        k(    1) = (   0.0000000   0.0000000   0.0000000), wk =   0.1250000
        k(    2) = (   0.0000000   0.0000000  -0.2153295), wk =   0.1250000
        k(    3) = (   0.0000000  -0.1362048   0.0000000), wk =   0.1250000
        k(    4) = (   0.0000000  -0.1362048  -0.2153295), wk =   0.1250000
        k(    5) = (   0.2500000   0.0000000   0.0416563), wk =   0.2500000
        k(    6) = (   0.2500000   0.0000000  -0.1736732), wk =   0.2500000
        k(    7) = (   0.2500000  -0.1362048   0.0416563), wk =   0.2500000
        k(    8) = (   0.2500000  -0.1362048  -0.1736732), wk =   0.2500000
        k(    9) = (  -0.5000000   0.0000000  -0.0833125), wk =   0.1250000
        k(   10) = (  -0.5000000   0.0000000  -0.2986420), wk =   0.1250000
        k(   11) = (  -0.5000000  -0.1362048  -0.0833125), wk =   0.1250000
        k(   12) = (  -0.5000000  -0.1362048  -0.2986420), wk =   0.1250000

     Dense  grid:   663725 G-vectors     FFT dimensions: (  54, 200, 125)

     Estimated max dynamical RAM per process >     569.51MB

     Estimated total allocated dynamical RAM >    4556.07MB

     Check: negative/imaginary core charge=   -0.000002    0.000000

     Initial potential from superposition of free atoms

     starting charge  223.99831, renormalised to  224.00000
     Starting wfc are  208 randomized atomic wfcs
     Checking if some PAW data can be deallocated... 

     total cpu time spent up to now is       35.5 secs

     per-process dynamical memory:   465.0 Mb

     Self-consistent Calculation

     iteration #  1     ecut=   100.00 Ry     beta=0.50
     Davidson diagonalization with overlap
     ethr =  1.00E-02,  avg # of iterations =  4.0

     total cpu time spent up to now is      123.6 secs

     total energy              =    -964.28334466 Ry
     Harris-Foulkes estimate   =    -968.58063922 Ry
     estimated scf accuracy    <       8.37517712 Ry

     iteration #  2     ecut=   100.00 Ry     beta=0.50
     Davidson diagonalization with overlap
     ethr =  3.74E-03,  avg # of iterations =  2.1

     total cpu time spent up to now is      169.6 secs

     total energy              =    -964.71092413 Ry
     Harris-Foulkes estimate   =    -965.15760839 Ry
     estimated scf accuracy    <       0.97243673 Ry

     iteration #  3     ecut=   100.00 Ry     beta=0.50
     Davidson diagonalization with overlap
     ethr =  4.34E-04,  avg # of iterations =  5.0

     total cpu time spent up to now is      264.4 secs

     total energy              =    -965.55003425 Ry
     Harris-Foulkes estimate   =    -965.90257037 Ry
     estimated scf accuracy    <       0.96273334 Ry

     iteration #  4     ecut=   100.00 Ry     beta=0.50
     Davidson diagonalization with overlap
     ethr =  4.30E-04,  avg # of iterations =  1.0

     total cpu time spent up to now is      306.7 secs

     total energy              =    -965.34013931 Ry
     Harris-Foulkes estimate   =    -965.58670695 Ry
     estimated scf accuracy    <       0.34960274 Ry

     iteration #  5     ecut=   100.00 Ry     beta=0.50
     Davidson diagonalization with overlap
     ethr =  1.56E-04,  avg # of iterations =  4.8

     total cpu time spent up to now is      401.8 secs

     total energy              =    -965.63686972 Ry
     Harris-Foulkes estimate   =    -965.90479649 Ry
     estimated scf accuracy    <       0.97147614 Ry

     iteration #  6     ecut=   100.00 Ry     beta=0.50
     Davidson diagonalization with overlap
     ethr =  1.56E-04,  avg # of iterations =  1.4

     total cpu time spent up to now is      444.6 secs

     total energy              =    -965.47193745 Ry
     Harris-Foulkes estimate   =    -965.65552664 Ry
     estimated scf accuracy    <       0.48430609 Ry

     iteration #  7     ecut=   100.00 Ry     beta=0.50
     Davidson diagonalization with overlap
     ethr =  1.56E-04,  avg # of iterations =  3.0

     total cpu time spent up to now is      505.7 secs

     total energy              =    -965.58212540 Ry
     Harris-Foulkes estimate   =    -965.58644692 Ry
     estimated scf accuracy    <       0.00779007 Ry

     iteration #  8     ecut=   100.00 Ry     beta=0.50
     Davidson diagonalization with overlap
     c_bands:  2 eigenvalues not converged
     c_bands:  2 eigenvalues not converged
     c_bands:  2 eigenvalues not converged
     c_bands:  2 eigenvalues not converged
     c_bands:  2 eigenvalues not converged
     c_bands:  3 eigenvalues not converged
     ethr =  3.48E-06,  avg # of iterations = 12.5

     total cpu time spent up to now is      613.5 secs

     total energy              =    -965.58847342 Ry
     Harris-Foulkes estimate   =    -965.58880879 Ry
     estimated scf accuracy    <       0.00153011 Ry

     iteration #  9     ecut=   100.00 Ry     beta=0.50
     Davidson diagonalization with overlap
     c_bands:  1 eigenvalues not converged
     c_bands:  1 eigenvalues not converged
     c_bands:  1 eigenvalues not converged
     c_bands:  2 eigenvalues not converged
     c_bands:  2 eigenvalues not converged
     ethr =  6.83E-07,  avg # of iterations = 14.9

     total cpu time spent up to now is      680.1 secs

     total energy              =    -965.58818365 Ry
     Harris-Foulkes estimate   =    -965.58856327 Ry
     estimated scf accuracy    <       0.00070499 Ry

     iteration # 10     ecut=   100.00 Ry     beta=0.50
     Davidson diagonalization with overlap
     c_bands:  1 eigenvalues not converged
     ethr =  3.15E-07,  avg # of iterations =  8.3

     total cpu time spent up to now is      745.0 secs

     total energy              =    -965.58837842 Ry
     Harris-Foulkes estimate   =    -965.58838926 Ry
     estimated scf accuracy    <       0.00002440 Ry

     iteration # 11     ecut=   100.00 Ry     beta=0.50
     Davidson diagonalization with overlap
     ethr =  1.09E-08,  avg # of iterations =  4.0

     total cpu time spent up to now is      832.8 secs

     total energy              =    -965.58841190 Ry
     Harris-Foulkes estimate   =    -965.58841572 Ry
     estimated scf accuracy    <       0.00000929 Ry

     iteration # 12     ecut=   100.00 Ry     beta=0.50
     Davidson diagonalization with overlap
     ethr =  4.15E-09,  avg # of iterations =  2.0

     total cpu time spent up to now is      879.4 secs

     total energy              =    -965.58841298 Ry
     Harris-Foulkes estimate   =    -965.58841310 Ry
     estimated scf accuracy    <       0.00000082 Ry

     iteration # 13     ecut=   100.00 Ry     beta=0.50
     Davidson diagonalization with overlap
     ethr =  3.66E-10,  avg # of iterations =  4.0

     total cpu time spent up to now is      971.4 secs

     total energy              =    -965.58841369 Ry
     Harris-Foulkes estimate   =    -965.58841404 Ry
     estimated scf accuracy    <       0.00000121 Ry

     iteration # 14     ecut=   100.00 Ry     beta=0.50
     Davidson diagonalization with overlap
     ethr =  3.66E-10,  avg # of iterations =  1.0

     total cpu time spent up to now is     1013.7 secs

     total energy              =    -965.58841346 Ry
     Harris-Foulkes estimate   =    -965.58841373 Ry
     estimated scf accuracy    <       0.00000052 Ry

     iteration # 15     ecut=   100.00 Ry     beta=0.50
     Davidson diagonalization with overlap
     ethr =  2.34E-10,  avg # of iterations =  3.0

     total cpu time spent up to now is     1085.5 secs

     total energy              =    -965.58841368 Ry
     Harris-Foulkes estimate   =    -965.58841371 Ry
     estimated scf accuracy    <       0.00000010 Ry

     iteration # 16     ecut=   100.00 Ry     beta=0.50
     Davidson diagonalization with overlap
     ethr =  4.49E-11,  avg # of iterations =  1.1

     total cpu time spent up to now is     1128.0 secs

     total energy              =    -965.58841366 Ry
     Harris-Foulkes estimate   =    -965.58841369 Ry
     estimated scf accuracy    <       0.00000006 Ry

     iteration # 17     ecut=   100.00 Ry     beta=0.50
     Davidson diagonalization with overlap
     ethr =  2.73E-11,  avg # of iterations =  3.2

     total cpu time spent up to now is     1191.8 secs

     End of self-consistent calculation

          k = 0.0000 0.0000 0.0000 ( 82941 PWs)   bands (ev):

   -20.0715 -20.0690 -20.0486 -20.0475 -18.8510 -18.8510 -18.8371 -18.8339
   -15.1203 -15.1129 -15.0548 -15.0470 -13.9212 -13.9090 -13.8954 -13.8908
   -12.3983 -12.3695 -12.3438 -12.3063 -10.9844 -10.9809 -10.9299 -10.9264
   -10.8249 -10.7899 -10.7622 -10.7073  -9.4404  -9.3438  -9.1172  -9.0279
    -8.4440  -8.3953  -8.2303  -8.1823  -7.3054  -7.1772  -7.1288  -7.0393
    -6.3497  -6.3185  -6.2609  -6.1683  -6.0687  -6.0090  -6.0014  -5.8770
    -5.2748  -5.1361  -5.0674  -5.0397  -4.8001  -4.7824  -4.7389  -4.6705
    -4.6388  -4.5194  -4.5048  -4.4008  -4.3962  -4.3524  -4.1661  -4.1362
    -4.0254  -3.9928  -3.9836  -3.9232  -3.6922  -3.6446  -3.6010  -3.5562
    -3.4957  -3.4203  -3.2683  -3.2452  -3.1787  -3.1516  -3.1206  -3.0540
    -3.0531  -3.0450  -2.9127  -2.8970  -2.8786  -2.7402  -2.7067  -2.6137
    -2.5974  -2.5518  -2.5228  -2.4015  -2.0045  -1.8974  -1.5891  -1.5386
    -0.7783  -0.7576  -0.7311  -0.7254  -0.3317  -0.2909  -0.2826  -0.2474
    -0.1649  -0.1610   0.0078   0.0961   0.4536   0.4582   0.5002   0.5113
     5.3031   5.3144   5.4241   5.4333   6.3076   6.3234   6.6698   6.7777
     6.7882   6.7888   6.8292   6.9779   7.1616   7.4092   7.6132   7.6392
     7.8773   7.9394   8.0506   8.0637   8.4974   8.4988

          k = 0.0000 0.0000-0.2153 ( 82996 PWs)   bands (ev):

   -20.0702 -20.0701 -20.0482 -20.0481 -18.8511 -18.8510 -18.8355 -18.8355
   -15.1131 -15.1130 -15.0544 -15.0544 -13.9085 -13.9085 -13.8990 -13.8990
   -12.3598 -12.3598 -12.3529 -12.3529 -10.9899 -10.9899 -10.9376 -10.9376
   -10.7862 -10.7862 -10.7388 -10.7388  -9.2873  -9.2872  -9.1954  -9.1954
    -8.3048  -8.3048  -8.3025  -8.3025  -7.2046  -7.2046  -7.1283  -7.1283
    -6.3576  -6.3576  -6.2062  -6.2062  -6.0542  -6.0542  -5.9268  -5.9267
    -5.2137  -5.2137  -5.0528  -5.0527  -4.7853  -4.7852  -4.7452  -4.7452
    -4.5111  -4.5111  -4.4566  -4.4566  -4.2795  -4.2795  -4.1279  -4.1279
    -3.9881  -3.9881  -3.9461  -3.9461  -3.7680  -3.7680  -3.6882  -3.6882
    -3.3341  -3.3341  -3.3029  -3.3029  -3.1990  -3.1990  -3.1665  -3.1665
    -2.9639  -2.9639  -2.9107  -2.9107  -2.8122  -2.8121  -2.6661  -2.6661
    -2.5304  -2.5304  -2.4737  -2.4737  -1.9492  -1.9492  -1.5526  -1.5526
    -0.7721  -0.7721  -0.7287  -0.7287  -0.3173  -0.3173  -0.2499  -0.2499
    -0.2011  -0.2011   0.0500   0.0500   0.4721   0.4721   0.5061   0.5061
     5.3526   5.3526   5.3847   5.3848   6.2228   6.2229   6.5970   6.5970
     6.8305   6.8305   7.1013   7.1014   7.3864   7.3864   7.4901   7.4901
     7.9924   7.9924   8.3131   8.3131   8.4721   8.4721

          k = 0.0000-0.1362 0.0000 ( 82990 PWs)   bands (ev):

   -20.0703 -20.0703 -20.0480 -20.0480 -18.8511 -18.8510 -18.8355 -18.8355
   -15.1168 -15.1168 -15.0507 -15.0507 -13.9153 -13.9153 -13.8929 -13.8929
   -12.3884 -12.3884 -12.3206 -12.3205 -10.9856 -10.9856 -10.9210 -10.9210
   -10.8210 -10.8209 -10.7254 -10.7254  -9.3996  -9.3996  -9.0646  -9.0646
    -8.4229  -8.4228  -8.2039  -8.2039  -7.2571  -7.2571  -7.0681  -7.0681
    -6.3350  -6.3350  -6.2167  -6.2167  -6.0605  -6.0604  -5.9145  -5.9145
    -5.2179  -5.2179  -5.0448  -5.0448  -4.7975  -4.7975  -4.6749  -4.6749
    -4.5966  -4.5966  -4.4860  -4.4860  -4.3486  -4.3486  -4.1500  -4.1500
    -4.0208  -4.0208  -3.9405  -3.9405  -3.6527  -3.6527  -3.5880  -3.5880
    -3.4709  -3.4709  -3.2514  -3.2514  -3.1712  -3.1712  -3.0747  -3.0747
    -3.0287  -3.0287  -2.9355  -2.9355  -2.8287  -2.8287  -2.6477  -2.6477
    -2.5572  -2.5572  -2.4644  -2.4643  -1.9604  -1.9604  -1.5532  -1.5531
    -0.7674  -0.7674  -0.7292  -0.7291  -0.3265  -0.3265  -0.2423  -0.2423
    -0.1778  -0.1778   0.0575   0.0575   0.4559   0.4559   0.5061   0.5061
     5.3093   5.3093   5.4283   5.4283   6.3350   6.3350   6.6552   6.6552
     6.7829   6.7829   6.9637   6.9637   7.2588   7.2588   7.6290   7.6290
     7.9466   7.9466   8.1042   8.1042   8.3676   8.3676

          k = 0.0000-0.1362-0.2153 ( 82932 PWs)   bands (ev):

   -20.0702 -20.0701 -20.0482 -20.0481 -18.8510 -18.8510 -18.8356 -18.8356
   -15.1131 -15.1130 -15.0544 -15.0544 -13.9055 -13.9055 -13.9020 -13.9020
   -12.3594 -12.3594 -12.3534 -12.3533 -10.9720 -10.9720 -10.9605 -10.9605
   -10.7687 -10.7687 -10.7514 -10.7514  -9.2844  -9.2843  -9.1984  -9.1984
    -8.3062  -8.3062  -8.3011  -8.3011  -7.2038  -7.2038  -7.1287  -7.1287
    -6.3478  -6.3477  -6.2293  -6.2293  -6.0314  -6.0313  -5.9360  -5.9360
    -5.2139  -5.2138  -5.0526  -5.0526  -4.7841  -4.7841  -4.7455  -4.7455
    -4.5410  -4.5410  -4.4335  -4.4335  -4.2188  -4.2188  -4.2049  -4.2049
    -3.9628  -3.9628  -3.9429  -3.9429  -3.7674  -3.7674  -3.6909  -3.6909
    -3.3412  -3.3412  -3.2967  -3.2967  -3.1924  -3.1924  -3.1864  -3.1864
    -2.9593  -2.9593  -2.9067  -2.9067  -2.8102  -2.8101  -2.6698  -2.6698
    -2.5155  -2.5154  -2.4857  -2.4857  -1.9489  -1.9489  -1.5531  -1.5530
    -0.7694  -0.7694  -0.7298  -0.7298  -0.3160  -0.3160  -0.2632  -0.2632
    -0.1899  -0.1899   0.0488   0.0488   0.4736   0.4736   0.5049   0.5049
     5.3538   5.3538   5.3842   5.3842   6.2277   6.2277   6.5926   6.5927
     6.8373   6.8373   7.0774   7.0774   7.4028   7.4028   7.4866   7.4866
     8.0808   8.0808   8.1662   8.1662   8.6531   8.6533

          k = 0.2500 0.0000 0.0417 ( 82895 PWs)   bands (ev):

   -20.0357 -20.0345 -20.0152 -20.0146 -18.8427 -18.8426 -18.8195 -18.8188
   -15.1919 -15.1894 -15.1271 -15.1260 -13.7914 -13.7823 -13.7812 -13.7793
   -12.3683 -12.3643 -12.3450 -12.3330 -11.2058 -11.1744 -11.1688 -11.1554
   -10.8280 -10.7831 -10.7690 -10.7076  -9.3777  -9.2738  -9.2158  -9.0871
    -8.3830  -8.3586  -8.2890  -8.2562  -7.2027  -7.1716  -7.1380  -7.1031
    -6.6773  -6.6770  -6.4407  -6.3894  -6.2036  -6.2012  -5.9937  -5.9855
    -5.5350  -5.5109  -5.4496  -5.3809  -4.9344  -4.9197  -4.8103  -4.7885
    -4.5375  -4.4929  -4.4789  -4.3857  -4.2285  -4.2031  -4.0518  -4.0488
    -3.9136  -3.8479  -3.7534  -3.6902  -3.6717  -3.6245  -3.5461  -3.4482
    -3.4318  -3.4057  -3.3925  -3.3135  -3.2248  -3.1623  -3.1264  -3.1110
    -2.9569  -2.8919  -2.8272  -2.8016  -2.6731  -2.6284  -2.5681  -2.5562
    -2.5514  -2.4845  -2.3916  -2.3562  -1.6584  -1.5965  -1.4140  -1.3749
    -0.6647  -0.6269  -0.5531  -0.4967  -0.0930  -0.0915   0.0042   0.0078
     0.3709   0.3797   0.4032   0.4256   0.6115   0.6647   0.7135   0.7682
     5.1342   5.1683   5.2949   5.3161   6.1363   6.2069   6.3076   6.3789
     6.6591   6.6922   6.9743   7.1766   7.2864   7.3726   7.4921   7.4978
     7.7678   7.9168   8.0209   8.1419   8.3479   8.3948

          k = 0.2500 0.0000-0.1737 ( 82921 PWs)   bands (ev):

   -20.0357 -20.0344 -20.0152 -20.0147 -18.8426 -18.8426 -18.8203 -18.8181
   -15.1963 -15.1870 -15.1298 -15.1213 -13.7976 -13.7886 -13.7784 -13.7699
   -12.3920 -12.3678 -12.3359 -12.3067 -11.2074 -11.1987 -11.1880 -11.1417
   -10.8206 -10.7753 -10.7498 -10.7209  -9.3634  -9.2357  -9.2299  -9.1239
    -8.3736  -8.3559  -8.2854  -8.2701  -7.2460  -7.1545  -7.1369  -7.0732
    -6.7031  -6.6317  -6.4377  -6.4149  -6.2552  -6.1368  -6.0954  -5.8873
    -5.5373  -5.4968  -5.4465  -5.4210  -4.9993  -4.8903  -4.8022  -4.6973
    -4.6595  -4.4983  -4.4930  -4.3062  -4.2215  -4.1938  -4.0605  -3.9316
    -3.8891  -3.8667  -3.8481  -3.8095  -3.5723  -3.5549  -3.5466  -3.5101
    -3.3995  -3.3961  -3.3855  -3.3299  -3.2511  -3.2081  -3.1665  -3.1434
    -2.9265  -2.8264  -2.7448  -2.7346  -2.7235  -2.7176  -2.5748  -2.5380
    -2.4961  -2.4493  -2.4357  -2.4049  -1.6343  -1.6210  -1.4131  -1.3879
    -0.6759  -0.6281  -0.5274  -0.5131  -0.0944  -0.0903  -0.0074  -0.0001
     0.3422   0.3738   0.4200   0.4677   0.6368   0.6600   0.7237   0.7328
     5.2149   5.2257   5.2293   5.2444   6.1872   6.2102   6.2112   6.3076
     6.4894   6.8249   6.9428   7.1525   7.2996   7.3238   7.4462   7.5123
     8.0362   8.0769   8.0854   8.2082   8.3153   8.3968

          k = 0.2500-0.1362 0.0417 ( 82926 PWs)   bands (ev):

   -20.0351 -20.0351 -20.0149 -20.0149 -18.8426 -18.8426 -18.8192 -18.8192
   -15.1907 -15.1906 -15.1266 -15.1265 -13.7872 -13.7872 -13.7799 -13.7799
   -12.3669 -12.3669 -12.3384 -12.3384 -11.1926 -11.1926 -11.1597 -11.1597
   -10.8154 -10.8154 -10.7283 -10.7283  -9.3427  -9.3426  -9.1347  -9.1347
    -8.3727  -8.3727  -8.2707  -8.2707  -7.1914  -7.1914  -7.1159  -7.1159
    -6.6732  -6.6731  -6.4385  -6.4385  -6.1647  -6.1647  -6.0070  -6.0069
    -5.5222  -5.5221  -5.4175  -5.4175  -4.9261  -4.9260  -4.8079  -4.8079
    -4.5259  -4.5258  -4.4197  -4.4197  -4.1490  -4.1490  -4.1210  -4.1210
    -3.8841  -3.8840  -3.7081  -3.7081  -3.6545  -3.6545  -3.4889  -3.4889
    -3.4340  -3.4340  -3.3362  -3.3362  -3.1849  -3.1849  -3.1386  -3.1386
    -2.9313  -2.9313  -2.8038  -2.8037  -2.6484  -2.6484  -2.5606  -2.5605
    -2.5183  -2.5183  -2.3742  -2.3742  -1.6283  -1.6283  -1.3929  -1.3928
    -0.6435  -0.6435  -0.5279  -0.5279  -0.0929  -0.0929   0.0071   0.0071
     0.3735   0.3735   0.4158   0.4158   0.6316   0.6316   0.7472   0.7472
     5.1511   5.1511   5.3054   5.3054   6.1661   6.1661   6.3493   6.3493
     6.7076   6.7076   6.9716   6.9716   7.4177   7.4177   7.5175   7.5175
     7.8264   7.8264   8.0146   8.0146   8.3706   8.3707

          k = 0.2500-0.1362-0.1737 ( 82920 PWs)   bands (ev):

   -20.0351 -20.0350 -20.0150 -20.0149 -18.8426 -18.8426 -18.8192 -18.8191
   -15.1919 -15.1919 -15.1252 -15.1252 -13.7937 -13.7936 -13.7736 -13.7736
   -12.3829 -12.3829 -12.3183 -12.3183 -11.2005 -11.2005 -11.1690 -11.1690
   -10.7977 -10.7977 -10.7341 -10.7341  -9.3212  -9.3212  -9.1552  -9.1552
    -8.3658  -8.3658  -8.2770  -8.2770  -7.2102  -7.2102  -7.0946  -7.0946
    -6.6708  -6.6708  -6.4173  -6.4173  -6.2370  -6.2370  -5.9560  -5.9560
    -5.5176  -5.5175  -5.4345  -5.4344  -4.9632  -4.9632  -4.6946  -4.6946
    -4.6332  -4.6332  -4.3950  -4.3950  -4.2120  -4.2120  -3.9937  -3.9937
    -3.8631  -3.8631  -3.8236  -3.8236  -3.5703  -3.5703  -3.5271  -3.5270
    -3.4084  -3.4083  -3.3493  -3.3493  -3.2339  -3.2339  -3.1477  -3.1477
    -2.8722  -2.8722  -2.7601  -2.7601  -2.7079  -2.7079  -2.5536  -2.5536
    -2.4661  -2.4661  -2.4257  -2.4257  -1.6267  -1.6267  -1.4010  -1.4010
    -0.6472  -0.6472  -0.5254  -0.5253  -0.0927  -0.0926  -0.0034  -0.0034
     0.3542   0.3542   0.4476   0.4476   0.6475   0.6475   0.7292   0.7292
     5.2169   5.2169   5.2406   5.2406   6.1818   6.1818   6.2897   6.2897
     6.5776   6.5776   7.1294   7.1294   7.3779   7.3779   7.4175   7.4175
     7.9353   7.9353   8.1852   8.1853   8.4162   8.4163

          k =-0.5000 0.0000-0.0833 ( 82986 PWs)   bands (ev):

   -19.9988 -19.9986 -19.9810 -19.9809 -18.8339 -18.8334 -18.8040 -18.8029
   -15.2752 -15.2643 -15.2066 -15.1984 -13.6586 -13.6485 -13.6398 -13.6316
   -12.3717 -12.3524 -12.3125 -12.2913 -11.4317 -11.4264 -11.4070 -11.3762
   -10.8766 -10.7969 -10.7585 -10.7344  -9.3605  -9.2810  -9.2140  -9.1838
    -8.3847  -8.3562  -8.3561  -8.3552  -7.1384  -7.1087  -7.1028  -7.0751
    -6.8698  -6.8152  -6.5451  -6.4636  -6.3382  -6.2342  -6.1916  -5.9871
    -5.7440  -5.7151  -5.7004  -5.6365  -5.0564  -4.9449  -4.8345  -4.6891
    -4.6730  -4.5027  -4.4760  -4.3290  -4.2262  -4.2105  -4.1042  -4.0496
    -3.9149  -3.9092  -3.8322  -3.8240  -3.8089  -3.7972  -3.7711  -3.6367
    -3.5199  -3.4170  -3.2790  -3.2712  -3.2620  -3.2462  -3.2068  -3.2010
    -2.7936  -2.7803  -2.7403  -2.6933  -2.6537  -2.5512  -2.5174  -2.4801
    -1.7827  -1.7750  -1.7372  -1.6974  -1.4336  -1.3953  -1.3360  -1.3037
    -0.5895  -0.5131  -0.4590  -0.3705   0.1881   0.2075   0.2308   0.2422
     0.5601   0.6009   0.6564   0.7015   1.0854   1.0990   1.1552   1.1653
     4.9736   4.9835   5.1464   5.1835   5.8580   5.8782   6.0688   6.0887
     6.9428   7.0815   7.1606   7.2311   7.3287   7.4777   7.5295   7.6107
     7.6262   7.7531   7.8035   7.8413   7.9534   8.0575

          k =-0.5000 0.0000-0.2986 ( 82936 PWs)   bands (ev):

   -19.9988 -19.9988 -19.9809 -19.9809 -18.8336 -18.8336 -18.8035 -18.8034
   -15.2707 -15.2706 -15.2017 -15.2017 -13.6494 -13.6494 -13.6402 -13.6402
   -12.3577 -12.3576 -12.3126 -12.3126 -11.4068 -11.4068 -11.3870 -11.3870
   -10.8085 -10.8085 -10.7967 -10.7967  -9.3312  -9.3312  -9.2009  -9.2009
    -8.3723  -8.3723  -8.3419  -8.3419  -7.1331  -7.1331  -7.0750  -7.0749
    -6.8447  -6.8447  -6.4960  -6.4960  -6.2973  -6.2972  -6.0550  -6.0549
    -5.7355  -5.7355  -5.6966  -5.6966  -4.9833  -4.9832  -4.8239  -4.8239
    -4.5821  -4.5821  -4.4363  -4.4363  -4.0967  -4.0967  -4.0422  -4.0422
    -3.9602  -3.9602  -3.8892  -3.8892  -3.7986  -3.7986  -3.7370  -3.7370
    -3.3635  -3.3635  -3.3401  -3.3401  -3.2322  -3.2322  -3.1780  -3.1780
    -2.7764  -2.7764  -2.7474  -2.7474  -2.5894  -2.5894  -2.5228  -2.5228
    -1.7695  -1.7695  -1.7405  -1.7405  -1.4153  -1.4152  -1.3169  -1.3169
    -0.5647  -0.5647  -0.3951  -0.3950   0.2133   0.2133   0.2461   0.2462
     0.5691   0.5691   0.6731   0.6731   1.1150   1.1150   1.1368   1.1368
     5.0636   5.0636   5.0702   5.0702   5.9283   5.9284   5.9807   5.9807
     6.9977   6.9977   7.1699   7.1699   7.4629   7.4629   7.4992   7.4992
     7.7595   7.7595   7.8952   7.8952   8.0278   8.0278

          k =-0.5000-0.1362-0.0833 ( 82940 PWs)   bands (ev):

   -19.9987 -19.9987 -19.9809 -19.9809 -18.8337 -18.8336 -18.8035 -18.8035
   -15.2701 -15.2701 -15.2021 -15.2021 -13.6547 -13.6547 -13.6345 -13.6345
   -12.3638 -12.3637 -12.3002 -12.3002 -11.4214 -11.4214 -11.4003 -11.4003
   -10.8430 -10.8430 -10.7392 -10.7391  -9.3279  -9.3278  -9.1916  -9.1915
    -8.3734  -8.3734  -8.3530  -8.3530  -7.1166  -7.1166  -7.0965  -7.0965
    -6.8448  -6.8448  -6.4962  -6.4962  -6.3342  -6.3342  -6.0449  -6.0449
    -5.7234  -5.7233  -5.6765  -5.6765  -5.0105  -5.0105  -4.7231  -4.7231
    -4.6537  -4.6537  -4.3675  -4.3675  -4.2341  -4.2341  -4.0284  -4.0284
    -3.9165  -3.9165  -3.8823  -3.8823  -3.8060  -3.8060  -3.6898  -3.6898
    -3.4642  -3.4642  -3.2668  -3.2668  -3.2313  -3.2313  -3.2154  -3.2154
    -2.8100  -2.8100  -2.7163  -2.7163  -2.5904  -2.5904  -2.4955  -2.4955
    -1.7813  -1.7813  -1.7133  -1.7133  -1.4144  -1.4144  -1.3204  -1.3204
    -0.5550  -0.5550  -0.4123  -0.4123   0.1960   0.1960   0.2383   0.2383
     0.5764   0.5764   0.6830   0.6831   1.0928   1.0928   1.1599   1.1599
     4.9783   4.9783   5.1647   5.1647   5.8673   5.8673   6.0811   6.0811
     7.0070   7.0070   7.2349   7.2349   7.4132   7.4132   7.4703   7.4704
     7.6638   7.6638   7.8775   7.8776   8.1028   8.1034

          k =-0.5000-0.1362-0.2986 ( 83004 PWs)   bands (ev):

   -19.9988 -19.9988 -19.9809 -19.9809 -18.8336 -18.8336 -18.8035 -18.8034
   -15.2707 -15.2706 -15.2017 -15.2017 -13.6494 -13.6493 -13.6403 -13.6402
   -12.3572 -12.3572 -12.3130 -12.3130 -11.4037 -11.4037 -11.3905 -11.3905
   -10.8040 -10.8039 -10.8011 -10.8010  -9.3316  -9.3316  -9.2005  -9.2004
    -8.3664  -8.3664  -8.3476  -8.3475  -7.1326  -7.1326  -7.0764  -7.0764
    -6.8401  -6.8400  -6.5352  -6.5352  -6.2263  -6.2263  -6.0883  -6.0883
    -5.7339  -5.7339  -5.7004  -5.7004  -4.9819  -4.9818  -4.8241  -4.8241
    -4.6029  -4.6029  -4.4109  -4.4109  -4.0787  -4.0787  -4.0495  -4.0495
    -3.9497  -3.9497  -3.9266  -3.9266  -3.7921  -3.7921  -3.7386  -3.7386
    -3.3589  -3.3589  -3.3334  -3.3334  -3.2280  -3.2280  -3.1899  -3.1899
    -2.8000  -2.8000  -2.7329  -2.7329  -2.5638  -2.5638  -2.5366  -2.5365
    -1.7671  -1.7670  -1.7433  -1.7432  -1.4149  -1.4148  -1.3167  -1.3167
    -0.5561  -0.5560  -0.4058  -0.4058   0.2145   0.2146   0.2450   0.2450
     0.5692   0.5692   0.6733   0.6734   1.1216   1.1216   1.1303   1.1303
     5.0653   5.0653   5.0680   5.0680   5.9354   5.9354   5.9743   5.9743
     7.0792   7.0793   7.1570   7.1570   7.3153   7.3154   7.4980   7.4981
     7.8648   7.8648   7.9008   7.9008   8.0175   8.0176

     highest occupied, lowest unoccupied level (ev):     1.1653    4.9736

!    total energy              =    -965.58841367 Ry
     Harris-Foulkes estimate   =    -965.58841368 Ry
     estimated scf accuracy    <          9.3E-09 Ry

     total all-electron energy =     -3668.761024 Ry

     The total energy is the sum of the following terms:

     one-electron contribution =    -620.10975975 Ry
     hartree contribution      =     393.02399765 Ry
     xc contribution           =    -224.26818886 Ry
     ewald contribution        =    -223.28883269 Ry
     Dispersion Correction     =      -0.44556086 Ry
     one-center paw contrib.   =    -290.50006917 Ry

     convergence has been achieved in  17 iterations

     Forces acting on atoms (cartesian axes, Ry/au):

     atom    1 type  4   force =    -0.00270311    0.00340929   -0.00973590
     atom    2 type  4   force =     0.00270358    0.00340797    0.00974143
     atom    3 type  4   force =     0.00270311   -0.00340929    0.00973590
     atom    4 type  4   force =    -0.00270358   -0.00340797   -0.00974143
     atom    5 type  3   force =     0.00353593    0.00083211   -0.00346328
     atom    6 type  3   force =    -0.00353588    0.00083212    0.00346337
     atom    7 type  3   force =    -0.00353593   -0.00083211    0.00346328
     atom    8 type  3   force =     0.00353588   -0.00083212   -0.00346337
     atom    9 type  2   force =    -0.00310973   -0.02768765    0.04467705
     atom   10 type  2   force =     0.00310910   -0.02769037   -0.04467765
     atom   11 type  2   force =     0.00310973    0.02768765   -0.04467705
     atom   12 type  2   force =    -0.00310910    0.02769037    0.04467765
     atom   13 type  2   force =     0.00948460    0.00943567   -0.01805703
     atom   14 type  2   force =    -0.00948423    0.00943176    0.01805438
     atom   15 type  2   force =    -0.00948460   -0.00943567    0.01805703
     atom   16 type  2   force =     0.00948423   -0.00943176   -0.01805438
     atom   17 type  1   force =     0.03591767    0.00709778   -0.00676543
     atom   18 type  1   force =    -0.03591652    0.00709830    0.00674438
     atom   19 type  1   force =    -0.03591767   -0.00709778    0.00676543
     atom   20 type  1   force =     0.03591652   -0.00709830   -0.00674438
     atom   21 type  3   force =    -0.03135614   -0.00839187    0.01299516
     atom   22 type  3   force =     0.03135658   -0.00839192   -0.01299539
     atom   23 type  3   force =     0.03135614    0.00839187   -0.01299516
     atom   24 type  3   force =    -0.03135658    0.00839192    0.01299539
     atom   25 type  3   force =    -0.00010709   -0.00260250   -0.00011743
     atom   26 type  3   force =     0.00010729   -0.00260196    0.00011687
     atom   27 type  3   force =     0.00010709    0.00260250    0.00011743
     atom   28 type  3   force =    -0.00010729    0.00260196   -0.00011687
     atom   29 type  1   force =    -0.01688167   -0.00098298   -0.01170277
     atom   30 type  1   force =     0.01688232   -0.00098277    0.01168200
     atom   31 type  1   force =     0.01688167    0.00098298    0.01170277
     atom   32 type  1   force =    -0.01688232    0.00098277   -0.01168200
     atom   33 type  3   force =    -0.00045633    0.00023810   -0.00060191
     atom   34 type  3   force =     0.00045624    0.00023746    0.00060209
     atom   35 type  3   force =     0.00045633   -0.00023810    0.00060191
     atom   36 type  3   force =    -0.00045624   -0.00023746   -0.00060209
     atom   37 type  3   force =     0.02154169    0.00484233   -0.00174481
     atom   38 type  3   force =    -0.02154206    0.00484272    0.00174491
     atom   39 type  3   force =    -0.02154169   -0.00484233    0.00174481
     atom   40 type  3   force =     0.02154206   -0.00484272   -0.00174491
     atom   41 type  1   force =    -0.05405895   -0.02583842   -0.00792158
     atom   42 type  1   force =     0.05405914   -0.02583837    0.00793236
     atom   43 type  1   force =     0.05405895    0.02583842    0.00792158
     atom   44 type  1   force =    -0.05405914    0.02583837   -0.00793236
     atom   45 type  3   force =     0.00639266   -0.00288279   -0.00403835
     atom   46 type  3   force =    -0.00639255   -0.00288260    0.00403904
     atom   47 type  3   force =    -0.00639266    0.00288279    0.00403835
     atom   48 type  3   force =     0.00639255    0.00288260   -0.00403904
     atom   49 type  3   force =     0.04602577   -0.02399749   -0.02183747
     atom   50 type  3   force =    -0.04602600   -0.02399740    0.02183761
     atom   51 type  3   force =    -0.04602577    0.02399749    0.02183747
     atom   52 type  3   force =     0.04602600    0.02399740   -0.02183761
     atom   53 type  3   force =     0.00118275   -0.00120291   -0.00273053
     atom   54 type  3   force =    -0.00118265   -0.00120271    0.00273065
     atom   55 type  3   force =    -0.00118275    0.00120291    0.00273053
     atom   56 type  3   force =     0.00118265    0.00120271   -0.00273065
     atom   57 type  1   force =     0.02189875    0.05343892    0.00265080
     atom   58 type  1   force =    -0.02189909    0.05343838   -0.00265421
     atom   59 type  1   force =    -0.02189875   -0.05343892   -0.00265080
     atom   60 type  1   force =     0.02189909   -0.05343838    0.00265421
     atom   61 type  1   force =    -0.01454076    0.03007771    0.02796806
     atom   62 type  1   force =     0.01454097    0.03007604   -0.02798510
     atom   63 type  1   force =     0.01454076   -0.03007771   -0.02796806
     atom   64 type  1   force =    -0.01454097   -0.03007604    0.02798510
     atom   65 type  3   force =     0.00335820   -0.00251554   -0.00189681
     atom   66 type  3   force =    -0.00335802   -0.00251592    0.00189704
     atom   67 type  3   force =    -0.00335820    0.00251554    0.00189681
     atom   68 type  3   force =     0.00335802    0.00251592   -0.00189704
     atom   69 type  1   force =    -0.02163326   -0.03007011   -0.02652989
     atom   70 type  1   force =     0.02163160   -0.03007177    0.02653565
     atom   71 type  1   force =     0.02163326    0.03007011    0.02652989
     atom   72 type  1   force =    -0.02163160    0.03007177   -0.02653565
     atom   73 type  1   force =     0.02588965    0.00955911    0.01669637
     atom   74 type  1   force =    -0.02588854    0.00956003   -0.01671450
     atom   75 type  1   force =    -0.02588965   -0.00955911   -0.01669637
     atom   76 type  1   force =     0.02588854   -0.00956003    0.01671450
     atom   77 type  3   force =    -0.00078241    0.00092221    0.00074329
     atom   78 type  3   force =     0.00078232    0.00092082   -0.00074314
     atom   79 type  3   force =     0.00078241   -0.00092221   -0.00074329
     atom   80 type  3   force =    -0.00078232   -0.00092082    0.00074314
     atom   81 type  3   force =    -0.02604091    0.00376399    0.01024558
     atom   82 type  3   force =     0.02604186    0.00376424   -0.01024570
     atom   83 type  3   force =     0.02604091   -0.00376399   -0.01024558
     atom   84 type  3   force =    -0.02604186   -0.00376424    0.01024570
     atom   85 type  3   force =    -0.00290364    0.00002013    0.00117255
     atom   86 type  3   force =     0.00290383    0.00002006   -0.00117251
     atom   87 type  3   force =     0.00290364   -0.00002013   -0.00117255
     atom   88 type  3   force =    -0.00290383   -0.00002006    0.00117251

     Total force =     0.303536     Total SCF correction =     0.000149


     Computing stress (Cartesian axis) and pressure

          total   stress  (Ry/bohr**3)                   (kbar)     P=   13.81
   0.00010172   0.00000000  -0.00001405         14.96      0.00     -2.07
   0.00000000   0.00005716   0.00000000          0.00      8.41      0.00
  -0.00001405   0.00000000   0.00012271         -2.07      0.00     18.05


     Writing output data file scf.save
 
     init_run     :     33.41s CPU     34.86s WALL (       1 calls)
     electrons    :   1102.85s CPU   1156.47s WALL (       1 calls)
     forces       :     15.98s CPU     16.14s WALL (       1 calls)
     stress       :     85.49s CPU     85.81s WALL (       1 calls)

     Called by init_run:
     wfcinit      :     24.20s CPU     25.51s WALL (       1 calls)
     potinit      :      3.25s CPU      3.28s WALL (       1 calls)

     Called by electrons:
     c_bands      :    986.50s CPU   1033.01s WALL (      17 calls)
     sum_band     :    104.59s CPU    110.34s WALL (      17 calls)
     v_of_rho     :      1.64s CPU      1.80s WALL (      18 calls)
     newd         :      3.80s CPU      4.82s WALL (      18 calls)
     PAW_pot      :      5.53s CPU      5.53s WALL (      18 calls)
     mix_rho      :      0.42s CPU      0.51s WALL (      17 calls)

     Called by c_bands:
     init_us_2    :     10.17s CPU     10.19s WALL (     444 calls)
     cegterg      :    955.15s CPU   1001.58s WALL (     204 calls)

     Called by sum_band:
     sum_band:bec :      0.08s CPU      0.08s WALL (     204 calls)
     addusdens    :      4.18s CPU      5.06s WALL (      17 calls)

     Called by *egterg:
     h_psi        :    576.19s CPU    611.70s WALL (    1120 calls)
     s_psi        :     95.75s CPU     95.76s WALL (    1120 calls)
     g_psi        :      4.90s CPU      4.89s WALL (     904 calls)
     cdiaghg      :     49.26s CPU     49.28s WALL (    1108 calls)

     Called by h_psi:
     h_psi:pot    :    570.91s CPU    606.32s WALL (    1120 calls)
     h_psi:calbec :     87.69s CPU     87.97s WALL (    1120 calls)
     vloc_psi     :    387.56s CPU    422.68s WALL (    1120 calls)
     add_vuspsi   :     95.66s CPU     95.67s WALL (    1120 calls)

     General routines
     calbec       :    122.63s CPU    123.00s WALL (    1384 calls)
     fft          :      0.97s CPU      1.24s WALL (     258 calls)
     fftw         :    411.64s CPU    448.44s WALL (  197828 calls)
 
     Parallel routines
     fft_scatter  :     96.06s CPU    121.84s WALL (  198086 calls)
 
     PWSCF        : 20m47.28s CPU    22m37.38s WALL

 
   This run was terminated on:  20:29:25   4Nov2017            

=------------------------------------------------------------------------------=
   JOB DONE.
=------------------------------------------------------------------------------=
