
     Program PWSCF v.6.1 (svn rev. 13369) starts on  4Nov2017 at  5:32:39 

     This program is part of the open-source Quantum ESPRESSO suite
     for quantum simulation of materials; please cite
         "P. Giannozzi et al., J. Phys.:Condens. Matter 21 395502 (2009);
          URL http://www.quantum-espresso.org", 
     in publications or presentations arising from this work. More details at
     http://www.quantum-espresso.org/quote

     Parallel version (MPI), running on     8 processors
     R & G space division:  proc/nbgrp/npool/nimage =       8
     Waiting for input...
     Reading input from standard input

     Current dimensions of program PWSCF are:
     Max number of different atomic species (ntypx) = 10
     Max number of k-points (npk) =  40000
     Max angular momentum in pseudopotentials (lmaxx) =  3
               file C.pbe-n-kjpaw_psl.0.1.UPF: wavefunction(s)  2P renormalized
               file N.pbe-n-kjpaw_psl.0.1.UPF: wavefunction(s)  2P renormalized
               file H.pbe-kjpaw_psl.0.1.UPF: wavefunction(s)  1S renormalized
               file O.pbe-n-kjpaw_psl.0.1.UPF: wavefunction(s)  2P renormalized

     -------------------------------------
     Parameters for Dispersion Correction:
     -------------------------------------
       atom      VdW radius       C_6     

        C          2.744         60.710
        N          2.640         42.670
        H          1.892          4.857
        O          2.536         24.284

     Subspace diagonalization in iterative solution of the eigenvalue problem:
     a serial algorithm will be used

 
     Parallelization info
     --------------------
     sticks:   dense  smooth     PW     G-vecs:    dense   smooth      PW
     Min        1157    1157    310                93287    93287   13008
     Max        1158    1158    311                93288    93288   13011
     Sum        9261    9261   2487               746301   746301  104077
 


     bravais-lattice index     =            0
     lattice parameter (alat)  =      28.9147  a.u.
     unit-cell volume          =    5524.1762 (a.u.)^3
     number of atoms/cell      =           96
     number of atomic types    =            4
     number of electrons       =       312.00
     number of Kohn-Sham states=          187
     kinetic-energy cutoff     =     100.0000  Ry
     charge density cutoff     =     400.0000  Ry
     convergence threshold     =      1.0E-08
     mixing beta               =       0.5000
     number of iterations used =            8  plain     mixing
     Exchange-correlation      =  SLA  PW   PBX  PBC ( 1  4  3  4 0 0)

     celldm(1)=  28.914700  celldm(2)=   0.000000  celldm(3)=   0.000000
     celldm(4)=   0.000000  celldm(5)=   0.000000  celldm(6)=   0.000000

     crystal axes: (cart. coord. in units of alat)
               a(1) = (   1.000000   0.000000   0.000000 )  
               a(2) = (   0.000000   0.348082   0.000000 )  
               a(3) = (   0.000000   0.000000   0.656493 )  

     reciprocal axes: (cart. coord. in units 2 pi/alat)
               b(1) = (  1.000000  0.000000  0.000000 )  
               b(2) = (  0.000000  2.872888  0.000000 )  
               b(3) = (  0.000000  0.000000  1.523245 )  


     PseudoPot. # 1 for  C read from file:
     /scratch/ahofstet/pseudo/C.pbe-n-kjpaw_psl.0.1.UPF
     MD5 check sum: 430fe95172b1e11ef3f8ed03bac87931
     Pseudo is Projector augmented-wave + core cor, Zval =  4.0
     Generated using "atomic" code by A. Dal Corso  v.5.0.99 svn rev. 10869
     Shape of augmentation charge: BESSEL
     Using radial grid of 1073 points,  4 beta functions with: 
                l(1) =   0
                l(2) =   0
                l(3) =   1
                l(4) =   1
     Q(r) pseudized with 0 coefficients 


     PseudoPot. # 2 for  N read from file:
     /scratch/ahofstet/pseudo/N.pbe-n-kjpaw_psl.0.1.UPF
     MD5 check sum: f73187c8b701007e77325f868c9291d7
     Pseudo is Projector augmented-wave + core cor, Zval =  5.0
     Generated using "atomic" code by A. Dal Corso  v.5.0.99 svn rev. 10869
     Shape of augmentation charge: PSQ
     Using radial grid of 1085 points,  4 beta functions with: 
                l(1) =   0
                l(2) =   0
                l(3) =   1
                l(4) =   1
     Q(r) pseudized with 0 coefficients 


     PseudoPot. # 3 for  H read from file:
     /scratch/ahofstet/pseudo/H.pbe-kjpaw_psl.0.1.UPF
     MD5 check sum: 94e484f906d9e9773b2f6e52662335b2
     Pseudo is Projector augmented-wave, Zval =  1.0
     Generated using "atomic" code by A. Dal Corso  v.5.0.99 svn rev. 10869
     Shape of augmentation charge: PSQ
     Using radial grid of  929 points,  2 beta functions with: 
                l(1) =   0
                l(2) =   0
     Q(r) pseudized with 0 coefficients 


     PseudoPot. # 4 for  O read from file:
     /scratch/ahofstet/pseudo/O.pbe-n-kjpaw_psl.0.1.UPF
     MD5 check sum: 3f94a2996a3169367d6eb21d9b593f20
     Pseudo is Projector augmented-wave + core cor, Zval =  6.0
     Generated using "atomic" code by A. Dal Corso  v.5.0.99 svn rev. 10869
     Shape of augmentation charge: BESSEL
     Using radial grid of 1095 points,  4 beta functions with: 
                l(1) =   0
                l(2) =   0
                l(3) =   1
                l(4) =   1
     Q(r) pseudized with 0 coefficients 


     atomic species   valence    mass     pseudopotential
        C              4.00    12.01070      C( 1.00)
        N              5.00    14.00670      N( 1.00)
        H              1.00     1.00794      H( 1.00)
        O              6.00    15.99940      O( 1.00)

      2 Sym. Ops. (no inversion) found ( 1 have fractional translation)
          (note:  2 additional sym.ops. were found but ignored
           their fractional translations are incommensurate with FFT grid)


   Cartesian axes

     site n.     atom                  positions (alat units)
         1           C   tau(   1) = (   0.2247514   0.2709361   0.3039720  )
         2           C   tau(   2) = (   0.7247514   0.2511867   0.3525211  )
         3           C   tau(   3) = (   0.7752486   0.0968951   0.0242745  )
         4           C   tau(   4) = (   0.2752486   0.0771458   0.6322185  )
         5           C   tau(   5) = (   0.1928206   0.3110469   0.3904692  )
         6           C   tau(   6) = (   0.6928206   0.2110758   0.2660238  )
         7           C   tau(   7) = (   0.8071794   0.1370060   0.5942703  )
         8           C   tau(   8) = (   0.3071794   0.0370349   0.0622227  )
         9           C   tau(   9) = (   0.0947978   0.3266990   0.3901857  )
        10           C   tau(  10) = (   0.5947978   0.1954238   0.2663073  )
        11           C   tau(  11) = (   0.9052022   0.1526580   0.5945539  )
        12           C   tau(  12) = (   0.4052022   0.0213829   0.0619392  )
        13           C   tau(  13) = (   0.0527210   0.0136139   0.3066053  )
        14           C   tau(  14) = (   0.5527210   0.1604270   0.3498878  )
        15           C   tau(  15) = (   0.9472790   0.1876548   0.0216413  )
        16           C   tau(  16) = (   0.4472790   0.3344680   0.6348518  )
        17           C   tau(  17) = (   0.9583724   0.3266739   0.3138283  )
        18           C   tau(  18) = (   0.4583724   0.1954489   0.3426647  )
        19           C   tau(  19) = (   0.0416276   0.1526329   0.0144182  )
        20           C   tau(  20) = (   0.5416276   0.0214080   0.6420749  )
        21           C   tau(  21) = (   0.0429815   0.2446918   0.4120407  )
        22           C   tau(  22) = (   0.5429815   0.2774309   0.2444523  )
        23           C   tau(  23) = (   0.9570185   0.0706509   0.5726988  )
        24           C   tau(  24) = (   0.4570185   0.1033900   0.0837942  )
        25           C   tau(  25) = (   0.9121254   0.3099718   0.2278822  )
        26           C   tau(  26) = (   0.4121254   0.2121510   0.4286108  )
        27           C   tau(  27) = (   0.0878746   0.1359309   0.1003643  )
        28           C   tau(  28) = (   0.5878746   0.0381101   0.5561287  )
        29           H   tau(  29) = (   0.2207379   0.0973872   0.3707790  )
        30           H   tau(  30) = (   0.7207379   0.0766537   0.2857140  )
        31           H   tau(  31) = (   0.7792621   0.2714281   0.6139605  )
        32           H   tau(  32) = (   0.2792621   0.2506946   0.0425325  )
        33           H   tau(  33) = (   0.3060423   0.0337045   0.4052283  )
        34           H   tau(  34) = (   0.8060423   0.1403364   0.2512647  )
        35           H   tau(  35) = (   0.6939577   0.2077455   0.5795113  )
        36           H   tau(  36) = (   0.1939577   0.3143773   0.0769818  )
        37           H   tau(  37) = (   0.2278926   0.0602073   0.4782695  )
        38           H   tau(  38) = (   0.7278926   0.1138336   0.1782235  )
        39           H   tau(  39) = (   0.7721074   0.2342483   0.5064700  )
        40           H   tau(  40) = (   0.2721074   0.2878745   0.1500230  )
        41           H   tau(  41) = (   0.2083505   0.2657541   0.4442148  )
        42           H   tau(  42) = (   0.7083505   0.2563687   0.2122783  )
        43           H   tau(  43) = (   0.7916495   0.0917131   0.5405248  )
        44           H   tau(  44) = (   0.2916495   0.0823278   0.1159682  )
        45           H   tau(  45) = (   0.9138313   0.2118702   0.3809663  )
        46           H   tau(  46) = (   0.4138313   0.3102525   0.2755267  )
        47           H   tau(  47) = (   0.0861687   0.0378293   0.6037733  )
        48           H   tau(  48) = (   0.5861687   0.1362116   0.0527198  )
        49           H   tau(  49) = (   0.0795316   0.0253116   0.4436404  )
        50           H   tau(  50) = (   0.5795316   0.1487293   0.2128527  )
        51           H   tau(  51) = (   0.9204684   0.1993525   0.5410992  )
        52           H   tau(  52) = (   0.4204684   0.3227702   0.1153938  )
        53           H   tau(  53) = (   0.0839219   0.3351905   0.2479205  )
        54           H   tau(  54) = (   0.5839219   0.1869322   0.4085725  )
        55           H   tau(  55) = (   0.9160781   0.1611496   0.0803260  )
        56           H   tau(  56) = (   0.4160781   0.0128913   0.5761671  )
        57           H   tau(  57) = (   0.0542089   0.0849769   0.3026796  )
        58           H   tau(  58) = (   0.5542089   0.0890640   0.3538134  )
        59           H   tau(  59) = (   0.9457911   0.2590178   0.0255669  )
        60           H   tau(  60) = (   0.4457911   0.2631049   0.6309261  )
        61           H   tau(  61) = (   0.9177423   0.3746367   0.3503789  )
        62           H   tau(  62) = (   0.4177423   0.1474861   0.3061142  )
        63           H   tau(  63) = (   0.0822577   0.2005958   0.6343607  )
        64           H   tau(  64) = (   0.5822577  -0.0265548   0.0221323  )
        65           H   tau(  65) = (   0.8779155   0.0191681   0.1205448  )
        66           H   tau(  66) = (   0.3779155   0.1548728   0.5359482  )
        67           H   tau(  67) = (   0.1220845   0.1932090   0.2077017  )
        68           H   tau(  68) = (   0.6220845   0.3289137   0.4487913  )
        69           N   tau(  69) = (   0.2399797   0.0464108   0.4114383  )
        70           N   tau(  70) = (   0.7399797   0.1276301   0.2450548  )
        71           N   tau(  71) = (   0.7600203   0.2204518   0.5733013  )
        72           N   tau(  72) = (   0.2600203   0.3016710   0.0831918  )
        73           N   tau(  73) = (   0.9680524   0.2468101   0.3641270  )
        74           N   tau(  74) = (   0.4680524   0.2753127   0.2923661  )
        75           N   tau(  75) = (   0.0319476   0.0727691   0.6206126  )
        76           N   tau(  76) = (   0.5319476   0.1012718   0.0358804  )
        77           O   tau(  77) = (   0.1899728   0.1979169   0.2843314  )
        78           O   tau(  78) = (   0.6899728   0.3242058   0.3721616  )
        79           O   tau(  79) = (   0.8100272   0.0238760   0.0439151  )
        80           O   tau(  80) = (   0.3100272   0.1501649   0.6125779  )
        81           O   tau(  81) = (   0.2789388   0.3131899   0.2588153  )
        82           O   tau(  82) = (   0.7789388   0.2089328   0.3976777  )
        83           O   tau(  83) = (   0.7210612   0.1391490   0.0694312  )
        84           O   tau(  84) = (   0.2210612   0.0348919   0.5870618  )
        85           O   tau(  85) = (   0.0633406   0.1884491   0.4661586  )
        86           O   tau(  86) = (   0.5633406  -0.0144081   0.1903344  )
        87           O   tau(  87) = (   0.9366594   0.3624900   0.5185810  )
        88           O   tau(  88) = (   0.4366594   0.1596328   0.1379121  )
        89           O   tau(  89) = (   0.8675772   0.2448299   0.2146859  )
        90           O   tau(  90) = (   0.3675772   0.2772929   0.4418071  )
        91           O   tau(  91) = (   0.1324228   0.0707890   0.1135606  )
        92           O   tau(  92) = (   0.6324228   0.1032520   0.5429324  )
        93           O   tau(  93) = (   0.9206908   0.0274608   0.1715835  )
        94           O   tau(  94) = (   0.4206908   0.1465801   0.4849095  )
        95           O   tau(  95) = (   0.0793092   0.2015017   0.1566630  )
        96           O   tau(  96) = (   0.5793092   0.3206210   0.4998300  )

     number of k points=    12
                       cart. coord. in units 2pi/alat
        k(    1) = (   0.0000000   0.0000000   0.0000000), wk =   0.1250000
        k(    2) = (   0.0000000   0.0000000  -0.7616227), wk =   0.1250000
        k(    3) = (   0.0000000   0.7182219   0.0000000), wk =   0.2500000
        k(    4) = (   0.0000000   0.7182219  -0.7616227), wk =   0.2500000
        k(    5) = (   0.0000000  -1.4364439   0.0000000), wk =   0.1250000
        k(    6) = (   0.0000000  -1.4364439  -0.7616227), wk =   0.1250000
        k(    7) = (  -0.5000000   0.0000000   0.0000000), wk =   0.1250000
        k(    8) = (  -0.5000000   0.0000000  -0.7616227), wk =   0.1250000
        k(    9) = (  -0.5000000   0.7182219   0.0000000), wk =   0.2500000
        k(   10) = (  -0.5000000   0.7182219  -0.7616227), wk =   0.2500000
        k(   11) = (  -0.5000000  -1.4364439   0.0000000), wk =   0.1250000
        k(   12) = (  -0.5000000  -1.4364439  -0.7616227), wk =   0.1250000

     Dense  grid:   746301 G-vectors     FFT dimensions: ( 192,  72, 125)

     Estimated max dynamical RAM per process >     868.03MB

     Estimated total allocated dynamical RAM >    6944.22MB

     Check: negative/imaginary core charge=   -0.000002    0.000000

     Initial potential from superposition of free atoms

     starting charge  311.99837, renormalised to  312.00000
     Starting wfc are  264 randomized atomic wfcs
     Checking if some PAW data can be deallocated... 

     total cpu time spent up to now is       59.5 secs

     per-process dynamical memory:   643.1 Mb

     Self-consistent Calculation

     iteration #  1     ecut=   100.00 Ry     beta=0.50
     Davidson diagonalization with overlap
     ethr =  1.00E-02,  avg # of iterations =  3.4

     total cpu time spent up to now is      258.8 secs

     total energy              =   -1621.50125030 Ry
     Harris-Foulkes estimate   =   -1626.67042606 Ry
     estimated scf accuracy    <       9.61971005 Ry

     iteration #  2     ecut=   100.00 Ry     beta=0.50
     Davidson diagonalization with overlap
     ethr =  3.08E-03,  avg # of iterations =  3.0

     total cpu time spent up to now is      383.7 secs

     total energy              =   -1623.16872144 Ry
     Harris-Foulkes estimate   =   -1623.74949673 Ry
     estimated scf accuracy    <       1.29555479 Ry

     iteration #  3     ecut=   100.00 Ry     beta=0.50
     Davidson diagonalization with overlap
     ethr =  4.15E-04,  avg # of iterations =  8.2

     total cpu time spent up to now is      572.1 secs

     total energy              =   -1623.51006399 Ry
     Harris-Foulkes estimate   =   -1623.64658205 Ry
     estimated scf accuracy    <       0.34533052 Ry

     iteration #  4     ecut=   100.00 Ry     beta=0.50
     Davidson diagonalization with overlap
     ethr =  1.11E-04,  avg # of iterations =  3.0

     total cpu time spent up to now is      679.8 secs

     total energy              =   -1623.54254253 Ry
     Harris-Foulkes estimate   =   -1623.56485592 Ry
     estimated scf accuracy    <       0.06723089 Ry

     iteration #  5     ecut=   100.00 Ry     beta=0.50
     Davidson diagonalization with overlap
     ethr =  2.15E-05,  avg # of iterations =  7.4

     total cpu time spent up to now is      888.9 secs

     total energy              =   -1623.56408553 Ry
     Harris-Foulkes estimate   =   -1623.57740419 Ry
     estimated scf accuracy    <       0.03524452 Ry

     iteration #  6     ecut=   100.00 Ry     beta=0.50
     Davidson diagonalization with overlap
     ethr =  1.13E-05,  avg # of iterations =  1.1

     total cpu time spent up to now is      984.9 secs

     total energy              =   -1623.55995044 Ry
     Harris-Foulkes estimate   =   -1623.56641146 Ry
     estimated scf accuracy    <       0.01024955 Ry

     iteration #  7     ecut=   100.00 Ry     beta=0.50
     Davidson diagonalization with overlap
     ethr =  3.29E-06,  avg # of iterations =  6.9

     total cpu time spent up to now is     1208.4 secs

     total energy              =   -1623.56704993 Ry
     Harris-Foulkes estimate   =   -1623.56969452 Ry
     estimated scf accuracy    <       0.00804210 Ry

     iteration #  8     ecut=   100.00 Ry     beta=0.50
     Davidson diagonalization with overlap
     ethr =  2.58E-06,  avg # of iterations =  1.0

     total cpu time spent up to now is     1304.2 secs

     total energy              =   -1623.56570465 Ry
     Harris-Foulkes estimate   =   -1623.56729440 Ry
     estimated scf accuracy    <       0.00324423 Ry

     iteration #  9     ecut=   100.00 Ry     beta=0.50
     Davidson diagonalization with overlap
     ethr =  1.04E-06,  avg # of iterations =  5.4

     total cpu time spent up to now is     1489.5 secs

     total energy              =   -1623.56727844 Ry
     Harris-Foulkes estimate   =   -1623.56732409 Ry
     estimated scf accuracy    <       0.00035591 Ry

     iteration # 10     ecut=   100.00 Ry     beta=0.50
     Davidson diagonalization with overlap
     ethr =  1.14E-07,  avg # of iterations =  1.0

     total cpu time spent up to now is     1585.3 secs

     total energy              =   -1623.56716238 Ry
     Harris-Foulkes estimate   =   -1623.56728649 Ry
     estimated scf accuracy    <       0.00026236 Ry

     iteration # 11     ecut=   100.00 Ry     beta=0.50
     Davidson diagonalization with overlap
     ethr =  8.41E-08,  avg # of iterations =  3.0

     total cpu time spent up to now is     1717.3 secs

     total energy              =   -1623.56722015 Ry
     Harris-Foulkes estimate   =   -1623.56722169 Ry
     estimated scf accuracy    <       0.00000394 Ry

     iteration # 12     ecut=   100.00 Ry     beta=0.50
     Davidson diagonalization with overlap
     ethr =  1.26E-09,  avg # of iterations =  3.8

     total cpu time spent up to now is     1897.1 secs

     total energy              =   -1623.56722196 Ry
     Harris-Foulkes estimate   =   -1623.56722213 Ry
     estimated scf accuracy    <       0.00000047 Ry

     iteration # 13     ecut=   100.00 Ry     beta=0.50
     Davidson diagonalization with overlap
     ethr =  1.51E-10,  avg # of iterations =  4.2

     total cpu time spent up to now is     2043.8 secs

     total energy              =   -1623.56722202 Ry
     Harris-Foulkes estimate   =   -1623.56722214 Ry
     estimated scf accuracy    <       0.00000027 Ry

     iteration # 14     ecut=   100.00 Ry     beta=0.50
     Davidson diagonalization with overlap
     ethr =  8.62E-11,  avg # of iterations =  1.4

     total cpu time spent up to now is     2140.4 secs

     total energy              =   -1623.56722203 Ry
     Harris-Foulkes estimate   =   -1623.56722205 Ry
     estimated scf accuracy    <       0.00000005 Ry

     iteration # 15     ecut=   100.00 Ry     beta=0.50
     Davidson diagonalization with overlap
     ethr =  1.60E-11,  avg # of iterations =  4.0

     total cpu time spent up to now is     2326.2 secs

     total energy              =   -1623.56722207 Ry
     Harris-Foulkes estimate   =   -1623.56722207 Ry
     estimated scf accuracy    <       0.00000002 Ry

     iteration # 16     ecut=   100.00 Ry     beta=0.50
     Davidson diagonalization with overlap
     ethr =  5.02E-12,  avg # of iterations =  1.0

     total cpu time spent up to now is     2421.9 secs

     End of self-consistent calculation

          k = 0.0000 0.0000 0.0000 ( 93161 PWs)   bands (ev):

   -20.4379 -20.4276 -20.3929 -20.3831 -19.4965 -19.4965 -19.4747 -19.4692
   -18.6952 -18.6884 -18.5533 -18.5492 -18.1693 -18.1509 -18.1386 -18.1234
   -17.2648 -17.2643 -17.1880 -17.1856 -17.0404 -17.0396 -16.8236 -16.8140
   -16.3227 -16.3073 -16.2293 -16.2230 -12.8002 -12.7971 -12.7759 -12.7400
   -11.5900 -11.5725 -11.4696 -11.4592 -10.2950 -10.2910 -10.2427 -10.0960
    -8.4840  -8.4825  -8.4258  -8.4189  -7.9603  -7.9012  -7.8271  -7.8215
    -7.5882  -7.5665  -7.4928  -7.4156  -6.9909  -6.9482  -6.6988  -6.6543
    -6.3156  -6.2985  -6.2675  -6.2006  -6.0987  -5.9263  -5.8197  -5.7199
    -5.6864  -5.5414  -5.5377  -5.5339  -5.1531  -5.1002  -5.0863  -5.0373
    -4.9277  -4.7965  -4.7938  -4.7672  -4.6960  -4.6294  -4.5941  -4.5928
    -4.3875  -4.2945  -4.1080  -4.0980  -3.9571  -3.9348  -3.9041  -3.8697
    -3.8372  -3.8037  -3.5484  -3.4963  -3.4067  -3.3420  -3.3199  -3.2723
    -3.0950  -3.0867  -3.0615  -3.0525  -2.8988  -2.8450  -2.7193  -2.6847
    -2.4851  -2.4601  -2.4506  -2.3967  -2.3612  -2.3127  -2.3057  -2.3043
    -2.2274  -2.1802  -2.1348  -2.0878  -1.7696  -1.7413  -1.7208  -1.6975
    -1.5108  -1.4456  -1.3986  -1.3387  -1.2457  -1.2130  -0.8994  -0.8396
    -0.6135  -0.5021  -0.4762  -0.4533   0.0028   0.0097   0.0866   0.1134
     0.5100   0.5474   0.5573   0.6721   0.6798   0.7282   0.7338   0.7419
     0.8653   0.8811   0.8996   0.9038   1.0884   1.0972   1.1115   1.1125
     1.3437   1.3501   1.3526   1.3698   5.9296   5.9649   6.0789   6.1266
     6.1918   6.2361   6.2717   6.2834   6.8314   6.8602   6.9425   7.0572
     7.1783   7.4845   7.7263   7.9078   8.1907   8.5811   8.6115   8.6493
     8.9948   9.0718   9.1685   9.2714   9.3636   9.5127   9.6319   9.6981
     9.8433   9.8675   9.9646

          k = 0.0000 0.0000-0.7616 ( 93256 PWs)   bands (ev):

   -20.4325 -20.4325 -20.3881 -20.3881 -19.4874 -19.4874 -19.4821 -19.4821
   -18.6910 -18.6910 -18.5509 -18.5509 -18.1556 -18.1556 -18.1369 -18.1369
   -17.2416 -17.2416 -17.2399 -17.2399 -16.9162 -16.9162 -16.9116 -16.9116
   -16.3124 -16.3124 -16.2296 -16.2296 -12.8037 -12.8037 -12.7522 -12.7522
   -11.5813 -11.5813 -11.4623 -11.4623 -10.3061 -10.3061 -10.1504 -10.1504
    -8.5135  -8.5135  -8.4098  -8.4098  -7.8712  -7.8712  -7.8356  -7.8356
    -7.6607  -7.6607  -7.4116  -7.4116  -6.9061  -6.9061  -6.8265  -6.8265
    -6.3123  -6.3123  -6.2350  -6.2350  -5.8534  -5.8534  -5.8157  -5.8157
    -5.5168  -5.5168  -5.4432  -5.4432  -5.2645  -5.2645  -5.1966  -5.1966
    -4.8944  -4.8944  -4.7569  -4.7569  -4.6740  -4.6740  -4.5885  -4.5885
    -4.2909  -4.2909  -4.1654  -4.1654  -3.9316  -3.9316  -3.7864  -3.7864
    -3.6678  -3.6678  -3.6244  -3.6244  -3.4662  -3.4662  -3.2041  -3.2041
    -3.1743  -3.1743  -3.0475  -3.0475  -2.9252  -2.9252  -2.5534  -2.5534
    -2.5123  -2.5123  -2.4855  -2.4855  -2.3235  -2.3235  -2.2962  -2.2962
    -2.1643  -2.1643  -2.0745  -2.0745  -1.8166  -1.8166  -1.7421  -1.7421
    -1.4872  -1.4872  -1.3502  -1.3502  -1.2325  -1.2325  -0.9325  -0.9325
    -0.5274  -0.5274  -0.4138  -0.4138   0.0247   0.0247   0.0543   0.0543
     0.5753   0.5753   0.6050   0.6050   0.6448   0.6448   0.6884   0.6884
     0.8781   0.8781   0.9179   0.9179   1.0484   1.0484   1.2070   1.2070
     1.3380   1.3380   1.3704   1.3704   5.9528   5.9528   6.1199   6.1199
     6.2117   6.2117   6.2562   6.2562   6.8416   6.8416   6.9949   6.9949
     7.3892   7.3892   7.6270   7.6270   8.3288   8.3288   8.8953   8.8953
     9.1100   9.1100   9.3910   9.3910   9.5839   9.5839   9.6139   9.6139
     9.8853   9.8853   9.9723

          k = 0.0000 0.7182 0.0000 ( 93316 PWs)   bands (ev):

   -20.4248 -20.4158 -20.3927 -20.3842 -19.5016 -19.5002 -19.4544 -19.4517
   -18.6701 -18.6639 -18.5697 -18.5651 -18.1749 -18.1628 -18.1424 -18.1311
   -17.3348 -17.3335 -17.1892 -17.1886 -17.0415 -17.0414 -16.7801 -16.7721
   -16.3088 -16.2919 -16.2422 -16.2331 -12.8132 -12.8011 -12.7936 -12.7615
   -11.5814 -11.5629 -11.4984 -11.4861 -10.3046 -10.2620 -10.2516 -10.1239
    -8.5072  -8.5009  -8.4262  -8.4251  -7.9452  -7.9008  -7.8110  -7.7938
    -7.5873  -7.5227  -7.5008  -7.4537  -7.0546  -7.0426  -6.7512  -6.7161
    -6.2952  -6.2682  -6.2336  -6.2069  -6.0351  -5.9500  -5.8133  -5.7492
    -5.6816  -5.5680  -5.5365  -5.4841  -5.1753  -5.1679  -5.1550  -5.0616
    -4.8502  -4.8110  -4.7220  -4.6358  -4.6088  -4.5809  -4.5433  -4.4433
    -4.3559  -4.2104  -4.1846  -4.1191  -3.9317  -3.8843  -3.8593  -3.7685
    -3.7149  -3.6980  -3.5741  -3.5359  -3.4120  -3.3418  -3.2789  -3.2033
    -3.1870  -3.1727  -3.0821  -3.0585  -2.8177  -2.8111  -2.7870  -2.7383
    -2.5728  -2.5499  -2.5095  -2.4855  -2.3958  -2.3403  -2.2460  -2.2102
    -2.2001  -2.1379  -2.0916  -2.0474  -1.7995  -1.7747  -1.7436  -1.6830
    -1.5190  -1.5018  -1.3759  -1.3402  -1.1652  -1.1104  -0.8874  -0.8439
    -0.5458  -0.4562  -0.4444  -0.3868   0.0165   0.0239   0.0676   0.0882
     0.4913   0.5045   0.5924   0.6502   0.6630   0.7179   0.7258   0.7559
     0.8626   0.8936   0.9089   0.9357   1.0585   1.0912   1.1056   1.1581
     1.3213   1.3431   1.3624   1.3875   5.9120   5.9339   6.0404   6.1017
     6.1036   6.1712   6.2022   6.3055   6.6931   6.7415   6.8179   6.8729
     7.3183   7.4465   7.7883   8.0032   8.3922   8.6141   8.6572   8.7647
     8.7745   8.9989   9.2794   9.3081   9.3339   9.3548   9.4807   9.5770
     9.6339   9.6369   9.8466

          k = 0.0000 0.7182-0.7616 ( 93260 PWs)   bands (ev):

   -20.4201 -20.4201 -20.3885 -20.3885 -19.4796 -19.4796 -19.4756 -19.4756
   -18.6668 -18.6668 -18.5670 -18.5670 -18.1595 -18.1595 -18.1464 -18.1464
   -17.2873 -17.2873 -17.2858 -17.2858 -16.8867 -16.8867 -16.8807 -16.8807
   -16.2991 -16.2991 -16.2397 -16.2397 -12.8108 -12.8108 -12.7726 -12.7726
   -11.5738 -11.5738 -11.4905 -11.4905 -10.2914 -10.2914 -10.1756 -10.1756
    -8.5056  -8.5056  -8.4297  -8.4297  -7.8613  -7.8613  -7.8118  -7.8118
    -7.6291  -7.6291  -7.4525  -7.4525  -6.9794  -6.9794  -6.8958  -6.8958
    -6.2800  -6.2800  -6.2314  -6.2314  -5.8640  -5.8640  -5.8068  -5.8068
    -5.5858  -5.5858  -5.5358  -5.5358  -5.1656  -5.1656  -5.1129  -5.1129
    -4.7534  -4.7534  -4.7226  -4.7226  -4.6573  -4.6573  -4.5049  -4.5049
    -4.2825  -4.2825  -4.1257  -4.1257  -3.8760  -3.8760  -3.7743  -3.7743
    -3.6566  -3.6566  -3.5464  -3.5464  -3.4838  -3.4838  -3.2803  -3.2803
    -3.2156  -3.2156  -3.0666  -3.0666  -2.8251  -2.8251  -2.7211  -2.7211
    -2.5853  -2.5853  -2.5044  -2.5044  -2.3487  -2.3487  -2.2408  -2.2408
    -2.0713  -2.0713  -2.0215  -2.0215  -1.8439  -1.8439  -1.7987  -1.7987
    -1.4881  -1.4881  -1.3505  -1.3505  -1.1496  -1.1496  -0.8728  -0.8728
    -0.4908  -0.4908  -0.3917  -0.3917   0.0325   0.0325   0.0566   0.0566
     0.5367   0.5367   0.5971   0.5971   0.6558   0.6558   0.7132   0.7132
     0.9022   0.9022   0.9399   0.9399   1.0350   1.0350   1.1622   1.1622
     1.3361   1.3361   1.3783   1.3783   5.9420   5.9420   6.0768   6.0768
     6.1490   6.1490   6.2216   6.2216   6.7072   6.7072   6.8407   6.8407
     7.5104   7.5104   7.6945   7.6945   8.3555   8.3555   8.8161   8.8161
     9.1366   9.1366   9.2949   9.2949   9.5182   9.5182   9.6597   9.6597
     9.7266   9.7266   9.8630

          k = 0.0000-1.4364 0.0000 ( 93312 PWs)   bands (ev):

   -20.4019 -20.4019 -20.3946 -20.3946 -19.5011 -19.5011 -19.4384 -19.4384
   -18.6155 -18.6155 -18.6102 -18.6102 -18.1768 -18.1768 -18.1429 -18.1429
   -17.3896 -17.3896 -17.2063 -17.2063 -17.0329 -17.0329 -16.7430 -16.7430
   -16.2749 -16.2749 -16.2599 -16.2599 -12.8176 -12.8176 -12.7946 -12.7946
   -11.5502 -11.5502 -11.5332 -11.5332 -10.2928 -10.2928 -10.1873 -10.1873
    -8.5222  -8.5222  -8.4287  -8.4287  -7.9159  -7.9159  -7.7889  -7.7889
    -7.5310  -7.5310  -7.4974  -7.4974  -7.1189  -7.1189  -6.7803  -6.7803
    -6.2525  -6.2525  -6.2144  -6.2144  -5.9765  -5.9765  -5.7955  -5.7955
    -5.6060  -5.6060  -5.4738  -5.4738  -5.2257  -5.2257  -5.1765  -5.1765
    -4.7523  -4.7523  -4.6755  -4.6755  -4.5034  -4.5034  -4.4684  -4.4684
    -4.2639  -4.2639  -4.1203  -4.1203  -3.8546  -3.8546  -3.7103  -3.7103
    -3.6160  -3.6160  -3.5143  -3.5143  -3.3922  -3.3922  -3.2392  -3.2392
    -3.1608  -3.1608  -3.0706  -3.0706  -2.8444  -2.8444  -2.7974  -2.7974
    -2.5939  -2.5939  -2.5466  -2.5466  -2.3791  -2.3791  -2.3427  -2.3427
    -2.1248  -2.1248  -2.0766  -2.0766  -1.7494  -1.7494  -1.6913  -1.6913
    -1.5196  -1.5196  -1.3671  -1.3671  -0.9742  -0.9742  -0.9321  -0.9321
    -0.4534  -0.4534  -0.3520  -0.3520   0.0358   0.0358   0.0429   0.0429
     0.5160   0.5160   0.5721   0.5721   0.6758   0.6758   0.7319   0.7319
     0.9070   0.9070   0.9301   0.9301   1.0453   1.0453   1.0832   1.0832
     1.3794   1.3794   1.4100   1.4100   5.9210   5.9210   5.9918   5.9918
     6.0675   6.0675   6.2167   6.2167   6.5680   6.5680   6.7372   6.7372
     7.5801   7.5801   7.8924   7.8924   8.4836   8.4836   8.5517   8.5517
     8.7902   8.7902   9.1201   9.1201   9.3494   9.3494   9.5533   9.5533
     9.6789   9.6790   9.8626

          k = 0.0000-1.4364-0.7616 ( 93340 PWs)   bands (ev):

   -20.3986 -20.3986 -20.3981 -20.3981 -19.4714 -19.4714 -19.4692 -19.4692
   -18.6156 -18.6156 -18.6100 -18.6100 -18.1595 -18.1595 -18.1593 -18.1593
   -17.3270 -17.3270 -17.3267 -17.3267 -16.8630 -16.8630 -16.8554 -16.8554
   -16.2749 -16.2749 -16.2605 -16.2605 -12.8132 -12.8132 -12.7972 -12.7972
   -11.5473 -11.5473 -11.5378 -11.5378 -10.2670 -10.2670 -10.2112 -10.2112
    -8.4921  -8.4921  -8.4524  -8.4524  -7.8478  -7.8478  -7.7969  -7.7969
    -7.5583  -7.5583  -7.5288  -7.5288  -7.0458  -7.0458  -6.9558  -6.9558
    -6.2450  -6.2450  -6.2334  -6.2334  -5.8653  -5.8653  -5.8249  -5.8249
    -5.6203  -5.6203  -5.5925  -5.5925  -5.0738  -5.0738  -5.0687  -5.0687
    -4.7713  -4.7713  -4.6210  -4.6210  -4.5345  -4.5345  -4.4471  -4.4471
    -4.2562  -4.2562  -4.1473  -4.1473  -3.7724  -3.7724  -3.7620  -3.7620
    -3.6373  -3.6373  -3.5582  -3.5582  -3.4194  -3.4194  -3.3591  -3.3591
    -3.2047  -3.2047  -3.0922  -3.0922  -2.8600  -2.8600  -2.7394  -2.7394
    -2.5980  -2.5980  -2.5570  -2.5570  -2.3400  -2.3400  -2.3118  -2.3118
    -2.0306  -2.0306  -1.9958  -1.9958  -1.8265  -1.8265  -1.8023  -1.8023
    -1.4881  -1.4881  -1.3528  -1.3528  -0.9465  -0.9465  -0.9437  -0.9437
    -0.4392  -0.4392  -0.3767  -0.3767   0.0373   0.0373   0.0428   0.0428
     0.5287   0.5287   0.5597   0.5597   0.6600   0.6600   0.7300   0.7300
     0.9486   0.9486   0.9560   0.9560   1.0405   1.0405   1.0451   1.0451
     1.3809   1.3809   1.3927   1.3927   5.9537   5.9537   5.9934   5.9934
     6.0805   6.0805   6.2067   6.2067   6.5464   6.5464   6.7036   6.7036
     7.7610   7.7610   7.7934   7.7934   8.2619   8.2619   8.5288   8.5288
     8.8738   8.8738   9.3912   9.3912   9.5468   9.5468   9.5780   9.5780
     9.7400   9.7400   9.8110

          k =-0.5000 0.0000 0.0000 ( 93164 PWs)   bands (ev):

   -20.4333 -20.4333 -20.3875 -20.3875 -19.4966 -19.4966 -19.4718 -19.4718
   -18.6918 -18.6918 -18.5512 -18.5512 -18.1623 -18.1623 -18.1287 -18.1287
   -17.2645 -17.2645 -17.1868 -17.1868 -17.0400 -17.0400 -16.8189 -16.8189
   -16.3149 -16.3149 -16.2262 -16.2262 -12.8000 -12.8000 -12.7569 -12.7569
   -11.5811 -11.5811 -11.4643 -11.4643 -10.3030 -10.3030 -10.1609 -10.1609
    -8.4800  -8.4800  -8.4160  -8.4160  -7.9699  -7.9699  -7.7794  -7.7794
    -7.6080  -7.6080  -7.4389  -7.4389  -6.9715  -6.9715  -6.6690  -6.6690
    -6.3182  -6.3182  -6.2281  -6.2281  -6.0138  -6.0138  -5.7990  -5.7990
    -5.5780  -5.5780  -5.5300  -5.5300  -5.1829  -5.1829  -5.0132  -5.0132
    -4.8922  -4.8922  -4.8156  -4.8156  -4.6545  -4.6545  -4.5177  -4.5177
    -4.2790  -4.2790  -4.1827  -4.1827  -3.9556  -3.9556  -3.9022  -3.9022
    -3.8346  -3.8346  -3.4187  -3.4187  -3.3895  -3.3895  -3.3461  -3.3461
    -3.1097  -3.1097  -3.0604  -3.0604  -2.8572  -2.8572  -2.7116  -2.7116
    -2.4797  -2.4797  -2.3901  -2.3901  -2.3491  -2.3491  -2.3016  -2.3016
    -2.1785  -2.1785  -2.1421  -2.1421  -1.7542  -1.7542  -1.7039  -1.7039
    -1.4528  -1.4528  -1.3875  -1.3875  -1.2534  -1.2534  -0.8645  -0.8645
    -0.5514  -0.5514  -0.4644  -0.4644   0.0075   0.0075   0.0999   0.0999
     0.5325   0.5325   0.5973   0.5973   0.7021   0.7021   0.7566   0.7566
     0.8589   0.8589   0.9148   0.9148   1.0953   1.0953   1.1060   1.1060
     1.3479   1.3479   1.3618   1.3618   5.9478   5.9478   6.1062   6.1062
     6.2276   6.2276   6.2566   6.2566   6.8276   6.8276   7.0080   7.0080
     7.3022   7.3022   7.8789   7.8789   8.3221   8.3221   8.6765   8.6765
     9.0287   9.0287   9.2433   9.2433   9.3957   9.3957   9.5880   9.5880
     9.9092   9.9093   9.9871

          k =-0.5000 0.0000-0.7616 ( 93312 PWs)   bands (ev):

   -20.4325 -20.4325 -20.3881 -20.3881 -19.4870 -19.4870 -19.4826 -19.4826
   -18.6910 -18.6910 -18.5510 -18.5510 -18.1555 -18.1555 -18.1371 -18.1371
   -17.2409 -17.2409 -17.2406 -17.2406 -16.9148 -16.9148 -16.9130 -16.9130
   -16.3120 -16.3120 -16.2299 -16.2299 -12.8019 -12.8019 -12.7541 -12.7541
   -11.5811 -11.5811 -11.4623 -11.4623 -10.2991 -10.2991 -10.1584 -10.1584
    -8.5120  -8.5120  -8.4051  -8.4051  -7.8763  -7.8763  -7.8476  -7.8476
    -7.6480  -7.6480  -7.4154  -7.4154  -6.8880  -6.8880  -6.8414  -6.8414
    -6.2996  -6.2996  -6.2415  -6.2415  -5.8462  -5.8462  -5.8377  -5.8377
    -5.4781  -5.4781  -5.4633  -5.4633  -5.2630  -5.2630  -5.2249  -5.2249
    -4.8655  -4.8655  -4.8164  -4.8164  -4.6715  -4.6715  -4.5177  -4.5177
    -4.2579  -4.2579  -4.2138  -4.2138  -3.8978  -3.8978  -3.8647  -3.8647
    -3.6857  -3.6857  -3.5797  -3.5797  -3.4006  -3.4006  -3.2879  -3.2879
    -3.1718  -3.1718  -3.0637  -3.0637  -2.8915  -2.8915  -2.5319  -2.5319
    -2.5094  -2.5094  -2.5036  -2.5036  -2.3211  -2.3211  -2.3029  -2.3029
    -2.1326  -2.1326  -2.1056  -2.1056  -1.8109  -1.8109  -1.7374  -1.7374
    -1.4515  -1.4515  -1.3969  -1.3969  -1.2288  -1.2288  -0.9493  -0.9493
    -0.4641  -0.4641  -0.4619  -0.4619   0.0323   0.0323   0.0475   0.0475
     0.5721   0.5721   0.6170   0.6170   0.6589   0.6589   0.6645   0.6645
     0.8963   0.8963   0.9002   0.9002   1.0505   1.0505   1.2031   1.2031
     1.3440   1.3440   1.3672   1.3672   5.9564   5.9564   6.1308   6.1308
     6.1972   6.1972   6.2501   6.2501   6.8481   6.8481   6.9822   6.9822
     7.4803   7.4803   7.5203   7.5203   8.4808   8.4808   8.6989   8.6989
     9.1669   9.1669   9.4311   9.4311   9.5210   9.5210   9.6436   9.6436
     9.7882   9.7882   9.9836

          k =-0.5000 0.7182 0.0000 ( 93282 PWs)   bands (ev):

   -20.4209 -20.4209 -20.3878 -20.3878 -19.5009 -19.5009 -19.4530 -19.4530
   -18.6670 -18.6670 -18.5674 -18.5674 -18.1699 -18.1699 -18.1357 -18.1357
   -17.3341 -17.3341 -17.1889 -17.1889 -17.0414 -17.0414 -16.7762 -16.7762
   -16.3002 -16.3002 -16.2376 -16.2376 -12.8090 -12.8090 -12.7758 -12.7758
   -11.5723 -11.5723 -11.4919 -11.4919 -10.2953 -10.2953 -10.1770 -10.1770
    -8.4960  -8.4960  -8.4265  -8.4265  -7.9480  -7.9480  -7.7801  -7.7801
    -7.5761  -7.5761  -7.4627  -7.4627  -7.0445  -7.0445  -6.7315  -6.7315
    -6.2856  -6.2856  -6.2212  -6.2212  -5.9885  -5.9885  -5.7954  -5.7954
    -5.6064  -5.6064  -5.5125  -5.5125  -5.1915  -5.1915  -5.0849  -5.0849
    -4.8276  -4.8276  -4.7763  -4.7763  -4.5585  -4.5585  -4.4280  -4.4280
    -4.2816  -4.2816  -4.1565  -4.1565  -3.9419  -3.9419  -3.7812  -3.7812
    -3.7500  -3.7500  -3.4709  -3.4709  -3.3780  -3.3780  -3.3002  -3.3002
    -3.1407  -3.1407  -3.1116  -3.1116  -2.8482  -2.8482  -2.7383  -2.7383
    -2.5649  -2.5649  -2.4598  -2.4598  -2.3750  -2.3750  -2.2391  -2.2391
    -2.1673  -2.1673  -2.0703  -2.0703  -1.7884  -1.7884  -1.7018  -1.7018
    -1.4745  -1.4745  -1.4039  -1.4039  -1.1446  -1.1446  -0.8609  -0.8609
    -0.4984  -0.4984  -0.4149  -0.4149   0.0209   0.0209   0.0791   0.0791
     0.4981   0.4981   0.6269   0.6269   0.6860   0.6860   0.7347   0.7347
     0.8796   0.8796   0.9243   0.9243   1.0698   1.0698   1.1379   1.1379
     1.3317   1.3317   1.3761   1.3761   5.9256   5.9256   6.0700   6.0700
     6.1296   6.1296   6.2490   6.2490   6.7516   6.7516   6.8192   6.8192
     7.3788   7.3788   7.8963   7.8963   8.4999   8.4999   8.6878   8.6878
     8.9140   8.9140   9.2160   9.2160   9.4082   9.4082   9.5396   9.5396
     9.6953   9.6953   9.8310

          k =-0.5000 0.7182-0.7616 ( 93288 PWs)   bands (ev):

   -20.4201 -20.4201 -20.3885 -20.3885 -19.4792 -19.4792 -19.4760 -19.4760
   -18.6667 -18.6667 -18.5670 -18.5670 -18.1594 -18.1594 -18.1465 -18.1465
   -17.2867 -17.2867 -17.2865 -17.2865 -16.8846 -16.8846 -16.8828 -16.8828
   -16.2984 -16.2984 -16.2403 -16.2403 -12.8087 -12.8087 -12.7748 -12.7748
   -11.5736 -11.5736 -11.4905 -11.4905 -10.2831 -10.2831 -10.1849 -10.1849
    -8.5004  -8.5004  -8.4288  -8.4288  -7.8572  -7.8572  -7.8335  -7.8335
    -7.6186  -7.6186  -7.4560  -7.4560  -6.9517  -6.9517  -6.9151  -6.9151
    -6.2796  -6.2796  -6.2327  -6.2327  -5.8608  -5.8608  -5.8195  -5.8195
    -5.5707  -5.5707  -5.5307  -5.5307  -5.1527  -5.1527  -5.1364  -5.1364
    -4.7950  -4.7950  -4.7587  -4.7587  -4.6162  -4.6162  -4.4673  -4.4673
    -4.2417  -4.2417  -4.1675  -4.1675  -3.8436  -3.8436  -3.8238  -3.8238
    -3.6105  -3.6105  -3.5854  -3.5854  -3.4191  -3.4191  -3.3484  -3.3484
    -3.1829  -3.1829  -3.1126  -3.1126  -2.8120  -2.8120  -2.7163  -2.7163
    -2.5787  -2.5787  -2.5053  -2.5053  -2.3544  -2.3544  -2.2372  -2.2372
    -2.0549  -2.0549  -2.0377  -2.0377  -1.8311  -1.8311  -1.7998  -1.7998
    -1.4409  -1.4409  -1.4127  -1.4127  -1.1468  -1.1468  -0.8792  -0.8792
    -0.4498  -0.4498  -0.4249  -0.4249   0.0373   0.0373   0.0527   0.0527
     0.5441   0.5441   0.5919   0.5919   0.6773   0.6773   0.6899   0.6899
     0.9199   0.9199   0.9209   0.9209   1.0376   1.0376   1.1601   1.1601
     1.3409   1.3409   1.3752   1.3752   5.9465   5.9465   6.0786   6.0786
     6.1690   6.1690   6.1837   6.1837   6.7567   6.7567   6.8003   6.8003
     7.5715   7.5715   7.6185   7.6185   8.4870   8.4870   8.6169   8.6169
     9.2627   9.2627   9.3433   9.3433   9.4793   9.4793   9.5724   9.5724
     9.7210   9.7210   9.8416

          k =-0.5000-1.4364 0.0000 ( 93364 PWs)   bands (ev):

   -20.4019 -20.4019 -20.3946 -20.3946 -19.5011 -19.5011 -19.4384 -19.4384
   -18.6141 -18.6141 -18.6116 -18.6116 -18.1768 -18.1768 -18.1428 -18.1428
   -17.3896 -17.3896 -17.2063 -17.2063 -17.0328 -17.0328 -16.7432 -16.7432
   -16.2680 -16.2680 -16.2667 -16.2667 -12.8141 -12.8141 -12.7983 -12.7983
   -11.5479 -11.5479 -11.5351 -11.5351 -10.2873 -10.2873 -10.1938 -10.1938
    -8.5098  -8.5098  -8.4361  -8.4361  -7.9289  -7.9289  -7.7823  -7.7823
    -7.5472  -7.5472  -7.4839  -7.4839  -7.1106  -7.1106  -6.7830  -6.7830
    -6.2329  -6.2329  -6.2320  -6.2320  -5.9765  -5.9765  -5.7895  -5.7895
    -5.6180  -5.6180  -5.4713  -5.4713  -5.1944  -5.1944  -5.1899  -5.1899
    -4.7753  -4.7753  -4.7165  -4.7165  -4.4722  -4.4722  -4.4670  -4.4670
    -4.2425  -4.2425  -4.1503  -4.1503  -3.8235  -3.8235  -3.7268  -3.7268
    -3.5649  -3.5649  -3.5359  -3.5359  -3.3040  -3.3040  -3.2986  -3.2986
    -3.1702  -3.1702  -3.1267  -3.1267  -2.8529  -2.8529  -2.8053  -2.8053
    -2.5705  -2.5705  -2.5298  -2.5298  -2.3961  -2.3961  -2.3510  -2.3510
    -2.1141  -2.1141  -2.0697  -2.0697  -1.7209  -1.7209  -1.7137  -1.7137
    -1.4789  -1.4789  -1.4185  -1.4185  -0.9742  -0.9742  -0.9306  -0.9306
    -0.4392  -0.4392  -0.3670  -0.3670   0.0363   0.0363   0.0442   0.0442
     0.5331   0.5331   0.5570   0.5570   0.6841   0.6841   0.7221   0.7221
     0.9076   0.9076   0.9293   0.9293   1.0457   1.0457   1.0832   1.0832
     1.3923   1.3923   1.3980   1.3980   5.9331   5.9331   5.9815   5.9815
     6.0894   6.0894   6.1694   6.1694   6.6475   6.6475   6.6810   6.6810
     7.5834   7.5834   7.8999   7.8999   8.4820   8.4820   8.5281   8.5281
     8.8190   8.8190   9.1260   9.1260   9.2866   9.2866   9.5866   9.5866
     9.6479   9.6479   9.9056

          k =-0.5000-1.4364-0.7616 ( 93392 PWs)   bands (ev):

   -20.3983 -20.3983 -20.3983 -20.3983 -19.4703 -19.4703 -19.4703 -19.4703
   -18.6128 -18.6128 -18.6128 -18.6128 -18.1594 -18.1594 -18.1594 -18.1594
   -17.3269 -17.3269 -17.3269 -17.3269 -16.8593 -16.8593 -16.8593 -16.8593
   -16.2677 -16.2677 -16.2677 -16.2677 -12.8053 -12.8053 -12.8053 -12.8053
   -11.5424 -11.5424 -11.5424 -11.5424 -10.2397 -10.2397 -10.2397 -10.2397
    -8.4689  -8.4689  -8.4689  -8.4689  -7.8313  -7.8313  -7.8313  -7.8313
    -7.5419  -7.5419  -7.5419  -7.5419  -6.9944  -6.9944  -6.9944  -6.9944
    -6.2420  -6.2420  -6.2420  -6.2420  -5.8402  -5.8402  -5.8402  -5.8402
    -5.6096  -5.6096  -5.6096  -5.6096  -5.0650  -5.0650  -5.0650  -5.0650
    -4.7358  -4.7358  -4.7358  -4.7358  -4.4745  -4.4745  -4.4745  -4.4745
    -4.1933  -4.1933  -4.1933  -4.1933  -3.7115  -3.7115  -3.7115  -3.7115
    -3.6490  -3.6490  -3.6490  -3.6490  -3.3687  -3.3687  -3.3687  -3.3687
    -3.1756  -3.1756  -3.1756  -3.1756  -2.8009  -2.8009  -2.8009  -2.8009
    -2.5681  -2.5681  -2.5681  -2.5681  -2.3333  -2.3333  -2.3333  -2.3333
    -2.0004  -2.0004  -2.0004  -2.0004  -1.8145  -1.8145  -1.8145  -1.8145
    -1.4266  -1.4266  -1.4266  -1.4266  -0.9436  -0.9436  -0.9436  -0.9436
    -0.4080  -0.4080  -0.4080  -0.4080   0.0400   0.0400   0.0400   0.0400
     0.5452   0.5452   0.5452   0.5452   0.6948   0.6948   0.6948   0.6948
     0.9527   0.9527   0.9527   0.9527   1.0426   1.0426   1.0426   1.0426
     1.3870   1.3870   1.3870   1.3870   5.9731   5.9731   5.9731   5.9731
     6.1327   6.1327   6.1327   6.1327   6.6366   6.6366   6.6366   6.6366
     7.7764   7.7764   7.7764   7.7764   8.3757   8.3757   8.3757   8.3757
     9.0955   9.0955   9.0955   9.0955   9.5592   9.5592   9.5592   9.5592
     9.8205   9.8205   9.8205

     highest occupied, lowest unoccupied level (ev):     1.4100    5.9120

!    total energy              =   -1623.56722207 Ry
     Harris-Foulkes estimate   =   -1623.56722207 Ry
     estimated scf accuracy    <          6.6E-09 Ry

     total all-electron energy =     -6068.290146 Ry

     The total energy is the sum of the following terms:

     one-electron contribution =    -752.73888310 Ry
     hartree contribution      =     509.56973460 Ry
     xc contribution           =    -337.11271105 Ry
     ewald contribution        =    -600.09856829 Ry
     Dispersion Correction     =      -0.48280321 Ry
     one-center paw contrib.   =    -442.70399102 Ry

     convergence has been achieved in  16 iterations

     Forces acting on atoms (cartesian axes, Ry/au):

     atom    1 type  1   force =    -0.00043095    0.00586592    0.00488777
     atom    2 type  1   force =    -0.00043095   -0.00586592   -0.00488777
     atom    3 type  1   force =     0.00043101    0.00586576   -0.00489609
     atom    4 type  1   force =     0.00043101   -0.00586576    0.00489609
     atom    5 type  1   force =     0.00467347    0.00118316   -0.00033008
     atom    6 type  1   force =     0.00467347   -0.00118316    0.00033008
     atom    7 type  1   force =    -0.00467341    0.00118302    0.00033883
     atom    8 type  1   force =    -0.00467341   -0.00118302   -0.00033883
     atom    9 type  1   force =    -0.00105013    0.01080231    0.00754491
     atom   10 type  1   force =    -0.00105013   -0.01080231   -0.00754491
     atom   11 type  1   force =     0.00105019    0.01080196   -0.00753457
     atom   12 type  1   force =     0.00105019   -0.01080196    0.00753457
     atom   13 type  1   force =    -0.00372544    0.00375289   -0.00070841
     atom   14 type  1   force =    -0.00372544   -0.00375289    0.00070841
     atom   15 type  1   force =     0.00372580    0.00375302    0.00071539
     atom   16 type  1   force =     0.00372580   -0.00375302   -0.00071539
     atom   17 type  1   force =     0.00051150    0.00229718    0.00237696
     atom   18 type  1   force =     0.00051150   -0.00229718   -0.00237696
     atom   19 type  1   force =    -0.00051131    0.00229712   -0.00238858
     atom   20 type  1   force =    -0.00051131   -0.00229712    0.00238858
     atom   21 type  1   force =    -0.01154132   -0.00749341    0.00505408
     atom   22 type  1   force =    -0.01154132    0.00749341   -0.00505408
     atom   23 type  1   force =     0.01154074   -0.00749297   -0.00505144
     atom   24 type  1   force =     0.01154074    0.00749297    0.00505144
     atom   25 type  1   force =     0.00083499    0.00077457    0.00316103
     atom   26 type  1   force =     0.00083499   -0.00077457   -0.00316103
     atom   27 type  1   force =    -0.00083494    0.00077461   -0.00315129
     atom   28 type  1   force =    -0.00083494   -0.00077461    0.00315129
     atom   29 type  3   force =     0.00145253   -0.00282390   -0.00010094
     atom   30 type  3   force =     0.00145253    0.00282390    0.00010094
     atom   31 type  3   force =    -0.00145252   -0.00282391    0.00010106
     atom   32 type  3   force =    -0.00145252    0.00282391   -0.00010106
     atom   33 type  3   force =    -0.00110019    0.00137294   -0.00131891
     atom   34 type  3   force =    -0.00110019   -0.00137294    0.00131891
     atom   35 type  3   force =     0.00110019    0.00137292    0.00131868
     atom   36 type  3   force =     0.00110019   -0.00137292   -0.00131868
     atom   37 type  3   force =    -0.00032467   -0.00005529    0.00039269
     atom   38 type  3   force =    -0.00032467    0.00005529   -0.00039269
     atom   39 type  3   force =     0.00032468   -0.00005531   -0.00039275
     atom   40 type  3   force =     0.00032468    0.00005531    0.00039275
     atom   41 type  3   force =    -0.00194790    0.00249720   -0.00173705
     atom   42 type  3   force =    -0.00194790   -0.00249720    0.00173705
     atom   43 type  3   force =     0.00194792    0.00249732    0.00173713
     atom   44 type  3   force =     0.00194792   -0.00249732   -0.00173713
     atom   45 type  3   force =    -0.00030623   -0.00116842   -0.00044392
     atom   46 type  3   force =    -0.00030623    0.00116842    0.00044392
     atom   47 type  3   force =     0.00030618   -0.00116842    0.00044388
     atom   48 type  3   force =     0.00030618    0.00116842   -0.00044388
     atom   49 type  3   force =     0.00017359   -0.00810540   -0.00406619
     atom   50 type  3   force =     0.00017359    0.00810540    0.00406619
     atom   51 type  3   force =    -0.00017365   -0.00810555    0.00406617
     atom   52 type  3   force =    -0.00017365    0.00810555   -0.00406617
     atom   53 type  3   force =    -0.00010750    0.00120161   -0.00107617
     atom   54 type  3   force =    -0.00010750   -0.00120161    0.00107617
     atom   55 type  3   force =     0.00010729    0.00120138    0.00107622
     atom   56 type  3   force =     0.00010729   -0.00120138   -0.00107622
     atom   57 type  3   force =    -0.00092369    0.00027639   -0.00062913
     atom   58 type  3   force =    -0.00092369   -0.00027639    0.00062913
     atom   59 type  3   force =     0.00092370    0.00027648    0.00062927
     atom   60 type  3   force =     0.00092370   -0.00027648   -0.00062927
     atom   61 type  3   force =     0.00232314   -0.00446767   -0.00132735
     atom   62 type  3   force =     0.00232314    0.00446767    0.00132735
     atom   63 type  3   force =    -0.00232334   -0.00446782    0.00132744
     atom   64 type  3   force =    -0.00232334    0.00446782   -0.00132744
     atom   65 type  3   force =     0.00071353   -0.00006529    0.00116751
     atom   66 type  3   force =     0.00071353    0.00006529   -0.00116751
     atom   67 type  3   force =    -0.00071356   -0.00006528   -0.00116749
     atom   68 type  3   force =    -0.00071356    0.00006528    0.00116749
     atom   69 type  2   force =    -0.00564878    0.00011851   -0.00876883
     atom   70 type  2   force =    -0.00564878   -0.00011851    0.00876883
     atom   71 type  2   force =     0.00564887    0.00011845    0.00876874
     atom   72 type  2   force =     0.00564887   -0.00011845   -0.00876874
     atom   73 type  2   force =     0.00941714    0.00319881    0.00212950
     atom   74 type  2   force =     0.00941714   -0.00319881   -0.00212950
     atom   75 type  2   force =    -0.00941728    0.00319880   -0.00212967
     atom   76 type  2   force =    -0.00941728   -0.00319880    0.00212967
     atom   77 type  4   force =     0.00295205   -0.00357240    0.00620146
     atom   78 type  4   force =     0.00295205    0.00357240   -0.00620146
     atom   79 type  4   force =    -0.00295201   -0.00357206   -0.00620132
     atom   80 type  4   force =    -0.00295201    0.00357206    0.00620132
     atom   81 type  4   force =     0.00008861   -0.00252021   -0.00138010
     atom   82 type  4   force =     0.00008861    0.00252021    0.00138010
     atom   83 type  4   force =    -0.00008818   -0.00252082    0.00138090
     atom   84 type  4   force =    -0.00008818    0.00252082   -0.00138090
     atom   85 type  4   force =     0.00412558    0.00238973   -0.00764796
     atom   86 type  4   force =     0.00412558   -0.00238973    0.00764796
     atom   87 type  4   force =    -0.00412570    0.00238937    0.00764765
     atom   88 type  4   force =    -0.00412570   -0.00238937   -0.00764765
     atom   89 type  4   force =     0.00641240    0.00108153   -0.00637377
     atom   90 type  4   force =     0.00641240   -0.00108153    0.00637377
     atom   91 type  4   force =    -0.00641237    0.00108138    0.00637370
     atom   92 type  4   force =    -0.00641237   -0.00108138   -0.00637370
     atom   93 type  4   force =    -0.00661586   -0.00086734    0.00193460
     atom   94 type  4   force =    -0.00661586    0.00086734   -0.00193460
     atom   95 type  4   force =     0.00661582   -0.00086690   -0.00193414
     atom   96 type  4   force =     0.00661582    0.00086690    0.00193414

     Total force =     0.068126     Total SCF correction =     0.000161


     Computing stress (Cartesian axis) and pressure

          total   stress  (Ry/bohr**3)                   (kbar)     P=   -3.59
   0.00001905   0.00000000   0.00000000          2.80      0.00      0.00
   0.00000000  -0.00007670   0.00000000          0.00    -11.28      0.00
   0.00000000   0.00000000  -0.00001556          0.00      0.00     -2.29


     Writing output data file scf.save
 
     init_run     :     55.34s CPU     58.79s WALL (       1 calls)
     electrons    :   2224.11s CPU   2362.71s WALL (       1 calls)
     forces       :     24.88s CPU     25.10s WALL (       1 calls)
     stress       :    115.86s CPU    116.29s WALL (       1 calls)

     Called by init_run:
     wfcinit      :     50.19s CPU     53.34s WALL (       1 calls)
     potinit      :      1.85s CPU      1.99s WALL (       1 calls)

     Called by electrons:
     c_bands      :   2019.09s CPU   2137.25s WALL (      16 calls)
     sum_band     :    192.85s CPU    211.86s WALL (      16 calls)
     v_of_rho     :      1.84s CPU      2.19s WALL (      17 calls)
     newd         :      3.51s CPU      4.54s WALL (      17 calls)
     PAW_pot      :      6.23s CPU      6.25s WALL (      17 calls)
     mix_rho      :      0.37s CPU      0.42s WALL (      16 calls)

     Called by c_bands:
     init_us_2    :      9.69s CPU      9.72s WALL (     420 calls)
     cegterg      :   1980.44s CPU   2098.48s WALL (     192 calls)

     Called by sum_band:
     sum_band:bec :      0.14s CPU      0.14s WALL (     192 calls)
     addusdens    :      3.44s CPU      4.40s WALL (      16 calls)

     Called by *egterg:
     h_psi        :   1064.49s CPU   1168.25s WALL (     899 calls)
     s_psi        :    231.58s CPU    231.61s WALL (     899 calls)
     g_psi        :      5.03s CPU      5.03s WALL (     695 calls)
     cdiaghg      :    137.75s CPU    137.77s WALL (     887 calls)

     Called by h_psi:
     h_psi:pot    :   1057.56s CPU   1161.20s WALL (     899 calls)
     h_psi:calbec :    223.09s CPU    223.54s WALL (     899 calls)
     vloc_psi     :    602.92s CPU    706.07s WALL (     899 calls)
     add_vuspsi   :    231.55s CPU    231.59s WALL (     899 calls)

     General routines
     calbec       :    321.54s CPU    322.19s WALL (    1151 calls)
     fft          :      1.00s CPU      1.59s WALL (     245 calls)
     fftw         :    644.75s CPU    765.38s WALL (  245658 calls)
 
     Parallel routines
     fft_scatter  :    149.72s CPU    267.02s WALL (  245903 calls)
 
     PWSCF        : 40m35.02s CPU    44m 3.86s WALL

 
   This run was terminated on:   6:16:43   4Nov2017            

=------------------------------------------------------------------------------=
   JOB DONE.
=------------------------------------------------------------------------------=
