
     Program PWSCF v.6.1 (svn rev. 13369) starts on  3Nov2017 at 21:36:25 

     This program is part of the open-source Quantum ESPRESSO suite
     for quantum simulation of materials; please cite
         "P. Giannozzi et al., J. Phys.:Condens. Matter 21 395502 (2009);
          URL http://www.quantum-espresso.org", 
     in publications or presentations arising from this work. More details at
     http://www.quantum-espresso.org/quote

     Parallel version (MPI), running on     8 processors
     R & G space division:  proc/nbgrp/npool/nimage =       8
     Waiting for input...
     Reading input from standard input

     Current dimensions of program PWSCF are:
     Max number of different atomic species (ntypx) = 10
     Max number of k-points (npk) =  40000
     Max angular momentum in pseudopotentials (lmaxx) =  3
               file C.pbe-n-kjpaw_psl.0.1.UPF: wavefunction(s)  2P renormalized
               file N.pbe-n-kjpaw_psl.0.1.UPF: wavefunction(s)  2P renormalized
               file H.pbe-kjpaw_psl.0.1.UPF: wavefunction(s)  1S renormalized
               file O.pbe-n-kjpaw_psl.0.1.UPF: wavefunction(s)  2P renormalized

     -------------------------------------
     Parameters for Dispersion Correction:
     -------------------------------------
       atom      VdW radius       C_6     

        C          2.744         60.710
        N          2.640         42.670
        H          1.892          4.857
        O          2.536         24.284

     Subspace diagonalization in iterative solution of the eigenvalue problem:
     a serial algorithm will be used

 
     Parallelization info
     --------------------
     sticks:   dense  smooth     PW     G-vecs:    dense   smooth      PW
     Min         817     817    216                82664    82664   11312
     Max         818     818    217                82666    82666   11319
     Sum        6543    6543   1733               661321   661321   90529
 


     bravais-lattice index     =            0
     lattice parameter (alat)  =      16.3278  a.u.
     unit-cell volume          =    4895.7124 (a.u.)^3
     number of atoms/cell      =           80
     number of atomic types    =            4
     number of electrons       =       256.00
     number of Kohn-Sham states=          153
     kinetic-energy cutoff     =     100.0000  Ry
     charge density cutoff     =     400.0000  Ry
     convergence threshold     =      1.0E-08
     mixing beta               =       0.5000
     number of iterations used =            8  plain     mixing
     Exchange-correlation      =  SLA  PW   PBX  PBC ( 1  4  3  4 0 0)

     celldm(1)=  16.327801  celldm(2)=   0.000000  celldm(3)=   0.000000
     celldm(4)=   0.000000  celldm(5)=   0.000000  celldm(6)=   0.000000

     crystal axes: (cart. coord. in units of alat)
               a(1) = (   1.000000   0.000000   0.000000 )  
               a(2) = (   0.000000   0.771397   0.000000 )  
               a(3) = (  -0.317760   0.000000   1.457991 )  

     reciprocal axes: (cart. coord. in units 2 pi/alat)
               b(1) = (  1.000000  0.000000  0.217944 )  
               b(2) = (  0.000000  1.296350  0.000000 )  
               b(3) = (  0.000000  0.000000  0.685875 )  


     PseudoPot. # 1 for  C read from file:
     /scratch/ahofstet/pseudo/C.pbe-n-kjpaw_psl.0.1.UPF
     MD5 check sum: 430fe95172b1e11ef3f8ed03bac87931
     Pseudo is Projector augmented-wave + core cor, Zval =  4.0
     Generated using "atomic" code by A. Dal Corso  v.5.0.99 svn rev. 10869
     Shape of augmentation charge: BESSEL
     Using radial grid of 1073 points,  4 beta functions with: 
                l(1) =   0
                l(2) =   0
                l(3) =   1
                l(4) =   1
     Q(r) pseudized with 0 coefficients 


     PseudoPot. # 2 for  N read from file:
     /scratch/ahofstet/pseudo/N.pbe-n-kjpaw_psl.0.1.UPF
     MD5 check sum: f73187c8b701007e77325f868c9291d7
     Pseudo is Projector augmented-wave + core cor, Zval =  5.0
     Generated using "atomic" code by A. Dal Corso  v.5.0.99 svn rev. 10869
     Shape of augmentation charge: PSQ
     Using radial grid of 1085 points,  4 beta functions with: 
                l(1) =   0
                l(2) =   0
                l(3) =   1
                l(4) =   1
     Q(r) pseudized with 0 coefficients 


     PseudoPot. # 3 for  H read from file:
     /scratch/ahofstet/pseudo/H.pbe-kjpaw_psl.0.1.UPF
     MD5 check sum: 94e484f906d9e9773b2f6e52662335b2
     Pseudo is Projector augmented-wave, Zval =  1.0
     Generated using "atomic" code by A. Dal Corso  v.5.0.99 svn rev. 10869
     Shape of augmentation charge: PSQ
     Using radial grid of  929 points,  2 beta functions with: 
                l(1) =   0
                l(2) =   0
     Q(r) pseudized with 0 coefficients 


     PseudoPot. # 4 for  O read from file:
     /scratch/ahofstet/pseudo/O.pbe-n-kjpaw_psl.0.1.UPF
     MD5 check sum: 3f94a2996a3169367d6eb21d9b593f20
     Pseudo is Projector augmented-wave + core cor, Zval =  6.0
     Generated using "atomic" code by A. Dal Corso  v.5.0.99 svn rev. 10869
     Shape of augmentation charge: BESSEL
     Using radial grid of 1095 points,  4 beta functions with: 
                l(1) =   0
                l(2) =   0
                l(3) =   1
                l(4) =   1
     Q(r) pseudized with 0 coefficients 


     atomic species   valence    mass     pseudopotential
        C              4.00    12.01070      C( 1.00)
        N              5.00    14.00670      N( 1.00)
        H              1.00     1.00794      H( 1.00)
        O              6.00    15.99940      O( 1.00)

      2 Sym. Ops., with inversion, found



   Cartesian axes

     site n.     atom                  positions (alat units)
         1           O   tau(   1) = (   0.4330134   0.4572905   0.2442971  )
         2           O   tau(   2) = (   0.4081060   0.0715918   0.4846988  )
         3           O   tau(   3) = (   0.2492263   0.3141063   1.2136943  )
         4           O   tau(   4) = (   0.2741337   0.6998050   0.9732926  )
         5           N   tau(   5) = (   0.3235756   0.0862868   0.0555601  )
         6           N   tau(   6) = (   0.5175420   0.4719841   0.6734350  )
         7           N   tau(   7) = (   0.3586641   0.6851101   1.4024313  )
         8           N   tau(   8) = (   0.1646978   0.2994127   0.7845565  )
         9           N   tau(   9) = (   0.0338098   0.1247491   1.3847539  )
        10           N   tau(  10) = (   0.4895481   0.5104442   0.8022330  )
        11           N   tau(  11) = (   0.6484300   0.6466477   0.0732376  )
        12           N   tau(  12) = (   0.1926916   0.2609526   0.6557585  )
        13           N   tau(  13) = (   0.2940864   0.0453276   0.1824792  )
        14           N   tau(  14) = (   0.5470326   0.4310293   0.5465169  )
        15           N   tau(  15) = (   0.3881533   0.7260692   1.2755123  )
        16           N   tau(  16) = (   0.1352071   0.3403675   0.9114746  )
        17           O   tau(  17) = (   0.9082453   0.1430015   0.1804762  )
        18           O   tau(  18) = (  -0.0671156   0.5287130   0.5485401  )
        19           O   tau(  19) = (  -0.2260055   0.6283953   1.2775152  )
        20           O   tau(  20) = (   0.7493553   0.2426838   0.9094513  )
        21           N   tau(  21) = (   0.8504594   0.4048942   0.1774456  )
        22           N   tau(  22) = (  -0.0093356   0.0192000   0.5515716  )
        23           N   tau(  23) = (  -0.1682197   0.3665026   1.2805459  )
        24           N   tau(  24) = (   0.6915754   0.7521968   0.9064198  )
        25           N   tau(  25) = (   0.1168982   0.3693578   0.2202508  )
        26           N   tau(  26) = (   0.7242170   0.7550698   0.5087652  )
        27           N   tau(  27) = (   0.5653415   0.4020390   1.2377407  )
        28           N   tau(  28) = (  -0.0419773   0.0163270   0.9492262  )
        29           N   tau(  29) = (   0.6564830   0.2217593   0.1651079  )
        30           N   tau(  30) = (   0.1846478   0.6074574   0.5638970  )
        31           N   tau(  31) = (   0.0257567   0.5496375   1.2928836  )
        32           N   tau(  32) = (   0.4975919   0.1639394   0.8940945  )
        33           N   tau(  33) = (   0.0130162   0.6151414   0.1913990  )
        34           N   tau(  34) = (   0.8281002   0.2294519   0.5376177  )
        35           N   tau(  35) = (   0.6692235   0.1562554   1.2665924  )
        36           N   tau(  36) = (  -0.1458605   0.5419449   0.9203737  )
        37           C   tau(  37) = (   0.8095285   0.2476851   0.1755408  )
        38           C   tau(  38) = (   0.0315653   0.6333724   0.5534694  )
        39           C   tau(  39) = (  -0.1272888   0.5237117   1.2824507  )
        40           C   tau(  40) = (   0.6506744   0.1380244   0.9045220  )
        41           C   tau(  41) = (  -0.0032576   0.4623794   0.1967368  )
        42           C   tau(  42) = (   0.8443777   0.0766727   0.5322838  )
        43           C   tau(  43) = (   0.6854974   0.3090174   1.2612547  )
        44           C   tau(  44) = (  -0.1621380   0.6947242   0.9257076  )
        45           H   tau(  45) = (   0.5744475   0.3068310   0.1822792  )
        46           H   tau(  46) = (   0.2666687   0.6925272   0.5467222  )
        47           H   tau(  47) = (   0.1077923   0.4645659   1.2757122  )
        48           H   tau(  48) = (   0.4155711   0.0788697   0.9112692  )
        49           H   tau(  49) = (   0.9223026   0.6903045   0.1772631  )
        50           H   tau(  50) = (  -0.0811797   0.3046100   0.5517443  )
        51           H   tau(  51) = (  -0.2400629   0.0810923   1.2807284  )
        52           H   tau(  52) = (   0.7634194   0.4667868   0.9062471  )
        53           H   tau(  53) = (   0.7671969   0.4870781   0.1472985  )
        54           H   tau(  54) = (   0.0739230   0.1013791   0.5817164  )
        55           H   tau(  55) = (  -0.0849571   0.2843187   1.3106930  )
        56           H   tau(  56) = (   0.6083168   0.6700177   0.8762750  )
        57           H   tau(  57) = (   0.0969001   0.2529401   0.2143274  )
        58           H   tau(  58) = (   0.7442204   0.6386371   0.5146801  )
        59           H   tau(  59) = (   0.5853396   0.5184567   1.2436640  )
        60           H   tau(  60) = (  -0.0619806   0.1327597   0.9433114  )
        61           H   tau(  61) = (   0.1205126   0.6660846   0.1952892  )
        62           H   tau(  62) = (   0.7206119   0.2803872   0.5337237  )
        63           H   tau(  63) = (   0.5617271   0.1053122   1.2627023  )
        64           H   tau(  64) = (  -0.0383721   0.4910096   0.9242677  )
        65           H   tau(  65) = (   0.6234219   0.1084357   0.1606564  )
        66           H   tau(  66) = (   0.2176949   0.4941357   0.5683537  )
        67           H   tau(  67) = (   0.0588179   0.6629611   1.2973351  )
        68           H   tau(  68) = (   0.4645448   0.2772612   0.8896377  )
        69           H   tau(  69) = (   0.4689414   0.4643491   0.3532111  )
        70           H   tau(  70) = (   0.3721790   0.0786494   0.3757829  )
        71           H   tau(  71) = (   0.2132983   0.3070477   1.1047803  )
        72           H   tau(  72) = (   0.3100607   0.6927474   1.0822086  )
        73           H   tau(  73) = (   0.2278915   0.4127298   0.2304592  )
        74           H   tau(  74) = (   0.6132327   0.0270340   0.4985505  )
        75           H   tau(  75) = (   0.4543483   0.3586671   1.2275323  )
        76           H   tau(  76) = (   0.0690071   0.7443628   0.9594410  )
        77           H   tau(  77) = (   0.4784154   0.5457817   0.1889116  )
        78           H   tau(  78) = (   0.3627029   0.1600835   0.5400814  )
        79           H   tau(  79) = (   0.2038243   0.2256151   1.2690798  )
        80           H   tau(  80) = (   0.3195368   0.6113133   0.9179100  )

     number of k points=     8
                       cart. coord. in units 2pi/alat
        k(    1) = (   0.0000000   0.0000000   0.0000000), wk =   0.1666667
        k(    2) = (   0.0000000   0.0000000  -0.3429375), wk =   0.1666667
        k(    3) = (   0.0000000   0.4321165   0.0000000), wk =   0.3333333
        k(    4) = (   0.0000000   0.4321165  -0.3429375), wk =   0.3333333
        k(    5) = (  -0.5000000   0.0000000  -0.1089719), wk =   0.1666667
        k(    6) = (  -0.5000000   0.0000000  -0.4519095), wk =   0.1666667
        k(    7) = (  -0.5000000   0.4321165  -0.1089719), wk =   0.3333333
        k(    8) = (  -0.5000000   0.4321165  -0.4519095), wk =   0.3333333

     Dense  grid:   661321 G-vectors     FFT dimensions: ( 108,  81, 160)

     Estimated max dynamical RAM per process >     538.32MB

     Estimated total allocated dynamical RAM >    4306.59MB

     Check: negative/imaginary core charge=   -0.000002    0.000000

     Initial potential from superposition of free atoms

     starting charge  255.99911, renormalised to  256.00000
     Starting wfc are  212 randomized atomic wfcs
     Checking if some PAW data can be deallocated... 

     total cpu time spent up to now is       28.9 secs

     per-process dynamical memory:   411.3 Mb

     Self-consistent Calculation

     iteration #  1     ecut=   100.00 Ry     beta=0.50
     Davidson diagonalization with overlap
     ethr =  1.00E-02,  avg # of iterations =  3.0

     total cpu time spent up to now is       89.3 secs

     total energy              =   -1312.21565457 Ry
     Harris-Foulkes estimate   =   -1317.07705831 Ry
     estimated scf accuracy    <       8.72448031 Ry

     iteration #  2     ecut=   100.00 Ry     beta=0.50
     Davidson diagonalization with overlap
     ethr =  3.41E-03,  avg # of iterations =  3.0

     total cpu time spent up to now is      137.9 secs

     total energy              =   -1314.11660653 Ry
     Harris-Foulkes estimate   =   -1314.59274179 Ry
     estimated scf accuracy    <       1.05596519 Ry

     iteration #  3     ecut=   100.00 Ry     beta=0.50
     Davidson diagonalization with overlap
     ethr =  4.12E-04,  avg # of iterations =  4.9

     total cpu time spent up to now is      187.0 secs

     total energy              =   -1314.32296159 Ry
     Harris-Foulkes estimate   =   -1314.37479485 Ry
     estimated scf accuracy    <       0.16998249 Ry

     iteration #  4     ecut=   100.00 Ry     beta=0.50
     Davidson diagonalization with overlap
     ethr =  6.64E-05,  avg # of iterations = 10.0

     total cpu time spent up to now is      243.8 secs

     total energy              =   -1314.33675600 Ry
     Harris-Foulkes estimate   =   -1314.35886509 Ry
     estimated scf accuracy    <       0.05892951 Ry

     iteration #  5     ecut=   100.00 Ry     beta=0.50
     Davidson diagonalization with overlap
     ethr =  2.30E-05,  avg # of iterations =  4.2

     total cpu time spent up to now is      288.0 secs

     total energy              =   -1314.34461552 Ry
     Harris-Foulkes estimate   =   -1314.35732847 Ry
     estimated scf accuracy    <       0.03892250 Ry

     iteration #  6     ecut=   100.00 Ry     beta=0.50
     Davidson diagonalization with overlap
     ethr =  1.52E-05,  avg # of iterations =  3.0

     total cpu time spent up to now is      327.0 secs

     total energy              =   -1314.35112454 Ry
     Harris-Foulkes estimate   =   -1314.35190803 Ry
     estimated scf accuracy    <       0.00211149 Ry

     iteration #  7     ecut=   100.00 Ry     beta=0.50
     Davidson diagonalization with overlap
     ethr =  8.25E-07,  avg # of iterations = 10.4

     total cpu time spent up to now is      399.1 secs

     total energy              =   -1314.35190078 Ry
     Harris-Foulkes estimate   =   -1314.35198730 Ry
     estimated scf accuracy    <       0.00026226 Ry

     iteration #  8     ecut=   100.00 Ry     beta=0.50
     Davidson diagonalization with overlap
     ethr =  1.02E-07,  avg # of iterations =  2.2

     total cpu time spent up to now is      437.8 secs

     total energy              =   -1314.35193349 Ry
     Harris-Foulkes estimate   =   -1314.35193221 Ry
     estimated scf accuracy    <       0.00003230 Ry

     iteration #  9     ecut=   100.00 Ry     beta=0.50
     Davidson diagonalization with overlap
     ethr =  1.26E-08,  avg # of iterations =  3.0

     total cpu time spent up to now is      494.1 secs

     total energy              =   -1314.35194396 Ry
     Harris-Foulkes estimate   =   -1314.35195226 Ry
     estimated scf accuracy    <       0.00002464 Ry

     iteration # 10     ecut=   100.00 Ry     beta=0.50
     Davidson diagonalization with overlap
     ethr =  9.63E-09,  avg # of iterations =  3.0

     total cpu time spent up to now is      532.8 secs

     total energy              =   -1314.35194586 Ry
     Harris-Foulkes estimate   =   -1314.35194785 Ry
     estimated scf accuracy    <       0.00000524 Ry

     iteration # 11     ecut=   100.00 Ry     beta=0.50
     Davidson diagonalization with overlap
     ethr =  2.05E-09,  avg # of iterations =  3.0

     total cpu time spent up to now is      584.2 secs

     total energy              =   -1314.35194738 Ry
     Harris-Foulkes estimate   =   -1314.35194755 Ry
     estimated scf accuracy    <       0.00000065 Ry

     iteration # 12     ecut=   100.00 Ry     beta=0.50
     Davidson diagonalization with overlap
     ethr =  2.54E-10,  avg # of iterations =  2.0

     total cpu time spent up to now is      622.6 secs

     total energy              =   -1314.35194745 Ry
     Harris-Foulkes estimate   =   -1314.35194747 Ry
     estimated scf accuracy    <       0.00000008 Ry

     iteration # 13     ecut=   100.00 Ry     beta=0.50
     Davidson diagonalization with overlap
     ethr =  3.14E-11,  avg # of iterations =  3.2

     total cpu time spent up to now is      681.9 secs

     total energy              =   -1314.35194748 Ry
     Harris-Foulkes estimate   =   -1314.35194750 Ry
     estimated scf accuracy    <       0.00000004 Ry

     iteration # 14     ecut=   100.00 Ry     beta=0.50
     Davidson diagonalization with overlap
     ethr =  1.47E-11,  avg # of iterations =  1.0

     total cpu time spent up to now is      716.8 secs

     End of self-consistent calculation

          k = 0.0000 0.0000 0.0000 ( 82591 PWs)   bands (ev):

   -20.8628 -20.8591 -20.8188 -20.8180 -20.1678 -20.1423 -20.1089 -20.0844
   -18.6403 -18.6358 -18.5927 -18.5862 -18.4713 -18.4713 -18.4571 -18.4468
   -16.6970 -16.6788 -16.6600 -16.6343 -16.5661 -16.5478 -16.4981 -16.4918
   -15.6874 -15.6805 -15.6568 -15.6519 -15.5545 -15.5415 -15.5279 -15.5125
   -10.3513 -10.3446 -10.3361 -10.3277  -8.9106  -8.8951  -8.8450  -8.8264
    -8.0807  -8.0731  -8.0618  -8.0589  -7.2461  -7.2147  -7.2069  -7.1980
    -6.8752  -6.7807  -6.6717  -6.6087  -6.4988  -6.4275  -6.4218  -6.3789
    -6.3762  -6.3720  -6.3150  -6.3146  -5.6442  -5.6438  -5.6264  -5.4995
    -5.4738  -5.4633  -5.4525  -5.3116  -5.3008  -4.9838  -4.9636  -4.9535
    -4.9523  -4.9103  -4.8951  -4.8515  -4.8218  -4.7760  -4.5426  -4.5356
    -4.3941  -4.2246  -4.1570  -4.1503  -3.9821  -3.9608  -3.8611  -3.8199
    -3.8095  -3.6329  -3.5444  -3.3606  -3.1665  -2.9458  -2.9389  -2.8667
    -2.6034  -2.4801  -2.4160  -2.3183  -1.0500  -1.0337  -0.9550  -0.9212
    -0.6395  -0.5856  -0.5226  -0.4129  -0.2033  -0.1796  -0.1552  -0.0896
    -0.0570  -0.0224   0.0207   0.0223   0.1421   0.1441   0.1777   0.2108
     0.7083   0.7716   0.8801   0.8925   0.9031   0.9479   1.0076   1.0357
     5.3396   5.3596   5.5887   5.6578   5.8018   6.1551   6.2126   6.2168
     6.2442   6.2899   6.3091   6.3473   6.4370   6.5471   6.6068   6.8935
     7.2521   7.7934   7.8860   8.4957   8.5353   8.7248   8.7581   8.8472
     9.0656

          k = 0.0000 0.0000-0.3429 ( 82630 PWs)   bands (ev):

   -20.8610 -20.8610 -20.8184 -20.8184 -20.1583 -20.1570 -20.0948 -20.0934
   -18.6382 -18.6381 -18.5894 -18.5893 -18.4716 -18.4716 -18.4518 -18.4517
   -16.6908 -16.6908 -16.6444 -16.6444 -16.5569 -16.5569 -16.4949 -16.4948
   -15.6844 -15.6843 -15.6540 -15.6540 -15.5501 -15.5495 -15.5186 -15.5181
   -10.3489 -10.3487 -10.3312 -10.3310  -8.9039  -8.9038  -8.8347  -8.8346
    -8.0771  -8.0768  -8.0603  -8.0602  -7.2310  -7.2302  -7.2014  -7.2007
    -6.7898  -6.7897  -6.7112  -6.7111  -6.4446  -6.4442  -6.4092  -6.4088
    -6.3584  -6.3583  -6.3192  -6.3189  -5.6444  -5.6443  -5.5631  -5.5631
    -5.4554  -5.4552  -5.3332  -5.3331  -5.2686  -5.2682  -4.9467  -4.9466
    -4.9074  -4.9070  -4.8686  -4.8684  -4.6908  -4.6907  -4.5174  -4.5173
    -4.4043  -4.4043  -4.2352  -4.2348  -3.9694  -3.9675  -3.8195  -3.8180
    -3.7549  -3.7547  -3.2298  -3.2298  -3.1199  -3.1198  -3.0219  -3.0217
    -2.4800  -2.4799  -2.3796  -2.3795  -1.0432  -1.0432  -0.9360  -0.9360
    -0.6029  -0.6020  -0.4847  -0.4842  -0.1982  -0.1974  -0.1218  -0.1208
    -0.0407  -0.0403   0.0729   0.0730   0.1045   0.1046   0.1907   0.1909
     0.7411   0.7413   0.8888   0.8889   0.9221   0.9223   1.0197   1.0198
     5.3463   5.3463   5.6226   5.6226   6.0258   6.0261   6.1662   6.1662
     6.2393   6.2394   6.3811   6.3811   6.5549   6.5550   6.6529   6.6531
     7.3754   7.3754   8.4404   8.4405   8.5967   8.5970   8.8048   8.8048
     9.1180

          k = 0.0000 0.4321 0.0000 ( 82676 PWs)   bands (ev):

   -20.8588 -20.8570 -20.8185 -20.8180 -20.1395 -20.1128 -20.1087 -20.0828
   -18.6760 -18.6696 -18.6508 -18.6401 -18.4745 -18.4698 -18.4647 -18.4558
   -16.6439 -16.6342 -16.6263 -16.6130 -16.5674 -16.5545 -16.5226 -16.5220
   -15.6443 -15.6416 -15.6308 -15.6284 -15.5457 -15.5332 -15.5327 -15.5205
   -10.4279 -10.4202 -10.4199 -10.4124  -8.7419  -8.7397  -8.6748  -8.6744
    -8.1518  -8.1465  -8.1321  -8.1180  -7.3238  -7.3111  -7.3032  -7.2990
    -6.8355  -6.8029  -6.6510  -6.6216  -6.5597  -6.5367  -6.5322  -6.5197
    -6.2776  -6.2451  -6.2432  -6.2043  -5.7196  -5.6720  -5.6089  -5.6065
    -5.4982  -5.4736  -5.3046  -5.2691  -5.2545  -5.0204  -4.9932  -4.9902
    -4.8808  -4.8508  -4.8230  -4.7895  -4.7457  -4.7063  -4.7056  -4.5575
    -4.4784  -4.4127  -4.1178  -4.1034  -3.9169  -3.8985  -3.8199  -3.7636
    -3.6334  -3.4946  -3.4358  -3.4061  -3.3490  -3.0816  -2.9173  -2.8997
    -2.5783  -2.5108  -2.3608  -2.3184  -1.0474  -1.0352  -0.9939  -0.9808
    -0.6585  -0.5941  -0.4348  -0.3206  -0.2078  -0.1861  -0.1218  -0.1010
    -0.0724  -0.0437   0.0264   0.0368   0.0956   0.1223   0.2183   0.2886
     0.7602   0.7735   0.8376   0.8630   0.8952   0.9265   1.0027   1.0270
     5.2179   5.3086   5.3298   5.4402   5.8394   5.9972   6.1580   6.1852
     6.2268   6.2672   6.3509   6.4073   6.8707   6.9372   6.9421   7.1929
     7.3399   8.0004   8.0782   8.0882   8.4721   8.6226   8.7362   8.7530
     9.0598

          k = 0.0000 0.4321-0.3429 ( 82692 PWs)   bands (ev):

   -20.8579 -20.8579 -20.8183 -20.8183 -20.1322 -20.1299 -20.0921 -20.0897
   -18.6734 -18.6731 -18.6451 -18.6449 -18.4727 -18.4725 -18.4599 -18.4598
   -16.6410 -16.6409 -16.6179 -16.6178 -16.5607 -16.5607 -16.5224 -16.5223
   -15.6432 -15.6431 -15.6295 -15.6294 -15.5423 -15.5415 -15.5245 -15.5238
   -10.4257 -10.4254 -10.4148 -10.4144  -8.7409  -8.7408  -8.6746  -8.6745
    -8.1501  -8.1499  -8.1242  -8.1240  -7.3171  -7.3165  -7.3015  -7.3010
    -6.7672  -6.7670  -6.7066  -6.7063  -6.5598  -6.5594  -6.5171  -6.5167
    -6.2597  -6.2593  -6.2161  -6.2157  -5.6857  -5.6854  -5.6102  -5.6101
    -5.4891  -5.4888  -5.2647  -5.2646  -5.1603  -5.1602  -4.9897  -4.9896
    -4.8506  -4.8505  -4.7731  -4.7729  -4.7050  -4.7049  -4.6499  -4.6496
    -4.4718  -4.4715  -4.2458  -4.2457  -3.8678  -3.8661  -3.7767  -3.7750
    -3.5630  -3.5625  -3.2225  -3.2224  -3.1795  -3.1792  -3.1401  -3.1401
    -2.4422  -2.4422  -2.3892  -2.3891  -1.0418  -1.0418  -0.9877  -0.9877
    -0.6295  -0.6285  -0.3698  -0.3689  -0.1724  -0.1716  -0.1452  -0.1444
    -0.0431  -0.0422   0.0083   0.0089   0.1199   0.1202   0.2523   0.2528
     0.7691   0.7692   0.8661   0.8663   0.8919   0.8920   1.0140   1.0141
     5.2507   5.2507   5.3857   5.3857   6.0247   6.0250   6.1199   6.1202
     6.2052   6.2054   6.3849   6.3851   6.9050   6.9051   7.0555   7.0555
     7.5327   7.5328   8.1932   8.1935   8.5767   8.5769   8.8115   8.8117
     9.0051

          k =-0.5000 0.0000-0.1090 ( 82652 PWs)   bands (ev):

   -20.8593 -20.8564 -20.8219 -20.8206 -20.1688 -20.1403 -20.1098 -20.0829
   -18.6478 -18.6429 -18.5862 -18.5851 -18.4836 -18.4747 -18.4545 -18.4438
   -16.6818 -16.6778 -16.6460 -16.6171 -16.5548 -16.5477 -16.5043 -16.4946
   -15.6862 -15.6804 -15.6570 -15.6558 -15.5626 -15.5543 -15.5334 -15.5216
   -10.3504 -10.3396 -10.3311 -10.3182  -8.9343  -8.9056  -8.8544  -8.8256
    -8.1048  -8.0967  -8.0952  -8.0836  -7.2810  -7.2613  -7.2195  -7.2101
    -6.7951  -6.7225  -6.5787  -6.5558  -6.4988  -6.4888  -6.4298  -6.4213
    -6.3599  -6.3499  -6.3121  -6.2592  -5.6191  -5.5571  -5.5307  -5.5299
    -5.4732  -5.4142  -5.3616  -5.1816  -5.1738  -5.0976  -5.0909  -4.9734
    -4.9498  -4.8772  -4.8644  -4.8311  -4.7621  -4.7582  -4.7189  -4.5964
    -4.4553  -4.2963  -4.1793  -4.1431  -4.0256  -3.9231  -3.9112  -3.8331
    -3.7568  -3.7462  -3.6634  -3.5543  -3.1688  -2.9385  -2.9330  -2.8305
    -2.5654  -2.4652  -2.3758  -2.2183  -0.9327  -0.9187  -0.8600  -0.8497
    -0.6743  -0.6222  -0.5301  -0.4400  -0.2749  -0.2099  -0.1852  -0.1404
    -0.0649  -0.0485   0.0121   0.0280   0.1188   0.1521   0.1828   0.1857
     0.7267   0.7765   0.8100   0.8680   0.9350   0.9620   1.0070   1.0222
     5.2954   5.3550   5.5972   5.6322   5.7776   5.8896   6.1085   6.2343
     6.3325   6.3516   6.3699   6.4009   6.6616   6.7568   7.0511   7.0835
     7.2278   7.4169   7.8010   7.8441   8.6016   8.6387   9.0351   9.0356
     9.0606

          k =-0.5000 0.0000-0.4519 ( 82668 PWs)   bands (ev):

   -20.8579 -20.8578 -20.8212 -20.8212 -20.1584 -20.1570 -20.0940 -20.0924
   -18.6455 -18.6454 -18.5856 -18.5855 -18.4791 -18.4791 -18.4492 -18.4492
   -16.6806 -16.6806 -16.6310 -16.6309 -16.5517 -16.5517 -16.4989 -16.4988
   -15.6836 -15.6835 -15.6561 -15.6561 -15.5597 -15.5592 -15.5267 -15.5264
   -10.3467 -10.3464 -10.3232 -10.3229  -8.9224  -8.9223  -8.8377  -8.8375
    -8.1030  -8.1026  -8.0876  -8.0872  -7.2721  -7.2710  -7.2149  -7.2137
    -6.7043  -6.7041  -6.6466  -6.6464  -6.4896  -6.4892  -6.4144  -6.4139
    -6.3675  -6.3669  -6.2808  -6.2803  -5.5643  -5.5641  -5.5385  -5.5383
    -5.4340  -5.4339  -5.2816  -5.2814  -5.1471  -5.1470  -5.0163  -5.0160
    -4.9314  -4.9313  -4.8264  -4.8262  -4.7576  -4.7576  -4.5290  -4.5289
    -4.4666  -4.4665  -4.3043  -4.3042  -4.0086  -4.0065  -3.8934  -3.8916
    -3.7464  -3.7462  -3.2659  -3.2659  -3.1855  -3.1855  -3.0147  -3.0145
    -2.4456  -2.4456  -2.3019  -2.3019  -0.9257  -0.9256  -0.8535  -0.8534
    -0.6437  -0.6429  -0.4971  -0.4967  -0.2177  -0.2166  -0.2014  -0.2003
    -0.0529  -0.0524   0.0693   0.0695   0.1100   0.1101   0.1776   0.1779
     0.7523   0.7525   0.8373   0.8375   0.9414   0.9416   1.0153   1.0155
     5.3206   5.3207   5.6128   5.6129   6.0033   6.0036   6.0497   6.0499
     6.2783   6.2785   6.3854   6.3856   6.7298   6.7298   7.1217   7.1218
     7.2296   7.2299   7.8370   7.8372   8.6776   8.6776   8.8868   8.8869
     9.1713

          k =-0.5000 0.4321-0.1090 ( 82696 PWs)   bands (ev):

   -20.8571 -20.8557 -20.8197 -20.8191 -20.1391 -20.1120 -20.1081 -20.0823
   -18.6781 -18.6724 -18.6475 -18.6412 -18.4830 -18.4724 -18.4687 -18.4570
   -16.6335 -16.6300 -16.6150 -16.5948 -16.5571 -16.5546 -16.5262 -16.5199
   -15.6438 -15.6421 -15.6326 -15.6290 -15.5563 -15.5417 -15.5411 -15.5280
   -10.4322 -10.4233 -10.4216 -10.4134  -8.7584  -8.7554  -8.6825  -8.6791
    -8.1704  -8.1624  -8.1463  -8.1372  -7.3472  -7.3380  -7.3028  -7.3001
    -6.7928  -6.7466  -6.6031  -6.5992  -6.5035  -6.4817  -6.4552  -6.4413
    -6.2590  -6.2250  -6.1781  -6.1627  -5.7568  -5.7418  -5.6402  -5.6241
    -5.5166  -5.5053  -5.4164  -5.3883  -5.2510  -5.0321  -4.9780  -4.9417
    -4.8451  -4.8107  -4.8030  -4.7340  -4.7336  -4.7149  -4.6921  -4.5626
    -4.4894  -4.4670  -4.1238  -4.1128  -3.9081  -3.8959  -3.7698  -3.7548
    -3.7468  -3.6630  -3.6239  -3.3985  -3.3605  -3.0835  -2.8934  -2.8905
    -2.5287  -2.4781  -2.2872  -2.2351  -0.9616  -0.9196  -0.9186  -0.8817
    -0.7032  -0.6084  -0.4842  -0.3620  -0.2560  -0.2477  -0.1932  -0.1782
    -0.1175  -0.0663   0.0074   0.0329   0.1199   0.1407   0.2151   0.2808
     0.7688   0.7795   0.8432   0.8480   0.9320   0.9506   1.0066   1.0293
     5.1910   5.2908   5.3154   5.4147   5.8454   5.8806   6.1662   6.1936
     6.3350   6.3378   6.3889   6.4237   6.9431   7.0105   7.2508   7.3028
     7.3441   7.6202   8.0261   8.0843   8.3257   8.4648   8.6260   8.7482
     8.9235

          k =-0.5000 0.4321-0.4519 ( 82670 PWs)   bands (ev):

   -20.8564 -20.8564 -20.8194 -20.8194 -20.1316 -20.1293 -20.0915 -20.0891
   -18.6756 -18.6754 -18.6441 -18.6440 -18.4779 -18.4779 -18.4627 -18.4626
   -16.6318 -16.6318 -16.6050 -16.6050 -16.5560 -16.5560 -16.5227 -16.5227
   -15.6432 -15.6431 -15.6307 -15.6306 -15.5522 -15.5512 -15.5322 -15.5315
   -10.4295 -10.4291 -10.4161 -10.4158  -8.7569  -8.7568  -8.6808  -8.6808
    -8.1672  -8.1671  -8.1411  -8.1410  -7.3425  -7.3414  -7.3021  -7.3009
    -6.7152  -6.7150  -6.6733  -6.6732  -6.5019  -6.5016  -6.4344  -6.4342
    -6.2430  -6.2428  -6.1690  -6.1684  -5.7453  -5.7451  -5.6377  -5.6376
    -5.5140  -5.5139  -5.3941  -5.3940  -5.1521  -5.1516  -4.8545  -4.8544
    -4.8090  -4.8089  -4.7915  -4.7914  -4.7219  -4.7218  -4.6351  -4.6347
    -4.5144  -4.5142  -4.3000  -4.2999  -3.8953  -3.8936  -3.8148  -3.8130
    -3.5814  -3.5810  -3.2564  -3.2561  -3.1983  -3.1982  -3.1776  -3.1773
    -2.3801  -2.3801  -2.3186  -2.3186  -0.9481  -0.9478  -0.8935  -0.8933
    -0.6644  -0.6633  -0.4134  -0.4123  -0.2358  -0.2350  -0.2150  -0.2143
    -0.0624  -0.0618   0.0013   0.0018   0.1348   0.1352   0.2456   0.2459
     0.7785   0.7786   0.8448   0.8450   0.9338   0.9340   1.0158   1.0159
     5.2319   5.2320   5.3729   5.3729   5.9918   5.9922   6.0632   6.0635
     6.3116   6.3120   6.4081   6.4082   6.9792   6.9793   7.2905   7.2906
     7.4952   7.4955   7.9850   7.9852   8.3911   8.3912   8.8226   8.8226
     8.9368

     highest occupied, lowest unoccupied level (ev):     1.0357    5.1910

!    total energy              =   -1314.35194748 Ry
     Harris-Foulkes estimate   =   -1314.35194749 Ry
     estimated scf accuracy    <          6.9E-09 Ry

     total all-electron energy =     -4923.606174 Ry

     The total energy is the sum of the following terms:

     one-electron contribution =    -618.51081995 Ry
     hartree contribution      =     409.24407162 Ry
     xc contribution           =    -270.64134684 Ry
     ewald contribution        =    -473.07627914 Ry
     Dispersion Correction     =      -0.35956890 Ry
     one-center paw contrib.   =    -361.00800428 Ry

     convergence has been achieved in  14 iterations

     Forces acting on atoms (cartesian axes, Ry/au):

     atom    1 type  4   force =    -0.00029461   -0.00114827    0.00029927
     atom    2 type  4   force =     0.00030418   -0.00114117   -0.00033388
     atom    3 type  4   force =     0.00029461    0.00114827   -0.00029927
     atom    4 type  4   force =    -0.00030418    0.00114117    0.00033388
     atom    5 type  2   force =     0.00070263    0.00050164    0.00077141
     atom    6 type  2   force =    -0.00071281    0.00052228   -0.00072795
     atom    7 type  2   force =    -0.00070263   -0.00050164   -0.00077141
     atom    8 type  2   force =     0.00071281   -0.00052228    0.00072795
     atom    9 type  2   force =     0.00110646   -0.00069766   -0.00111855
     atom   10 type  2   force =    -0.00110441   -0.00069568    0.00112510
     atom   11 type  2   force =    -0.00110646    0.00069766    0.00111855
     atom   12 type  2   force =     0.00110441    0.00069568   -0.00112510
     atom   13 type  2   force =     0.00016988    0.00030409    0.00052132
     atom   14 type  2   force =    -0.00015744    0.00028904   -0.00058321
     atom   15 type  2   force =    -0.00016988   -0.00030409   -0.00052132
     atom   16 type  2   force =     0.00015744   -0.00028904    0.00058321
     atom   17 type  4   force =     0.00006285    0.00340351   -0.00051671
     atom   18 type  4   force =    -0.00062068    0.00287782    0.00048101
     atom   19 type  4   force =    -0.00006285   -0.00340351    0.00051671
     atom   20 type  4   force =     0.00062068   -0.00287782   -0.00048101
     atom   21 type  2   force =    -0.00152609    0.00010556    0.00079086
     atom   22 type  2   force =     0.00131763   -0.00003754   -0.00082836
     atom   23 type  2   force =     0.00152609   -0.00010556   -0.00079086
     atom   24 type  2   force =    -0.00131763    0.00003754    0.00082836
     atom   25 type  2   force =    -0.00134230    0.00421283   -0.00109756
     atom   26 type  2   force =     0.00149361    0.00378739    0.00111557
     atom   27 type  2   force =     0.00134230   -0.00421283    0.00109756
     atom   28 type  2   force =    -0.00149361   -0.00378739   -0.00111557
     atom   29 type  2   force =     0.00075471    0.00023481    0.00033533
     atom   30 type  2   force =    -0.00130226    0.00023157   -0.00033164
     atom   31 type  2   force =    -0.00075471   -0.00023481   -0.00033533
     atom   32 type  2   force =     0.00130226   -0.00023157    0.00033164
     atom   33 type  2   force =     0.00390998    0.00033789    0.00069779
     atom   34 type  2   force =    -0.00372924    0.00006025   -0.00068767
     atom   35 type  2   force =    -0.00390998   -0.00033789   -0.00069779
     atom   36 type  2   force =     0.00372924   -0.00006025    0.00068767
     atom   37 type  1   force =    -0.00202221   -0.00070264   -0.00009278
     atom   38 type  1   force =     0.00310105   -0.00014192    0.00016118
     atom   39 type  1   force =     0.00202221    0.00070264    0.00009278
     atom   40 type  1   force =    -0.00310105    0.00014192   -0.00016118
     atom   41 type  1   force =     0.00122209    0.00032552    0.00015628
     atom   42 type  1   force =    -0.00117012    0.00076220   -0.00016832
     atom   43 type  1   force =    -0.00122209   -0.00032552   -0.00015628
     atom   44 type  1   force =     0.00117012   -0.00076220    0.00016832
     atom   45 type  3   force =     0.00000751    0.00029858   -0.00023467
     atom   46 type  3   force =     0.00006985    0.00037197    0.00021501
     atom   47 type  3   force =    -0.00000751   -0.00029858    0.00023467
     atom   48 type  3   force =    -0.00006985   -0.00037197   -0.00021501
     atom   49 type  3   force =     0.00148726   -0.00245925    0.00019248
     atom   50 type  3   force =    -0.00151641   -0.00249290   -0.00019358
     atom   51 type  3   force =    -0.00148726    0.00245925   -0.00019248
     atom   52 type  3   force =     0.00151641    0.00249290    0.00019358
     atom   53 type  3   force =    -0.00002311   -0.00214548    0.00093660
     atom   54 type  3   force =     0.00008289   -0.00210687   -0.00092067
     atom   55 type  3   force =     0.00002311    0.00214548   -0.00093660
     atom   56 type  3   force =    -0.00008289    0.00210687    0.00092067
     atom   57 type  3   force =    -0.00082045   -0.00171483   -0.00020888
     atom   58 type  3   force =     0.00074619   -0.00151196    0.00019678
     atom   59 type  3   force =     0.00082045    0.00171483    0.00020888
     atom   60 type  3   force =    -0.00074619    0.00151196   -0.00019678
     atom   61 type  3   force =    -0.00008360   -0.00038639    0.00024303
     atom   62 type  3   force =    -0.00002718   -0.00033329   -0.00024661
     atom   63 type  3   force =     0.00008360    0.00038639   -0.00024303
     atom   64 type  3   force =     0.00002718    0.00033329    0.00024661
     atom   65 type  3   force =     0.00062681   -0.00107132    0.00021047
     atom   66 type  3   force =    -0.00057122   -0.00112473   -0.00021729
     atom   67 type  3   force =    -0.00062681    0.00107132   -0.00021047
     atom   68 type  3   force =     0.00057122    0.00112473    0.00021729
     atom   69 type  3   force =    -0.00024591   -0.00016984    0.00012428
     atom   70 type  3   force =     0.00024876   -0.00017396   -0.00009648
     atom   71 type  3   force =     0.00024591    0.00016984   -0.00012428
     atom   72 type  3   force =    -0.00024876    0.00017396    0.00009648
     atom   73 type  3   force =     0.00132106    0.00068176    0.00009040
     atom   74 type  3   force =    -0.00145595    0.00075572   -0.00009877
     atom   75 type  3   force =    -0.00132106   -0.00068176   -0.00009040
     atom   76 type  3   force =     0.00145595   -0.00075572    0.00009877
     atom   77 type  3   force =    -0.00004062    0.00024067   -0.00052617
     atom   78 type  3   force =     0.00003869    0.00024496    0.00053318
     atom   79 type  3   force =     0.00004062   -0.00024067    0.00052617
     atom   80 type  3   force =    -0.00003869   -0.00024496   -0.00053318

     Total force =     0.018535     Total SCF correction =     0.000174


     Computing stress (Cartesian axis) and pressure

          total   stress  (Ry/bohr**3)                   (kbar)     P=   -4.25
  -0.00003568   0.00000043   0.00000080         -5.25      0.06      0.12
   0.00000043  -0.00002585   0.00000005          0.06     -3.80      0.01
   0.00000080   0.00000005  -0.00002520          0.12      0.01     -3.71


     Writing output data file scf.save
 
     init_run     :     27.09s CPU     28.29s WALL (       1 calls)
     electrons    :    651.99s CPU    688.13s WALL (       1 calls)
     forces       :     14.06s CPU     14.21s WALL (       1 calls)
     stress       :     75.42s CPU     75.67s WALL (       1 calls)

     Called by init_run:
     wfcinit      :     17.54s CPU     18.56s WALL (       1 calls)
     potinit      :      3.36s CPU      3.43s WALL (       1 calls)

     Called by electrons:
     c_bands      :    571.98s CPU    601.81s WALL (      14 calls)
     sum_band     :     69.58s CPU     74.78s WALL (      14 calls)
     v_of_rho     :      1.41s CPU      1.57s WALL (      15 calls)
     newd         :      3.34s CPU      4.10s WALL (      15 calls)
     PAW_pot      :      5.14s CPU      5.15s WALL (      15 calls)
     mix_rho      :      0.38s CPU      0.42s WALL (      14 calls)

     Called by c_bands:
     init_us_2    :      5.30s CPU      5.32s WALL (     248 calls)
     cegterg      :    552.61s CPU    582.38s WALL (     112 calls)

     Called by sum_band:
     sum_band:bec :      0.05s CPU      0.05s WALL (     112 calls)
     addusdens    :      3.65s CPU      4.35s WALL (      14 calls)

     Called by *egterg:
     h_psi        :    338.24s CPU    361.34s WALL (     568 calls)
     s_psi        :     52.38s CPU     52.38s WALL (     568 calls)
     g_psi        :      2.47s CPU      2.47s WALL (     448 calls)
     cdiaghg      :     37.70s CPU     37.70s WALL (     560 calls)

     Called by h_psi:
     h_psi:pot    :    335.28s CPU    358.30s WALL (     568 calls)
     h_psi:calbec :     49.48s CPU     49.66s WALL (     568 calls)
     vloc_psi     :    233.48s CPU    256.32s WALL (     568 calls)
     add_vuspsi   :     52.32s CPU     52.33s WALL (     568 calls)

     General routines
     calbec       :     76.51s CPU     76.77s WALL (     720 calls)
     fft          :      1.76s CPU      2.03s WALL (     219 calls)
     fftw         :    254.20s CPU    279.29s WALL (  110846 calls)
 
     Parallel routines
     fft_scatter  :     58.54s CPU     77.16s WALL (  111065 calls)
 
     PWSCF        : 12m55.94s CPU    14m 9.17s WALL

 
   This run was terminated on:  21:50:34   3Nov2017            

=------------------------------------------------------------------------------=
   JOB DONE.
=------------------------------------------------------------------------------=
