
     Program PWSCF v.6.1 (svn rev. 13369) starts on 18Dec2017 at  5:22: 8 

     This program is part of the open-source Quantum ESPRESSO suite
     for quantum simulation of materials; please cite
         "P. Giannozzi et al., J. Phys.:Condens. Matter 21 395502 (2009);
          URL http://www.quantum-espresso.org", 
     in publications or presentations arising from this work. More details at
     http://www.quantum-espresso.org/quote

     Parallel version (MPI), running on     8 processors
     R & G space division:  proc/nbgrp/npool/nimage =       8
     Waiting for input...
     Reading input from standard input

     Current dimensions of program PWSCF are:
     Max number of different atomic species (ntypx) = 10
     Max number of k-points (npk) =  40000
     Max angular momentum in pseudopotentials (lmaxx) =  3
               file C.pbe-n-kjpaw_psl.0.1.UPF: wavefunction(s)  2P renormalized
               file N.pbe-n-kjpaw_psl.0.1.UPF: wavefunction(s)  2P renormalized
               file H.pbe-kjpaw_psl.0.1.UPF: wavefunction(s)  1S renormalized
               file O.pbe-n-kjpaw_psl.0.1.UPF: wavefunction(s)  2P renormalized

     -------------------------------------
     Parameters for Dispersion Correction:
     -------------------------------------
       atom      VdW radius       C_6     

        C          2.744         60.710
        N          2.640         42.670
        H          1.892          4.857
        O          2.536         24.284

     Subspace diagonalization in iterative solution of the eigenvalue problem:
     a serial algorithm will be used

 
     Parallelization info
     --------------------
     sticks:   dense  smooth     PW     G-vecs:    dense   smooth      PW
     Min        1623    1623    428                81363    81363   10967
     Max        1624    1624    429                81366    81366   10968
     Sum       12989   12989   3431               650915   650915   87737
 


     bravais-lattice index     =            0
     lattice parameter (alat)  =      14.7474  a.u.
     unit-cell volume          =    4818.1431 (a.u.)^3
     number of atoms/cell      =           88
     number of atomic types    =            4
     number of electrons       =       256.00
     number of Kohn-Sham states=          153
     kinetic-energy cutoff     =     100.0000  Ry
     charge density cutoff     =     400.0000  Ry
     convergence threshold     =      1.0E-08
     mixing beta               =       0.5000
     number of iterations used =            8  plain     mixing
     Exchange-correlation      =  SLA  PW   PBX  PBC ( 1  4  3  4 0 0)

     celldm(1)=  14.747423  celldm(2)=   0.000000  celldm(3)=   0.000000
     celldm(4)=   0.000000  celldm(5)=   0.000000  celldm(6)=   0.000000

     crystal axes: (cart. coord. in units of alat)
               a(1) = (   1.000000   0.000000   0.000000 )  
               a(2) = (   0.000000   1.879933   0.000000 )  
               a(3) = (   0.000000   0.000000   0.799077 )  

     reciprocal axes: (cart. coord. in units 2 pi/alat)
               b(1) = (  1.000000  0.000000  0.000000 )  
               b(2) = (  0.000000  0.531934  0.000000 )  
               b(3) = (  0.000000  0.000000  1.251443 )  


     PseudoPot. # 1 for  C read from file:
     /scratch/ahofstet/pseudo/C.pbe-n-kjpaw_psl.0.1.UPF
     MD5 check sum: 430fe95172b1e11ef3f8ed03bac87931
     Pseudo is Projector augmented-wave + core cor, Zval =  4.0
     Generated using "atomic" code by A. Dal Corso  v.5.0.99 svn rev. 10869
     Shape of augmentation charge: BESSEL
     Using radial grid of 1073 points,  4 beta functions with: 
                l(1) =   0
                l(2) =   0
                l(3) =   1
                l(4) =   1
     Q(r) pseudized with 0 coefficients 


     PseudoPot. # 2 for  N read from file:
     /scratch/ahofstet/pseudo/N.pbe-n-kjpaw_psl.0.1.UPF
     MD5 check sum: f73187c8b701007e77325f868c9291d7
     Pseudo is Projector augmented-wave + core cor, Zval =  5.0
     Generated using "atomic" code by A. Dal Corso  v.5.0.99 svn rev. 10869
     Shape of augmentation charge: PSQ
     Using radial grid of 1085 points,  4 beta functions with: 
                l(1) =   0
                l(2) =   0
                l(3) =   1
                l(4) =   1
     Q(r) pseudized with 0 coefficients 


     PseudoPot. # 3 for  H read from file:
     /scratch/ahofstet/pseudo/H.pbe-kjpaw_psl.0.1.UPF
     MD5 check sum: 94e484f906d9e9773b2f6e52662335b2
     Pseudo is Projector augmented-wave, Zval =  1.0
     Generated using "atomic" code by A. Dal Corso  v.5.0.99 svn rev. 10869
     Shape of augmentation charge: PSQ
     Using radial grid of  929 points,  2 beta functions with: 
                l(1) =   0
                l(2) =   0
     Q(r) pseudized with 0 coefficients 


     PseudoPot. # 4 for  O read from file:
     /scratch/ahofstet/pseudo/O.pbe-n-kjpaw_psl.0.1.UPF
     MD5 check sum: 3f94a2996a3169367d6eb21d9b593f20
     Pseudo is Projector augmented-wave + core cor, Zval =  6.0
     Generated using "atomic" code by A. Dal Corso  v.5.0.99 svn rev. 10869
     Shape of augmentation charge: BESSEL
     Using radial grid of 1095 points,  4 beta functions with: 
                l(1) =   0
                l(2) =   0
                l(3) =   1
                l(4) =   1
     Q(r) pseudized with 0 coefficients 


     atomic species   valence    mass     pseudopotential
        C              4.00    12.01070      C( 1.00)
        N              5.00    14.00670      N( 1.00)
        H              1.00     1.00794      H( 1.00)
        O              6.00    15.99940      O( 1.00)

     No symmetry found
          (note:  1 additional sym.ops. were found but ignored
           their fractional translations are incommensurate with FFT grid)


   Cartesian axes

     site n.     atom                  positions (alat units)
         1           N   tau(   1) = (   0.5859874   1.0006822   0.0349754  )
         2           N   tau(   2) = (   0.0859952   1.8191921   0.7641005  )
         3           N   tau(   3) = (   0.4140126   0.0607156   0.3645633  )
         4           N   tau(   4) = (   0.9140048   0.8792254   0.4345156  )
         5           C   tau(   5) = (   0.3735193   1.1201589   0.3975881  )
         6           C   tau(   6) = (   0.8735020   1.6997744   0.4014922  )
         7           C   tau(   7) = (   0.6264807   0.1801923   0.0019506  )
         8           C   tau(   8) = (   0.1264980   0.7598077   0.7971239  )
         9           C   tau(   9) = (   0.5514824   1.0568445   0.3459953  )
        10           C   tau(  10) = (   0.0514762   1.7630447   0.4530879  )
        11           C   tau(  11) = (   0.4485176   0.1168778   0.0535434  )
        12           C   tau(  12) = (   0.9485238   0.8230780   0.7455282  )
        13           C   tau(  13) = (   0.6087423   1.1311754   0.1680230  )
        14           C   tau(  14) = (   0.1087209   1.6886853   0.6310581  )
        15           C   tau(  15) = (   0.3912577   0.1912087   0.2315157  )
        16           C   tau(  16) = (   0.8912791   0.7487186   0.5675580  )
        17           C   tau(  17) = (   0.5228528   1.3047880   0.1201699  )
        18           C   tau(  18) = (   0.0227770   1.5150950   0.6788931  )
        19           C   tau(  19) = (   0.4771472   0.3648214   0.2793687  )
        20           C   tau(  20) = (   0.9772230   0.5751283   0.5197230  )
        21           C   tau(  21) = (   0.3450279   1.3266050   0.2023996  )
        22           C   tau(  22) = (   0.8449507   1.4933156   0.5966741  )
        23           C   tau(  23) = (   0.6549721   0.3866383   0.1971391  )
        24           C   tau(  24) = (   0.1550493   0.5533489   0.6019420  )
        25           C   tau(  25) = (   0.2138782   1.1882910   0.1570275  )
        26           C   tau(  26) = (   0.7138102   1.6316489   0.6420336  )
        27           C   tau(  27) = (   0.7861218   0.2483243   0.2425112  )
        28           C   tau(  28) = (   0.2861898   0.6916822   0.5565824  )
        29           O   tau(  29) = (   0.2458458   1.0540022   0.2822030  )
        30           O   tau(  30) = (   0.7458578   1.7659586   0.5169019  )
        31           O   tau(  31) = (   0.7541542   0.1140356   0.1173357  )
        32           O   tau(  32) = (   0.2541422   0.8259919   0.6817142  )
        33           O   tau(  33) = (   0.6624898   1.1006842   0.4822173  )
        34           O   tau(  34) = (   0.1624829   1.7191966   0.3168675  )
        35           O   tau(  35) = (   0.3375102   0.1607175   0.7163988  )
        36           O   tau(  36) = (   0.8375171   0.7792299   0.0826712  )
        37           O   tau(  37) = (   0.6280017   1.4485384   0.1587274  )
        38           O   tau(  38) = (   0.1278686   1.3713200   0.6403364  )
        39           O   tau(  39) = (   0.3719983   0.5085717   0.2408113  )
        40           O   tau(  40) = (   0.8721314   0.4313533   0.5582796  )
        41           O   tau(  41) = (   0.3622684   1.3008767   0.3855086  )
        42           O   tau(  42) = (   0.8622095   1.5190574   0.4135681  )
        43           O   tau(  43) = (   0.6377316   0.3609100   0.0140301  )
        44           O   tau(  44) = (   0.1377905   0.5790907   0.7850480  )
        45           H   tau(  45) = (   0.4644715   0.9507281   0.0349286  )
        46           H   tau(  46) = (   0.9645135   1.8691806   0.7641495  )
        47           H   tau(  47) = (   0.5355285   0.0107615   0.3646101  )
        48           H   tau(  48) = (   0.0354865   0.9292139   0.4344666  )
        49           H   tau(  49) = (   0.6075163   1.0501352   0.7110786  )
        50           H   tau(  50) = (   0.1075249   1.7697308   0.0880047  )
        51           H   tau(  51) = (   0.3924837   0.1101685   0.4875375  )
        52           H   tau(  52) = (   0.8924751   0.8297641   0.3115340  )
        53           H   tau(  53) = (   0.7707263   1.0239267   0.4662445  )
        54           H   tau(  54) = (   0.2707306   1.7959357   0.3328446  )
        55           H   tau(  55) = (   0.2292737   0.0839600   0.7323715  )
        56           H   tau(  56) = (   0.7292694   0.8559690   0.0666941  )
        57           H   tau(  57) = (   0.6838170   1.4365790   0.2708632  )
        58           H   tau(  58) = (   0.1837602   1.3833333   0.5281911  )
        59           H   tau(  59) = (   0.3161830   0.4966123   0.1286755  )
        60           H   tau(  60) = (   0.8162398   0.4433666   0.6704250  )
        61           H   tau(  61) = (   0.3438916   1.0815443   0.5293356  )
        62           H   tau(  62) = (   0.8438716   1.7383974   0.2697547  )
        63           H   tau(  63) = (   0.6561084   0.1415777   0.6692805  )
        64           H   tau(  64) = (   0.1561284   0.7984307   0.1297840  )
        65           H   tau(  65) = (   0.5438893   0.9158945   0.3318956  )
        66           H   tau(  66) = (   0.0439057   0.0240615   0.4671978  )
        67           H   tau(  67) = (   0.4561107   1.8558612   0.0676431  )
        68           H   tau(  68) = (   0.9560943   0.9640282   0.7314182  )
        69           H   tau(  69) = (   0.7473523   1.1568498   0.1780491  )
        70           H   tau(  70) = (   0.2473178   1.6629643   0.6210245  )
        71           H   tau(  71) = (   0.2526477   0.2168831   0.2214896  )
        72           H   tau(  72) = (   0.7526822   0.7229976   0.5775916  )
        73           H   tau(  73) = (   0.5061269   1.3062385   0.7789887  )
        74           H   tau(  74) = (   0.0060528   1.5136336   0.0200884  )
        75           H   tau(  75) = (   0.4938731   0.3662718   0.4196273  )
        76           H   tau(  76) = (   0.9939472   0.5736669   0.3794503  )
        77           H   tau(  77) = (   0.2975792   1.4572825   0.1831055  )
        78           H   tau(  78) = (   0.7974876   1.3626494   0.6159559  )
        79           H   tau(  79) = (   0.7024208   0.5173158   0.2164332  )
        80           H   tau(  80) = (   0.2025124   0.4226827   0.5826602  )
        81           H   tau(  81) = (   0.2277579   1.1372423   0.0275480  )
        82           H   tau(  82) = (   0.7276581   1.6826599   0.7715295  )
        83           H   tau(  83) = (   0.7722421   0.1972756   0.3719907  )
        84           H   tau(  84) = (   0.2723419   0.7426932   0.4270866  )
        85           H   tau(  85) = (   0.0823631   1.2366769   0.1741964  )
        86           H   tau(  86) = (   0.5822937   1.5832882   0.6248024  )
        87           H   tau(  87) = (   0.9176369   0.2967102   0.2253423  )
        88           H   tau(  88) = (   0.4177063   0.6433215   0.5738137  )

     number of k points=    10
                       cart. coord. in units 2pi/alat
        k(    1) = (   0.0000000   0.0000000   0.0000000), wk =   0.1111111
        k(    2) = (   0.0000000   0.0000000   0.4171477), wk =   0.2222222
        k(    3) = (   0.0000000  -0.2659669   0.0000000), wk =   0.1111111
        k(    4) = (   0.0000000  -0.2659669   0.4171477), wk =   0.2222222
        k(    5) = (   0.3333333   0.0000000   0.0000000), wk =   0.2222222
        k(    6) = (   0.3333333   0.0000000   0.4171477), wk =   0.2222222
        k(    7) = (   0.3333333  -0.2659669   0.0000000), wk =   0.2222222
        k(    8) = (   0.3333333  -0.2659669   0.4171477), wk =   0.2222222
        k(    9) = (  -0.3333333   0.0000000   0.4171477), wk =   0.2222222
        k(   10) = (  -0.3333333   0.2659669   0.4171477), wk =   0.2222222

     Dense  grid:   650915 G-vectors     FFT dimensions: (  96, 180,  75)

     Estimated max dynamical RAM per process >     580.03MB

     Estimated total allocated dynamical RAM >    4640.25MB

     Check: negative/imaginary core charge=   -0.000002    0.000000

     Initial potential from superposition of free atoms

     starting charge  255.99853, renormalised to  256.00000
     Starting wfc are  220 randomized atomic wfcs
     Checking if some PAW data can be deallocated... 

     total cpu time spent up to now is       33.5 secs

     per-process dynamical memory:   412.8 Mb

     Self-consistent Calculation

     iteration #  1     ecut=   100.00 Ry     beta=0.50
     Davidson diagonalization with overlap
     ethr =  1.00E-02,  avg # of iterations =  4.1

     total cpu time spent up to now is      139.6 secs

     total energy              =   -1273.04321399 Ry
     Harris-Foulkes estimate   =   -1276.68133560 Ry
     estimated scf accuracy    <       7.31994972 Ry

     iteration #  2     ecut=   100.00 Ry     beta=0.50
     Davidson diagonalization with overlap
     ethr =  2.86E-03,  avg # of iterations =  2.1

     total cpu time spent up to now is      201.0 secs

     total energy              =   -1274.04073188 Ry
     Harris-Foulkes estimate   =   -1274.31484189 Ry
     estimated scf accuracy    <       0.74798459 Ry

     iteration #  3     ecut=   100.00 Ry     beta=0.50
     Davidson diagonalization with overlap
     ethr =  2.92E-04,  avg # of iterations =  7.4

     total cpu time spent up to now is      305.1 secs

     total energy              =   -1274.20529829 Ry
     Harris-Foulkes estimate   =   -1274.25998080 Ry
     estimated scf accuracy    <       0.15934928 Ry

     iteration #  4     ecut=   100.00 Ry     beta=0.50
     Davidson diagonalization with overlap
     ethr =  6.22E-05,  avg # of iterations =  2.4

     total cpu time spent up to now is      358.6 secs

     total energy              =   -1274.21266829 Ry
     Harris-Foulkes estimate   =   -1274.21753566 Ry
     estimated scf accuracy    <       0.02017385 Ry

     iteration #  5     ecut=   100.00 Ry     beta=0.50
     Davidson diagonalization with overlap
     ethr =  7.88E-06,  avg # of iterations =  5.6

     total cpu time spent up to now is      477.1 secs

     total energy              =   -1274.22044346 Ry
     Harris-Foulkes estimate   =   -1274.22749218 Ry
     estimated scf accuracy    <       0.01624627 Ry

     iteration #  6     ecut=   100.00 Ry     beta=0.50
     Davidson diagonalization with overlap
     ethr =  6.35E-06,  avg # of iterations =  2.8

     total cpu time spent up to now is      529.1 secs

     total energy              =   -1274.21917294 Ry
     Harris-Foulkes estimate   =   -1274.22147637 Ry
     estimated scf accuracy    <       0.00358483 Ry

     iteration #  7     ecut=   100.00 Ry     beta=0.50
     Davidson diagonalization with overlap
     ethr =  1.40E-06,  avg # of iterations =  4.7

     total cpu time spent up to now is      643.9 secs

     total energy              =   -1274.22179894 Ry
     Harris-Foulkes estimate   =   -1274.22409509 Ry
     estimated scf accuracy    <       0.00520743 Ry

     iteration #  8     ecut=   100.00 Ry     beta=0.50
     Davidson diagonalization with overlap
     ethr =  1.40E-06,  avg # of iterations =  2.8

     total cpu time spent up to now is      695.8 secs

     total energy              =   -1274.22145117 Ry
     Harris-Foulkes estimate   =   -1274.22212781 Ry
     estimated scf accuracy    <       0.00105626 Ry

     iteration #  9     ecut=   100.00 Ry     beta=0.50
     Davidson diagonalization with overlap
     ethr =  4.13E-07,  avg # of iterations =  4.8

     total cpu time spent up to now is      801.5 secs

     total energy              =   -1274.22252265 Ry
     Harris-Foulkes estimate   =   -1274.22296645 Ry
     estimated scf accuracy    <       0.00146775 Ry

     iteration # 10     ecut=   100.00 Ry     beta=0.50
     Davidson diagonalization with overlap
     ethr =  4.13E-07,  avg # of iterations =  1.0

     total cpu time spent up to now is      851.4 secs

     total energy              =   -1274.22221448 Ry
     Harris-Foulkes estimate   =   -1274.22255790 Ry
     estimated scf accuracy    <       0.00063416 Ry

     iteration # 11     ecut=   100.00 Ry     beta=0.50
     Davidson diagonalization with overlap
     ethr =  2.48E-07,  avg # of iterations =  3.2

     total cpu time spent up to now is      939.7 secs

     total energy              =   -1274.22254325 Ry
     Harris-Foulkes estimate   =   -1274.22256264 Ry
     estimated scf accuracy    <       0.00013420 Ry

     iteration # 12     ecut=   100.00 Ry     beta=0.50
     Davidson diagonalization with overlap
     ethr =  5.24E-08,  avg # of iterations =  1.0

     total cpu time spent up to now is      989.2 secs

     total energy              =   -1274.22249906 Ry
     Harris-Foulkes estimate   =   -1274.22254495 Ry
     estimated scf accuracy    <       0.00009646 Ry

     iteration # 13     ecut=   100.00 Ry     beta=0.50
     Davidson diagonalization with overlap
     ethr =  3.77E-08,  avg # of iterations =  4.2

     total cpu time spent up to now is     1049.2 secs

     total energy              =   -1274.22251624 Ry
     Harris-Foulkes estimate   =   -1274.22251718 Ry
     estimated scf accuracy    <       0.00000184 Ry

     iteration # 14     ecut=   100.00 Ry     beta=0.50
     Davidson diagonalization with overlap
     ethr =  7.18E-10,  avg # of iterations =  4.0

     total cpu time spent up to now is     1166.7 secs

     total energy              =   -1274.22252302 Ry
     Harris-Foulkes estimate   =   -1274.22252356 Ry
     estimated scf accuracy    <       0.00000344 Ry

     iteration # 15     ecut=   100.00 Ry     beta=0.50
     Davidson diagonalization with overlap
     ethr =  7.18E-10,  avg # of iterations =  1.0

     total cpu time spent up to now is     1216.6 secs

     total energy              =   -1274.22252173 Ry
     Harris-Foulkes estimate   =   -1274.22252304 Ry
     estimated scf accuracy    <       0.00000238 Ry

     iteration # 16     ecut=   100.00 Ry     beta=0.50
     Davidson diagonalization with overlap
     ethr =  7.18E-10,  avg # of iterations =  3.1

     total cpu time spent up to now is     1302.6 secs

     total energy              =   -1274.22252251 Ry
     Harris-Foulkes estimate   =   -1274.22252257 Ry
     estimated scf accuracy    <       0.00000019 Ry

     iteration # 17     ecut=   100.00 Ry     beta=0.50
     Davidson diagonalization with overlap
     ethr =  7.57E-11,  avg # of iterations =  1.0

     total cpu time spent up to now is     1352.6 secs

     total energy              =   -1274.22252246 Ry
     Harris-Foulkes estimate   =   -1274.22252252 Ry
     estimated scf accuracy    <       0.00000008 Ry

     iteration # 18     ecut=   100.00 Ry     beta=0.50
     Davidson diagonalization with overlap
     ethr =  3.30E-11,  avg # of iterations =  4.0

     total cpu time spent up to now is     1447.7 secs

     total energy              =   -1274.22252251 Ry
     Harris-Foulkes estimate   =   -1274.22252252 Ry
     estimated scf accuracy    <       0.00000004 Ry

     iteration # 19     ecut=   100.00 Ry     beta=0.50
     Davidson diagonalization with overlap
     ethr =  1.57E-11,  avg # of iterations =  1.0

     total cpu time spent up to now is     1497.6 secs

     total energy              =   -1274.22252250 Ry
     Harris-Foulkes estimate   =   -1274.22252251 Ry
     estimated scf accuracy    <       0.00000001 Ry

     iteration # 20     ecut=   100.00 Ry     beta=0.50
     Davidson diagonalization with overlap
     ethr =  5.56E-12,  avg # of iterations =  4.0

     total cpu time spent up to now is     1599.2 secs

     total energy              =   -1274.22252251 Ry
     Harris-Foulkes estimate   =   -1274.22252252 Ry
     estimated scf accuracy    <       0.00000002 Ry

     iteration # 21     ecut=   100.00 Ry     beta=0.50
     Davidson diagonalization with overlap
     ethr =  5.56E-12,  avg # of iterations =  1.0

     total cpu time spent up to now is     1649.2 secs

     End of self-consistent calculation

          k = 0.0000 0.0000 0.0000 ( 81359 PWs)   bands (ev):

   -20.8572 -20.8325 -20.8318 -20.8068 -18.6366 -18.6201 -18.5746 -18.5554
   -18.3799 -18.3696 -18.3056 -18.2970 -18.2516 -18.1969 -18.1299 -18.0891
   -15.5537 -15.5473 -15.4040 -15.4034 -12.7415 -12.7119 -12.6633 -12.6299
   -11.8699 -11.7989 -11.7198 -11.6470  -9.8099  -9.7497  -9.7085  -9.6639
    -9.4866  -9.4459  -9.2792  -9.2432  -8.7100  -8.6199  -8.6075  -8.5140
    -7.3706  -7.3319  -7.2820  -7.1769  -6.8122  -6.7612  -6.5482  -6.5370
    -6.1427  -6.0960  -6.0595  -6.0034  -5.6666  -5.6028  -5.5657  -5.3235
    -5.1851  -5.1225  -5.0971  -5.0505  -4.8347  -4.8186  -4.7437  -4.7246
    -4.6611  -4.6307  -4.5657  -4.3458  -4.2936  -4.1206  -4.1063  -3.9861
    -3.9246  -3.8670  -3.7954  -3.7691  -3.7169  -3.6984  -3.4865  -3.4409
    -3.3825  -3.3757  -3.2350  -3.1863  -2.6663  -2.5776  -2.5392  -2.5382
    -2.4611  -2.4169  -2.2559  -2.2395  -2.1451  -2.0167  -2.0065  -1.8379
    -1.8229  -1.7769  -1.7036  -1.6340  -1.4691  -1.4285  -1.4267  -1.4161
    -1.1281  -1.0091  -0.9234  -0.9120  -0.3443  -0.1892  -0.1501  -0.0605
     0.1934   0.1939   0.2247   0.3885   0.4299   0.4853   0.5046   0.6168
     0.6873   0.7015   0.7308   0.7505   0.9759   1.1245   1.1700   1.3100
     6.4427   6.7567   6.8459   7.0976   7.4019   7.5538   7.5825   7.7560
     7.7824   7.9029   8.0376   8.3528   8.4593   8.4905   8.5247   8.5933
     8.7028   8.7066   8.8832   8.9191   8.9468   9.0856   9.1470   9.2239
     9.2727

          k = 0.0000 0.0000 0.4171 ( 81364 PWs)   bands (ev):

   -20.8479 -20.8354 -20.8253 -20.8127 -18.6301 -18.6222 -18.5669 -18.5589
   -18.3570 -18.3510 -18.3240 -18.3092 -18.2406 -18.2109 -18.1115 -18.0913
   -15.5718 -15.5634 -15.4981 -15.4909 -12.7575 -12.7200 -12.6873 -12.6474
   -11.7615 -11.6860 -11.6739 -11.5998  -9.7542  -9.7193  -9.7140  -9.6693
    -9.3637  -9.3117  -9.2511  -9.2038  -8.6294  -8.5686  -8.5358  -8.4844
    -7.3762  -7.3561  -7.3263  -7.2404  -6.9456  -6.8901  -6.4674  -6.4437
    -6.1787  -6.1765  -6.0240  -5.9950  -5.7518  -5.6437  -5.5727  -5.4073
    -5.1209  -5.1076  -5.0667  -4.9555  -4.8799  -4.8367  -4.7210  -4.6716
    -4.6591  -4.5905  -4.5761  -4.5414  -4.4950  -4.3116  -4.2838  -4.2597
    -4.1494  -4.1069  -4.0171  -3.9363  -3.6437  -3.5942  -3.4928  -3.4368
    -3.3676  -3.3223  -3.2900  -3.1744  -2.7926  -2.6827  -2.5712  -2.5451
    -2.4550  -2.4473  -2.2549  -2.1782  -2.0032  -2.0011  -1.9067  -1.8071
    -1.7973  -1.7579  -1.6853  -1.5612  -1.3862  -1.3425  -1.2692  -1.1515
    -1.0564  -1.0153  -1.0063  -0.8573  -0.2765  -0.2135  -0.1900  -0.1607
     0.2282   0.2940   0.3085   0.3279   0.4214   0.4509   0.5334   0.6129
     0.8220   0.8400   0.9245   0.9600   1.1323   1.2002   1.2162   1.3113
     6.5879   6.8289   6.9114   6.9629   7.3775   7.3798   7.5508   7.6541
     7.8472   7.8612   7.9269   7.9832   8.0201   8.2016   8.3255   8.3397
     8.4367   8.6016   8.6456   8.6556   8.7718   9.0608   9.2080   9.2875
     9.3655

          k = 0.0000-0.2660 0.0000 ( 81332 PWs)   bands (ev):

   -20.8499 -20.8499 -20.8142 -20.8142 -18.6294 -18.6294 -18.5642 -18.5642
   -18.3745 -18.3745 -18.3027 -18.3027 -18.2270 -18.2270 -18.1054 -18.1054
   -15.5505 -15.5505 -15.4037 -15.4037 -12.7297 -12.7297 -12.6435 -12.6435
   -11.8425 -11.8425 -11.6753 -11.6753  -9.7859  -9.7859  -9.6807  -9.6807
    -9.4669  -9.4669  -9.2601  -9.2601  -8.6817  -8.6817  -8.5438  -8.5438
    -7.3609  -7.3609  -7.2218  -7.2218  -6.7860  -6.7860  -6.5395  -6.5395
    -6.1130  -6.1130  -6.0455  -6.0455  -5.6539  -5.6539  -5.4266  -5.4266
    -5.1534  -5.1534  -5.0771  -5.0771  -4.7873  -4.7873  -4.7621  -4.7621
    -4.6436  -4.6436  -4.4943  -4.4943  -4.1751  -4.1751  -4.0529  -4.0529
    -3.8857  -3.8857  -3.7841  -3.7841  -3.7131  -3.7131  -3.4666  -3.4666
    -3.3544  -3.3544  -3.2241  -3.2241  -2.6323  -2.6323  -2.5435  -2.5435
    -2.4621  -2.4621  -2.1887  -2.1887  -2.0896  -2.0896  -1.9547  -1.9547
    -1.8133  -1.8133  -1.6206  -1.6206  -1.4698  -1.4698  -1.4193  -1.4193
    -1.0671  -1.0671  -0.9157  -0.9157  -0.2902  -0.2902  -0.0847  -0.0847
     0.1917   0.1917   0.2903   0.2903   0.4778   0.4778   0.5687   0.5687
     0.6611   0.6611   0.7490   0.7490   1.0712   1.0712   1.2359   1.2359
     6.5279   6.5279   7.0610   7.0610   7.4447   7.4447   7.6915   7.6915
     7.8351   7.8352   8.2239   8.2239   8.4653   8.4653   8.5778   8.5778
     8.6389   8.6389   8.8399   8.8399   8.9776   8.9776   9.2450   9.2452
     9.2970

          k = 0.0000-0.2660 0.4171 ( 81402 PWs)   bands (ev):

   -20.8433 -20.8433 -20.8174 -20.8174 -18.6264 -18.6264 -18.5627 -18.5627
   -18.3543 -18.3543 -18.3170 -18.3170 -18.2259 -18.2259 -18.1005 -18.1005
   -15.5677 -15.5677 -15.4943 -15.4943 -12.7437 -12.7437 -12.6624 -12.6624
   -11.7377 -11.7377 -11.6229 -11.6229  -9.7415  -9.7415  -9.6876  -9.6876
    -9.3417  -9.3417  -9.2229  -9.2229  -8.6070  -8.6070  -8.5020  -8.5020
    -7.3622  -7.3622  -7.2960  -7.2960  -6.9006  -6.9006  -6.4810  -6.4810
    -6.1290  -6.1290  -6.0452  -6.0452  -5.7174  -5.7174  -5.4645  -5.4645
    -5.1170  -5.1170  -5.0150  -5.0150  -4.8605  -4.8605  -4.6983  -4.6983
    -4.6212  -4.6212  -4.5497  -4.5497  -4.4431  -4.4431  -4.2102  -4.2102
    -4.1590  -4.1590  -3.9727  -3.9727  -3.6257  -3.6257  -3.4597  -3.4597
    -3.3537  -3.3537  -3.2240  -3.2240  -2.7243  -2.7243  -2.5614  -2.5614
    -2.4666  -2.4666  -2.2211  -2.2211  -1.9645  -1.9645  -1.9040  -1.9040
    -1.7571  -1.7571  -1.6320  -1.6320  -1.3520  -1.3520  -1.2243  -1.2243
    -1.0345  -1.0345  -0.9189  -0.9189  -0.2506  -0.2506  -0.1705  -0.1705
     0.2489   0.2489   0.3374   0.3374   0.4116   0.4116   0.5806   0.5806
     0.8417   0.8417   0.9424   0.9424   1.1714   1.1714   1.2565   1.2565
     6.6705   6.6705   6.9496   6.9496   7.3948   7.3948   7.6808   7.6808
     7.8034   7.8034   7.9819   7.9819   8.1313   8.1313   8.2795   8.2795
     8.4350   8.4350   8.6878   8.6878   8.9154   8.9154   9.1945   9.1945
     9.4863

          k = 0.3333 0.0000 0.0000 ( 81343 PWs)   bands (ev):

   -20.8499 -20.8371 -20.8267 -20.8139 -18.6240 -18.6097 -18.5924 -18.5810
   -18.3816 -18.3753 -18.3010 -18.2968 -18.2061 -18.1737 -18.1476 -18.1193
   -15.5418 -15.5386 -15.4129 -15.4126 -12.7181 -12.7047 -12.6728 -12.6548
   -11.8442 -11.8051 -11.7111 -11.6783  -9.7921  -9.7588  -9.7132  -9.6871
    -9.4258  -9.3946  -9.3184  -9.2993  -8.6825  -8.6279  -8.5911  -8.5489
    -7.3294  -7.3126  -7.3036  -7.2110  -6.7607  -6.6716  -6.6398  -6.5432
    -6.1190  -6.0675  -6.0589  -6.0104  -5.7877  -5.7109  -5.3963  -5.3321
    -5.1997  -5.1514  -5.0198  -4.9885  -4.7959  -4.7893  -4.7351  -4.7295
    -4.6439  -4.6259  -4.5761  -4.3965  -4.2740  -4.1764  -4.0928  -4.0444
    -3.9658  -3.9209  -3.8114  -3.8093  -3.6699  -3.6353  -3.5622  -3.5124
    -3.4348  -3.3888  -3.3180  -3.2570  -2.6121  -2.5577  -2.5498  -2.5234
    -2.4369  -2.4024  -2.3256  -2.2013  -2.0757  -2.0178  -1.8635  -1.8206
    -1.7624  -1.7589  -1.6933  -1.6450  -1.6065  -1.4875  -1.3436  -1.3147
    -1.0952  -0.9837  -0.9822  -0.9352  -0.2938  -0.1769  -0.1675  -0.1284
     0.1423   0.1489   0.2337   0.3340   0.4960   0.5204   0.5279   0.6338
     0.6374   0.6779   0.7263   0.7509   1.0915   1.1436   1.2277   1.2934
     6.6342   6.9335   6.9455   7.1865   7.2943   7.3629   7.4685   7.5222
     7.7347   7.8185   8.0923   8.3313   8.3619   8.4419   8.5806   8.5937
     8.6012   8.7789   8.8135   8.8878   8.8952   9.0420   9.1102   9.1898
     9.3944

          k = 0.3333 0.0000 0.4171 ( 81379 PWs)   bands (ev):

   -20.8416 -20.8303 -20.8300 -20.8187 -18.6179 -18.6115 -18.5865 -18.5822
   -18.3574 -18.3543 -18.3187 -18.3117 -18.1975 -18.1820 -18.1354 -18.1212
   -15.5642 -15.5600 -15.5002 -15.4966 -12.7313 -12.7096 -12.6969 -12.6719
   -11.7390 -11.6932 -11.6703 -11.6292  -9.7467  -9.7228  -9.7051  -9.6840
    -9.3259  -9.2951  -9.2629  -9.2406  -8.6001  -8.5575  -8.5532  -8.5138
    -7.3681  -7.3517  -7.3071  -7.2719  -6.8277  -6.8053  -6.6171  -6.5531
    -6.1405  -6.1296  -6.0292  -6.0142  -5.7145  -5.6362  -5.5355  -5.4249
    -5.1198  -5.0624  -5.0358  -4.9782  -4.8381  -4.8250  -4.7639  -4.7286
    -4.6402  -4.6026  -4.5845  -4.5399  -4.4776  -4.3571  -4.3270  -4.2656
    -4.1185  -4.0993  -4.0228  -3.9448  -3.6531  -3.6278  -3.5699  -3.5335
    -3.3850  -3.3228  -3.2992  -3.2437  -2.6940  -2.6464  -2.5393  -2.5367
    -2.4765  -2.3908  -2.3202  -2.2296  -1.9319  -1.8944  -1.8611  -1.8211
    -1.7978  -1.7205  -1.6513  -1.5856  -1.3690  -1.3092  -1.2963  -1.2089
    -1.0821  -1.0541  -0.9533  -0.8904  -0.2440  -0.2104  -0.1953  -0.1687
     0.1458   0.1885   0.2559   0.2847   0.5003   0.5144   0.5766   0.6424
     0.8391   0.8744   0.9328   0.9377   1.1890   1.2180   1.2675   1.3111
     6.7581   6.9118   7.0054   7.0992   7.1351   7.2700   7.4285   7.5704
     7.6372   7.6996   7.8496   7.9707   8.2695   8.2780   8.3462   8.4700
     8.5465   8.6690   8.7672   8.8472   8.9518   9.1415   9.1699   9.1999
     9.3768

          k = 0.3333-0.2660 0.0000 ( 81388 PWs)   bands (ev):

   -20.8451 -20.8451 -20.8187 -20.8187 -18.6178 -18.6178 -18.5860 -18.5860
   -18.3780 -18.3780 -18.2994 -18.2994 -18.1934 -18.1934 -18.1298 -18.1298
   -15.5402 -15.5402 -15.4127 -15.4127 -12.7126 -12.7126 -12.6626 -12.6626
   -11.8270 -11.8270 -11.6924 -11.6924  -9.7777  -9.7776  -9.6981  -9.6981
    -9.4119  -9.4119  -9.3070  -9.3070  -8.6616  -8.6616  -8.5636  -8.5636
    -7.3269  -7.3269  -7.2550  -7.2550  -6.7178  -6.7178  -6.5867  -6.5867
    -6.0932  -6.0932  -6.0376  -6.0376  -5.7485  -5.7485  -5.3627  -5.3627
    -5.1769  -5.1769  -5.0025  -5.0025  -4.7854  -4.7854  -4.7323  -4.7323
    -4.6500  -4.6500  -4.4953  -4.4953  -4.2097  -4.2097  -4.0677  -4.0677
    -3.9418  -3.9418  -3.8135  -3.8135  -3.6541  -3.6541  -3.5355  -3.5355
    -3.3964  -3.3964  -3.3022  -3.3022  -2.5842  -2.5842  -2.5375  -2.5375
    -2.4230  -2.4230  -2.2745  -2.2745  -2.0169  -2.0169  -1.8724  -1.8724
    -1.7769  -1.7769  -1.6425  -1.6425  -1.5160  -1.5160  -1.3644  -1.3644
    -1.0337  -1.0337  -0.9531  -0.9531  -0.2490  -0.2490  -0.1395  -0.1395
     0.1577   0.1578   0.2663   0.2663   0.5100   0.5100   0.5731   0.5731
     0.6721   0.6721   0.7391   0.7391   1.1245   1.1245   1.2542   1.2542
     6.7110   6.7110   7.1405   7.1405   7.3630   7.3630   7.5251   7.5251
     7.6509   7.6509   8.2138   8.2138   8.4968   8.4969   8.6109   8.6109
     8.6905   8.6905   8.8396   8.8396   8.9497   8.9497   9.1457   9.1457
     9.4148

          k = 0.3333-0.2660 0.4171 ( 81332 PWs)   bands (ev):

   -20.8383 -20.8383 -20.8220 -20.8220 -18.6149 -18.6149 -18.5842 -18.5842
   -18.3557 -18.3557 -18.3153 -18.3153 -18.1905 -18.1905 -18.1275 -18.1275
   -15.5622 -15.5622 -15.4984 -15.4984 -12.7239 -12.7239 -12.6810 -12.6810
   -11.7226 -11.7226 -11.6433 -11.6433  -9.7368  -9.7368  -9.6925  -9.6925
    -9.3128  -9.3128  -9.2493  -9.2493  -8.5867  -8.5867  -8.5256  -8.5256
    -7.3440  -7.3440  -7.3105  -7.3105  -6.8029  -6.8029  -6.5963  -6.5963
    -6.1128  -6.1128  -6.0531  -6.0531  -5.6553  -5.6553  -5.4893  -5.4893
    -5.0953  -5.0953  -5.0039  -5.0039  -4.8265  -4.8265  -4.7549  -4.7549
    -4.6240  -4.6240  -4.5619  -4.5619  -4.4203  -4.4203  -4.2926  -4.2926
    -4.0878  -4.0878  -3.9997  -3.9997  -3.6357  -3.6357  -3.5647  -3.5647
    -3.3486  -3.3486  -3.2656  -3.2656  -2.6635  -2.6635  -2.5502  -2.5502
    -2.4230  -2.4230  -2.2915  -2.2915  -1.9025  -1.9025  -1.8677  -1.8677
    -1.7355  -1.7355  -1.6219  -1.6219  -1.3322  -1.3322  -1.2508  -1.2508
    -1.0423  -1.0423  -0.9536  -0.9536  -0.2310  -0.2310  -0.1780  -0.1780
     0.1901   0.1901   0.2454   0.2454   0.5077   0.5077   0.6110   0.6110
     0.8686   0.8686   0.9278   0.9278   1.2121   1.2121   1.2791   1.2791
     6.8116   6.8116   7.0406   7.0406   7.2273   7.2273   7.4530   7.4530
     7.7890   7.7890   7.9105   7.9105   8.2523   8.2523   8.4009   8.4009
     8.5404   8.5404   8.7371   8.7371   9.0190   9.0190   9.3075   9.3075
     9.4573

          k =-0.3333 0.0000 0.4171 ( 81379 PWs)   bands (ev):

   -20.8416 -20.8304 -20.8299 -20.8187 -18.6179 -18.6115 -18.5865 -18.5822
   -18.3573 -18.3543 -18.3187 -18.3117 -18.1975 -18.1820 -18.1355 -18.1212
   -15.5642 -15.5600 -15.5002 -15.4966 -12.7312 -12.7096 -12.6970 -12.6720
   -11.7390 -11.6932 -11.6703 -11.6292  -9.7466  -9.7228  -9.7051  -9.6840
    -9.3258  -9.2953  -9.2628  -9.2406  -8.6001  -8.5575  -8.5531  -8.5138
    -7.3681  -7.3518  -7.3071  -7.2719  -6.8274  -6.8054  -6.6172  -6.5532
    -6.1404  -6.1296  -6.0292  -6.0142  -5.7147  -5.6359  -5.5357  -5.4249
    -5.1198  -5.0624  -5.0358  -4.9782  -4.8381  -4.8251  -4.7638  -4.7286
    -4.6401  -4.6028  -4.5844  -4.5398  -4.4777  -4.3573  -4.3271  -4.2654
    -4.1184  -4.0993  -4.0225  -3.9450  -3.6532  -3.6278  -3.5699  -3.5335
    -3.3848  -3.3225  -3.2995  -3.2438  -2.6940  -2.6465  -2.5392  -2.5367
    -2.4765  -2.3908  -2.3201  -2.2296  -1.9321  -1.8942  -1.8611  -1.8212
    -1.7980  -1.7203  -1.6515  -1.5854  -1.3689  -1.3094  -1.2965  -1.2086
    -1.0822  -1.0540  -0.9532  -0.8905  -0.2440  -0.2103  -0.1954  -0.1687
     0.1457   0.1885   0.2557   0.2849   0.5004   0.5145   0.5765   0.6423
     0.8390   0.8746   0.9329   0.9377   1.1889   1.2180   1.2676   1.3110
     6.7580   6.9118   7.0054   7.0992   7.1354   7.2701   7.4288   7.5701
     7.6372   7.6994   7.8498   7.9706   8.2694   8.2781   8.3460   8.4698
     8.5460   8.6692   8.7673   8.8474   8.9516   9.1410   9.1703   9.2000
     9.3766

          k =-0.3333 0.2660 0.4171 ( 81332 PWs)   bands (ev):

   -20.8383 -20.8383 -20.8220 -20.8220 -18.6149 -18.6149 -18.5842 -18.5842
   -18.3557 -18.3557 -18.3153 -18.3153 -18.1905 -18.1905 -18.1275 -18.1275
   -15.5622 -15.5622 -15.4984 -15.4984 -12.7238 -12.7238 -12.6810 -12.6810
   -11.7226 -11.7226 -11.6433 -11.6433  -9.7368  -9.7368  -9.6926  -9.6926
    -9.3128  -9.3128  -9.2493  -9.2493  -8.5867  -8.5867  -8.5256  -8.5256
    -7.3440  -7.3440  -7.3104  -7.3104  -6.8029  -6.8029  -6.5963  -6.5963
    -6.1129  -6.1129  -6.0531  -6.0531  -5.6552  -5.6552  -5.4893  -5.4893
    -5.0953  -5.0953  -5.0039  -5.0039  -4.8266  -4.8266  -4.7548  -4.7548
    -4.6239  -4.6239  -4.5619  -4.5619  -4.4204  -4.4204  -4.2926  -4.2926
    -4.0876  -4.0876  -3.9998  -3.9998  -3.6357  -3.6357  -3.5647  -3.5647
    -3.3484  -3.3484  -3.2657  -3.2657  -2.6636  -2.6636  -2.5501  -2.5501
    -2.4230  -2.4230  -2.2916  -2.2916  -1.9024  -1.9024  -1.8677  -1.8677
    -1.7357  -1.7357  -1.6217  -1.6217  -1.3323  -1.3323  -1.2507  -1.2507
    -1.0423  -1.0423  -0.9537  -0.9537  -0.2310  -0.2310  -0.1780  -0.1780
     0.1901   0.1901   0.2454   0.2454   0.5078   0.5078   0.6110   0.6110
     0.8685   0.8685   0.9279   0.9279   1.2121   1.2121   1.2791   1.2791
     6.8116   6.8116   7.0407   7.0407   7.2273   7.2273   7.4529   7.4529
     7.7892   7.7892   7.9104   7.9104   8.2521   8.2521   8.4009   8.4009
     8.5404   8.5404   8.7373   8.7373   9.0185   9.0185   9.3080   9.3080
     9.4568

     highest occupied, lowest unoccupied level (ev):     1.3113    6.4427

!    total energy              =   -1274.22252251 Ry
     Harris-Foulkes estimate   =   -1274.22252251 Ry
     estimated scf accuracy    <          7.9E-09 Ry

     total all-electron energy =     -4727.306249 Ry

     The total energy is the sum of the following terms:

     one-electron contribution =    -725.04768710 Ry
     hartree contribution      =     468.90149228 Ry
     xc contribution           =    -272.20666518 Ry
     ewald contribution        =    -400.56874069 Ry
     Dispersion Correction     =      -0.41733228 Ry
     one-center paw contrib.   =    -344.88358954 Ry

     convergence has been achieved in  21 iterations

     Forces acting on atoms (cartesian axes, Ry/au):

     atom    1 type  2   force =    -0.00230976   -0.00569911   -0.01516725
     atom    2 type  2   force =    -0.00204111    0.00551794    0.01527309
     atom    3 type  2   force =     0.00230951   -0.00569862    0.01516705
     atom    4 type  2   force =     0.00204088    0.00551761   -0.01527266
     atom    5 type  1   force =    -0.00410918   -0.00236065   -0.00208219
     atom    6 type  1   force =    -0.00410646    0.00228461    0.00220103
     atom    7 type  1   force =     0.00411010   -0.00236057    0.00209587
     atom    8 type  1   force =     0.00410607    0.00228491   -0.00221515
     atom    9 type  1   force =    -0.00135283    0.00222271   -0.00599762
     atom   10 type  1   force =    -0.00132191   -0.00221624    0.00599656
     atom   11 type  1   force =     0.00135363    0.00222248    0.00599426
     atom   12 type  1   force =     0.00132286   -0.00221594   -0.00599330
     atom   13 type  1   force =    -0.00208963    0.00065173    0.00787019
     atom   14 type  1   force =    -0.00220370   -0.00059767   -0.00791204
     atom   15 type  1   force =     0.00208920    0.00065120   -0.00789278
     atom   16 type  1   force =     0.00220372   -0.00059656    0.00793587
     atom   17 type  1   force =    -0.00520863    0.00293561   -0.00016646
     atom   18 type  1   force =    -0.00527621   -0.00286435    0.00044970
     atom   19 type  1   force =     0.00520818    0.00293520    0.00017109
     atom   20 type  1   force =     0.00527609   -0.00286405   -0.00045393
     atom   21 type  1   force =     0.00542600    0.00124015   -0.00240002
     atom   22 type  1   force =     0.00539114   -0.00110621    0.00234365
     atom   23 type  1   force =    -0.00542636    0.00123991    0.00239896
     atom   24 type  1   force =    -0.00539151   -0.00110563   -0.00234280
     atom   25 type  1   force =    -0.00245572   -0.00142083    0.00492545
     atom   26 type  1   force =    -0.00237793    0.00138810   -0.00494403
     atom   27 type  1   force =     0.00245618   -0.00142201   -0.00494378
     atom   28 type  1   force =     0.00237795    0.00138904    0.00496211
     atom   29 type  4   force =     0.00334602    0.00200743   -0.00049718
     atom   30 type  4   force =     0.00332513   -0.00200689    0.00048179
     atom   31 type  4   force =    -0.00334519    0.00200647    0.00049652
     atom   32 type  4   force =    -0.00332488   -0.00200622   -0.00048110
     atom   33 type  4   force =     0.01366387    0.00476619   -0.00282998
     atom   34 type  4   force =     0.01366964   -0.00477196    0.00281874
     atom   35 type  4   force =    -0.01366439    0.00476601    0.00282936
     atom   36 type  4   force =    -0.01366922   -0.00477178   -0.00281881
     atom   37 type  4   force =    -0.00005308    0.00000587   -0.00017151
     atom   38 type  4   force =     0.00036405   -0.00002057   -0.00050412
     atom   39 type  4   force =     0.00005250    0.00000588    0.00017501
     atom   40 type  4   force =    -0.00036467   -0.00002063    0.00050069
     atom   41 type  4   force =     0.00083014    0.00449367    0.00333822
     atom   42 type  4   force =     0.00083619   -0.00447849   -0.00335599
     atom   43 type  4   force =    -0.00082954    0.00449518   -0.00333767
     atom   44 type  4   force =    -0.00083589   -0.00447912    0.00335509
     atom   45 type  3   force =     0.00158599    0.00047985   -0.00015671
     atom   46 type  3   force =     0.00136995   -0.00041891    0.00014437
     atom   47 type  3   force =    -0.00158610    0.00047991    0.00015635
     atom   48 type  3   force =    -0.00136996   -0.00041893   -0.00014402
     atom   49 type  3   force =    -0.00411414   -0.00680582    0.01668163
     atom   50 type  3   force =    -0.00414300    0.00685965   -0.01676758
     atom   51 type  3   force =     0.00411406   -0.00680585   -0.01668136
     atom   52 type  3   force =     0.00414291    0.00685962    0.01676729
     atom   53 type  3   force =    -0.00138475    0.00273194   -0.00085072
     atom   54 type  3   force =    -0.00139135   -0.00272852    0.00084781
     atom   55 type  3   force =     0.00138471    0.00273201    0.00085105
     atom   56 type  3   force =     0.00139112   -0.00272841   -0.00084826
     atom   57 type  3   force =    -0.00037228    0.00062802   -0.00047917
     atom   58 type  3   force =    -0.00063691   -0.00073742    0.00104120
     atom   59 type  3   force =     0.00037211    0.00062804    0.00047891
     atom   60 type  3   force =     0.00063671   -0.00073745   -0.00104091
     atom   61 type  3   force =    -0.00347424   -0.00033034    0.00191473
     atom   62 type  3   force =    -0.00348346    0.00035177   -0.00197674
     atom   63 type  3   force =     0.00347402   -0.00033014   -0.00191454
     atom   64 type  3   force =     0.00348307    0.00035162    0.00197646
     atom   65 type  3   force =    -0.00048661   -0.00037207   -0.00058382
     atom   66 type  3   force =    -0.00047569    0.00037315    0.00058627
     atom   67 type  3   force =     0.00048653   -0.00037268    0.00058357
     atom   68 type  3   force =     0.00047554    0.00037241   -0.00058591
     atom   69 type  3   force =    -0.00115845    0.00049525    0.00102182
     atom   70 type  3   force =    -0.00112079   -0.00048175   -0.00100832
     atom   71 type  3   force =     0.00115860    0.00049518   -0.00102150
     atom   72 type  3   force =     0.00112084   -0.00048165    0.00100821
     atom   73 type  3   force =    -0.00151371    0.00127648   -0.00035732
     atom   74 type  3   force =    -0.00151591   -0.00124455    0.00024779
     atom   75 type  3   force =     0.00151387    0.00127649    0.00035677
     atom   76 type  3   force =     0.00151607   -0.00124455   -0.00024728
     atom   77 type  3   force =    -0.00026890   -0.00025908    0.00016717
     atom   78 type  3   force =    -0.00029270    0.00019653   -0.00016084
     atom   79 type  3   force =     0.00026897   -0.00025891   -0.00016733
     atom   80 type  3   force =     0.00029264    0.00019667    0.00016098
     atom   81 type  3   force =     0.00195154   -0.00232639   -0.00385575
     atom   82 type  3   force =     0.00194984    0.00234201    0.00386143
     atom   83 type  3   force =    -0.00195148   -0.00232599    0.00385557
     atom   84 type  3   force =    -0.00194983    0.00234154   -0.00386115
     atom   85 type  3   force =     0.00132536   -0.00099926   -0.00019701
     atom   86 type  3   force =     0.00132053    0.00099800    0.00019802
     atom   87 type  3   force =    -0.00132537   -0.00099914    0.00019656
     atom   88 type  3   force =    -0.00132064    0.00099787   -0.00019762

     Total force =     0.068767     Total SCF correction =     0.000206


     Computing stress (Cartesian axis) and pressure

          total   stress  (Ry/bohr**3)                   (kbar)     P=   -4.70
  -0.00004675   0.00000000   0.00000027         -6.88      0.00      0.04
   0.00000000  -0.00000926  -0.00000000          0.00     -1.36     -0.00
   0.00000027  -0.00000000  -0.00003994          0.04     -0.00     -5.88


     Writing output data file scf.save
 
     init_run     :     31.60s CPU     32.86s WALL (       1 calls)
     electrons    :   1558.04s CPU   1615.93s WALL (       1 calls)
     forces       :     14.99s CPU     15.11s WALL (       1 calls)
     stress       :     60.86s CPU     61.04s WALL (       1 calls)

     Called by init_run:
     wfcinit      :     27.20s CPU     28.37s WALL (       1 calls)
     potinit      :      1.65s CPU      1.66s WALL (       1 calls)

     Called by electrons:
     c_bands      :   1404.32s CPU   1455.44s WALL (      21 calls)
     sum_band     :    139.45s CPU    144.98s WALL (      21 calls)
     v_of_rho     :      1.99s CPU      2.17s WALL (      22 calls)
     newd         :      4.01s CPU      4.94s WALL (      22 calls)
     PAW_pot      :      7.51s CPU      7.51s WALL (      22 calls)
     mix_rho      :      0.50s CPU      0.53s WALL (      21 calls)

     Called by c_bands:
     init_us_2    :      8.36s CPU      8.38s WALL (     450 calls)
     cegterg      :   1373.76s CPU   1424.77s WALL (     210 calls)

     Called by sum_band:
     sum_band:bec :      0.09s CPU      0.09s WALL (     210 calls)
     addusdens    :      4.07s CPU      4.95s WALL (      21 calls)

     Called by *egterg:
     h_psi        :    752.27s CPU    790.95s WALL (     872 calls)
     s_psi        :    152.25s CPU    152.27s WALL (     872 calls)
     g_psi        :      4.10s CPU      4.10s WALL (     652 calls)
     cdiaghg      :     70.53s CPU     70.51s WALL (     862 calls)

     Called by h_psi:
     h_psi:pot    :    746.25s CPU    784.86s WALL (     872 calls)
     h_psi:calbec :    152.49s CPU    152.82s WALL (     872 calls)
     vloc_psi     :    440.98s CPU    479.24s WALL (     872 calls)
     add_vuspsi   :    152.77s CPU    152.79s WALL (     872 calls)

     General routines
     calbec       :    215.82s CPU    216.27s WALL (    1132 calls)
     fft          :      1.22s CPU      1.54s WALL (     310 calls)
     fftw         :    472.99s CPU    513.11s WALL (  221050 calls)
 
     Parallel routines
     fft_scatter  :    107.62s CPU    136.33s WALL (  221360 calls)
 
     PWSCF        : 27m54.29s CPU    29m42.28s WALL

 
   This run was terminated on:   5:51:50  18Dec2017            

=------------------------------------------------------------------------------=
   JOB DONE.
=------------------------------------------------------------------------------=
