
     Program PWSCF v.6.1 (svn rev. 13369) starts on 10Dec2017 at  5:28:13 

     This program is part of the open-source Quantum ESPRESSO suite
     for quantum simulation of materials; please cite
         "P. Giannozzi et al., J. Phys.:Condens. Matter 21 395502 (2009);
          URL http://www.quantum-espresso.org", 
     in publications or presentations arising from this work. More details at
     http://www.quantum-espresso.org/quote

     Parallel version (MPI), running on     8 processors
     R & G space division:  proc/nbgrp/npool/nimage =       8
     Waiting for input...
     Reading input from standard input

     Current dimensions of program PWSCF are:
     Max number of different atomic species (ntypx) = 10
     Max number of k-points (npk) =  40000
     Max angular momentum in pseudopotentials (lmaxx) =  3
               file C.pbe-n-kjpaw_psl.0.1.UPF: wavefunction(s)  2P renormalized
               file N.pbe-n-kjpaw_psl.0.1.UPF: wavefunction(s)  2P renormalized
               file H.pbe-kjpaw_psl.0.1.UPF: wavefunction(s)  1S renormalized
               file O.pbe-n-kjpaw_psl.0.1.UPF: wavefunction(s)  2P renormalized

     -------------------------------------
     Parameters for Dispersion Correction:
     -------------------------------------
       atom      VdW radius       C_6     

        C          2.744         60.710
        N          2.640         42.670
        H          1.892          4.857
        O          2.536         24.284

     Subspace diagonalization in iterative solution of the eigenvalue problem:
     a serial algorithm will be used

 
     Parallelization info
     --------------------
     sticks:   dense  smooth     PW     G-vecs:    dense   smooth      PW
     Min         864     864    232               137853   137853   19111
     Max         865     865    233               137858   137858   19114
     Sum        6915    6915   1857              1102843  1102843  152903
 


     bravais-lattice index     =            0
     lattice parameter (alat)  =      22.2723  a.u.
     unit-cell volume          =    8165.3380 (a.u.)^3
     number of atoms/cell      =          116
     number of atomic types    =            4
     number of electrons       =       416.00
     number of Kohn-Sham states=          249
     kinetic-energy cutoff     =     100.0000  Ry
     charge density cutoff     =     400.0000  Ry
     convergence threshold     =      1.0E-08
     mixing beta               =       0.5000
     number of iterations used =            8  plain     mixing
     Exchange-correlation      =  SLA  PW   PBX  PBC ( 1  4  3  4 0 0)

     celldm(1)=  22.272312  celldm(2)=   0.000000  celldm(3)=   0.000000
     celldm(4)=   0.000000  celldm(5)=   0.000000  celldm(6)=   0.000000

     crystal axes: (cart. coord. in units of alat)
               a(1) = (   1.000000   0.000000   0.000000 )  
               a(2) = (   0.000000   0.437926   0.000000 )  
               a(3) = (  -0.155814   0.000000   1.687630 )  

     reciprocal axes: (cart. coord. in units 2 pi/alat)
               b(1) = (  1.000000  0.000000  0.092327 )  
               b(2) = (  0.000000  2.283489  0.000000 )  
               b(3) = (  0.000000  0.000000  0.592547 )  


     PseudoPot. # 1 for  C read from file:
     /scratch/ahofstet/pseudo/C.pbe-n-kjpaw_psl.0.1.UPF
     MD5 check sum: 430fe95172b1e11ef3f8ed03bac87931
     Pseudo is Projector augmented-wave + core cor, Zval =  4.0
     Generated using "atomic" code by A. Dal Corso  v.5.0.99 svn rev. 10869
     Shape of augmentation charge: BESSEL
     Using radial grid of 1073 points,  4 beta functions with: 
                l(1) =   0
                l(2) =   0
                l(3) =   1
                l(4) =   1
     Q(r) pseudized with 0 coefficients 


     PseudoPot. # 2 for  N read from file:
     /scratch/ahofstet/pseudo/N.pbe-n-kjpaw_psl.0.1.UPF
     MD5 check sum: f73187c8b701007e77325f868c9291d7
     Pseudo is Projector augmented-wave + core cor, Zval =  5.0
     Generated using "atomic" code by A. Dal Corso  v.5.0.99 svn rev. 10869
     Shape of augmentation charge: PSQ
     Using radial grid of 1085 points,  4 beta functions with: 
                l(1) =   0
                l(2) =   0
                l(3) =   1
                l(4) =   1
     Q(r) pseudized with 0 coefficients 


     PseudoPot. # 3 for  H read from file:
     /scratch/ahofstet/pseudo/H.pbe-kjpaw_psl.0.1.UPF
     MD5 check sum: 94e484f906d9e9773b2f6e52662335b2
     Pseudo is Projector augmented-wave, Zval =  1.0
     Generated using "atomic" code by A. Dal Corso  v.5.0.99 svn rev. 10869
     Shape of augmentation charge: PSQ
     Using radial grid of  929 points,  2 beta functions with: 
                l(1) =   0
                l(2) =   0
     Q(r) pseudized with 0 coefficients 


     PseudoPot. # 4 for  O read from file:
     /scratch/ahofstet/pseudo/O.pbe-n-kjpaw_psl.0.1.UPF
     MD5 check sum: 3f94a2996a3169367d6eb21d9b593f20
     Pseudo is Projector augmented-wave + core cor, Zval =  6.0
     Generated using "atomic" code by A. Dal Corso  v.5.0.99 svn rev. 10869
     Shape of augmentation charge: BESSEL
     Using radial grid of 1095 points,  4 beta functions with: 
                l(1) =   0
                l(2) =   0
                l(3) =   1
                l(4) =   1
     Q(r) pseudized with 0 coefficients 


     atomic species   valence    mass     pseudopotential
        C              4.00    12.01070      C( 1.00)
        N              5.00    14.00670      N( 1.00)
        H              1.00     1.00794      H( 1.00)
        O              6.00    15.99940      O( 1.00)

      2 Sym. Ops., with inversion, found
          (note:  2 additional sym.ops. were found but ignored
           their fractional translations are incommensurate with FFT grid)


   Cartesian axes

     site n.     atom                  positions (alat units)
         1           N   tau(   1) = (   0.0187502   0.1210716   1.5208236  )
         2           N   tau(   2) = (   0.5966572   0.0978916   0.6770088  )
         3           N   tau(   3) = (   0.8254358   0.3168548   0.1668061  )
         4           N   tau(   4) = (   0.2475288   0.3400347   1.0106210  )
         5           C   tau(   5) = (   0.1155413   0.0640640   1.5512956  )
         6           C   tau(   6) = (   0.6934483   0.1548992   0.7074808  )
         7           C   tau(   7) = (   0.7286447   0.3738624   0.1363341  )
         8           C   tau(   8) = (   0.1507377   0.2830271   0.9801490  )
         9           N   tau(   9) = (   0.1700285   0.1043821   1.6420281  )
        10           N   tau(  10) = (   0.7479355   0.1145811   0.7982133  )
        11           N   tau(  11) = (   0.6741575   0.3335443   0.0456016  )
        12           N   tau(  12) = (   0.0962505   0.3233452   0.8894165  )
        13           H   tau(  13) = (   0.1407623   0.1749348   1.6850257  )
        14           H   tau(  14) = (   0.7186693   0.0440283   0.8412108  )
        15           H   tau(  15) = (   0.7034237   0.2629915   0.0026040  )
        16           H   tau(  16) = (   0.1255167   0.3938980   0.8464189  )
        17           H   tau(  17) = (   0.2452831   0.0689552   1.6648085  )
        18           H   tau(  18) = (   0.8231901   0.1500080   0.8209937  )
        19           H   tau(  19) = (   0.5989029   0.3689711   0.0228212  )
        20           H   tau(  20) = (   0.0209959   0.2879184   0.8666361  )
        21           O   tau(  21) = (   0.3196941   0.3818679   1.5805203  )
        22           O   tau(  22) = (   0.8976011   0.2750216   0.7367054  )
        23           O   tau(  23) = (   0.5244919   0.0560584   0.1071095  )
        24           O   tau(  24) = (  -0.0534151   0.1629047   0.9509243  )
        25           C   tau(  25) = (   0.1482974   0.4031704   1.4876721  )
        26           C   tau(  26) = (   0.7262044   0.2537191   0.6438572  )
        27           C   tau(  27) = (   0.6958886   0.0347559   0.1999577  )
        28           C   tau(  28) = (   0.1179816   0.1842072   1.0437725  )
        29           N   tau(  29) = (   0.2543149   0.3449397   1.5050606  )
        30           N   tau(  30) = (   0.8322219   0.3119499   0.6612458  )
        31           N   tau(  31) = (   0.5898711   0.0929867   0.1825691  )
        32           N   tau(  32) = (   0.0119641   0.1259765   1.0263840  )
        33           O   tau(  33) = (   0.2795109   0.2638253   1.4426174  )
        34           O   tau(  34) = (   0.8574179   0.3930643   0.5988025  )
        35           O   tau(  35) = (   0.5646751   0.1741011   0.2450124  )
        36           O   tau(  36) = (  -0.0132319   0.0448621   1.0888272  )
        37           C   tau(  37) = (   0.0751740   0.3598437   1.4041741  )
        38           C   tau(  38) = (   0.6530810   0.2970459   0.5603593  )
        39           C   tau(  39) = (   0.7690120   0.0780827   0.2834556  )
        40           C   tau(  40) = (   0.1911050   0.1408805   1.1272705  )
        41           H   tau(  41) = (   0.1007469   0.2838522   1.3585826  )
        42           H   tau(  42) = (   0.6786539   0.3730373   0.5147678  )
        43           H   tau(  43) = (   0.7434391   0.1540742   0.3290471  )
        44           H   tau(  44) = (   0.1655321   0.0648890   1.1728620  )
        45           C   tau(  45) = (  -0.0238822  -0.0203451   1.3783129  )
        46           C   tau(  46) = (   0.5540248   0.2393083   0.5344980  )
        47           C   tau(  47) = (   0.8680682   0.4582715   0.3093169  )
        48           C   tau(  48) = (   0.2901612   0.1986180   1.1531317  )
        49           H   tau(  49) = (  -0.0815779   0.3887674   1.3123687  )
        50           H   tau(  50) = (   0.4963291   0.2681221   0.4685538  )
        51           H   tau(  51) = (   0.9257639   0.0491590   0.3752610  )
        52           H   tau(  52) = (   0.3478569   0.1698042   1.2190759  )
        53           C   tau(  53) = (  -0.0453355   0.0807565   1.4369980  )
        54           C   tau(  54) = (   0.5325715   0.1382067   0.5931831  )
        55           C   tau(  55) = (   0.8895215   0.3571699   0.2506317  )
        56           C   tau(  56) = (   0.3116145   0.2997197   1.0944466  )
        57           H   tau(  57) = (  -0.1173551   0.1335317   1.4120738  )
        58           H   tau(  58) = (   0.4605519   0.0854315   0.5682590  )
        59           H   tau(  59) = (   0.9615411   0.3043947   0.2755559  )
        60           H   tau(  60) = (   0.3836341   0.3524949   1.1193708  )
        61           N   tau(  61) = (   0.2498490   0.3017531   0.0943179  )
        62           N   tau(  62) = (   0.6719420   0.3551365   0.9381328  )
        63           N   tau(  63) = (   0.5943370   0.1361733   1.5933118  )
        64           N   tau(  64) = (   0.1722440   0.0827899   0.7494970  )
        65           C   tau(  65) = (   0.1524404   0.3552493   0.0586201  )
        66           C   tau(  66) = (   0.5745334   0.3016402   0.9024349  )
        67           C   tau(  67) = (   0.6917456   0.0826770   1.6290097  )
        68           C   tau(  68) = (   0.2696526   0.1362862   0.7851948  )
        69           N   tau(  69) = (  -0.0613865   0.3084482   1.6619145  )
        70           N   tau(  70) = (   0.5165205   0.3484414   0.8180996  )
        71           N   tau(  71) = (   0.9055725   0.1294782   0.0257153  )
        72           N   tau(  72) = (   0.3276655   0.0894850   0.8695301  )
        73           H   tau(  73) = (  -0.0305267   0.2385994   1.6176343  )
        74           H   tau(  74) = (   0.5473803   0.4182902   0.7738195  )
        75           H   tau(  75) = (   0.8747127   0.1993270   0.0699954  )
        76           H   tau(  76) = (   0.2968057   0.0196362   0.9138103  )
        77           H   tau(  77) = (  -0.1346921   0.3489763   1.6342588  )
        78           H   tau(  78) = (   0.4432149   0.3079132   0.7904439  )
        79           H   tau(  79) = (   0.9788781   0.0889500   0.0533709  )
        80           H   tau(  80) = (   0.4009711   0.1300131   0.8971858  )
        81           N   tau(  81) = (   0.1106308   0.0157827   0.1036999  )
        82           N   tau(  82) = (   0.5327238   0.2031805   0.9475148  )
        83           N   tau(  83) = (   0.7335552   0.4221436   1.5839298  )
        84           N   tau(  84) = (   0.3114622   0.2347459   0.7401150  )
        85           C   tau(  85) = (   0.1676583   0.0621073   0.1887935  )
        86           C   tau(  86) = (   0.5897513   0.1568558   1.0326084  )
        87           C   tau(  87) = (   0.6765277   0.3758190   1.4988362  )
        88           C   tau(  88) = (   0.2544347   0.2810705   0.6550213  )
        89           H   tau(  89) = (   0.1345816   0.1398998   0.2264194  )
        90           H   tau(  90) = (   0.5566746   0.0790634   1.0702343  )
        91           H   tau(  91) = (   0.7096044   0.2980266   1.4612103  )
        92           H   tau(  92) = (   0.2875114   0.3588630   0.6173954  )
        93           C   tau(  93) = (   0.2655098   0.4485674   0.2326123  )
        94           C   tau(  94) = (   0.6876028   0.2083222   1.0764271  )
        95           C   tau(  95) = (   0.5786762  -0.0106410   1.4550175  )
        96           C   tau(  96) = (   0.1565832   0.2296042   0.6112026  )
        97           N   tau(  97) = (   0.3234834   0.0588940   0.3285397  )
        98           N   tau(  98) = (   0.7455764   0.1600692   1.1723546  )
        99           N   tau(  99) = (   0.5207026   0.3790324   1.3590900  )
       100           N   tau( 100) = (   0.0986096   0.2778571   0.5152752  )
       101           O   tau( 101) = (   0.2864444   0.1495202   0.3684114  )
       102           O   tau( 102) = (   0.7085374   0.0694429   1.2122263  )
       103           O   tau( 103) = (   0.5577416   0.2884061   1.3192183  )
       104           O   tau( 104) = (   0.1356486   0.3684834   0.4754034  )
       105           C   tau( 105) = (   0.3039194   0.3479609   0.1817814  )
       106           C   tau( 106) = (   0.7260124   0.3089286   1.0255963  )
       107           C   tau( 107) = (   0.5402666   0.0899654   1.5058483  )
       108           C   tau( 108) = (   0.1181736   0.1289977   0.6620334  )
       109           H   tau( 109) = (   0.3805661   0.3059403   0.2126861  )
       110           H   tau( 110) = (   0.8026591   0.3509492   1.0565010  )
       111           H   tau( 111) = (   0.4636199   0.1319860   1.4749436  )
       112           H   tau( 112) = (   0.0415269   0.0869772   0.6311287  )
       113           O   tau( 113) = (   0.4062202   0.4446014   0.3678402  )
       114           O   tau( 114) = (   0.8283132   0.2122881   1.2116551  )
       115           O   tau( 115) = (   0.4379658  -0.0066750   1.3197895  )
       116           O   tau( 116) = (   0.0158728   0.2256382   0.4759747  )

     number of k points=     6
                       cart. coord. in units 2pi/alat
        k(    1) = (   0.0000000   0.0000000   0.0000000), wk =   0.2500000
        k(    2) = (   0.0000000   0.5708722   0.0000000), wk =   0.5000000
        k(    3) = (   0.0000000  -1.1417445   0.0000000), wk =   0.2500000
        k(    4) = (  -0.5000000   0.0000000  -0.0461636), wk =   0.2500000
        k(    5) = (  -0.5000000   0.5708722  -0.0461636), wk =   0.5000000
        k(    6) = (  -0.5000000  -1.1417445  -0.0461636), wk =   0.2500000

     Dense  grid:  1102843 G-vectors     FFT dimensions: ( 144,  64, 243)

     Estimated max dynamical RAM per process >    1283.62MB

     Estimated total allocated dynamical RAM >   10268.95MB

     Check: negative/imaginary core charge=   -0.000002    0.000000

     Initial potential from superposition of free atoms

     starting charge  415.99793, renormalised to  416.00000
     Starting wfc are  356 randomized atomic wfcs
     Checking if some PAW data can be deallocated... 

     total cpu time spent up to now is       53.9 secs

     per-process dynamical memory:   808.1 Mb

     Self-consistent Calculation

     iteration #  1     ecut=   100.00 Ry     beta=0.50
     Davidson diagonalization with overlap
     ethr =  1.00E-02,  avg # of iterations =  3.2

     total cpu time spent up to now is      198.9 secs

     total energy              =   -2159.26525025 Ry
     Harris-Foulkes estimate   =   -2166.14188017 Ry
     estimated scf accuracy    <      12.61598205 Ry

     iteration #  2     ecut=   100.00 Ry     beta=0.50
     Davidson diagonalization with overlap
     ethr =  3.03E-03,  avg # of iterations =  3.0

     total cpu time spent up to now is      292.6 secs

     total energy              =   -2160.93324390 Ry
     Harris-Foulkes estimate   =   -2162.49397172 Ry
     estimated scf accuracy    <       3.19007134 Ry

     iteration #  3     ecut=   100.00 Ry     beta=0.50
     Davidson diagonalization with overlap
     ethr =  7.67E-04,  avg # of iterations =  7.5

     total cpu time spent up to now is      411.3 secs

     total energy              =   -2161.78872699 Ry
     Harris-Foulkes estimate   =   -2162.22645323 Ry
     estimated scf accuracy    <       1.05265711 Ry

     iteration #  4     ecut=   100.00 Ry     beta=0.50
     Davidson diagonalization with overlap
     ethr =  2.53E-04,  avg # of iterations =  7.5

     total cpu time spent up to now is      504.9 secs

     total energy              =   -2161.96026280 Ry
     Harris-Foulkes estimate   =   -2162.02241992 Ry
     estimated scf accuracy    <       0.15542224 Ry

     iteration #  5     ecut=   100.00 Ry     beta=0.50
     Davidson diagonalization with overlap
     ethr =  3.74E-05,  avg # of iterations =  9.0

     total cpu time spent up to now is      659.0 secs

     total energy              =   -2162.01348266 Ry
     Harris-Foulkes estimate   =   -2162.02588207 Ry
     estimated scf accuracy    <       0.03392109 Ry

     iteration #  6     ecut=   100.00 Ry     beta=0.50
     Davidson diagonalization with overlap
     c_bands:  1 eigenvalues not converged
     ethr =  8.15E-06,  avg # of iterations =  7.7

     total cpu time spent up to now is      754.1 secs

     total energy              =   -2162.01765652 Ry
     Harris-Foulkes estimate   =   -2162.02021172 Ry
     estimated scf accuracy    <       0.00637993 Ry

     iteration #  7     ecut=   100.00 Ry     beta=0.50
     Davidson diagonalization with overlap
     ethr =  1.53E-06,  avg # of iterations = 11.2

     total cpu time spent up to now is      897.3 secs

     total energy              =   -2162.01934286 Ry
     Harris-Foulkes estimate   =   -2162.02100732 Ry
     estimated scf accuracy    <       0.00519242 Ry

     iteration #  8     ecut=   100.00 Ry     beta=0.50
     Davidson diagonalization with overlap
     ethr =  1.25E-06,  avg # of iterations =  2.0

     total cpu time spent up to now is      975.3 secs

     total energy              =   -2162.02004121 Ry
     Harris-Foulkes estimate   =   -2162.02016686 Ry
     estimated scf accuracy    <       0.00036211 Ry

     iteration #  9     ecut=   100.00 Ry     beta=0.50
     Davidson diagonalization with overlap
     ethr =  8.70E-08,  avg # of iterations =  4.0

     total cpu time spent up to now is     1108.8 secs

     total energy              =   -2162.02019372 Ry
     Harris-Foulkes estimate   =   -2162.02022724 Ry
     estimated scf accuracy    <       0.00010990 Ry

     iteration # 10     ecut=   100.00 Ry     beta=0.50
     Davidson diagonalization with overlap
     ethr =  2.64E-08,  avg # of iterations =  2.0

     total cpu time spent up to now is     1185.7 secs

     total energy              =   -2162.02020068 Ry
     Harris-Foulkes estimate   =   -2162.02021008 Ry
     estimated scf accuracy    <       0.00002488 Ry

     iteration # 11     ecut=   100.00 Ry     beta=0.50
     Davidson diagonalization with overlap
     ethr =  5.98E-09,  avg # of iterations =  4.0

     total cpu time spent up to now is     1302.8 secs

     total energy              =   -2162.02020815 Ry
     Harris-Foulkes estimate   =   -2162.02021234 Ry
     estimated scf accuracy    <       0.00001293 Ry

     iteration # 12     ecut=   100.00 Ry     beta=0.50
     Davidson diagonalization with overlap
     ethr =  3.11E-09,  avg # of iterations =  2.3

     total cpu time spent up to now is     1380.6 secs

     total energy              =   -2162.02020977 Ry
     Harris-Foulkes estimate   =   -2162.02021028 Ry
     estimated scf accuracy    <       0.00000141 Ry

     iteration # 13     ecut=   100.00 Ry     beta=0.50
     Davidson diagonalization with overlap
     ethr =  3.40E-10,  avg # of iterations =  4.0

     total cpu time spent up to now is     1503.9 secs

     total energy              =   -2162.02021034 Ry
     Harris-Foulkes estimate   =   -2162.02021046 Ry
     estimated scf accuracy    <       0.00000033 Ry

     iteration # 14     ecut=   100.00 Ry     beta=0.50
     Davidson diagonalization with overlap
     ethr =  7.94E-11,  avg # of iterations =  2.7

     total cpu time spent up to now is     1581.6 secs

     total energy              =   -2162.02021037 Ry
     Harris-Foulkes estimate   =   -2162.02021041 Ry
     estimated scf accuracy    <       0.00000011 Ry

     iteration # 15     ecut=   100.00 Ry     beta=0.50
     Davidson diagonalization with overlap
     ethr =  2.69E-11,  avg # of iterations =  3.5

     total cpu time spent up to now is     1679.2 secs

     total energy              =   -2162.02021040 Ry
     Harris-Foulkes estimate   =   -2162.02021041 Ry
     estimated scf accuracy    <       0.00000002 Ry

     iteration # 16     ecut=   100.00 Ry     beta=0.50
     Davidson diagonalization with overlap
     ethr =  4.72E-12,  avg # of iterations =  3.2

     total cpu time spent up to now is     1779.4 secs

     End of self-consistent calculation

          k = 0.0000 0.0000 0.0000 (137981 PWs)   bands (ev):

   -23.8060 -23.8053 -23.7888 -23.7874 -23.7468 -23.7436 -23.7402 -23.7377
   -19.3424 -19.3419 -19.3372 -19.3367 -19.3103 -19.3102 -19.2768 -19.2767
   -18.7929 -18.7924 -18.7157 -18.7152 -17.7771 -17.7767 -17.7661 -17.7653
   -16.1957 -16.1946 -16.1564 -16.1540 -15.9510 -15.9501 -15.9320 -15.9318
   -15.7659 -15.7640 -15.7598 -15.7593 -14.1954 -14.1914 -14.1835 -14.1793
   -13.9082 -13.8829 -13.8808 -13.8573 -12.5141 -12.4923 -12.4612 -12.4395
   -10.8799 -10.8750 -10.8544 -10.8324 -10.7774 -10.7534 -10.7132 -10.7034
   -10.2012 -10.1977 -10.1365 -10.1312  -9.1521  -9.1202  -9.1097  -9.1061
    -8.8554  -8.8286  -8.7227  -8.7033  -8.6465  -8.6105  -8.4531  -8.3967
    -7.3871  -7.3635  -7.2767  -7.2684  -7.2411  -7.2259  -7.1085  -7.1015
    -7.0148  -6.9922  -6.9893  -6.9187  -6.7222  -6.6883  -6.6653  -6.6241
    -6.6076  -6.5942  -6.5325  -6.5254  -6.4606  -6.4174  -6.3368  -6.3175
    -6.2921  -6.2486  -6.2294  -6.2284  -6.0948  -6.0771  -6.0533  -6.0503
    -5.9358  -5.9289  -5.6606  -5.6369  -5.6233  -5.6138  -5.5692  -5.5485
    -5.1770  -5.1403  -5.0733  -5.0354  -4.7808  -4.7754  -4.7723  -4.7489
    -4.6626  -4.6338  -4.5811  -4.5669  -4.5521  -4.5316  -4.4301  -4.4266
    -4.3632  -4.3580  -4.2662  -4.2607  -3.7984  -3.7928  -3.7537  -3.7325
    -3.6115  -3.5976  -3.5016  -3.5003  -3.0933  -3.0735  -3.0721  -3.0493
    -2.8405  -2.8302  -2.8300  -2.8062  -2.1280  -2.1052  -1.9591  -1.9539
    -1.9377  -1.8889  -1.8524  -1.8140  -1.7840  -1.7431  -1.5834  -1.5404
    -1.5018  -1.4571  -1.4457  -1.3996  -0.9862  -0.9682  -0.9660  -0.9572
    -0.8569  -0.8353  -0.7595  -0.7504  -0.7247  -0.7205  -0.6551  -0.6535
    -0.6386  -0.6012  -0.5500  -0.5106  -0.4325  -0.3672  -0.3567  -0.3194
    -0.1326  -0.0876  -0.0804  -0.0592   0.0200   0.0403   0.0862   0.1016
     0.1392   0.1649   0.2105   0.2290   0.2476   0.2560   0.3746   0.3780
     0.4427   0.5251   0.8178   0.8734   1.0906   1.0995   1.1461   1.1475
     3.3563   3.3996   3.4423   3.4952   3.5200   3.5579   3.5847   3.6250
     4.3517   4.3588   4.3990   4.4112   5.2717   5.2998   5.3058   5.3278
     5.6298   5.6989   5.6996   5.7651   5.7825   5.7943   5.8460   5.8463
     6.6823   6.8986   7.2033   7.4464   7.6273   7.7065   7.7077   8.0814
     8.1183   8.3558   8.5177   8.5391   8.5488   8.5669   8.6275   8.6376
     8.7747

          k = 0.0000 0.5709 0.0000 (137945 PWs)   bands (ev):

   -23.8017 -23.8009 -23.7894 -23.7882 -23.7450 -23.7428 -23.7388 -23.7370
   -19.3454 -19.3451 -19.3418 -19.3415 -19.3147 -19.3146 -19.2807 -19.2806
   -18.7701 -18.7696 -18.7020 -18.7017 -17.7724 -17.7720 -17.7621 -17.7616
   -16.2087 -16.2072 -16.1502 -16.1493 -15.9785 -15.9781 -15.9472 -15.9469
   -15.7655 -15.7647 -15.7550 -15.7549 -14.2207 -14.2178 -14.2097 -14.2070
   -13.9207 -13.9017 -13.8813 -13.8631 -12.5157 -12.4987 -12.4612 -12.4478
   -10.8720 -10.8597 -10.8426 -10.8340 -10.7814 -10.7764 -10.7168 -10.7164
   -10.1866 -10.1845 -10.1094 -10.1065  -9.1067  -9.1048  -9.0939  -9.0735
    -8.8244  -8.8078  -8.7544  -8.7303  -8.6438  -8.6208  -8.4556  -8.4204
    -7.3482  -7.3407  -7.2861  -7.2593  -7.1899  -7.1827  -7.0879  -7.0598
    -6.9962  -6.9461  -6.9361  -6.9071  -6.6822  -6.6790  -6.6515  -6.6325
    -6.6190  -6.6162  -6.5200  -6.4990  -6.4567  -6.4197  -6.3804  -6.3563
    -6.3387  -6.2892  -6.2503  -6.2370  -6.1354  -6.1299  -6.1047  -6.0958
    -5.9408  -5.9132  -5.7086  -5.6996  -5.6235  -5.6081  -5.5700  -5.5656
    -5.2006  -5.1764  -5.0433  -5.0056  -4.8078  -4.7733  -4.7438  -4.7387
    -4.7209  -4.7071  -4.6251  -4.6235  -4.5949  -4.5716  -4.3683  -4.3657
    -4.3482  -4.3396  -4.3139  -4.3080  -3.8017  -3.7994  -3.7411  -3.7259
    -3.6452  -3.6368  -3.5869  -3.5758  -3.1534  -3.1358  -3.1154  -3.0997
    -2.8467  -2.8432  -2.8286  -2.8149  -1.9845  -1.9814  -1.9431  -1.9022
    -1.8336  -1.8288  -1.7613  -1.7334  -1.6573  -1.6309  -1.5693  -1.5385
    -1.5257  -1.4895  -1.4325  -1.4176  -0.8390  -0.8208  -0.8059  -0.8047
    -0.7881  -0.7838  -0.7557  -0.7357  -0.6910  -0.6589  -0.6516  -0.6333
    -0.6112  -0.5845  -0.5479  -0.5191  -0.4258  -0.3776  -0.3376  -0.3342
    -0.1363  -0.1283  -0.0347  -0.0271   0.0543   0.0594   0.0796   0.1098
     0.1341   0.1463   0.1913   0.2009   0.3222   0.3340   0.4087   0.4188
     0.5480   0.5883   0.8368   0.8864   1.0835   1.1078   1.1316   1.1475
     3.3268   3.3500   3.4154   3.4306   3.4740   3.4828   3.5142   3.5284
     4.2426   4.2441   4.2584   4.2607   5.0873   5.1080   5.1162   5.1384
     5.5934   5.6485   5.7314   5.7838   5.7956   5.8370   5.9238   5.9599
     7.0428   7.2385   7.3427   7.5083   7.5323   7.6735   7.7750   8.2384
     8.2489   8.4076   8.4393   8.5247   8.5648   8.6342   8.6607   8.6999
     8.7870

          k = 0.0000-1.1417 0.0000 (137736 PWs)   bands (ev):

   -23.7937 -23.7937 -23.7928 -23.7928 -23.7426 -23.7425 -23.7368 -23.7368
   -19.3474 -19.3474 -19.3473 -19.3473 -19.3191 -19.3191 -19.2845 -19.2845
   -18.7453 -18.7453 -18.6890 -18.6890 -17.7681 -17.7680 -17.7581 -17.7581
   -16.2376 -16.2376 -16.1212 -16.1212 -16.0083 -16.0083 -15.9668 -15.9668
   -15.7585 -15.7585 -15.7561 -15.7561 -14.2453 -14.2453 -14.2352 -14.2352
   -13.9263 -13.9263 -13.8756 -13.8756 -12.5111 -12.5111 -12.4585 -12.4585
   -10.8504 -10.8504 -10.8324 -10.8324 -10.7954 -10.7954 -10.7271 -10.7271
   -10.1725 -10.1725 -10.0834 -10.0834  -9.0872  -9.0872  -9.0471  -9.0470
    -8.8041  -8.8041  -8.7423  -8.7422  -8.6511  -8.6511  -8.4466  -8.4466
    -7.3001  -7.3001  -7.2625  -7.2625  -7.1683  -7.1683  -7.0220  -7.0220
    -6.9439  -6.9439  -6.8776  -6.8776  -6.6905  -6.6905  -6.6578  -6.6578
    -6.5936  -6.5936  -6.5259  -6.5259  -6.4328  -6.4328  -6.4088  -6.4088
    -6.3423  -6.3423  -6.2460  -6.2460  -6.1812  -6.1812  -6.1471  -6.1471
    -5.9518  -5.9518  -5.7179  -5.7179  -5.6401  -5.6401  -5.5747  -5.5747
    -5.2154  -5.2154  -4.9702  -4.9702  -4.8410  -4.8410  -4.7801  -4.7801
    -4.7024  -4.7024  -4.6617  -4.6617  -4.5850  -4.5850  -4.3690  -4.3690
    -4.3329  -4.3329  -4.3010  -4.3010  -3.8423  -3.8423  -3.7918  -3.7918
    -3.7170  -3.7169  -3.5867  -3.5867  -3.1615  -3.1615  -3.1526  -3.1526
    -2.8362  -2.8362  -2.8199  -2.8199  -1.9401  -1.9401  -1.9111  -1.9111
    -1.6845  -1.6844  -1.6634  -1.6633  -1.5839  -1.5839  -1.4967  -1.4967
    -1.4404  -1.4404  -1.4085  -1.4085  -0.8252  -0.8252  -0.7906  -0.7906
    -0.7025  -0.7025  -0.6900  -0.6900  -0.6325  -0.6325  -0.5882  -0.5882
    -0.5401  -0.5401  -0.5241  -0.5241  -0.3959  -0.3959  -0.3390  -0.3390
    -0.0965  -0.0965  -0.0498  -0.0498   0.0748   0.0748   0.1131   0.1131
     0.2145   0.2145   0.2550   0.2550   0.2929   0.2929   0.4017   0.4017
     0.6836   0.6836   0.8806   0.8806   1.1096   1.1096   1.1388   1.1388
     3.2877   3.2877   3.3579   3.3579   3.4338   3.4338   3.4493   3.4493
     4.0871   4.0871   4.0997   4.0997   4.8893   4.8893   4.8953   4.8953
     5.5608   5.5608   5.8667   5.8668   5.9122   5.9123   6.0145   6.0145
     7.2716   7.2716   7.5196   7.5196   7.8371   7.8372   7.9435   7.9435
     8.4731   8.4731   8.6227   8.6227   8.7168   8.7169   8.7419   8.7420
     8.9952

          k =-0.5000 0.0000-0.0462 (137844 PWs)   bands (ev):

   -23.8056 -23.8056 -23.7881 -23.7881 -23.7455 -23.7455 -23.7387 -23.7387
   -19.3421 -19.3421 -19.3369 -19.3369 -19.3102 -19.3102 -19.2768 -19.2767
   -18.7934 -18.7934 -18.7148 -18.7147 -17.7735 -17.7734 -17.7692 -17.7691
   -16.1958 -16.1958 -16.1547 -16.1547 -15.9504 -15.9504 -15.9319 -15.9319
   -15.7646 -15.7646 -15.7601 -15.7601 -14.1939 -14.1939 -14.1808 -14.1808
   -13.8996 -13.8996 -13.8651 -13.8651 -12.5053 -12.5053 -12.4481 -12.4481
   -10.8886 -10.8886 -10.8335 -10.8335 -10.7641 -10.7641 -10.7084 -10.7084
   -10.2009 -10.2008 -10.1323 -10.1322  -9.1336  -9.1336  -9.1116  -9.1116
    -8.8276  -8.8276  -8.7358  -8.7358  -8.6208  -8.6208  -8.4246  -8.4246
    -7.3645  -7.3645  -7.2848  -7.2848  -7.2286  -7.2285  -7.1215  -7.1215
    -7.0022  -7.0022  -6.9513  -6.9513  -6.6881  -6.6881  -6.6483  -6.6483
    -6.6094  -6.6094  -6.5141  -6.5141  -6.4313  -6.4313  -6.3391  -6.3391
    -6.2766  -6.2766  -6.2405  -6.2405  -6.0807  -6.0807  -6.0472  -6.0472
    -5.9273  -5.9273  -5.6484  -5.6484  -5.6309  -5.6309  -5.5445  -5.5445
    -5.1485  -5.1485  -5.0767  -5.0767  -4.7906  -4.7906  -4.7607  -4.7607
    -4.6283  -4.6283  -4.6081  -4.6080  -4.5124  -4.5124  -4.3846  -4.3846
    -4.3700  -4.3700  -4.2848  -4.2848  -3.7867  -3.7867  -3.7485  -3.7485
    -3.6079  -3.6079  -3.5219  -3.5219  -3.0887  -3.0887  -3.0420  -3.0420
    -2.8336  -2.8336  -2.8213  -2.8213  -2.1197  -2.1197  -1.9663  -1.9662
    -1.9238  -1.9238  -1.8157  -1.8157  -1.7356  -1.7356  -1.5342  -1.5342
    -1.5321  -1.5321  -1.4290  -1.4290  -0.9760  -0.9760  -0.9395  -0.9395
    -0.8543  -0.8543  -0.7868  -0.7868  -0.6699  -0.6699  -0.6658  -0.6658
    -0.6292  -0.6292  -0.5369  -0.5369  -0.3890  -0.3890  -0.3474  -0.3474
    -0.1132  -0.1132  -0.0317  -0.0317   0.0489   0.0489   0.0636   0.0636
     0.1183   0.1183   0.1419   0.1419   0.3294   0.3294   0.3904   0.3904
     0.4653   0.4653   0.8595   0.8595   1.0695   1.0695   1.1780   1.1780
     3.3856   3.3856   3.4557   3.4557   3.5185   3.5185   3.6093   3.6093
     4.3452   4.3453   4.4458   4.4458   5.2711   5.2711   5.3262   5.3262
     5.6806   5.6806   5.7193   5.7193   5.7671   5.7671   5.8588   5.8588
     6.9383   6.9383   7.1340   7.1340   7.4062   7.4062   8.0971   8.0971
     8.3298   8.3298   8.5356   8.5356   8.6227   8.6227   8.6789   8.6792
     8.7565

          k =-0.5000 0.5709-0.0462 (137870 PWs)   bands (ev):

   -23.8013 -23.8013 -23.7888 -23.7888 -23.7440 -23.7440 -23.7378 -23.7377
   -19.3453 -19.3453 -19.3416 -19.3416 -19.3147 -19.3146 -19.2806 -19.2806
   -18.7704 -18.7703 -18.7014 -18.7014 -17.7707 -17.7707 -17.7633 -17.7633
   -16.2084 -16.2084 -16.1493 -16.1493 -15.9786 -15.9786 -15.9471 -15.9471
   -15.7636 -15.7636 -15.7563 -15.7563 -14.2193 -14.2193 -14.2082 -14.2082
   -13.9145 -13.9145 -13.8689 -13.8689 -12.5083 -12.5083 -12.4534 -12.4533
   -10.8689 -10.8689 -10.8311 -10.8311 -10.7833 -10.7833 -10.7175 -10.7175
   -10.1844 -10.1844 -10.1071 -10.1070  -9.1096  -9.1095  -9.0794  -9.0794
    -8.8264  -8.8264  -8.7285  -8.7284  -8.6405  -8.6405  -8.4353  -8.4353
    -7.3498  -7.3498  -7.2647  -7.2647  -7.1925  -7.1925  -7.0635  -7.0635
    -6.9682  -6.9682  -6.9318  -6.9318  -6.6840  -6.6840  -6.6540  -6.6540
    -6.5912  -6.5912  -6.5231  -6.5231  -6.4333  -6.4333  -6.3677  -6.3677
    -6.3083  -6.3083  -6.2432  -6.2432  -6.1346  -6.1346  -6.1176  -6.1176
    -5.9293  -5.9293  -5.6801  -5.6801  -5.6409  -5.6409  -5.5517  -5.5517
    -5.2013  -5.2013  -4.9985  -4.9985  -4.8008  -4.8008  -4.7639  -4.7639
    -4.7023  -4.7023  -4.6036  -4.6036  -4.5896  -4.5896  -4.3717  -4.3717
    -4.3472  -4.3472  -4.3079  -4.3079  -3.8195  -3.8195  -3.7273  -3.7273
    -3.6441  -3.6441  -3.5600  -3.5600  -3.1447  -3.1447  -3.1193  -3.1193
    -2.8372  -2.8372  -2.8233  -2.8233  -1.9870  -1.9869  -1.8992  -1.8992
    -1.8276  -1.8276  -1.7396  -1.7396  -1.6629  -1.6628  -1.5596  -1.5596
    -1.5275  -1.5275  -1.4379  -1.4379  -0.8274  -0.8274  -0.8101  -0.8101
    -0.7722  -0.7722  -0.7401  -0.7401  -0.6584  -0.6584  -0.6494  -0.6494
    -0.6047  -0.6047  -0.5364  -0.5364  -0.3877  -0.3877  -0.3616  -0.3616
    -0.1009  -0.1009  -0.0640  -0.0639   0.0585   0.0586   0.1042   0.1042
     0.1729   0.1729   0.2316   0.2316   0.2900   0.2900   0.3933   0.3933
     0.5623   0.5623   0.8644   0.8644   1.0685   1.0685   1.1753   1.1753
     3.3411   3.3411   3.3902   3.3902   3.4732   3.4732   3.5286   3.5286
     4.2310   4.2310   4.3053   4.3053   5.0935   5.0935   5.1381   5.1381
     5.6234   5.6234   5.7316   5.7316   5.8309   5.8309   5.9303   5.9303
     7.1915   7.1915   7.3410   7.3410   7.5600   7.5600   8.0330   8.0330
     8.2974   8.2974   8.4163   8.4163   8.6044   8.6044   8.7189   8.7190
     8.8944

          k =-0.5000-1.1417-0.0462 (137808 PWs)   bands (ev):

   -23.7937 -23.7937 -23.7928 -23.7928 -23.7426 -23.7425 -23.7368 -23.7368
   -19.3474 -19.3474 -19.3473 -19.3473 -19.3190 -19.3190 -19.2845 -19.2845
   -18.7456 -18.7456 -18.6888 -18.6888 -17.7677 -17.7677 -17.7584 -17.7584
   -16.2378 -16.2378 -16.1211 -16.1211 -16.0083 -16.0083 -15.9663 -15.9662
   -15.7658 -15.7657 -15.7492 -15.7492 -14.2444 -14.2444 -14.2362 -14.2362
   -13.9283 -13.9283 -13.8736 -13.8736 -12.5111 -12.5111 -12.4585 -12.4585
   -10.8495 -10.8495 -10.8349 -10.8349 -10.7933 -10.7933 -10.7274 -10.7274
   -10.1714 -10.1714 -10.0844 -10.0844  -9.0707  -9.0707  -9.0660  -9.0659
    -8.7894  -8.7894  -8.7595  -8.7595  -8.6429  -8.6429  -8.4519  -8.4519
    -7.2989  -7.2989  -7.2728  -7.2728  -7.1506  -7.1506  -7.0180  -7.0180
    -6.9255  -6.9255  -6.9154  -6.9154  -6.6732  -6.6732  -6.6577  -6.6577
    -6.6126  -6.6126  -6.5133  -6.5133  -6.4393  -6.4393  -6.4038  -6.4038
    -6.3168  -6.3168  -6.2729  -6.2729  -6.1799  -6.1799  -6.1544  -6.1544
    -5.9420  -5.9420  -5.7409  -5.7409  -5.6268  -5.6268  -5.5689  -5.5689
    -5.2076  -5.2075  -4.9797  -4.9797  -4.8525  -4.8525  -4.7896  -4.7896
    -4.6680  -4.6680  -4.6665  -4.6665  -4.5912  -4.5912  -4.3716  -4.3715
    -4.3226  -4.3226  -4.3078  -4.3077  -3.8418  -3.8418  -3.7981  -3.7980
    -3.6944  -3.6944  -3.6066  -3.6066  -3.1624  -3.1624  -3.1431  -3.1431
    -2.8323  -2.8323  -2.8262  -2.8262  -1.9251  -1.9251  -1.9197  -1.9197
    -1.6824  -1.6823  -1.6808  -1.6808  -1.5774  -1.5774  -1.4973  -1.4973
    -1.4453  -1.4453  -1.4269  -1.4269  -0.8080  -0.8080  -0.7928  -0.7928
    -0.6955  -0.6955  -0.6863  -0.6863  -0.6335  -0.6334  -0.5819  -0.5819
    -0.5341  -0.5341  -0.5193  -0.5193  -0.3914  -0.3914  -0.3595  -0.3595
    -0.1182  -0.1182  -0.0044  -0.0044   0.0777   0.0777   0.1000   0.1000
     0.1593   0.1593   0.2251   0.2251   0.3279   0.3279   0.4312   0.4312
     0.6928   0.6928   0.8739   0.8739   1.0817   1.0817   1.1757   1.1757
     3.2845   3.2845   3.3009   3.3009   3.4339   3.4339   3.4741   3.4741
     4.0849   4.0849   4.1344   4.1345   4.8772   4.8772   4.9185   4.9185
     5.5828   5.5828   5.8062   5.8062   5.9484   5.9484   5.9988   5.9988
     7.3778   7.3778   7.5515   7.5515   7.7534   7.7534   7.8171   7.8171
     8.4457   8.4457   8.6461   8.6462   8.6840   8.6840   8.7298   8.7299
     8.9724

     highest occupied, lowest unoccupied level (ev):     1.1780    3.2845

!    total energy              =   -2162.02021041 Ry
     Harris-Foulkes estimate   =   -2162.02021041 Ry
     estimated scf accuracy    <          7.1E-09 Ry

     total all-electron energy =     -8259.444415 Ry

     The total energy is the sum of the following terms:

     one-electron contribution =   -1196.63657253 Ry
     hartree contribution      =     760.79197548 Ry
     xc contribution           =    -443.82459413 Ry
     ewald contribution        =    -658.15397452 Ry
     Dispersion Correction     =      -0.52276841 Ry
     one-center paw contrib.   =    -623.67427630 Ry

     convergence has been achieved in  16 iterations

     Forces acting on atoms (cartesian axes, Ry/au):

     atom    1 type  2   force =     0.00779656   -0.01017967    0.00046252
     atom    2 type  2   force =     0.00779514    0.01017982    0.00046199
     atom    3 type  2   force =    -0.00779656    0.01017967   -0.00046252
     atom    4 type  2   force =    -0.00779514   -0.01017982   -0.00046199
     atom    5 type  1   force =    -0.01207443    0.00166141    0.00177197
     atom    6 type  1   force =    -0.01207312   -0.00166241    0.00175503
     atom    7 type  1   force =     0.01207443   -0.00166141   -0.00177197
     atom    8 type  1   force =     0.01207312    0.00166241   -0.00175503
     atom    9 type  2   force =     0.00723181   -0.00040876   -0.00406277
     atom   10 type  2   force =     0.00722929    0.00040940   -0.00406425
     atom   11 type  2   force =    -0.00723181    0.00040876    0.00406277
     atom   12 type  2   force =    -0.00722929   -0.00040940    0.00406425
     atom   13 type  3   force =     0.00061116   -0.00073701    0.00036590
     atom   14 type  3   force =     0.00061080    0.00073692    0.00036590
     atom   15 type  3   force =    -0.00061116    0.00073701   -0.00036590
     atom   16 type  3   force =    -0.00061080   -0.00073692   -0.00036590
     atom   17 type  3   force =    -0.00090983    0.00012825    0.00053554
     atom   18 type  3   force =    -0.00091025   -0.00012827    0.00053527
     atom   19 type  3   force =     0.00090983   -0.00012825   -0.00053554
     atom   20 type  3   force =     0.00091025    0.00012827   -0.00053527
     atom   21 type  4   force =    -0.00088342   -0.00379994    0.00019258
     atom   22 type  4   force =    -0.00088355    0.00380035    0.00019352
     atom   23 type  4   force =     0.00088342    0.00379994   -0.00019258
     atom   24 type  4   force =     0.00088355   -0.00380035   -0.00019352
     atom   25 type  1   force =    -0.00222648   -0.00733402   -0.00414427
     atom   26 type  1   force =    -0.00222693    0.00733464   -0.00415883
     atom   27 type  1   force =     0.00222648    0.00733402    0.00414427
     atom   28 type  1   force =     0.00222693   -0.00733464    0.00415883
     atom   29 type  2   force =     0.00097530    0.00748931   -0.00820782
     atom   30 type  2   force =     0.00097338   -0.00749142   -0.00820696
     atom   31 type  2   force =    -0.00097530   -0.00748931    0.00820782
     atom   32 type  2   force =    -0.00097338    0.00749142    0.00820696
     atom   33 type  4   force =    -0.00167536   -0.00001029    0.00804963
     atom   34 type  4   force =    -0.00167550    0.00001518    0.00804913
     atom   35 type  4   force =     0.00167536    0.00001029   -0.00804963
     atom   36 type  4   force =     0.00167550   -0.00001518   -0.00804913
     atom   37 type  1   force =     0.00232419    0.01308880   -0.00099754
     atom   38 type  1   force =     0.00232409   -0.01308934   -0.00101027
     atom   39 type  1   force =    -0.00232419   -0.01308880    0.00099754
     atom   40 type  1   force =    -0.00232409    0.01308934    0.00101027
     atom   41 type  3   force =    -0.00025954   -0.00101271    0.00076297
     atom   42 type  3   force =    -0.00025994    0.00101241    0.00076280
     atom   43 type  3   force =     0.00025954    0.00101271   -0.00076297
     atom   44 type  3   force =     0.00025994   -0.00101241   -0.00076280
     atom   45 type  1   force =     0.00315345   -0.00259001   -0.00109336
     atom   46 type  1   force =     0.00315378    0.00258946   -0.00109462
     atom   47 type  1   force =    -0.00315345    0.00259001    0.00109336
     atom   48 type  1   force =    -0.00315378   -0.00258946    0.00109462
     atom   49 type  3   force =    -0.00025061   -0.00058877   -0.00191657
     atom   50 type  3   force =    -0.00025108    0.00058902   -0.00191706
     atom   51 type  3   force =     0.00025061    0.00058877    0.00191657
     atom   52 type  3   force =     0.00025108   -0.00058902    0.00191706
     atom   53 type  1   force =     0.00079963    0.00482306    0.00366817
     atom   54 type  1   force =     0.00079890   -0.00482530    0.00368167
     atom   55 type  1   force =    -0.00079963   -0.00482306   -0.00366817
     atom   56 type  1   force =    -0.00079890    0.00482530   -0.00368167
     atom   57 type  3   force =    -0.00251140   -0.00192055    0.00130948
     atom   58 type  3   force =    -0.00251100    0.00192064    0.00130985
     atom   59 type  3   force =     0.00251140    0.00192055   -0.00130948
     atom   60 type  3   force =     0.00251100   -0.00192064   -0.00130985
     atom   61 type  2   force =    -0.00630533    0.00738587    0.00462206
     atom   62 type  2   force =    -0.00630737   -0.00738591    0.00462113
     atom   63 type  2   force =     0.00630533   -0.00738587   -0.00462206
     atom   64 type  2   force =     0.00630737    0.00738591   -0.00462113
     atom   65 type  1   force =     0.00646101   -0.00413753   -0.00299172
     atom   66 type  1   force =     0.00646046    0.00413732   -0.00299327
     atom   67 type  1   force =    -0.00646101    0.00413753    0.00299172
     atom   68 type  1   force =    -0.00646046   -0.00413732    0.00299327
     atom   69 type  2   force =    -0.00223393    0.00303756   -0.00090520
     atom   70 type  2   force =    -0.00223467   -0.00303755   -0.00090553
     atom   71 type  2   force =     0.00223393   -0.00303756    0.00090520
     atom   72 type  2   force =     0.00223467    0.00303755    0.00090553
     atom   73 type  3   force =     0.00008677    0.00048568   -0.00038393
     atom   74 type  3   force =     0.00008665   -0.00048609   -0.00038378
     atom   75 type  3   force =    -0.00008677   -0.00048568    0.00038393
     atom   76 type  3   force =    -0.00008665    0.00048609    0.00038378
     atom   77 type  3   force =     0.00092642   -0.00001537   -0.00046050
     atom   78 type  3   force =     0.00092661    0.00001547   -0.00046041
     atom   79 type  3   force =    -0.00092642    0.00001537    0.00046050
     atom   80 type  3   force =    -0.00092661   -0.00001547    0.00046041
     atom   81 type  2   force =     0.00156633    0.00507128    0.00694952
     atom   82 type  2   force =     0.00156592   -0.00507078    0.00694892
     atom   83 type  2   force =    -0.00156633   -0.00507128   -0.00694952
     atom   84 type  2   force =    -0.00156592    0.00507078   -0.00694892
     atom   85 type  1   force =    -0.00144354   -0.01280894    0.00085759
     atom   86 type  1   force =    -0.00144431    0.01280809    0.00083772
     atom   87 type  1   force =     0.00144354    0.01280894   -0.00085759
     atom   88 type  1   force =     0.00144431   -0.01280809   -0.00083772
     atom   89 type  3   force =     0.00132300    0.00021723   -0.00004065
     atom   90 type  3   force =     0.00132282   -0.00021734   -0.00004072
     atom   91 type  3   force =    -0.00132300   -0.00021723    0.00004065
     atom   92 type  3   force =    -0.00132282    0.00021734    0.00004072
     atom   93 type  1   force =    -0.00065303    0.00239482    0.00022811
     atom   94 type  1   force =    -0.00065396   -0.00239465    0.00022908
     atom   95 type  1   force =     0.00065303   -0.00239482   -0.00022811
     atom   96 type  1   force =     0.00065396    0.00239465   -0.00022908
     atom   97 type  2   force =    -0.00391380   -0.00131729    0.00410829
     atom   98 type  2   force =    -0.00391781    0.00131303    0.00410799
     atom   99 type  2   force =     0.00391380    0.00131729   -0.00410829
     atom  100 type  2   force =     0.00391781   -0.00131303   -0.00410799
     atom  101 type  4   force =     0.00501126   -0.00313046   -0.00143266
     atom  102 type  4   force =     0.00501392    0.00313762   -0.00143748
     atom  103 type  4   force =    -0.00501126    0.00313046    0.00143266
     atom  104 type  4   force =    -0.00501392   -0.00313762    0.00143748
     atom  105 type  1   force =     0.00083430   -0.00013173   -0.00693480
     atom  106 type  1   force =     0.00083378    0.00013104   -0.00695514
     atom  107 type  1   force =    -0.00083430    0.00013173    0.00693480
     atom  108 type  1   force =    -0.00083378   -0.00013104    0.00695514
     atom  109 type  3   force =    -0.00051751    0.00000343   -0.00065773
     atom  110 type  3   force =    -0.00051709   -0.00000328   -0.00065758
     atom  111 type  3   force =     0.00051751   -0.00000343    0.00065773
     atom  112 type  3   force =     0.00051709    0.00000328    0.00065758
     atom  113 type  4   force =    -0.00085768    0.00205284    0.00133033
     atom  114 type  4   force =    -0.00084921   -0.00204552    0.00133411
     atom  115 type  4   force =     0.00085768   -0.00205284   -0.00133033
     atom  116 type  4   force =     0.00084921    0.00204552   -0.00133411

     Total force =     0.077453     Total SCF correction =     0.000197


     Computing stress (Cartesian axis) and pressure

          total   stress  (Ry/bohr**3)                   (kbar)     P=   -8.50
  -0.00003997  -0.00000000  -0.00000138         -5.88     -0.00     -0.20
  -0.00000000  -0.00007571  -0.00000000         -0.00    -11.14     -0.00
  -0.00000138  -0.00000000  -0.00005763         -0.20     -0.00     -8.48


     Writing output data file scf.save
 
     init_run     :     51.01s CPU     53.42s WALL (       1 calls)
     electrons    :   1633.85s CPU   1725.69s WALL (       1 calls)
     forces       :     27.61s CPU     27.92s WALL (       1 calls)
     stress       :    205.80s CPU    206.28s WALL (       1 calls)

     Called by init_run:
     wfcinit      :     38.16s CPU     40.40s WALL (       1 calls)
     potinit      :      4.48s CPU      4.51s WALL (       1 calls)

     Called by electrons:
     c_bands      :   1470.21s CPU   1547.13s WALL (      16 calls)
     sum_band     :    148.94s CPU    161.75s WALL (      16 calls)
     v_of_rho     :      2.34s CPU      2.60s WALL (      17 calls)
     newd         :      5.90s CPU      7.69s WALL (      17 calls)
     PAW_pot      :      5.74s CPU      5.74s WALL (      17 calls)
     mix_rho      :      0.66s CPU      0.73s WALL (      16 calls)

     Called by c_bands:
     init_us_2    :     11.16s CPU     11.21s WALL (     210 calls)
     cegterg      :   1430.21s CPU   1507.09s WALL (      96 calls)

     Called by sum_band:
     sum_band:bec :      0.09s CPU      0.09s WALL (      96 calls)
     addusdens    :      6.46s CPU      8.13s WALL (      16 calls)

     Called by *egterg:
     h_psi        :    746.24s CPU    808.11s WALL (     562 calls)
     s_psi        :    171.33s CPU    171.35s WALL (     562 calls)
     g_psi        :      4.91s CPU      4.91s WALL (     460 calls)
     cdiaghg      :    109.55s CPU    109.58s WALL (     556 calls)

     Called by h_psi:
     h_psi:pot    :    739.21s CPU    800.98s WALL (     562 calls)
     h_psi:calbec :    165.75s CPU    166.02s WALL (     562 calls)
     vloc_psi     :    401.73s CPU    463.21s WALL (     562 calls)
     add_vuspsi   :    171.72s CPU    171.74s WALL (     562 calls)

     General routines
     calbec       :    241.10s CPU    241.50s WALL (     688 calls)
     fft          :      3.15s CPU      3.61s WALL (     245 calls)
     fftw         :    422.34s CPU    494.56s WALL (  157616 calls)
 
     Parallel routines
     fft_scatter  :    104.20s CPU    172.28s WALL (  157861 calls)
 
     PWSCF        : 32m10.56s CPU    34m27.94s WALL

 
   This run was terminated on:   6: 2:41  10Dec2017            

=------------------------------------------------------------------------------=
   JOB DONE.
=------------------------------------------------------------------------------=
