
     Program PWSCF v.6.1 (svn rev. 13369) starts on 12Nov2017 at  8:47:19 

     This program is part of the open-source Quantum ESPRESSO suite
     for quantum simulation of materials; please cite
         "P. Giannozzi et al., J. Phys.:Condens. Matter 21 395502 (2009);
          URL http://www.quantum-espresso.org", 
     in publications or presentations arising from this work. More details at
     http://www.quantum-espresso.org/quote

     Parallel version (MPI), running on     8 processors
     R & G space division:  proc/nbgrp/npool/nimage =       8
     Waiting for input...
     Reading input from standard input

     Current dimensions of program PWSCF are:
     Max number of different atomic species (ntypx) = 10
     Max number of k-points (npk) =  40000
     Max angular momentum in pseudopotentials (lmaxx) =  3
               file C.pbe-n-kjpaw_psl.0.1.UPF: wavefunction(s)  2P renormalized
               file N.pbe-n-kjpaw_psl.0.1.UPF: wavefunction(s)  2P renormalized
               file H.pbe-kjpaw_psl.0.1.UPF: wavefunction(s)  1S renormalized
               file O.pbe-n-kjpaw_psl.0.1.UPF: wavefunction(s)  2P renormalized

     -------------------------------------
     Parameters for Dispersion Correction:
     -------------------------------------
       atom      VdW radius       C_6     

        C          2.744         60.710
        N          2.640         42.670
        H          1.892          4.857
        O          2.536         24.284

     Subspace diagonalization in iterative solution of the eigenvalue problem:
     a serial algorithm will be used

 
     Parallelization info
     --------------------
     sticks:   dense  smooth     PW     G-vecs:    dense   smooth      PW
     Min        1117    1117    295               140627   140627   19139
     Max        1118    1118    296               140628   140628   19144
     Sum        8937    8937   2365              1125017  1125017  153137
 


     bravais-lattice index     =            0
     lattice parameter (alat)  =      16.1679  a.u.
     unit-cell volume          =    8326.5970 (a.u.)^3
     number of atoms/cell      =          144
     number of atomic types    =            4
     number of electrons       =       384.00
     number of Kohn-Sham states=          230
     kinetic-energy cutoff     =     100.0000  Ry
     charge density cutoff     =     400.0000  Ry
     convergence threshold     =      1.0E-08
     mixing beta               =       0.5000
     number of iterations used =            8  plain     mixing
     Exchange-correlation      =  SLA  PW   PBX  PBC ( 1  4  3  4 0 0)

     celldm(1)=  16.167930  celldm(2)=   0.000000  celldm(3)=   0.000000
     celldm(4)=   0.000000  celldm(5)=   0.000000  celldm(6)=   0.000000

     crystal axes: (cart. coord. in units of alat)
               a(1) = (   1.000000   0.000000   0.000000 )  
               a(2) = (   0.000000   1.073986   0.000000 )  
               a(3) = (   0.000000   0.000000   1.834450 )  

     reciprocal axes: (cart. coord. in units 2 pi/alat)
               b(1) = (  1.000000  0.000000  0.000000 )  
               b(2) = (  0.000000  0.931111  0.000000 )  
               b(3) = (  0.000000  0.000000  0.545123 )  


     PseudoPot. # 1 for  C read from file:
     /scratch/ahofstet/pseudo/C.pbe-n-kjpaw_psl.0.1.UPF
     MD5 check sum: 430fe95172b1e11ef3f8ed03bac87931
     Pseudo is Projector augmented-wave + core cor, Zval =  4.0
     Generated using "atomic" code by A. Dal Corso  v.5.0.99 svn rev. 10869
     Shape of augmentation charge: BESSEL
     Using radial grid of 1073 points,  4 beta functions with: 
                l(1) =   0
                l(2) =   0
                l(3) =   1
                l(4) =   1
     Q(r) pseudized with 0 coefficients 


     PseudoPot. # 2 for  N read from file:
     /scratch/ahofstet/pseudo/N.pbe-n-kjpaw_psl.0.1.UPF
     MD5 check sum: f73187c8b701007e77325f868c9291d7
     Pseudo is Projector augmented-wave + core cor, Zval =  5.0
     Generated using "atomic" code by A. Dal Corso  v.5.0.99 svn rev. 10869
     Shape of augmentation charge: PSQ
     Using radial grid of 1085 points,  4 beta functions with: 
                l(1) =   0
                l(2) =   0
                l(3) =   1
                l(4) =   1
     Q(r) pseudized with 0 coefficients 


     PseudoPot. # 3 for  H read from file:
     /scratch/ahofstet/pseudo/H.pbe-kjpaw_psl.0.1.UPF
     MD5 check sum: 94e484f906d9e9773b2f6e52662335b2
     Pseudo is Projector augmented-wave, Zval =  1.0
     Generated using "atomic" code by A. Dal Corso  v.5.0.99 svn rev. 10869
     Shape of augmentation charge: PSQ
     Using radial grid of  929 points,  2 beta functions with: 
                l(1) =   0
                l(2) =   0
     Q(r) pseudized with 0 coefficients 


     PseudoPot. # 4 for  O read from file:
     /scratch/ahofstet/pseudo/O.pbe-n-kjpaw_psl.0.1.UPF
     MD5 check sum: 3f94a2996a3169367d6eb21d9b593f20
     Pseudo is Projector augmented-wave + core cor, Zval =  6.0
     Generated using "atomic" code by A. Dal Corso  v.5.0.99 svn rev. 10869
     Shape of augmentation charge: BESSEL
     Using radial grid of 1095 points,  4 beta functions with: 
                l(1) =   0
                l(2) =   0
                l(3) =   1
                l(4) =   1
     Q(r) pseudized with 0 coefficients 


     atomic species   valence    mass     pseudopotential
        C              4.00    12.01070      C( 1.00)
        N              5.00    14.00670      N( 1.00)
        H              1.00     1.00794      H( 1.00)
        O              6.00    15.99940      O( 1.00)

      8 Sym. Ops., with inversion, found ( 6 have fractional translation)



   Cartesian axes

     site n.     atom                  positions (alat units)
         1           C   tau(   1) = (   0.9758119   0.5577554   0.5499799  )
         2           C   tau(   2) = (   0.5241881   0.5162304   1.4672047  )
         3           C   tau(   3) = (   0.0241881   0.0207625   0.3672448  )
         4           C   tau(   4) = (   0.4758119   1.0532232   1.2844696  )
         5           C   tau(   5) = (   0.0241881   0.5162304   1.2844696  )
         6           C   tau(   6) = (   0.4758119   0.5577554   0.3672448  )
         7           C   tau(   7) = (   0.9758119   1.0532232   1.4672047  )
         8           C   tau(   8) = (   0.5241881   0.0207625   0.5499799  )
         9           N   tau(   9) = (   0.1222341   0.5545293   0.5957180  )
        10           N   tau(  10) = (   0.3777659   0.5194565   1.5129428  )
        11           N   tau(  11) = (   0.8777659   0.0175364   0.3215067  )
        12           N   tau(  12) = (   0.6222341   1.0564493   1.2387315  )
        13           N   tau(  13) = (   0.8777659   0.5194565   1.2387315  )
        14           N   tau(  14) = (   0.6222341   0.5545293   0.3215067  )
        15           N   tau(  15) = (   0.1222341   1.0564493   1.5129428  )
        16           N   tau(  16) = (   0.3777659   0.0175364   0.5957180  )
        17           N   tau(  17) = (   0.8759543   0.6819268   0.5729605  )
        18           N   tau(  18) = (   0.6240457   0.3920590   1.4901853  )
        19           N   tau(  19) = (   0.1240457   0.1449339   0.3442642  )
        20           N   tau(  20) = (   0.3759543   0.9290518   1.2614890  )
        21           N   tau(  21) = (   0.1240457   0.3920590   1.2614890  )
        22           N   tau(  22) = (   0.3759543   0.6819268   0.3442642  )
        23           N   tau(  23) = (   0.8759543   0.9290518   1.4901853  )
        24           N   tau(  24) = (   0.6240457   0.1449339   0.5729605  )
        25           N   tau(  25) = (   0.9119506   0.4328226   0.4733593  )
        26           N   tau(  26) = (   0.5880494   0.6411631   1.3905841  )
        27           N   tau(  27) = (   0.0880494   0.9698155   0.4438655  )
        28           N   tau(  28) = (   0.4119506   0.1041702   1.3610902  )
        29           N   tau(  29) = (   0.0880494   0.6411631   1.3610902  )
        30           N   tau(  30) = (   0.4119506   0.4328226   0.4438655  )
        31           N   tau(  31) = (   0.9119506   0.1041702   1.3905841  )
        32           N   tau(  32) = (   0.5880494   0.9698155   0.4733593  )
        33           H   tau(  33) = (   0.1517152   0.6539365   0.6562760  )
        34           H   tau(  34) = (   0.3482848   0.4200493   1.5735008  )
        35           H   tau(  35) = (   0.8482848   0.1169436   0.2609487  )
        36           H   tau(  36) = (   0.6517152   0.9570422   1.1781735  )
        37           H   tau(  37) = (   0.8482848   0.4200493   1.1781735  )
        38           H   tau(  38) = (   0.6517152   0.6539365   0.2609487  )
        39           H   tau(  39) = (   0.1517152   0.9570422   1.5735008  )
        40           H   tau(  40) = (   0.3482848   0.1169436   0.6562760  )
        41           H   tau(  41) = (   0.8919913   0.7544351   0.6670403  )
        42           H   tau(  42) = (   0.6080087   0.3195506   1.5842651  )
        43           H   tau(  43) = (   0.1080087   0.2174423   0.2501845  )
        44           H   tau(  44) = (   0.3919913   0.8565435   1.1674092  )
        45           H   tau(  45) = (   0.1080087   0.3195506   1.1674092  )
        46           H   tau(  46) = (   0.3919913   0.7544351   0.2501845  )
        47           H   tau(  47) = (   0.8919913   0.8565435   1.5842651  )
        48           H   tau(  48) = (   0.6080087   0.2174423   0.6670403  )
        49           H   tau(  49) = (   0.7629764   0.6674835   0.5381337  )
        50           H   tau(  50) = (   0.7370236   0.4065023   1.4553584  )
        51           H   tau(  51) = (   0.2370236   0.1304906   0.3790911  )
        52           H   tau(  52) = (   0.2629764   0.9434952   1.2963159  )
        53           H   tau(  53) = (   0.2370236   0.4065023   1.2963159  )
        54           H   tau(  54) = (   0.2629764   0.6674835   0.3790911  )
        55           H   tau(  55) = (   0.7629764   0.9434952   1.4553584  )
        56           H   tau(  56) = (   0.7370236   0.1304906   0.5381337  )
        57           H   tau(  57) = (   0.8086412   0.4525123   0.4137671  )
        58           H   tau(  58) = (   0.6913588   0.6214735   1.3309919  )
        59           H   tau(  59) = (   0.1913588   0.9895052   0.5034577  )
        60           H   tau(  60) = (   0.3086412   0.0844806   1.4206824  )
        61           H   tau(  61) = (   0.1913588   0.6214735   1.4206824  )
        62           H   tau(  62) = (   0.3086412   0.4525123   0.5034577  )
        63           H   tau(  63) = (   0.8086412   0.0844806   1.3309919  )
        64           H   tau(  64) = (   0.6913588   0.9895052   0.4137671  )
        65           H   tau(  65) = (   0.9894286   0.3546475   0.4277251  )
        66           H   tau(  66) = (   0.5105714   0.7193383   1.3449499  )
        67           H   tau(  67) = (   0.0105714   0.8916404   0.4894997  )
        68           H   tau(  68) = (   0.4894286   0.1823454   1.4067245  )
        69           H   tau(  69) = (   0.0105714   0.7193383   1.4067245  )
        70           H   tau(  70) = (   0.4894286   0.3546475   0.4894997  )
        71           H   tau(  71) = (   0.9894286   0.1823454   1.3449499  )
        72           H   tau(  72) = (   0.5105714   0.8916404   0.4277251  )
        73           C   tau(  73) = (   0.1188146   0.3280428   1.7817510  )
        74           C   tau(  74) = (   0.3811854   0.7459430   0.8645262  )
        75           C   tau(  75) = (   0.8811854   0.8650357   0.9699233  )
        76           C   tau(  76) = (   0.6188146   0.2089501   0.0526985  )
        77           C   tau(  77) = (   0.8811854   0.7459430   0.0526985  )
        78           C   tau(  78) = (   0.6188146   0.3280428   0.9699233  )
        79           C   tau(  79) = (   0.1188146   0.2089501   0.8645262  )
        80           C   tau(  80) = (   0.3811854   0.8650357   1.7817510  )
        81           N   tau(  81) = (   0.9846977   0.3586626   1.7130515  )
        82           N   tau(  82) = (   0.5153023   0.7153231   0.7958267  )
        83           N   tau(  83) = (   0.0153023   0.8956555   1.0386229  )
        84           N   tau(  84) = (   0.4846977   0.1783303   0.1213981  )
        85           N   tau(  85) = (   0.0153023   0.7153231   0.1213981  )
        86           N   tau(  86) = (   0.4846977   0.3586626   1.0386229  )
        87           N   tau(  87) = (   0.9846977   0.1783303   0.7958267  )
        88           N   tau(  88) = (   0.5153023   0.8956555   1.7130515  )
        89           N   tau(  89) = (   0.2302027   0.2286215   1.7259304  )
        90           N   tau(  90) = (   0.2697973   0.8453643   0.8087056  )
        91           N   tau(  91) = (   0.7697973   0.7656143   1.0257439  )
        92           N   tau(  92) = (   0.7302027   0.3083714   0.1085192  )
        93           N   tau(  93) = (   0.7697973   0.8453643   0.1085192  )
        94           N   tau(  94) = (   0.7302027   0.2286215   1.0257439  )
        95           N   tau(  95) = (   0.2302027   0.3083714   0.8087056  )
        96           N   tau(  96) = (   0.2697973   0.7656143   1.7259304  )
        97           N   tau(  97) = (   0.1513270   0.3991960   0.0888349  )
        98           N   tau(  98) = (   0.3486730   0.6747898   1.0060596  )
        99           N   tau(  99) = (   0.8486730   0.9361888   0.8283899  )
       100           N   tau( 100) = (   0.6513270   0.1377969   1.7456147  )
       101           N   tau( 101) = (   0.8486730   0.6747898   1.7456147  )
       102           N   tau( 102) = (   0.6513270   0.3991960   0.8283899  )
       103           N   tau( 103) = (   0.1513270   0.1377969   1.0060596  )
       104           N   tau( 104) = (   0.3486730   0.9361888   0.0888349  )
       105           H   tau( 105) = (   0.9758188   0.2978264   1.6103038  )
       106           H   tau( 106) = (   0.5241812   0.7761594   0.6930790  )
       107           H   tau( 107) = (   0.0241812   0.8348193   1.1413705  )
       108           H   tau( 108) = (   0.4758188   0.2391665   0.2241457  )
       109           H   tau( 109) = (   0.0241812   0.7761594   0.2241457  )
       110           H   tau( 110) = (   0.4758188   0.2978264   1.1413705  )
       111           H   tau( 111) = (   0.9758188   0.2391665   0.6930790  )
       112           H   tau( 112) = (   0.5241812   0.8348193   1.6103038  )
       113           H   tau( 113) = (   0.1933644   0.1450498   1.6461496  )
       114           H   tau( 114) = (   0.3066356   0.9289360   0.7289249  )
       115           H   tau( 115) = (   0.8066356   0.6820427   1.1055247  )
       116           H   tau( 116) = (   0.6933644   0.3919431   0.1882999  )
       117           H   tau( 117) = (   0.8066356   0.9289360   0.1882999  )
       118           H   tau( 118) = (   0.6933644   0.1450498   1.1055247  )
       119           H   tau( 119) = (   0.1933644   0.3919431   0.7289249  )
       120           H   tau( 120) = (   0.3066356   0.6820427   1.6461496  )
       121           H   tau( 121) = (   0.3192502   0.1980985   1.8019151  )
       122           H   tau( 122) = (   0.1807498   0.8758872   0.8846903  )
       123           H   tau( 123) = (   0.6807498   0.7350914   0.9497593  )
       124           H   tau( 124) = (   0.8192502   0.3388943   0.0325345  )
       125           H   tau( 125) = (   0.6807498   0.8758872   0.0325345  )
       126           H   tau( 126) = (   0.8192502   0.1980985   0.9497593  )
       127           H   tau( 127) = (   0.3192502   0.3388943   0.8846903  )
       128           H   tau( 128) = (   0.1807498   0.7350914   1.8019151  )
       129           H   tau( 129) = (   0.2661509   0.3964332   0.1204954  )
       130           H   tau( 130) = (   0.2338491   0.6775526   1.0377201  )
       131           H   tau( 131) = (   0.7338491   0.9334261   0.7967294  )
       132           H   tau( 132) = (   0.7661509   0.1405597   1.7139542  )
       133           H   tau( 133) = (   0.7338491   0.6775526   1.7139542  )
       134           H   tau( 134) = (   0.7661509   0.3964332   0.7967294  )
       135           H   tau( 135) = (   0.2661509   0.1405597   1.0377201  )
       136           H   tau( 136) = (   0.2338491   0.9334261   0.1204954  )
       137           H   tau( 137) = (   0.0979082   0.5072909   0.1069928  )
       138           H   tau( 138) = (   0.4020918   0.5666948   1.0242175  )
       139           H   tau( 139) = (   0.9020918   1.0442838   0.8102320  )
       140           H   tau( 140) = (   0.5979082   0.0297019   1.7274568  )
       141           H   tau( 141) = (   0.9020918   0.5666948   1.7274568  )
       142           H   tau( 142) = (   0.5979082   0.5072909   0.8102320  )
       143           H   tau( 143) = (   0.0979082   0.0297019   1.0242175  )
       144           H   tau( 144) = (   0.4020918   1.0442838   0.1069928  )

     number of k points=     8
                       cart. coord. in units 2pi/alat
        k(    1) = (   0.0000000   0.0000000   0.0000000), wk =   0.2500000
        k(    2) = (   0.0000000   0.0000000  -0.2725613), wk =   0.2500000
        k(    3) = (   0.0000000  -0.4655555   0.0000000), wk =   0.2500000
        k(    4) = (   0.0000000  -0.4655555  -0.2725613), wk =   0.2500000
        k(    5) = (  -0.5000000   0.0000000   0.0000000), wk =   0.2500000
        k(    6) = (  -0.5000000   0.0000000  -0.2725613), wk =   0.2500000
        k(    7) = (  -0.5000000  -0.4655555   0.0000000), wk =   0.2500000
        k(    8) = (  -0.5000000  -0.4655555  -0.2725613), wk =   0.2500000

     Dense  grid:  1125017 G-vectors     FFT dimensions: ( 108, 120, 192)

     Estimated max dynamical RAM per process >    1341.15MB

     Estimated total allocated dynamical RAM >   10729.20MB

     Check: negative/imaginary core charge=   -0.000001    0.000000

     Initial potential from superposition of free atoms

     starting charge  383.99822, renormalised to  384.00000
     Starting wfc are  336 randomized atomic wfcs
     Checking if some PAW data can be deallocated... 

     total cpu time spent up to now is       71.3 secs

     per-process dynamical memory:   894.0 Mb

     Self-consistent Calculation

     iteration #  1     ecut=   100.00 Ry     beta=0.50
     Davidson diagonalization with overlap
     ethr =  1.00E-02,  avg # of iterations =  4.0

     total cpu time spent up to now is      269.7 secs

     total energy              =   -1741.94662357 Ry
     Harris-Foulkes estimate   =   -1751.91141428 Ry
     estimated scf accuracy    <      17.97482892 Ry

     iteration #  2     ecut=   100.00 Ry     beta=0.50
     Davidson diagonalization with overlap
     ethr =  4.68E-03,  avg # of iterations =  2.5

     total cpu time spent up to now is      406.9 secs

     total energy              =   -1745.81169244 Ry
     Harris-Foulkes estimate   =   -1746.36415339 Ry
     estimated scf accuracy    <       1.38225397 Ry

     iteration #  3     ecut=   100.00 Ry     beta=0.50
     Davidson diagonalization with overlap
     ethr =  3.60E-04,  avg # of iterations =  7.1

     total cpu time spent up to now is      602.8 secs

     total energy              =   -1746.17184688 Ry
     Harris-Foulkes estimate   =   -1746.27817286 Ry
     estimated scf accuracy    <       0.32126228 Ry

     iteration #  4     ecut=   100.00 Ry     beta=0.50
     Davidson diagonalization with overlap
     ethr =  8.37E-05,  avg # of iterations =  2.9

     total cpu time spent up to now is      723.4 secs

     total energy              =   -1746.19640023 Ry
     Harris-Foulkes estimate   =   -1746.21309143 Ry
     estimated scf accuracy    <       0.06213868 Ry

     iteration #  5     ecut=   100.00 Ry     beta=0.50
     Davidson diagonalization with overlap
     ethr =  1.62E-05,  avg # of iterations =  6.8

     total cpu time spent up to now is      913.3 secs

     total energy              =   -1746.20498591 Ry
     Harris-Foulkes estimate   =   -1746.21526017 Ry
     estimated scf accuracy    <       0.02015904 Ry

     iteration #  6     ecut=   100.00 Ry     beta=0.50
     Davidson diagonalization with overlap
     ethr =  5.25E-06,  avg # of iterations =  4.1

     total cpu time spent up to now is     1045.4 secs

     total energy              =   -1746.20784780 Ry
     Harris-Foulkes estimate   =   -1746.20808543 Ry
     estimated scf accuracy    <       0.00092097 Ry

     iteration #  7     ecut=   100.00 Ry     beta=0.50
     Davidson diagonalization with overlap
     ethr =  2.40E-07,  avg # of iterations =  5.2

     total cpu time spent up to now is     1252.7 secs

     total energy              =   -1746.20885004 Ry
     Harris-Foulkes estimate   =   -1746.20900830 Ry
     estimated scf accuracy    <       0.00041644 Ry

     iteration #  8     ecut=   100.00 Ry     beta=0.50
     Davidson diagonalization with overlap
     ethr =  1.08E-07,  avg # of iterations =  2.0

     total cpu time spent up to now is     1361.9 secs

     total energy              =   -1746.20886873 Ry
     Harris-Foulkes estimate   =   -1746.20889022 Ry
     estimated scf accuracy    <       0.00005951 Ry

     iteration #  9     ecut=   100.00 Ry     beta=0.50
     Davidson diagonalization with overlap
     ethr =  1.55E-08,  avg # of iterations =  3.0

     total cpu time spent up to now is     1557.0 secs

     total energy              =   -1746.20890668 Ry
     Harris-Foulkes estimate   =   -1746.20891916 Ry
     estimated scf accuracy    <       0.00002852 Ry

     iteration # 10     ecut=   100.00 Ry     beta=0.50
     Davidson diagonalization with overlap
     ethr =  7.43E-09,  avg # of iterations =  3.1

     total cpu time spent up to now is     1673.7 secs

     total energy              =   -1746.20890985 Ry
     Harris-Foulkes estimate   =   -1746.20891043 Ry
     estimated scf accuracy    <       0.00000168 Ry

     iteration # 11     ecut=   100.00 Ry     beta=0.50
     Davidson diagonalization with overlap
     ethr =  4.37E-10,  avg # of iterations =  4.0

     total cpu time spent up to now is     1892.4 secs

     total energy              =   -1746.20891224 Ry
     Harris-Foulkes estimate   =   -1746.20891283 Ry
     estimated scf accuracy    <       0.00000191 Ry

     iteration # 12     ecut=   100.00 Ry     beta=0.50
     Davidson diagonalization with overlap
     ethr =  4.37E-10,  avg # of iterations =  1.0

     total cpu time spent up to now is     1997.6 secs

     total energy              =   -1746.20891202 Ry
     Harris-Foulkes estimate   =   -1746.20891232 Ry
     estimated scf accuracy    <       0.00000064 Ry

     iteration # 13     ecut=   100.00 Ry     beta=0.50
     Davidson diagonalization with overlap
     ethr =  1.66E-10,  avg # of iterations =  3.2

     total cpu time spent up to now is     2173.5 secs

     total energy              =   -1746.20891226 Ry
     Harris-Foulkes estimate   =   -1746.20891228 Ry
     estimated scf accuracy    <       0.00000005 Ry

     iteration # 14     ecut=   100.00 Ry     beta=0.50
     Davidson diagonalization with overlap
     ethr =  1.24E-11,  avg # of iterations =  2.9

     total cpu time spent up to now is     2292.6 secs

     End of self-consistent calculation

          k = 0.0000 0.0000 0.0000 (140679 PWs)   bands (ev):

   -18.4911 -18.4590 -18.3680 -18.3652 -18.3390 -18.3372 -18.3340 -18.2734
   -18.2320 -18.2042 -18.1575 -18.1565 -18.1144 -18.1117 -18.0625 -18.0612
   -15.7130 -15.6843 -15.6299 -15.6232 -15.4878 -15.4787 -15.4755 -15.4523
   -15.3753 -15.3517 -15.3330 -15.3218 -15.3175 -15.3021 -15.2939 -15.2602
   -15.0663 -15.0093 -14.9938 -14.9520 -14.9341 -14.8281 -14.8046 -14.7988
   -14.7265 -14.7174 -14.7146 -14.6836 -14.5485 -14.5469 -14.5030 -14.4987
    -9.3125  -9.2475  -9.0340  -9.0243  -8.9802  -8.9678  -8.9359  -8.7989
    -8.7812  -8.6953  -8.6529  -8.6189  -8.6184  -8.6095  -8.4820  -8.4762
    -7.7877  -7.6927  -7.6158  -7.6072  -7.5868  -7.5514  -7.5512  -7.4491
    -7.4002  -7.3678  -7.3627  -7.2877  -7.2743  -7.1234  -7.1173  -7.1131
    -7.0905  -7.0784  -6.9981  -6.9821  -6.9300  -6.9292  -6.8652  -6.8645
    -6.8493  -6.7211  -6.6996  -6.5881  -6.3612  -6.3579  -6.2498  -6.2409
    -5.6918  -5.6557  -5.6432  -5.5949  -5.5839  -5.5745  -5.4504  -5.4144
    -5.3609  -5.3433  -5.3407  -5.2370  -5.2156  -5.1582  -5.1017  -5.0564
    -5.0531  -5.0464  -5.0225  -5.0218  -4.9911  -4.9550  -4.8033  -4.7716
    -4.7677  -4.7569  -4.6926  -4.6780  -4.5059  -4.4948  -4.4832  -4.4825
    -3.8771  -3.8660  -3.8454  -3.7959  -3.7904  -3.7263  -3.6937  -3.6146
    -3.6083  -3.5209  -3.4911  -3.4351  -3.4106  -3.4090  -3.3918  -3.3686
    -1.3798  -1.3308  -1.3171  -1.2986  -1.1243  -1.0717  -1.0261  -0.9653
    -0.8110  -0.7950  -0.7131  -0.6950  -0.6500  -0.5924  -0.4726  -0.4538
    -0.4516  -0.3878  -0.3847  -0.3845  -0.3619  -0.3540  -0.3530  -0.3451
    -0.2653  -0.2388  -0.1556  -0.1358  -0.1187  -0.0918  -0.0908  -0.0835
     0.0948   0.2538   0.3217   0.3271   0.3619   0.3637   0.3837   0.3841
     0.4426   0.4581   0.4628   0.5180   0.5189   0.5248   0.5755   0.5891
     5.1887   5.4844   5.4951   5.6580   5.6969   5.7892   5.8075   5.8303
     5.8600   5.8952   5.9199   5.9276   5.9942   6.0861   6.0939   6.1221
     6.1670   6.5197   6.5526   6.8229   6.8679   6.9920   7.1478   7.4646
     7.5135   7.5175   7.5220   7.6962   7.7424   7.7562   7.8677   7.9080
     7.9330   7.9476   8.0745   8.1240   8.2681   8.2777

          k = 0.0000 0.0000-0.2726 (140658 PWs)   bands (ev):

   -18.4772 -18.4772 -18.3667 -18.3667 -18.3364 -18.3364 -18.3073 -18.3073
   -18.2140 -18.2140 -18.1570 -18.1570 -18.1130 -18.1130 -18.0618 -18.0618
   -15.6995 -15.6995 -15.6262 -15.6262 -15.4802 -15.4802 -15.4685 -15.4685
   -15.3648 -15.3648 -15.3191 -15.3191 -15.3101 -15.3101 -15.2839 -15.2839
   -15.0241 -15.0241 -15.0014 -15.0014 -14.8663 -14.8663 -14.8018 -14.8018
   -14.7219 -14.7219 -14.6969 -14.6969 -14.5477 -14.5477 -14.5008 -14.5008
    -9.2846  -9.2846  -9.0322  -9.0322  -8.9481  -8.9481  -8.9072  -8.9072
    -8.7162  -8.7162  -8.6441  -8.6441  -8.6066  -8.6066  -8.4790  -8.4790
    -7.7483  -7.7483  -7.6018  -7.6018  -7.5792  -7.5792  -7.4957  -7.4957
    -7.3810  -7.3810  -7.3497  -7.3497  -7.1695  -7.1695  -7.1204  -7.1204
    -7.0840  -7.0840  -6.9913  -6.9913  -6.9305  -6.9305  -6.8632  -6.8632
    -6.8044  -6.8044  -6.6235  -6.6235  -6.3596  -6.3596  -6.2451  -6.2451
    -5.6695  -5.6695  -5.6539  -5.6539  -5.5065  -5.5065  -5.4445  -5.4445
    -5.3873  -5.3873  -5.3316  -5.3316  -5.1300  -5.1300  -5.0823  -5.0823
    -5.0712  -5.0712  -5.0046  -5.0046  -4.9711  -4.9711  -4.7914  -4.7914
    -4.7635  -4.7635  -4.6814  -4.6814  -4.4931  -4.4931  -4.4929  -4.4929
    -3.8646  -3.8646  -3.8507  -3.8507  -3.7324  -3.7324  -3.6429  -3.6429
    -3.5913  -3.5913  -3.4567  -3.4567  -3.3946  -3.3946  -3.3887  -3.3887
    -1.3437  -1.3437  -1.3240  -1.3240  -1.0921  -1.0921  -1.0013  -1.0013
    -0.7704  -0.7704  -0.7478  -0.7478  -0.6024  -0.6024  -0.4865  -0.4865
    -0.3886  -0.3886  -0.3825  -0.3825  -0.3696  -0.3696  -0.3503  -0.3503
    -0.2629  -0.2629  -0.1245  -0.1245  -0.1172  -0.1172  -0.0798  -0.0798
     0.1455   0.1455   0.3338   0.3338   0.3804   0.3804   0.3827   0.3827
     0.4489   0.4489   0.4911   0.4911   0.5186   0.5186   0.5832   0.5832
     5.3113   5.3113   5.5922   5.5922   5.7189   5.7189   5.8287   5.8287
     5.8846   5.8846   5.9741   5.9741   6.0105   6.0105   6.0166   6.0166
     6.3519   6.3519   6.8392   6.8392   7.0298   7.0298   7.1025   7.1025
     7.4220   7.4220   7.6435   7.6435   7.7735   7.7735   7.9145   7.9145
     8.0518   8.0518   8.0804   8.0805   8.1255   8.1255

          k = 0.0000-0.4656 0.0000 (140504 PWs)   bands (ev):

   -18.4312 -18.4312 -18.4135 -18.4135 -18.3234 -18.3234 -18.3042 -18.3042
   -18.2141 -18.2141 -18.2120 -18.2120 -18.0700 -18.0700 -18.0687 -18.0687
   -15.5987 -15.5987 -15.5681 -15.5681 -15.5626 -15.5626 -15.5514 -15.5514
   -15.3303 -15.3303 -15.3288 -15.3288 -15.3252 -15.3252 -15.2909 -15.2909
   -15.0167 -15.0167 -14.9880 -14.9880 -14.8661 -14.8661 -14.8217 -14.8217
   -14.7266 -14.7266 -14.6996 -14.6996 -14.5219 -14.5219 -14.5169 -14.5169
    -9.1418  -9.1418  -9.0969  -9.0969  -8.9511  -8.9511  -8.9038  -8.9038
    -8.7901  -8.7901  -8.7563  -8.7563  -8.5024  -8.5024  -8.4726  -8.4726
    -7.6895  -7.6895  -7.6425  -7.6425  -7.5194  -7.5194  -7.4702  -7.4702
    -7.4131  -7.4131  -7.4030  -7.4030  -7.2135  -7.2135  -7.1079  -7.1079
    -6.9892  -6.9892  -6.9739  -6.9739  -6.9647  -6.9647  -6.8796  -6.8796
    -6.8054  -6.8054  -6.7697  -6.7697  -6.2910  -6.2910  -6.2862  -6.2862
    -5.5976  -5.5976  -5.5784  -5.5784  -5.5081  -5.5081  -5.4949  -5.4949
    -5.3962  -5.3962  -5.3147  -5.3147  -5.2513  -5.2513  -5.0517  -5.0517
    -5.0437  -5.0437  -4.9852  -4.9852  -4.9076  -4.9076  -4.8153  -4.8153
    -4.8045  -4.8045  -4.7174  -4.7174  -4.4910  -4.4910  -4.4879  -4.4879
    -3.7801  -3.7801  -3.7691  -3.7691  -3.7457  -3.7457  -3.6488  -3.6488
    -3.5558  -3.5558  -3.5542  -3.5542  -3.4339  -3.4339  -3.3768  -3.3768
    -1.3424  -1.3424  -1.3204  -1.3204  -1.0275  -1.0275  -0.9002  -0.9002
    -0.8151  -0.8151  -0.7603  -0.7603  -0.6161  -0.6161  -0.6102  -0.6102
    -0.4587  -0.4587  -0.4498  -0.4498  -0.3296  -0.3296  -0.2925  -0.2925
    -0.2560  -0.2560  -0.2014  -0.2014  -0.0653  -0.0653  -0.0640  -0.0640
     0.2063   0.2063   0.3206   0.3206   0.3236   0.3236   0.3872   0.3872
     0.4771   0.4771   0.4885   0.4885   0.5369   0.5369   0.5749   0.5749
     5.4695   5.4695   5.6899   5.6899   5.6921   5.6921   5.7684   5.7684
     5.8693   5.8693   5.9266   5.9266   5.9509   5.9509   6.1024   6.1024
     6.3732   6.3732   6.6954   6.6954   6.8527   6.8527   7.3093   7.3093
     7.3937   7.3937   7.6034   7.6034   7.6808   7.6808   7.9194   7.9194
     8.0179   8.0179   8.1139   8.1140   8.1618   8.1621

          k = 0.0000-0.4656-0.2726 (140628 PWs)   bands (ev):

   -18.4231 -18.4231 -18.4231 -18.4231 -18.3130 -18.3130 -18.3130 -18.3130
   -18.2131 -18.2131 -18.2131 -18.2131 -18.0693 -18.0693 -18.0693 -18.0693
   -15.5881 -15.5881 -15.5881 -15.5881 -15.5522 -15.5522 -15.5522 -15.5522
   -15.3354 -15.3354 -15.3354 -15.3354 -15.3024 -15.3024 -15.3024 -15.3024
   -15.0036 -15.0036 -15.0036 -15.0036 -14.8442 -14.8442 -14.8442 -14.8442
   -14.7116 -14.7116 -14.7116 -14.7116 -14.5193 -14.5193 -14.5193 -14.5193
    -9.1223  -9.1223  -9.1223  -9.1223  -8.9240  -8.9240  -8.9240  -8.9240
    -8.7744  -8.7744  -8.7744  -8.7744  -8.4868  -8.4868  -8.4868  -8.4868
    -7.6680  -7.6680  -7.6680  -7.6680  -7.4921  -7.4921  -7.4921  -7.4921
    -7.4128  -7.4128  -7.4128  -7.4128  -7.1604  -7.1604  -7.1604  -7.1604
    -6.9899  -6.9899  -6.9899  -6.9899  -6.9110  -6.9110  -6.9110  -6.9110
    -6.7864  -6.7864  -6.7864  -6.7864  -6.2886  -6.2886  -6.2886  -6.2886
    -5.5693  -5.5693  -5.5693  -5.5693  -5.5390  -5.5390  -5.5390  -5.5390
    -5.3380  -5.3380  -5.3380  -5.3380  -5.1761  -5.1761  -5.1761  -5.1761
    -4.9893  -4.9893  -4.9893  -4.9893  -4.8750  -4.8750  -4.8750  -4.8750
    -4.7456  -4.7456  -4.7456  -4.7456  -4.4914  -4.4914  -4.4914  -4.4914
    -3.7751  -3.7751  -3.7751  -3.7751  -3.6988  -3.6988  -3.6988  -3.6988
    -3.5567  -3.5567  -3.5567  -3.5567  -3.4007  -3.4007  -3.4007  -3.4007
    -1.3316  -1.3316  -1.3316  -1.3316  -0.9758  -0.9758  -0.9758  -0.9758
    -0.7704  -0.7704  -0.7704  -0.7704  -0.6292  -0.6292  -0.6292  -0.6292
    -0.4236  -0.4236  -0.4236  -0.4236  -0.3495  -0.3495  -0.3495  -0.3495
    -0.2057  -0.2057  -0.2057  -0.2057  -0.0690  -0.0690  -0.0690  -0.0690
     0.2441   0.2441   0.2441   0.2441   0.3733   0.3733   0.3733   0.3733
     0.4826   0.4826   0.4826   0.4826   0.5574   0.5574   0.5574   0.5574
     5.5693   5.5693   5.5693   5.5693   5.7283   5.7283   5.7283   5.7283
     5.8821   5.8821   5.8821   5.8821   6.0316   6.0316   6.0316   6.0316
     6.5153   6.5153   6.5153   6.5153   7.1188   7.1188   7.1188   7.1188
     7.4940   7.4940   7.4940   7.4940   7.8132   7.8132   7.8132   7.8132
     7.9683   7.9683   7.9684   7.9685   8.2623   8.2623

          k =-0.5000 0.0000 0.0000 (140668 PWs)   bands (ev):

   -18.4181 -18.4181 -18.3988 -18.3988 -18.3364 -18.3364 -18.3197 -18.3197
   -18.1822 -18.1822 -18.1782 -18.1782 -18.1072 -18.1072 -18.1072 -18.1072
   -15.6731 -15.6731 -15.6589 -15.6589 -15.4858 -15.4858 -15.4607 -15.4607
   -15.3475 -15.3475 -15.3344 -15.3344 -15.3020 -15.3020 -15.2786 -15.2786
   -14.9016 -14.9016 -14.8975 -14.8975 -14.8447 -14.8447 -14.8397 -14.8397
   -14.6993 -14.6993 -14.6928 -14.6928 -14.6533 -14.6533 -14.6495 -14.6495
    -9.1759  -9.1759  -9.1293  -9.1293  -8.9416  -8.9416  -8.8612  -8.8612
    -8.7054  -8.7054  -8.6841  -8.6841  -8.5429  -8.5429  -8.5347  -8.5347
    -7.6301  -7.6301  -7.5945  -7.5945  -7.5693  -7.5693  -7.5029  -7.5029
    -7.3339  -7.3339  -7.2820  -7.2820  -7.2299  -7.2299  -7.1892  -7.1892
    -7.0561  -7.0561  -6.9918  -6.9918  -6.8717  -6.8717  -6.8534  -6.8534
    -6.7711  -6.7711  -6.7611  -6.7611  -6.4711  -6.4711  -6.4694  -6.4694
    -5.6934  -5.6934  -5.6309  -5.6309  -5.5589  -5.5589  -5.3909  -5.3909
    -5.3142  -5.3142  -5.2246  -5.2246  -5.1402  -5.1402  -5.1361  -5.1361
    -4.9725  -4.9725  -4.9419  -4.9419  -4.8569  -4.8569  -4.8387  -4.8387
    -4.7134  -4.7134  -4.6947  -4.6947  -4.6760  -4.6760  -4.6402  -4.6402
    -3.8011  -3.8011  -3.7936  -3.7936  -3.6801  -3.6801  -3.6652  -3.6652
    -3.5952  -3.5952  -3.5244  -3.5244  -3.4070  -3.4070  -3.3627  -3.3627
    -1.1528  -1.1528  -1.1450  -1.1450  -0.9370  -0.9370  -0.9205  -0.9205
    -0.8208  -0.8208  -0.7985  -0.7985  -0.6333  -0.6333  -0.6250  -0.6250
    -0.4077  -0.4077  -0.3920  -0.3920  -0.3699  -0.3699  -0.3456  -0.3456
    -0.2581  -0.2581  -0.2412  -0.2412  -0.1186  -0.1186  -0.1109  -0.1109
     0.2247   0.2247   0.2335   0.2335   0.3227   0.3227   0.3787   0.3787
     0.4487   0.4487   0.4819   0.4819   0.5101   0.5101   0.5121   0.5121
     5.5122   5.5122   5.6107   5.6107   5.7400   5.7400   5.8250   5.8250
     5.9081   5.9081   5.9329   5.9329   5.9977   5.9977   6.0067   6.0067
     6.3231   6.3231   6.7109   6.7109   6.7579   6.7579   7.3755   7.3755
     7.5041   7.5041   7.5373   7.5373   7.6857   7.6857   7.9171   7.9171
     8.0138   8.0138   8.0336   8.0336   8.2803   8.2804

          k =-0.5000 0.0000-0.2726 (140732 PWs)   bands (ev):

   -18.4095 -18.4095 -18.4095 -18.4095 -18.3270 -18.3270 -18.3270 -18.3270
   -18.1802 -18.1802 -18.1802 -18.1802 -18.1072 -18.1072 -18.1072 -18.1072
   -15.6662 -15.6662 -15.6662 -15.6662 -15.4738 -15.4738 -15.4738 -15.4738
   -15.3409 -15.3409 -15.3409 -15.3409 -15.2897 -15.2897 -15.2897 -15.2897
   -14.8994 -14.8994 -14.8994 -14.8994 -14.8422 -14.8422 -14.8422 -14.8422
   -14.6962 -14.6962 -14.6962 -14.6962 -14.6513 -14.6513 -14.6513 -14.6513
    -9.1556  -9.1556  -9.1556  -9.1556  -8.9003  -8.9003  -8.9003  -8.9003
    -8.6924  -8.6924  -8.6924  -8.6924  -8.5393  -8.5393  -8.5393  -8.5393
    -7.6167  -7.6167  -7.6167  -7.6167  -7.5340  -7.5340  -7.5340  -7.5340
    -7.3090  -7.3090  -7.3090  -7.3090  -7.2081  -7.2081  -7.2081  -7.2081
    -7.0236  -7.0236  -7.0236  -7.0236  -6.8609  -6.8609  -6.8609  -6.8609
    -6.7663  -6.7663  -6.7663  -6.7663  -6.4701  -6.4701  -6.4701  -6.4701
    -5.6715  -5.6715  -5.6715  -5.6715  -5.4877  -5.4877  -5.4877  -5.4877
    -5.2303  -5.2303  -5.2303  -5.2303  -5.1531  -5.1531  -5.1531  -5.1531
    -4.9625  -4.9625  -4.9625  -4.9625  -4.8463  -4.8463  -4.8463  -4.8463
    -4.7031  -4.7031  -4.7031  -4.7031  -4.6574  -4.6574  -4.6574  -4.6574
    -3.7991  -3.7991  -3.7991  -3.7991  -3.6773  -3.6773  -3.6773  -3.6773
    -3.5527  -3.5527  -3.5527  -3.5527  -3.3855  -3.3855  -3.3855  -3.3855
    -1.1488  -1.1488  -1.1488  -1.1488  -0.9290  -0.9290  -0.9290  -0.9290
    -0.8104  -0.8104  -0.8104  -0.8104  -0.6267  -0.6267  -0.6267  -0.6267
    -0.4103  -0.4103  -0.4103  -0.4103  -0.3568  -0.3568  -0.3568  -0.3568
    -0.2291  -0.2291  -0.2291  -0.2291  -0.1285  -0.1285  -0.1285  -0.1285
     0.2302   0.2302   0.2302   0.2302   0.3482   0.3482   0.3482   0.3482
     0.4667   0.4667   0.4667   0.4667   0.5125   0.5125   0.5125   0.5125
     5.5547   5.5547   5.5547   5.5547   5.7803   5.7803   5.7803   5.7803
     5.9463   5.9463   5.9463   5.9463   5.9823   5.9823   5.9823   5.9823
     6.4379   6.4379   6.4379   6.4379   7.1405   7.1405   7.1405   7.1405
     7.4642   7.4642   7.4642   7.4642   7.8430   7.8430   7.8430   7.8430
     8.0656   8.0656   8.0656   8.0656   8.2928   8.2929

          k =-0.5000-0.4656 0.0000 (140620 PWs)   bands (ev):

   -18.3730 -18.3730 -18.3730 -18.3730 -18.3603 -18.3603 -18.3603 -18.3603
   -18.1972 -18.1972 -18.1972 -18.1972 -18.0956 -18.0956 -18.0956 -18.0956
   -15.5841 -15.5841 -15.5841 -15.5841 -15.5583 -15.5583 -15.5583 -15.5583
   -15.3220 -15.3220 -15.3220 -15.3220 -15.3045 -15.3045 -15.3045 -15.3045
   -14.8763 -14.8763 -14.8763 -14.8763 -14.8690 -14.8690 -14.8690 -14.8690
   -14.6943 -14.6943 -14.6943 -14.6943 -14.6514 -14.6514 -14.6514 -14.6514
    -9.0320  -9.0320  -9.0320  -9.0320  -8.9974  -8.9974  -8.9974  -8.9974
    -8.7499  -8.7499  -8.7499  -8.7499  -8.5055  -8.5055  -8.5055  -8.5055
    -7.5788  -7.5788  -7.5788  -7.5788  -7.5377  -7.5377  -7.5377  -7.5377
    -7.3475  -7.3475  -7.3475  -7.3475  -7.1891  -7.1891  -7.1891  -7.1891
    -6.9809  -6.9809  -6.9809  -6.9809  -6.9586  -6.9586  -6.9586  -6.9586
    -6.7541  -6.7541  -6.7541  -6.7541  -6.4828  -6.4828  -6.4828  -6.4828
    -5.5658  -5.5658  -5.5658  -5.5658  -5.5016  -5.5016  -5.5016  -5.5016
    -5.2975  -5.2975  -5.2975  -5.2975  -5.1546  -5.1546  -5.1546  -5.1546
    -4.9460  -4.9460  -4.9460  -4.9460  -4.8523  -4.8523  -4.8523  -4.8523
    -4.7109  -4.7109  -4.7109  -4.7109  -4.6629  -4.6629  -4.6629  -4.6629
    -3.7314  -3.7314  -3.7314  -3.7314  -3.6806  -3.6806  -3.6806  -3.6806
    -3.5550  -3.5550  -3.5550  -3.5550  -3.4231  -3.4231  -3.4231  -3.4231
    -1.0761  -1.0761  -1.0761  -1.0761  -0.9826  -0.9826  -0.9826  -0.9826
    -0.7758  -0.7758  -0.7758  -0.7758  -0.6383  -0.6383  -0.6383  -0.6383
    -0.4246  -0.4246  -0.4246  -0.4246  -0.3714  -0.3714  -0.3714  -0.3714
    -0.2256  -0.2256  -0.2256  -0.2256  -0.1828  -0.1828  -0.1828  -0.1828
     0.2470   0.2470   0.2470   0.2470   0.3232   0.3232   0.3232   0.3232
     0.4903   0.4903   0.4903   0.4903   0.5173   0.5173   0.5173   0.5173
     5.6448   5.6448   5.6448   5.6448   5.7812   5.7812   5.7812   5.7812
     5.9088   5.9088   5.9088   5.9088   5.9879   5.9879   5.9879   5.9879
     6.6010   6.6010   6.6010   6.6010   6.9599   6.9599   6.9599   6.9599
     7.2791   7.2791   7.2791   7.2791   7.8072   7.8072   7.8072   7.8072
     8.2102   8.2102   8.2103   8.2103   8.4483   8.4485

          k =-0.5000-0.4656-0.2726 (140528 PWs)   bands (ev):

   -18.3724 -18.3724 -18.3724 -18.3724 -18.3610 -18.3610 -18.3610 -18.3610
   -18.1970 -18.1970 -18.1970 -18.1970 -18.0957 -18.0957 -18.0957 -18.0957
   -15.5824 -15.5824 -15.5824 -15.5824 -15.5604 -15.5604 -15.5604 -15.5604
   -15.3137 -15.3137 -15.3137 -15.3137 -15.3123 -15.3123 -15.3123 -15.3123
   -14.8751 -14.8751 -14.8751 -14.8751 -14.8701 -14.8701 -14.8701 -14.8701
   -14.6942 -14.6942 -14.6942 -14.6942 -14.6514 -14.6514 -14.6514 -14.6514
    -9.0268  -9.0268  -9.0268  -9.0268  -9.0038  -9.0038  -9.0038  -9.0038
    -8.7479  -8.7479  -8.7479  -8.7479  -8.5065  -8.5065  -8.5065  -8.5065
    -7.5716  -7.5716  -7.5716  -7.5716  -7.5458  -7.5458  -7.5458  -7.5458
    -7.3463  -7.3463  -7.3463  -7.3463  -7.1892  -7.1892  -7.1892  -7.1892
    -6.9789  -6.9789  -6.9789  -6.9789  -6.9609  -6.9609  -6.9609  -6.9609
    -6.7539  -6.7539  -6.7539  -6.7539  -6.4828  -6.4828  -6.4828  -6.4828
    -5.5583  -5.5583  -5.5583  -5.5583  -5.5099  -5.5099  -5.5099  -5.5099
    -5.2944  -5.2944  -5.2944  -5.2944  -5.1597  -5.1597  -5.1597  -5.1597
    -4.9367  -4.9367  -4.9367  -4.9367  -4.8628  -4.8628  -4.8628  -4.8628
    -4.6979  -4.6979  -4.6979  -4.6979  -4.6717  -4.6717  -4.6717  -4.6717
    -3.7247  -3.7247  -3.7247  -3.7247  -3.6890  -3.6890  -3.6890  -3.6890
    -3.5526  -3.5526  -3.5526  -3.5526  -3.4239  -3.4239  -3.4239  -3.4239
    -1.0753  -1.0753  -1.0753  -1.0753  -0.9854  -0.9854  -0.9854  -0.9854
    -0.7686  -0.7686  -0.7686  -0.7686  -0.6453  -0.6453  -0.6453  -0.6453
    -0.4189  -0.4189  -0.4189  -0.4189  -0.3746  -0.3746  -0.3746  -0.3746
    -0.2228  -0.2228  -0.2228  -0.2228  -0.1875  -0.1875  -0.1875  -0.1875
     0.2569   0.2569   0.2569   0.2569   0.3132   0.3132   0.3132   0.3132
     0.4920   0.4920   0.4920   0.4920   0.5170   0.5170   0.5170   0.5170
     5.6479   5.6479   5.6479   5.6479   5.7924   5.7924   5.7924   5.7924
     5.8962   5.8962   5.8962   5.8962   5.9790   5.9790   5.9790   5.9790
     6.6830   6.6830   6.6830   6.6830   6.7938   6.7938   6.7938   6.7938
     7.5718   7.5718   7.5718   7.5718   7.5807   7.5807   7.5807   7.5807
     8.2389   8.2389   8.2390   8.2390   8.3932   8.3933

     highest occupied, lowest unoccupied level (ev):     0.5891    5.1887

!    total energy              =   -1746.20891226 Ry
     Harris-Foulkes estimate   =   -1746.20891227 Ry
     estimated scf accuracy    <          4.0E-09 Ry

     total all-electron energy =     -6572.776643 Ry

     The total energy is the sum of the following terms:

     one-electron contribution =    -843.38871979 Ry
     hartree contribution      =     563.04304623 Ry
     xc contribution           =    -386.15592261 Ry
     ewald contribution        =    -575.52446598 Ry
     Dispersion Correction     =      -0.62186664 Ry
     one-center paw contrib.   =    -503.56098347 Ry

     convergence has been achieved in  14 iterations

     Forces acting on atoms (cartesian axes, Ry/au):

     atom    1 type  1   force =    -0.00020347   -0.00007674   -0.00018150
     atom    2 type  1   force =     0.00020347    0.00007674   -0.00018150
     atom    3 type  1   force =     0.00020347   -0.00007674    0.00018150
     atom    4 type  1   force =    -0.00020347    0.00007674    0.00018150
     atom    5 type  1   force =     0.00020347    0.00007674    0.00018150
     atom    6 type  1   force =    -0.00020347   -0.00007674    0.00018150
     atom    7 type  1   force =    -0.00020347    0.00007674   -0.00018150
     atom    8 type  1   force =     0.00020347   -0.00007674   -0.00018150
     atom    9 type  2   force =     0.00033550    0.00060057    0.00030456
     atom   10 type  2   force =    -0.00033550   -0.00060057    0.00030456
     atom   11 type  2   force =    -0.00033550    0.00060057   -0.00030456
     atom   12 type  2   force =     0.00033550   -0.00060057   -0.00030456
     atom   13 type  2   force =    -0.00033550   -0.00060057   -0.00030456
     atom   14 type  2   force =     0.00033550    0.00060057   -0.00030456
     atom   15 type  2   force =     0.00033550   -0.00060057    0.00030456
     atom   16 type  2   force =    -0.00033550    0.00060057    0.00030456
     atom   17 type  2   force =     0.00126536   -0.00034926   -0.00012201
     atom   18 type  2   force =    -0.00126536    0.00034926   -0.00012201
     atom   19 type  2   force =    -0.00126536   -0.00034926    0.00012201
     atom   20 type  2   force =     0.00126536    0.00034926    0.00012201
     atom   21 type  2   force =    -0.00126536    0.00034926    0.00012201
     atom   22 type  2   force =     0.00126536   -0.00034926    0.00012201
     atom   23 type  2   force =     0.00126536    0.00034926   -0.00012201
     atom   24 type  2   force =    -0.00126536   -0.00034926   -0.00012201
     atom   25 type  2   force =     0.00032287    0.00100229    0.00201803
     atom   26 type  2   force =    -0.00032287   -0.00100229    0.00201803
     atom   27 type  2   force =    -0.00032287    0.00100229   -0.00201803
     atom   28 type  2   force =     0.00032287   -0.00100229   -0.00201803
     atom   29 type  2   force =    -0.00032287   -0.00100229   -0.00201803
     atom   30 type  2   force =     0.00032287    0.00100229   -0.00201803
     atom   31 type  2   force =     0.00032287   -0.00100229    0.00201803
     atom   32 type  2   force =    -0.00032287    0.00100229    0.00201803
     atom   33 type  3   force =    -0.00026676    0.00050276   -0.00019517
     atom   34 type  3   force =     0.00026676   -0.00050276   -0.00019517
     atom   35 type  3   force =     0.00026676    0.00050276    0.00019517
     atom   36 type  3   force =    -0.00026676   -0.00050276    0.00019517
     atom   37 type  3   force =     0.00026676   -0.00050276    0.00019517
     atom   38 type  3   force =    -0.00026676    0.00050276    0.00019517
     atom   39 type  3   force =    -0.00026676   -0.00050276   -0.00019517
     atom   40 type  3   force =     0.00026676    0.00050276   -0.00019517
     atom   41 type  3   force =     0.00043806    0.00027597    0.00006653
     atom   42 type  3   force =    -0.00043806   -0.00027597    0.00006653
     atom   43 type  3   force =    -0.00043806    0.00027597   -0.00006653
     atom   44 type  3   force =     0.00043806   -0.00027597   -0.00006653
     atom   45 type  3   force =    -0.00043806   -0.00027597   -0.00006653
     atom   46 type  3   force =     0.00043806    0.00027597   -0.00006653
     atom   47 type  3   force =     0.00043806   -0.00027597    0.00006653
     atom   48 type  3   force =    -0.00043806    0.00027597    0.00006653
     atom   49 type  3   force =    -0.00068296    0.00012502   -0.00063286
     atom   50 type  3   force =     0.00068296   -0.00012502   -0.00063286
     atom   51 type  3   force =     0.00068296    0.00012502    0.00063286
     atom   52 type  3   force =    -0.00068296   -0.00012502    0.00063286
     atom   53 type  3   force =     0.00068296   -0.00012502    0.00063286
     atom   54 type  3   force =    -0.00068296    0.00012502    0.00063286
     atom   55 type  3   force =    -0.00068296   -0.00012502   -0.00063286
     atom   56 type  3   force =     0.00068296    0.00012502   -0.00063286
     atom   57 type  3   force =     0.00006446    0.00012865   -0.00002619
     atom   58 type  3   force =    -0.00006446   -0.00012865   -0.00002619
     atom   59 type  3   force =    -0.00006446    0.00012865    0.00002619
     atom   60 type  3   force =     0.00006446   -0.00012865    0.00002619
     atom   61 type  3   force =    -0.00006446   -0.00012865    0.00002619
     atom   62 type  3   force =     0.00006446    0.00012865    0.00002619
     atom   63 type  3   force =     0.00006446   -0.00012865   -0.00002619
     atom   64 type  3   force =    -0.00006446    0.00012865   -0.00002619
     atom   65 type  3   force =    -0.00026117   -0.00012547   -0.00011925
     atom   66 type  3   force =     0.00026117    0.00012547   -0.00011925
     atom   67 type  3   force =     0.00026117   -0.00012547    0.00011925
     atom   68 type  3   force =    -0.00026117    0.00012547    0.00011925
     atom   69 type  3   force =     0.00026117    0.00012547    0.00011925
     atom   70 type  3   force =    -0.00026117   -0.00012547    0.00011925
     atom   71 type  3   force =    -0.00026117    0.00012547   -0.00011925
     atom   72 type  3   force =     0.00026117   -0.00012547   -0.00011925
     atom   73 type  1   force =     0.00056817   -0.00009222    0.00020312
     atom   74 type  1   force =    -0.00056817    0.00009222    0.00020312
     atom   75 type  1   force =    -0.00056817   -0.00009222   -0.00020312
     atom   76 type  1   force =     0.00056817    0.00009222   -0.00020312
     atom   77 type  1   force =    -0.00056817    0.00009222   -0.00020312
     atom   78 type  1   force =     0.00056817   -0.00009222   -0.00020312
     atom   79 type  1   force =     0.00056817    0.00009222    0.00020312
     atom   80 type  1   force =    -0.00056817   -0.00009222    0.00020312
     atom   81 type  2   force =    -0.00059396    0.00065055   -0.00000298
     atom   82 type  2   force =     0.00059396   -0.00065055   -0.00000298
     atom   83 type  2   force =     0.00059396    0.00065055    0.00000298
     atom   84 type  2   force =    -0.00059396   -0.00065055    0.00000298
     atom   85 type  2   force =     0.00059396   -0.00065055    0.00000298
     atom   86 type  2   force =    -0.00059396    0.00065055    0.00000298
     atom   87 type  2   force =    -0.00059396   -0.00065055   -0.00000298
     atom   88 type  2   force =     0.00059396    0.00065055   -0.00000298
     atom   89 type  2   force =    -0.00132987    0.00150442   -0.00104219
     atom   90 type  2   force =     0.00132987   -0.00150442   -0.00104219
     atom   91 type  2   force =     0.00132987    0.00150442    0.00104219
     atom   92 type  2   force =    -0.00132987   -0.00150442    0.00104219
     atom   93 type  2   force =     0.00132987   -0.00150442    0.00104219
     atom   94 type  2   force =    -0.00132987    0.00150442    0.00104219
     atom   95 type  2   force =    -0.00132987   -0.00150442   -0.00104219
     atom   96 type  2   force =     0.00132987    0.00150442   -0.00104219
     atom   97 type  2   force =     0.00031186   -0.00007452   -0.00031364
     atom   98 type  2   force =    -0.00031186    0.00007452   -0.00031364
     atom   99 type  2   force =    -0.00031186   -0.00007452    0.00031364
     atom  100 type  2   force =     0.00031186    0.00007452    0.00031364
     atom  101 type  2   force =    -0.00031186    0.00007452    0.00031364
     atom  102 type  2   force =     0.00031186   -0.00007452    0.00031364
     atom  103 type  2   force =     0.00031186    0.00007452   -0.00031364
     atom  104 type  2   force =    -0.00031186   -0.00007452   -0.00031364
     atom  105 type  3   force =     0.00000282   -0.00064122   -0.00035646
     atom  106 type  3   force =    -0.00000282    0.00064122   -0.00035646
     atom  107 type  3   force =    -0.00000282   -0.00064122    0.00035646
     atom  108 type  3   force =     0.00000282    0.00064122    0.00035646
     atom  109 type  3   force =    -0.00000282    0.00064122    0.00035646
     atom  110 type  3   force =     0.00000282   -0.00064122    0.00035646
     atom  111 type  3   force =     0.00000282    0.00064122   -0.00035646
     atom  112 type  3   force =    -0.00000282   -0.00064122   -0.00035646
     atom  113 type  3   force =    -0.00037807    0.00043929   -0.00001856
     atom  114 type  3   force =     0.00037807   -0.00043929   -0.00001856
     atom  115 type  3   force =     0.00037807    0.00043929    0.00001856
     atom  116 type  3   force =    -0.00037807   -0.00043929    0.00001856
     atom  117 type  3   force =     0.00037807   -0.00043929    0.00001856
     atom  118 type  3   force =    -0.00037807    0.00043929    0.00001856
     atom  119 type  3   force =    -0.00037807   -0.00043929   -0.00001856
     atom  120 type  3   force =     0.00037807    0.00043929   -0.00001856
     atom  121 type  3   force =     0.00183465   -0.00074143    0.00163887
     atom  122 type  3   force =    -0.00183465    0.00074143    0.00163887
     atom  123 type  3   force =    -0.00183465   -0.00074143   -0.00163887
     atom  124 type  3   force =     0.00183465    0.00074143   -0.00163887
     atom  125 type  3   force =    -0.00183465    0.00074143   -0.00163887
     atom  126 type  3   force =     0.00183465   -0.00074143   -0.00163887
     atom  127 type  3   force =     0.00183465    0.00074143    0.00163887
     atom  128 type  3   force =    -0.00183465   -0.00074143    0.00163887
     atom  129 type  3   force =    -0.00042311    0.00005797    0.00007246
     atom  130 type  3   force =     0.00042311   -0.00005797    0.00007246
     atom  131 type  3   force =     0.00042311    0.00005797   -0.00007246
     atom  132 type  3   force =    -0.00042311   -0.00005797   -0.00007246
     atom  133 type  3   force =     0.00042311   -0.00005797   -0.00007246
     atom  134 type  3   force =    -0.00042311    0.00005797   -0.00007246
     atom  135 type  3   force =    -0.00042311   -0.00005797    0.00007246
     atom  136 type  3   force =     0.00042311    0.00005797    0.00007246
     atom  137 type  3   force =     0.00068286   -0.00060335   -0.00075872
     atom  138 type  3   force =    -0.00068286    0.00060335   -0.00075872
     atom  139 type  3   force =    -0.00068286   -0.00060335    0.00075872
     atom  140 type  3   force =     0.00068286    0.00060335    0.00075872
     atom  141 type  3   force =    -0.00068286    0.00060335    0.00075872
     atom  142 type  3   force =     0.00068286   -0.00060335    0.00075872
     atom  143 type  3   force =     0.00068286    0.00060335   -0.00075872
     atom  144 type  3   force =    -0.00068286   -0.00060335   -0.00075872

     Total force =     0.014068     Total SCF correction =     0.000143


     Computing stress (Cartesian axis) and pressure

          total   stress  (Ry/bohr**3)                   (kbar)     P=   -9.53
  -0.00006530   0.00000000   0.00000000         -9.61      0.00      0.00
   0.00000000  -0.00008024   0.00000000          0.00    -11.80      0.00
   0.00000000   0.00000000  -0.00004887          0.00      0.00     -7.19


     Writing output data file scf.save
 
     init_run     :     66.49s CPU     70.20s WALL (       1 calls)
     electrons    :   2118.69s CPU   2221.62s WALL (       1 calls)
     forces       :     30.19s CPU     30.56s WALL (       1 calls)
     stress       :    241.35s CPU    241.95s WALL (       1 calls)

     Called by init_run:
     wfcinit      :     57.49s CPU     60.71s WALL (       1 calls)
     potinit      :      3.18s CPU      3.27s WALL (       1 calls)

     Called by electrons:
     c_bands      :   1902.64s CPU   1988.85s WALL (      14 calls)
     sum_band     :    197.78s CPU    212.31s WALL (      14 calls)
     v_of_rho     :      2.54s CPU      2.81s WALL (      15 calls)
     newd         :      5.63s CPU      7.45s WALL (      15 calls)
     PAW_pot      :      9.20s CPU      9.24s WALL (      15 calls)
     mix_rho      :      0.57s CPU      0.66s WALL (      14 calls)

     Called by c_bands:
     init_us_2    :     13.79s CPU     13.84s WALL (     248 calls)
     cegterg      :   1856.15s CPU   1942.29s WALL (     112 calls)

     Called by sum_band:
     sum_band:bec :      0.12s CPU      0.12s WALL (     112 calls)
     addusdens    :      5.72s CPU      7.43s WALL (      14 calls)

     Called by *egterg:
     h_psi        :   1073.28s CPU   1142.92s WALL (     535 calls)
     s_psi        :    210.95s CPU    210.99s WALL (     535 calls)
     g_psi        :      7.05s CPU      7.05s WALL (     415 calls)
     cdiaghg      :    101.71s CPU    102.10s WALL (     527 calls)

     Called by h_psi:
     h_psi:pot    :   1065.13s CPU   1134.60s WALL (     535 calls)
     h_psi:calbec :    200.10s CPU    200.46s WALL (     535 calls)
     vloc_psi     :    654.17s CPU    723.21s WALL (     535 calls)
     add_vuspsi   :    210.86s CPU    210.93s WALL (     535 calls)

     General routines
     calbec       :    290.91s CPU    291.44s WALL (     687 calls)
     fft          :      1.50s CPU      2.18s WALL (     219 calls)
     fftw         :    696.86s CPU    778.35s WALL (  177154 calls)
 
     Parallel routines
     fft_scatter  :    105.00s CPU    181.11s WALL (  177373 calls)
 
     PWSCF        : 41m14.24s CPU    43m55.76s WALL

 
   This run was terminated on:   9:31:14  12Nov2017            

=------------------------------------------------------------------------------=
   JOB DONE.
=------------------------------------------------------------------------------=
