
     Program PWSCF v.6.1 (svn rev. 13369) starts on 12Dec2017 at 16: 0:36 

     This program is part of the open-source Quantum ESPRESSO suite
     for quantum simulation of materials; please cite
         "P. Giannozzi et al., J. Phys.:Condens. Matter 21 395502 (2009);
          URL http://www.quantum-espresso.org", 
     in publications or presentations arising from this work. More details at
     http://www.quantum-espresso.org/quote

     Parallel version (MPI), running on     8 processors
     R & G space division:  proc/nbgrp/npool/nimage =       8
     Waiting for input...
     Reading input from standard input

     Current dimensions of program PWSCF are:
     Max number of different atomic species (ntypx) = 10
     Max number of k-points (npk) =  40000
     Max angular momentum in pseudopotentials (lmaxx) =  3
               file C.pbe-n-kjpaw_psl.0.1.UPF: wavefunction(s)  2P renormalized
               file N.pbe-n-kjpaw_psl.0.1.UPF: wavefunction(s)  2P renormalized
               file H.pbe-kjpaw_psl.0.1.UPF: wavefunction(s)  1S renormalized
               file O.pbe-n-kjpaw_psl.0.1.UPF: wavefunction(s)  2P renormalized

     -------------------------------------
     Parameters for Dispersion Correction:
     -------------------------------------
       atom      VdW radius       C_6     

        C          2.744         60.710
        N          2.640         42.670
        H          1.892          4.857
        O          2.536         24.284

     Subspace diagonalization in iterative solution of the eigenvalue problem:
     a serial algorithm will be used

 
     Parallelization info
     --------------------
     sticks:   dense  smooth     PW     G-vecs:    dense   smooth      PW
     Min        1260    1260    334                61002    61002    8290
     Max        1261    1261    335                61004    61004    8291
     Sum       10081   10081   2673               488023   488023   66321
 


     bravais-lattice index     =            0
     lattice parameter (alat)  =      15.0233  a.u.
     unit-cell volume          =    3611.7658 (a.u.)^3
     number of atoms/cell      =           60
     number of atomic types    =            4
     number of electrons       =       192.00
     number of Kohn-Sham states=          115
     kinetic-energy cutoff     =     100.0000  Ry
     charge density cutoff     =     400.0000  Ry
     convergence threshold     =      1.0E-08
     mixing beta               =       0.5000
     number of iterations used =            8  plain     mixing
     Exchange-correlation      =  SLA  PW   PBX  PBC ( 1  4  3  4 0 0)

     celldm(1)=  15.023323  celldm(2)=   0.000000  celldm(3)=   0.000000
     celldm(4)=   0.000000  celldm(5)=   0.000000  celldm(6)=   0.000000

     crystal axes: (cart. coord. in units of alat)
               a(1) = (   1.000000   0.000000   0.000000 )  
               a(2) = (   0.000000   1.403270   0.000000 )  
               a(3) = (  -0.060940   0.000000   0.759067 )  

     reciprocal axes: (cart. coord. in units 2 pi/alat)
               b(1) = (  1.000000  0.000000  0.080282 )  
               b(2) = (  0.000000  0.712621  0.000000 )  
               b(3) = (  0.000000  0.000000  1.317406 )  


     PseudoPot. # 1 for  C read from file:
     /scratch/ahofstet/pseudo/C.pbe-n-kjpaw_psl.0.1.UPF
     MD5 check sum: 430fe95172b1e11ef3f8ed03bac87931
     Pseudo is Projector augmented-wave + core cor, Zval =  4.0
     Generated using "atomic" code by A. Dal Corso  v.5.0.99 svn rev. 10869
     Shape of augmentation charge: BESSEL
     Using radial grid of 1073 points,  4 beta functions with: 
                l(1) =   0
                l(2) =   0
                l(3) =   1
                l(4) =   1
     Q(r) pseudized with 0 coefficients 


     PseudoPot. # 2 for  N read from file:
     /scratch/ahofstet/pseudo/N.pbe-n-kjpaw_psl.0.1.UPF
     MD5 check sum: f73187c8b701007e77325f868c9291d7
     Pseudo is Projector augmented-wave + core cor, Zval =  5.0
     Generated using "atomic" code by A. Dal Corso  v.5.0.99 svn rev. 10869
     Shape of augmentation charge: PSQ
     Using radial grid of 1085 points,  4 beta functions with: 
                l(1) =   0
                l(2) =   0
                l(3) =   1
                l(4) =   1
     Q(r) pseudized with 0 coefficients 


     PseudoPot. # 3 for  H read from file:
     /scratch/ahofstet/pseudo/H.pbe-kjpaw_psl.0.1.UPF
     MD5 check sum: 94e484f906d9e9773b2f6e52662335b2
     Pseudo is Projector augmented-wave, Zval =  1.0
     Generated using "atomic" code by A. Dal Corso  v.5.0.99 svn rev. 10869
     Shape of augmentation charge: PSQ
     Using radial grid of  929 points,  2 beta functions with: 
                l(1) =   0
                l(2) =   0
     Q(r) pseudized with 0 coefficients 


     PseudoPot. # 4 for  O read from file:
     /scratch/ahofstet/pseudo/O.pbe-n-kjpaw_psl.0.1.UPF
     MD5 check sum: 3f94a2996a3169367d6eb21d9b593f20
     Pseudo is Projector augmented-wave + core cor, Zval =  6.0
     Generated using "atomic" code by A. Dal Corso  v.5.0.99 svn rev. 10869
     Shape of augmentation charge: BESSEL
     Using radial grid of 1095 points,  4 beta functions with: 
                l(1) =   0
                l(2) =   0
                l(3) =   1
                l(4) =   1
     Q(r) pseudized with 0 coefficients 


     atomic species   valence    mass     pseudopotential
        C              4.00    12.01070      C( 1.00)
        N              5.00    14.00670      N( 1.00)
        H              1.00     1.00794      H( 1.00)
        O              6.00    15.99940      O( 1.00)

      2 Sym. Ops., with inversion, found



   Cartesian axes

     site n.     atom                  positions (alat units)
         1           N   tau(   1) = (   0.0432391   0.5264471   0.6667531  )
         2           N   tau(   2) = (   0.3959125   1.2281428   0.0923176  )
         3           N   tau(   3) = (   0.8958212   0.8768233   0.0923141  )
         4           N   tau(   4) = (   0.5431477   0.1751276   0.6667496  )
         5           C   tau(   5) = (   0.1135994   0.6561735   0.5742525  )
         6           C   tau(   6) = (   0.3254918   1.3578232   0.1848382  )
         7           C   tau(   7) = (   0.8254608   0.7470969   0.1848147  )
         8           C   tau(   8) = (   0.6135685   0.0454473   0.5742289  )
         9           N   tau(   9) = (   0.2173190   0.6216015   0.4447995  )
        10           N   tau(  10) = (   0.2217547   1.3231973   0.3142397  )
        11           N   tau(  11) = (   0.7217413   0.7816690   0.3142676  )
        12           N   tau(  12) = (   0.7173055   0.0800731   0.4448275  )
        13           C   tau(  13) = (   0.2451931   0.4586541   0.4055436  )
        14           C   tau(  14) = (   0.1938716   1.1602173   0.3534200  )
        15           C   tau(  15) = (   0.6938672   0.9446164   0.3535235  )
        16           C   tau(  16) = (   0.7451887   0.2430531   0.4056472  )
        17           N   tau(  17) = (   0.3412152   0.4235222   0.2705707  )
        18           N   tau(  18) = (   0.0978161   1.1250166   0.4883586  )
        19           N   tau(  19) = (   0.5978451   0.9797482   0.4884964  )
        20           N   tau(  20) = (   0.8412441   0.2782538   0.2707086  )
        21           C   tau(  21) = (   0.1800518   0.3215915   0.5020976  )
        22           C   tau(  22) = (   0.2590942   1.0231930   0.2568621  )
        23           C   tau(  23) = (   0.7590085   1.0816789   0.2569696  )
        24           C   tau(  24) = (   0.6799660   0.3800775   0.5022051  )
        25           C   tau(  25) = (   0.0781944   0.3620702   0.6337184  )
        26           C   tau(  26) = (   0.3610209   1.0637530   0.1253097  )
        27           C   tau(  27) = (   0.8608658   1.0412002   0.1253487  )
        28           C   tau(  28) = (   0.5780393   0.3395174   0.6337575  )
        29           N   tau(  29) = (   0.4087486   0.5476301   0.1650486  )
        30           N   tau(  30) = (   0.0302420   1.2490587   0.5939070  )
        31           N   tau(  31) = (   0.5303116   0.8556403   0.5940186  )
        32           N   tau(  32) = (   0.9088183   0.1542118   0.1651602  )
        33           O   tau(  33) = (   0.0787543   0.8050974   0.6190499  )
        34           O   tau(  34) = (   0.3603095   0.1034975   0.1400795  )
        35           O   tau(  35) = (   0.8603060   0.5981730   0.1400172  )
        36           O   tau(  36) = (   0.5787508   1.2997729   0.6189877  )
        37           H   tau(  37) = (  -0.0465998   0.5575882   0.7581252  )
        38           H   tau(  38) = (   0.4858352   1.2592988   0.0010079  )
        39           H   tau(  39) = (   0.9856600   0.8456822   0.0009419  )
        40           H   tau(  40) = (   0.4532250   0.1439716   0.7580593  )
        41           H   tau(  41) = (   0.3496437   0.3001222   0.2296279  )
        42           H   tau(  42) = (   0.0893968   1.0015993   0.5292516  )
        43           H   tau(  43) = (   0.5894165   1.1031483   0.5294393  )
        44           H   tau(  44) = (   0.8496635   0.4016711   0.2298156  )
        45           H   tau(  45) = (   0.2079256   0.1915629   0.4687619  )
        46           H   tau(  46) = (   0.2313412   0.8931579   0.2902004  )
        47           H   tau(  47) = (   0.7311346   1.2117075   0.2903053  )
        48           H   tau(  48) = (   0.7077191   0.5101125   0.4688668  )
        49           H   tau(  49) = (   0.0172655   0.2710884   0.7169034  )
        50           H   tau(  50) = (   0.4221212   0.9727915   0.0422254  )
        51           H   tau(  51) = (   0.9217947   1.1321820   0.0421638  )
        52           H   tau(  52) = (   0.5169391   0.4304790   0.7168417  )
        53           H   tau(  53) = (   0.3111329   0.6189861   0.1183433  )
        54           H   tau(  54) = (   0.1278523   1.3204093   0.6406761  )
        55           H   tau(  55) = (   0.6279273   0.7842843   0.6407239  )
        56           H   tau(  56) = (   0.8112080   0.0828611   0.1183910  )
        57           H   tau(  57) = (   0.4827078   0.6265153   0.2363145  )
        58           H   tau(  58) = (   0.9563043   1.3279753   0.5226587  )
        59           H   tau(  59) = (   0.4563524   0.7767552   0.5227526  )
        60           H   tau(  60) = (  -0.0172441   0.0752951   0.2364085  )

     number of k points=    10
                       cart. coord. in units 2pi/alat
        k(    1) = (   0.0000000   0.0000000   0.0000000), wk =   0.1111111
        k(    2) = (   0.0000000   0.0000000   0.4391355), wk =   0.2222222
        k(    3) = (   0.0000000  -0.3563105   0.0000000), wk =   0.1111111
        k(    4) = (   0.0000000  -0.3563105   0.4391355), wk =   0.2222222
        k(    5) = (   0.3333333   0.0000000   0.0267608), wk =   0.2222222
        k(    6) = (   0.3333333   0.0000000   0.4658963), wk =   0.2222222
        k(    7) = (   0.3333333   0.0000000  -0.4123747), wk =   0.2222222
        k(    8) = (   0.3333333  -0.3563105   0.0267608), wk =   0.2222222
        k(    9) = (   0.3333333  -0.3563105   0.4658963), wk =   0.2222222
        k(   10) = (   0.3333333  -0.3563105  -0.4123747), wk =   0.2222222

     Dense  grid:   488023 G-vectors     FFT dimensions: (  96, 135,  75)

     Estimated max dynamical RAM per process >     336.41MB

     Estimated total allocated dynamical RAM >    2691.28MB

     Check: negative/imaginary core charge=   -0.000002    0.000000

     Initial potential from superposition of free atoms

     starting charge  191.99898, renormalised to  192.00000
     Starting wfc are  168 randomized atomic wfcs
     Checking if some PAW data can be deallocated... 

     total cpu time spent up to now is       20.2 secs

     per-process dynamical memory:   308.7 Mb

     Self-consistent Calculation

     iteration #  1     ecut=   100.00 Ry     beta=0.50
     Davidson diagonalization with overlap
     ethr =  1.00E-02,  avg # of iterations =  3.0

     total cpu time spent up to now is       63.2 secs

     total energy              =    -940.71017129 Ry
     Harris-Foulkes estimate   =    -943.94977512 Ry
     estimated scf accuracy    <       6.15382725 Ry

     iteration #  2     ecut=   100.00 Ry     beta=0.50
     Davidson diagonalization with overlap
     ethr =  3.21E-03,  avg # of iterations =  2.6

     total cpu time spent up to now is       90.2 secs

     total energy              =    -941.55687821 Ry
     Harris-Foulkes estimate   =    -941.79804704 Ry
     estimated scf accuracy    <       0.58313821 Ry

     iteration #  3     ecut=   100.00 Ry     beta=0.50
     Davidson diagonalization with overlap
     ethr =  3.04E-04,  avg # of iterations =  6.6

     total cpu time spent up to now is      140.6 secs

     total energy              =    -941.82403677 Ry
     Harris-Foulkes estimate   =    -941.92793584 Ry
     estimated scf accuracy    <       0.24966247 Ry

     iteration #  4     ecut=   100.00 Ry     beta=0.50
     Davidson diagonalization with overlap
     ethr =  1.30E-04,  avg # of iterations =  3.4

     total cpu time spent up to now is      165.4 secs

     total energy              =    -941.84053396 Ry
     Harris-Foulkes estimate   =    -941.85741762 Ry
     estimated scf accuracy    <       0.04482999 Ry

     iteration #  5     ecut=   100.00 Ry     beta=0.50
     Davidson diagonalization with overlap
     ethr =  2.33E-05,  avg # of iterations =  6.9

     total cpu time spent up to now is      214.7 secs

     total energy              =    -941.86147620 Ry
     Harris-Foulkes estimate   =    -941.87617890 Ry
     estimated scf accuracy    <       0.03752650 Ry

     iteration #  6     ecut=   100.00 Ry     beta=0.50
     Davidson diagonalization with overlap
     ethr =  1.95E-05,  avg # of iterations =  1.0

     total cpu time spent up to now is      237.4 secs

     total energy              =    -941.85894687 Ry
     Harris-Foulkes estimate   =    -941.86380054 Ry
     estimated scf accuracy    <       0.00983920 Ry

     iteration #  7     ecut=   100.00 Ry     beta=0.50
     Davidson diagonalization with overlap
     ethr =  5.12E-06,  avg # of iterations =  6.1

     total cpu time spent up to now is      281.6 secs

     total energy              =    -941.86472086 Ry
     Harris-Foulkes estimate   =    -941.86565488 Ry
     estimated scf accuracy    <       0.00273521 Ry

     iteration #  8     ecut=   100.00 Ry     beta=0.50
     Davidson diagonalization with overlap
     ethr =  1.42E-06,  avg # of iterations =  1.0

     total cpu time spent up to now is      304.1 secs

     total energy              =    -941.86443078 Ry
     Harris-Foulkes estimate   =    -941.86486145 Ry
     estimated scf accuracy    <       0.00092786 Ry

     iteration #  9     ecut=   100.00 Ry     beta=0.50
     Davidson diagonalization with overlap
     ethr =  4.83E-07,  avg # of iterations =  4.0

     total cpu time spent up to now is      340.2 secs

     total energy              =    -941.86486727 Ry
     Harris-Foulkes estimate   =    -941.86492243 Ry
     estimated scf accuracy    <       0.00014777 Ry

     iteration # 10     ecut=   100.00 Ry     beta=0.50
     Davidson diagonalization with overlap
     ethr =  7.70E-08,  avg # of iterations =  1.2

     total cpu time spent up to now is      362.9 secs

     total energy              =    -941.86485521 Ry
     Harris-Foulkes estimate   =    -941.86487698 Ry
     estimated scf accuracy    <       0.00003985 Ry

     iteration # 11     ecut=   100.00 Ry     beta=0.50
     Davidson diagonalization with overlap
     ethr =  2.08E-08,  avg # of iterations =  4.0

     total cpu time spent up to now is      402.9 secs

     total energy              =    -941.86487960 Ry
     Harris-Foulkes estimate   =    -941.86488916 Ry
     estimated scf accuracy    <       0.00002260 Ry

     iteration # 12     ecut=   100.00 Ry     beta=0.50
     Davidson diagonalization with overlap
     ethr =  1.18E-08,  avg # of iterations =  1.1

     total cpu time spent up to now is      425.5 secs

     total energy              =    -941.86487905 Ry
     Harris-Foulkes estimate   =    -941.86488118 Ry
     estimated scf accuracy    <       0.00000439 Ry

     iteration # 13     ecut=   100.00 Ry     beta=0.50
     Davidson diagonalization with overlap
     ethr =  2.29E-09,  avg # of iterations =  4.0

     total cpu time spent up to now is      466.2 secs

     total energy              =    -941.86488252 Ry
     Harris-Foulkes estimate   =    -941.86488315 Ry
     estimated scf accuracy    <       0.00000196 Ry

     iteration # 14     ecut=   100.00 Ry     beta=0.50
     Davidson diagonalization with overlap
     ethr =  1.02E-09,  avg # of iterations =  1.0

     total cpu time spent up to now is      488.8 secs

     total energy              =    -941.86488231 Ry
     Harris-Foulkes estimate   =    -941.86488259 Ry
     estimated scf accuracy    <       0.00000070 Ry

     iteration # 15     ecut=   100.00 Ry     beta=0.50
     Davidson diagonalization with overlap
     ethr =  3.63E-10,  avg # of iterations =  3.1

     total cpu time spent up to now is      522.6 secs

     total energy              =    -941.86488259 Ry
     Harris-Foulkes estimate   =    -941.86488258 Ry
     estimated scf accuracy    <       0.00000002 Ry

     iteration # 16     ecut=   100.00 Ry     beta=0.50
     Davidson diagonalization with overlap
     ethr =  1.13E-11,  avg # of iterations =  3.1

     total cpu time spent up to now is      550.8 secs

     total energy              =    -941.86488258 Ry
     Harris-Foulkes estimate   =    -941.86488259 Ry
     estimated scf accuracy    <       0.00000002 Ry

     iteration # 17     ecut=   100.00 Ry     beta=0.50
     Davidson diagonalization with overlap
     ethr =  1.13E-11,  avg # of iterations =  2.7

     total cpu time spent up to now is      575.1 secs

     End of self-consistent calculation

          k = 0.0000 0.0000 0.0000 ( 60963 PWs)   bands (ev):

   -19.3659 -19.3205 -19.1734 -19.1425 -18.0999 -18.0735 -18.0139 -17.9664
   -16.8938 -16.8361 -16.7022 -16.6513 -15.3378 -15.3259 -15.2980 -15.2894
   -13.2306 -13.1699 -13.1379 -13.1191 -11.7099 -11.6551 -11.6541 -11.6469
    -9.4084  -9.1278  -9.1003  -9.0617  -9.0315  -8.9687  -8.9627  -8.7977
    -6.9836  -6.8806  -6.7448  -6.5329  -6.5171  -6.4065  -6.3798  -6.2721
    -6.2411  -5.9689  -5.9326  -5.6869  -5.4424  -5.3995  -5.3609  -5.3297
    -4.9808  -4.9238  -4.8722  -4.8417  -4.3329  -4.2704  -4.1252  -3.9916
    -3.8597  -3.7839  -3.7067  -3.6799  -3.1875  -3.1580  -3.1352  -3.1164
    -3.0086  -2.8230  -2.7586  -2.4669  -1.9905  -1.9611  -1.8464  -1.6494
    -1.3193  -1.2487  -1.2046  -1.2046  -0.0134   0.0257   0.1629   0.1770
     0.2115   0.4823   0.5214   0.5329   0.7938   0.8498   0.8840   0.9149
     0.9605   1.0294   1.0755   1.0917   1.1196   1.3955   1.6544   1.7078
     5.1480   5.2913   5.7073   5.9643   5.9754   6.1249   6.1717   6.3731
     6.8752   7.2373   8.3899   8.6888   8.7559   8.7604   8.8711   9.1027
     9.2918   9.5201   9.5892

          k = 0.0000 0.0000 0.4391 ( 61005 PWs)   bands (ev):

   -19.3258 -19.3204 -19.1722 -19.1566 -18.0931 -18.0701 -18.0112 -17.9852
   -16.9277 -16.8722 -16.7124 -16.7008 -15.3469 -15.3150 -15.2360 -15.2162
   -13.2209 -13.1484 -13.1300 -13.1200 -11.7634 -11.7107 -11.6724 -11.6597
    -9.3122  -9.2305  -9.1078  -9.0165  -8.9764  -8.9417  -8.8899  -8.8049
    -7.0552  -6.9229  -6.6764  -6.6446  -6.4654  -6.4597  -6.3441  -6.3143
    -6.2063  -6.0961  -5.8220  -5.7699  -5.6586  -5.4991  -5.4151  -5.2958
    -4.9137  -4.9069  -4.8188  -4.7823  -4.1473  -4.0617  -4.0145  -3.8947
    -3.8184  -3.7446  -3.7234  -3.6063  -3.3206  -3.2862  -3.0937  -3.0784
    -2.9888  -2.8348  -2.6429  -2.4838  -2.1544  -2.0240  -1.9084  -1.7847
    -1.3876  -1.2640  -1.2461  -1.1680  -0.0849   0.0491   0.1642   0.2284
     0.2740   0.4396   0.4673   0.6070   0.7447   0.7640   0.8493   0.9339
     0.9654   1.0723   1.0755   1.1082   1.2965   1.4296   1.7760   1.8104
     4.9734   5.0790   5.5596   5.6987   5.8525   6.2388   6.3297   6.3734
     7.3921   7.5450   8.3556   8.5094   8.6407   8.6511   8.9049   9.0148
     9.1468   9.3316   9.4984

          k = 0.0000-0.3563 0.0000 ( 60940 PWs)   bands (ev):

   -19.3440 -19.3439 -19.1583 -19.1582 -18.0599 -18.0598 -18.0182 -18.0182
   -16.8633 -16.8631 -16.6759 -16.6758 -15.3317 -15.3315 -15.2943 -15.2938
   -13.2021 -13.2015 -13.1319 -13.1315 -11.6807 -11.6798 -11.6462 -11.6455
    -9.2768  -9.2767  -9.1345  -9.1344  -8.9887  -8.9887  -8.8295  -8.8295
    -6.9531  -6.9529  -6.5884  -6.5884  -6.5144  -6.5142  -6.2459  -6.2456
    -6.1657  -6.1656  -5.9084  -5.9077  -5.4258  -5.4252  -5.3002  -5.2996
    -4.8868  -4.8866  -4.8637  -4.8635  -4.3099  -4.3097  -4.0147  -4.0146
    -3.7827  -3.7821  -3.6704  -3.6702  -3.3104  -3.3098  -3.0509  -3.0503
    -2.9844  -2.9839  -2.5962  -2.5959  -1.9652  -1.9652  -1.7742  -1.7740
    -1.3321  -1.3320  -1.1279  -1.1277   0.0727   0.0731   0.1456   0.1459
     0.3090   0.3091   0.5657   0.5661   0.7708   0.7714   0.9002   0.9002
     0.9769   0.9774   1.0696   1.0698   1.2713   1.2714   1.6968   1.6969
     5.2104   5.2105   5.8557   5.8557   6.0363   6.0365   6.2542   6.2546
     7.0554   7.0566   8.5445   8.5452   8.9684   8.9686   9.0171   9.0178
     9.2504   9.2509   9.5429

          k = 0.0000-0.3563 0.4391 ( 60980 PWs)   bands (ev):

   -19.3222 -19.3220 -19.1660 -19.1660 -18.0531 -18.0531 -18.0283 -18.0283
   -16.8955 -16.8954 -16.7083 -16.7082 -15.3330 -15.3329 -15.2245 -15.2242
   -13.1910 -13.1907 -13.1246 -13.1244 -11.7232 -11.7224 -11.6719 -11.6711
    -9.2680  -9.2679  -9.0814  -9.0812  -8.9402  -8.9400  -8.8612  -8.8609
    -6.9823  -6.9819  -6.6023  -6.6023  -6.4513  -6.4510  -6.3340  -6.3334
    -6.1535  -6.1533  -5.9494  -5.9486  -5.6105  -5.6097  -5.3016  -5.3013
    -4.8717  -4.8716  -4.7896  -4.7896  -4.0992  -4.0988  -3.8798  -3.8795
    -3.7636  -3.7630  -3.6624  -3.6623  -3.3039  -3.3032  -3.1254  -3.1248
    -2.9753  -2.9748  -2.5556  -2.5550  -2.0998  -2.0993  -1.8476  -1.8474
    -1.3443  -1.3443  -1.1776  -1.1774   0.0590   0.0591   0.1816   0.1819
     0.3511   0.3513   0.4737   0.4739   0.7737   0.7738   0.9327   0.9330
     0.9848   0.9849   1.0826   1.0829   1.3333   1.3335   1.8123   1.8123
     5.0195   5.0197   5.6349   5.6351   6.0037   6.0039   6.3768   6.3770
     7.4999   7.5014   8.4351   8.4361   8.7225   8.7228   9.0012   9.0015
     9.1953   9.1958   9.3897

          k = 0.3333 0.0000 0.0268 ( 60991 PWs)   bands (ev):

   -19.3528 -19.3295 -19.1690 -19.1530 -18.0927 -18.0795 -18.0013 -17.9776
   -16.8819 -16.8538 -16.6861 -16.6615 -15.3650 -15.3622 -15.2624 -15.2612
   -13.2191 -13.1902 -13.1288 -13.1208 -11.7063 -11.6846 -11.6392 -11.6369
    -9.3476  -9.2008  -9.1271  -9.0946  -9.0213  -8.9740  -8.8704  -8.8101
    -6.9971  -6.9604  -6.6898  -6.5668  -6.4377  -6.4226  -6.3333  -6.2859
    -6.2266  -6.0806  -5.8316  -5.7344  -5.4394  -5.3946  -5.3408  -5.3160
    -5.0228  -4.9662  -4.8157  -4.8115  -4.3051  -4.2252  -4.1597  -4.0227
    -3.8523  -3.8385  -3.6802  -3.6297  -3.3069  -3.3036  -3.0963  -3.0829
    -2.9357  -2.8658  -2.6385  -2.5133  -2.0589  -1.8836  -1.8056  -1.7858
    -1.3453  -1.3061  -1.1578  -1.0872  -0.0375  -0.0195   0.1456   0.1826
     0.3285   0.4368   0.5231   0.5661   0.7762   0.8174   0.8518   0.8609
     0.9541   1.0119   1.0697   1.1133   1.3186   1.5013   1.5684   1.6502
     5.3131   5.3774   5.5833   5.6964   6.0042   6.1158   6.2162   6.3485
     7.1544   7.4543   8.0094   8.1310   8.9200   8.9593   9.0239   9.1938
     9.1996   9.4520   9.4614

          k = 0.3333 0.0000 0.4659 ( 61014 PWs)   bands (ev):

   -19.3363 -19.3123 -19.1711 -19.1533 -18.0900 -18.0767 -18.0096 -17.9872
   -16.9134 -16.8892 -16.7191 -16.6917 -15.2997 -15.2945 -15.2620 -15.2572
   -13.1984 -13.1720 -13.1322 -13.1161 -11.7489 -11.7252 -11.6698 -11.6622
    -9.3448  -9.1907  -9.0517  -9.0473  -9.0030  -8.9665  -8.8511  -8.8247
    -6.9813  -6.9538  -6.7369  -6.6093  -6.4936  -6.4884  -6.3343  -6.3094
    -6.2060  -6.0831  -5.8400  -5.7450  -5.6263  -5.4900  -5.4168  -5.3001
    -4.9067  -4.8887  -4.8417  -4.7945  -4.1833  -4.0839  -3.9155  -3.8991
    -3.8610  -3.7469  -3.6839  -3.6779  -3.2707  -3.2553  -3.1147  -3.0886
    -2.9375  -2.8786  -2.6394  -2.5084  -2.2242  -1.9679  -1.9496  -1.8641
    -1.3620  -1.2912  -1.2517  -1.1018  -0.0166   0.0144   0.1479   0.2071
     0.3626   0.4073   0.4185   0.5648   0.7545   0.7665   0.8560   0.8673
     1.0068   1.0760   1.0829   1.1642   1.3587   1.5654   1.6647   1.7700
     5.0485   5.2290   5.3957   5.5851   6.0559   6.0690   6.3450   6.3744
     7.5655   7.8698   8.1053   8.1605   8.4445   8.6781   8.9544   9.0521
     9.3268   9.3912   9.5153

          k = 0.3333 0.0000-0.4124 ( 61005 PWs)   bands (ev):

   -19.3308 -19.3110 -19.1838 -19.1493 -18.0867 -18.0771 -18.0000 -17.9963
   -16.9375 -16.8550 -16.7312 -16.6895 -15.3485 -15.3145 -15.2341 -15.2160
   -13.2097 -13.1652 -13.1368 -13.1093 -11.7724 -11.6905 -11.6785 -11.6636
    -9.3729  -9.1313  -9.0601  -9.0200  -8.9996  -8.9632  -8.9309  -8.8050
    -7.0549  -6.8780  -6.7463  -6.5693  -6.4963  -6.4577  -6.3925  -6.3064
    -6.2674  -6.0032  -5.8943  -5.7247  -5.5422  -5.5161  -5.3736  -5.3640
    -4.9213  -4.8922  -4.8280  -4.8123  -4.1593  -4.1195  -3.9377  -3.8957
    -3.7992  -3.7989  -3.7193  -3.6481  -3.2084  -3.1786  -3.1564  -3.1338
    -3.0413  -2.7959  -2.7384  -2.4407  -2.0590  -2.0543  -1.9924  -1.8873
    -1.4176  -1.2189  -1.1784  -1.1697  -0.0753   0.1606   0.1741   0.1811
     0.1897   0.3364   0.5121   0.6203   0.7492   0.7701   0.8455   0.8716
     1.0317   1.0336   1.0995   1.1274   1.4468   1.5689   1.6257   1.7563
     5.1468   5.2155   5.3909   5.4751   5.8989   6.2769   6.3544   6.3935
     7.4724   7.5680   8.3036   8.3155   8.5882   8.6933   9.0314   9.1704
     9.2868   9.3535   9.4483

          k = 0.3333-0.3563 0.0268 ( 61010 PWs)   bands (ev):

   -19.3401 -19.3400 -19.1632 -19.1631 -18.0518 -18.0517 -18.0248 -18.0248
   -16.8636 -16.8634 -16.6755 -16.6755 -15.3634 -15.3632 -15.2625 -15.2621
   -13.2012 -13.2007 -13.1334 -13.1330 -11.6886 -11.6877 -11.6390 -11.6382
    -9.2873  -9.2871  -9.0906  -9.0904  -8.9962  -8.9961  -8.8539  -8.8536
    -6.9759  -6.9755  -6.6035  -6.6035  -6.4358  -6.4357  -6.2937  -6.2934
    -6.1409  -6.1405  -5.9293  -5.9286  -5.4182  -5.4175  -5.2931  -5.2925
    -4.9018  -4.9015  -4.8469  -4.8468  -4.2699  -4.2698  -4.0939  -4.0937
    -3.7697  -3.7692  -3.6462  -3.6459  -3.2778  -3.2773  -3.1423  -3.1421
    -2.9514  -2.9508  -2.5997  -2.5992  -1.9667  -1.9662  -1.7850  -1.7846
    -1.3749  -1.3743  -1.0750  -1.0745   0.0503   0.0504   0.1687   0.1690
     0.3565   0.3568   0.5116   0.5119   0.7823   0.7828   0.8515   0.8516
     0.9895   0.9898   1.0571   1.0573   1.4144   1.4146   1.6259   1.6261
     5.3408   5.3410   5.6543   5.6544   6.0881   6.0883   6.2121   6.2126
     7.3263   7.3277   8.1126   8.1138   8.9981   8.9989   9.1787   9.1790
     9.2495   9.2498   9.5260

          k = 0.3333-0.3563 0.4659 ( 61018 PWs)   bands (ev):

   -19.3241 -19.3240 -19.1629 -19.1629 -18.0577 -18.0576 -18.0259 -18.0258
   -16.8952 -16.8951 -16.7088 -16.7086 -15.2972 -15.2972 -15.2599 -15.2596
   -13.1812 -13.1807 -13.1341 -13.1337 -11.7158 -11.7148 -11.6793 -11.6784
    -9.2720  -9.2719  -9.0736  -9.0734  -8.9400  -8.9399  -8.8651  -8.8650
    -6.9593  -6.9589  -6.5929  -6.5928  -6.4986  -6.4984  -6.3200  -6.3195
    -6.1807  -6.1805  -5.9271  -5.9262  -5.5772  -5.5764  -5.3243  -5.3240
    -4.8735  -4.8734  -4.7763  -4.7762  -4.1498  -4.1495  -3.8451  -3.8448
    -3.7285  -3.7278  -3.6662  -3.6658  -3.2835  -3.2828  -3.1699  -3.1694
    -2.9762  -2.9757  -2.5565  -2.5557  -2.1161  -2.1155  -1.8996  -1.8992
    -1.3189  -1.3184  -1.1720  -1.1715   0.1274   0.1277   0.1462   0.1465
     0.3107   0.3111   0.4640   0.4643   0.7816   0.7817   0.9156   0.9159
     1.0247   1.0248   1.0594   1.0595   1.4468   1.4473   1.7432   1.7436
     5.1286   5.1287   5.4917   5.4919   6.0877   6.0878   6.3260   6.3263
     7.7574   7.7592   8.1432   8.1445   8.5688   8.5691   9.0777   9.0778
     9.2347   9.2350   9.6449

          k = 0.3333-0.3563-0.4124 ( 60984 PWs)   bands (ev):

   -19.3210 -19.3209 -19.1671 -19.1671 -18.0514 -18.0513 -18.0303 -18.0303
   -16.8953 -16.8952 -16.7087 -16.7085 -15.3331 -15.3330 -15.2239 -15.2237
   -13.1888 -13.1884 -13.1276 -13.1273 -11.7230 -11.7224 -11.6713 -11.6708
    -9.2465  -9.2464  -9.1197  -9.1195  -8.9458  -8.9456  -8.8356  -8.8354
    -6.9800  -6.9796  -6.6123  -6.6122  -6.4979  -6.4976  -6.2912  -6.2907
    -6.1526  -6.1524  -5.9505  -5.9496  -5.5353  -5.5344  -5.3431  -5.3426
    -4.8610  -4.8609  -4.8028  -4.8027  -4.1540  -4.1535  -3.8408  -3.8406
    -3.7515  -3.7511  -3.6819  -3.6817  -3.3462  -3.3456  -3.0543  -3.0540
    -2.9840  -2.9835  -2.5818  -2.5812  -2.0290  -2.0286  -1.9613  -1.9606
    -1.3487  -1.3483  -1.1525  -1.1522   0.0522   0.0524   0.1629   0.1631
     0.3529   0.3532   0.5094   0.5096   0.7460   0.7461   0.9239   0.9243
     1.0103   1.0106   1.0552   1.0553   1.4825   1.4831   1.7206   1.7211
     5.1767   5.1770   5.4366   5.4368   6.0413   6.0414   6.4043   6.4047
     7.5398   7.5412   8.3825   8.3840   8.7674   8.7677   9.0586   9.0590
     9.1957   9.1961   9.3572

     highest occupied, lowest unoccupied level (ev):     1.8123    4.9734

!    total energy              =    -941.86488258 Ry
     Harris-Foulkes estimate   =    -941.86488258 Ry
     estimated scf accuracy    <          2.9E-09 Ry

     total all-electron energy =     -3602.258789 Ry

     The total energy is the sum of the following terms:

     one-electron contribution =    -429.83631337 Ry
     hartree contribution      =     293.24383167 Ry
     xc contribution           =    -200.48485964 Ry
     ewald contribution        =    -327.61450714 Ry
     Dispersion Correction     =      -0.29315290 Ry
     one-center paw contrib.   =    -276.87988120 Ry

     convergence has been achieved in  17 iterations

     Forces acting on atoms (cartesian axes, Ry/au):

     atom    1 type  2   force =    -0.00063510   -0.00258551   -0.00035554
     atom    2 type  2   force =     0.00076267   -0.00254612    0.00026892
     atom    3 type  2   force =     0.00063510    0.00258551    0.00035554
     atom    4 type  2   force =    -0.00076267    0.00254612   -0.00026892
     atom    5 type  1   force =    -0.00096550    0.00102366    0.00537429
     atom    6 type  1   force =     0.00100370    0.00106142   -0.00553345
     atom    7 type  1   force =     0.00096550   -0.00102366   -0.00537429
     atom    8 type  1   force =    -0.00100370   -0.00106142    0.00553345
     atom    9 type  2   force =     0.00157933   -0.00511722   -0.00320606
     atom   10 type  2   force =    -0.00176796   -0.00532804    0.00336083
     atom   11 type  2   force =    -0.00157933    0.00511722    0.00320606
     atom   12 type  2   force =     0.00176796    0.00532804   -0.00336083
     atom   13 type  1   force =     0.00252268    0.00375672   -0.00242224
     atom   14 type  1   force =    -0.00249507    0.00379101    0.00248862
     atom   15 type  1   force =    -0.00252268   -0.00375672    0.00242224
     atom   16 type  1   force =     0.00249507   -0.00379101   -0.00248862
     atom   17 type  2   force =    -0.00775664    0.00097578    0.00401323
     atom   18 type  2   force =     0.00785324    0.00095245   -0.00423665
     atom   19 type  2   force =     0.00775664   -0.00097578   -0.00401323
     atom   20 type  2   force =    -0.00785324   -0.00095245    0.00423665
     atom   21 type  1   force =    -0.00204300   -0.00151418    0.00390993
     atom   22 type  1   force =     0.00217299   -0.00121245   -0.00398061
     atom   23 type  1   force =     0.00204300    0.00151418   -0.00390993
     atom   24 type  1   force =    -0.00217299    0.00121245    0.00398061
     atom   25 type  1   force =    -0.00082167   -0.00035863   -0.00509539
     atom   26 type  1   force =     0.00081507   -0.00047656    0.00526607
     atom   27 type  1   force =     0.00082167    0.00035863    0.00509539
     atom   28 type  1   force =    -0.00081507    0.00047656   -0.00526607
     atom   29 type  2   force =    -0.00092392    0.00772314   -0.00503923
     atom   30 type  2   force =     0.00104259    0.00789632    0.00520883
     atom   31 type  2   force =     0.00092392   -0.00772314    0.00503923
     atom   32 type  2   force =    -0.00104259   -0.00789632   -0.00520883
     atom   33 type  4   force =    -0.00124325    0.00015272   -0.00033704
     atom   34 type  4   force =     0.00124536    0.00019810    0.00030984
     atom   35 type  4   force =     0.00124325   -0.00015272    0.00033704
     atom   36 type  4   force =    -0.00124536   -0.00019810   -0.00030984
     atom   37 type  3   force =     0.00024811   -0.00031383    0.00025059
     atom   38 type  3   force =    -0.00038500   -0.00030727   -0.00023885
     atom   39 type  3   force =    -0.00024811    0.00031383   -0.00025059
     atom   40 type  3   force =     0.00038500    0.00030727    0.00023885
     atom   41 type  3   force =     0.00070915    0.00065265    0.00102248
     atom   42 type  3   force =    -0.00070157    0.00063598   -0.00095648
     atom   43 type  3   force =    -0.00070915   -0.00065265   -0.00102248
     atom   44 type  3   force =     0.00070157   -0.00063598    0.00095648
     atom   45 type  3   force =    -0.00012982    0.00082464   -0.00067654
     atom   46 type  3   force =     0.00003503    0.00065703    0.00070683
     atom   47 type  3   force =     0.00012982   -0.00082464    0.00067654
     atom   48 type  3   force =    -0.00003503   -0.00065703   -0.00070683
     atom   49 type  3   force =     0.00064173   -0.00011085    0.00001280
     atom   50 type  3   force =    -0.00070809   -0.00009630   -0.00007925
     atom   51 type  3   force =    -0.00064173    0.00011085   -0.00001280
     atom   52 type  3   force =     0.00070809    0.00009630    0.00007925
     atom   53 type  3   force =     0.00689505   -0.00133390    0.00436462
     atom   54 type  3   force =    -0.00702883   -0.00143110   -0.00441078
     atom   55 type  3   force =    -0.00689505    0.00133390   -0.00436462
     atom   56 type  3   force =     0.00702883    0.00143110    0.00441078
     atom   57 type  3   force =     0.00218524   -0.00168650   -0.00168674
     atom   58 type  3   force =    -0.00220528   -0.00165645    0.00166555
     atom   59 type  3   force =    -0.00218524    0.00168650    0.00168674
     atom   60 type  3   force =     0.00220528    0.00165645   -0.00166555

     Total force =     0.040425     Total SCF correction =     0.000108


     Computing stress (Cartesian axis) and pressure

          total   stress  (Ry/bohr**3)                   (kbar)     P=   -0.47
  -0.00001426  -0.00000009  -0.00003303         -2.10     -0.01     -4.86
  -0.00000009  -0.00000536   0.00000001         -0.01     -0.79      0.00
  -0.00003303   0.00000001   0.00001003         -4.86      0.00      1.48


     Writing output data file scf.save
 
     init_run     :     18.87s CPU     19.56s WALL (       1 calls)
     electrons    :    530.59s CPU    555.11s WALL (       1 calls)
     forces       :      9.30s CPU      9.36s WALL (       1 calls)
     stress       :     38.18s CPU     38.34s WALL (       1 calls)

     Called by init_run:
     wfcinit      :     12.05s CPU     12.66s WALL (       1 calls)
     potinit      :      2.42s CPU      2.43s WALL (       1 calls)

     Called by electrons:
     c_bands      :    463.68s CPU    485.02s WALL (      17 calls)
     sum_band     :     57.47s CPU     59.89s WALL (      17 calls)
     v_of_rho     :      1.32s CPU      1.43s WALL (      18 calls)
     newd         :      2.63s CPU      3.09s WALL (      18 calls)
     PAW_pot      :      4.98s CPU      4.98s WALL (      18 calls)
     mix_rho      :      0.34s CPU      0.36s WALL (      17 calls)

     Called by c_bands:
     init_us_2    :      4.93s CPU      4.95s WALL (     370 calls)
     cegterg      :    446.61s CPU    467.91s WALL (     170 calls)

     Called by sum_band:
     sum_band:bec :      0.05s CPU      0.05s WALL (     170 calls)
     addusdens    :      2.92s CPU      3.37s WALL (      17 calls)

     Called by *egterg:
     h_psi        :    290.23s CPU    305.37s WALL (     728 calls)
     s_psi        :     38.21s CPU     38.22s WALL (     728 calls)
     g_psi        :      2.26s CPU      2.26s WALL (     548 calls)
     cdiaghg      :     27.76s CPU     27.84s WALL (     718 calls)

     Called by h_psi:
     h_psi:pot    :    287.35s CPU    302.46s WALL (     728 calls)
     h_psi:calbec :     34.97s CPU     35.13s WALL (     728 calls)
     vloc_psi     :    214.23s CPU    229.15s WALL (     728 calls)
     add_vuspsi   :     38.15s CPU     38.17s WALL (     728 calls)

     General routines
     calbec       :     51.52s CPU     51.73s WALL (     948 calls)
     fft          :      1.06s CPU      1.24s WALL (     258 calls)
     fftw         :    231.82s CPU    247.71s WALL (  131404 calls)
 
     Parallel routines
     fft_scatter  :     51.25s CPU     61.64s WALL (  131662 calls)
 
     PWSCF        : 10m 2.47s CPU    10m30.53s WALL

 
   This run was terminated on:  16:11: 7  12Dec2017            

=------------------------------------------------------------------------------=
   JOB DONE.
=------------------------------------------------------------------------------=
