
     Program PWSCF v.6.1 (svn rev. 13369) starts on 21Dec2017 at  1:19: 1 

     This program is part of the open-source Quantum ESPRESSO suite
     for quantum simulation of materials; please cite
         "P. Giannozzi et al., J. Phys.:Condens. Matter 21 395502 (2009);
          URL http://www.quantum-espresso.org", 
     in publications or presentations arising from this work. More details at
     http://www.quantum-espresso.org/quote

     Parallel version (MPI), running on     8 processors
     R & G space division:  proc/nbgrp/npool/nimage =       8
     Waiting for input...
     Reading input from standard input

     Current dimensions of program PWSCF are:
     Max number of different atomic species (ntypx) = 10
     Max number of k-points (npk) =  40000
     Max angular momentum in pseudopotentials (lmaxx) =  3
               file C.pbe-n-kjpaw_psl.0.1.UPF: wavefunction(s)  2P renormalized
               file N.pbe-n-kjpaw_psl.0.1.UPF: wavefunction(s)  2P renormalized
               file H.pbe-kjpaw_psl.0.1.UPF: wavefunction(s)  1S renormalized
               file O.pbe-n-kjpaw_psl.0.1.UPF: wavefunction(s)  2P renormalized

     -------------------------------------
     Parameters for Dispersion Correction:
     -------------------------------------
       atom      VdW radius       C_6     

        C          2.744         60.710
        N          2.640         42.670
        H          1.892          4.857
        O          2.536         24.284

     Subspace diagonalization in iterative solution of the eigenvalue problem:
     a serial algorithm will be used

 
     Parallelization info
     --------------------
     sticks:   dense  smooth     PW     G-vecs:    dense   smooth      PW
     Min        1110    1110    291               132547   132547   17757
     Max        1111    1111    292               132549   132549   17760
     Sum        8883    8883   2331              1060387  1060387  142065
 


     bravais-lattice index     =            0
     lattice parameter (alat)  =      14.1446  a.u.
     unit-cell volume          =    7849.1977 (a.u.)^3
     number of atoms/cell      =          128
     number of atomic types    =            4
     number of electrons       =       416.00
     number of Kohn-Sham states=          249
     kinetic-energy cutoff     =     100.0000  Ry
     charge density cutoff     =     400.0000  Ry
     convergence threshold     =      1.0E-08
     mixing beta               =       0.5000
     number of iterations used =            8  plain     mixing
     Exchange-correlation      =  SLA  PW   PBX  PBC ( 1  4  3  4 0 0)

     celldm(1)=  14.144600  celldm(2)=   0.000000  celldm(3)=   0.000000
     celldm(4)=   0.000000  celldm(5)=   0.000000  celldm(6)=   0.000000

     crystal axes: (cart. coord. in units of alat)
               a(1) = (   1.000000   0.000000   0.000000 )  
               a(2) = (   0.000000   1.395992   0.000000 )  
               a(3) = (  -0.339266   0.000000   1.986874 )  

     reciprocal axes: (cart. coord. in units 2 pi/alat)
               b(1) = (  1.000000  0.000000  0.170754 )  
               b(2) = (  0.000000  0.716336  0.000000 )  
               b(3) = (  0.000000  0.000000  0.503303 )  


     PseudoPot. # 1 for  C read from file:
     /scratch/ahofstet/pseudo/C.pbe-n-kjpaw_psl.0.1.UPF
     MD5 check sum: 430fe95172b1e11ef3f8ed03bac87931
     Pseudo is Projector augmented-wave + core cor, Zval =  4.0
     Generated using "atomic" code by A. Dal Corso  v.5.0.99 svn rev. 10869
     Shape of augmentation charge: BESSEL
     Using radial grid of 1073 points,  4 beta functions with: 
                l(1) =   0
                l(2) =   0
                l(3) =   1
                l(4) =   1
     Q(r) pseudized with 0 coefficients 


     PseudoPot. # 2 for  N read from file:
     /scratch/ahofstet/pseudo/N.pbe-n-kjpaw_psl.0.1.UPF
     MD5 check sum: f73187c8b701007e77325f868c9291d7
     Pseudo is Projector augmented-wave + core cor, Zval =  5.0
     Generated using "atomic" code by A. Dal Corso  v.5.0.99 svn rev. 10869
     Shape of augmentation charge: PSQ
     Using radial grid of 1085 points,  4 beta functions with: 
                l(1) =   0
                l(2) =   0
                l(3) =   1
                l(4) =   1
     Q(r) pseudized with 0 coefficients 


     PseudoPot. # 3 for  H read from file:
     /scratch/ahofstet/pseudo/H.pbe-kjpaw_psl.0.1.UPF
     MD5 check sum: 94e484f906d9e9773b2f6e52662335b2
     Pseudo is Projector augmented-wave, Zval =  1.0
     Generated using "atomic" code by A. Dal Corso  v.5.0.99 svn rev. 10869
     Shape of augmentation charge: PSQ
     Using radial grid of  929 points,  2 beta functions with: 
                l(1) =   0
                l(2) =   0
     Q(r) pseudized with 0 coefficients 


     PseudoPot. # 4 for  O read from file:
     /scratch/ahofstet/pseudo/O.pbe-n-kjpaw_psl.0.1.UPF
     MD5 check sum: 3f94a2996a3169367d6eb21d9b593f20
     Pseudo is Projector augmented-wave + core cor, Zval =  6.0
     Generated using "atomic" code by A. Dal Corso  v.5.0.99 svn rev. 10869
     Shape of augmentation charge: BESSEL
     Using radial grid of 1095 points,  4 beta functions with: 
                l(1) =   0
                l(2) =   0
                l(3) =   1
                l(4) =   1
     Q(r) pseudized with 0 coefficients 


     atomic species   valence    mass     pseudopotential
        C              4.00    12.01070      C( 1.00)
        N              5.00    14.00670      N( 1.00)
        H              1.00     1.00794      H( 1.00)
        O              6.00    15.99940      O( 1.00)

      2 Sym. Ops., with inversion, found
          (note:  2 additional sym.ops. were found but ignored
           their fractional translations are incommensurate with FFT grid)


   Cartesian axes

     site n.     atom                  positions (alat units)
         1           N   tau(   1) = (   0.2812739   0.2404525   1.9099571  )
         2           N   tau(   2) = (   0.2098276   0.9384485   1.0703539  )
         3           N   tau(   3) = (   0.3794604   1.1555394   0.0769169  )
         4           N   tau(   4) = (   0.4509067   0.4575435   0.9165201  )
         5           C   tau(   5) = (   0.2951303   0.1880175   1.7390988  )
         6           C   tau(   6) = (   0.1959711   0.8860135   1.2412122  )
         7           C   tau(   7) = (   0.3656040   1.2079745   0.2477752  )
         8           C   tau(   8) = (   0.4647632   0.5099785   0.7456618  )
         9           C   tau(   9) = (   0.3753792   0.0305215   1.6881689  )
        10           C   tau(  10) = (   0.1157223   0.7285175   1.2921420  )
        11           C   tau(  11) = (   0.2853551   1.3654705   0.2987050  )
        12           C   tau(  12) = (   0.5450120   0.6674745   0.6947319  )
        13           C   tau(  13) = (   0.4498577   1.3102047   1.8221114  )
        14           C   tau(  14) = (   0.0412438   0.6122087   1.1581996  )
        15           C   tau(  15) = (   0.2108766   0.0857873   0.1647626  )
        16           C   tau(  16) = (   0.6194905   0.7837833   0.8286744  )
        17           C   tau(  17) = (   0.7728619   1.3656635   0.0199045  )
        18           C   tau(  18) = (   0.0575053   0.6676675   0.9735325  )
        19           C   tau(  19) = (  -0.1121276   0.0303285   1.9669695  )
        20           C   tau(  20) = (   0.6032290   0.7283245   1.0133415  )
        21           C   tau(  21) = (   0.8427381   1.2555856   0.1620147  )
        22           C   tau(  22) = (  -0.0123710   0.5575896   0.8314223  )
        23           C   tau(  23) = (  -0.1820038   0.1404063   1.8248593  )
        24           C   tau(  24) = (   0.6731053   0.8384023   1.1554517  )
        25           C   tau(  25) = (   0.8167375   1.3198892   0.3341173  )
        26           C   tau(  26) = (   0.0136297   0.6218932   0.6593197  )
        27           C   tau(  27) = (  -0.1560032   0.0761028   1.6527567  )
        28           C   tau(  28) = (   0.6471046   0.7740988   1.3275543  )
        29           C   tau(  29) = (   0.7351498   0.0856912   0.3704950  )
        30           C   tau(  30) = (   0.0952174   0.7836872   0.6229420  )
        31           C   tau(  31) = (  -0.0744155   1.3103007   1.6163790  )
        32           C   tau(  32) = (   0.5655169   0.6123048   1.3639320  )
        33           C   tau(  33) = (   0.6684418   0.1973118   0.2399094  )
        34           C   tau(  34) = (   0.1619253   0.8953078   0.7535276  )
        35           C   tau(  35) = (  -0.0077075   1.1986802   1.7469646  )
        36           C   tau(  36) = (   0.4988090   0.5006842   1.2333464  )
        37           C   tau(  37) = (   0.6877374   0.1362490   0.0629199  )
        38           C   tau(  38) = (   0.1426298   0.8342450   0.9305171  )
        39           C   tau(  39) = (  -0.0270031   1.2597430   1.9239540  )
        40           C   tau(  40) = (   0.5181046   0.5617470   1.0563569  )
        41           O   tau(  41) = (   0.8788444   1.2423677   0.4895894  )
        42           O   tau(  42) = (  -0.0484772   0.5443717   0.5038476  )
        43           O   tau(  43) = (  -0.2181101   0.1536243   1.4972846  )
        44           O   tau(  44) = (   0.7092116   0.8516203   1.4830264  )
        45           C   tau(  45) = (   0.7894413   1.3412532   0.6274253  )
        46           C   tau(  46) = (   0.0409258   0.6432573   0.3660117  )
        47           C   tau(  47) = (  -0.1287070   0.0547387   1.3594487  )
        48           C   tau(  48) = (   0.6198085   0.7527347   1.6208623  )
        49           O   tau(  49) = (   0.7381343   0.1159703   0.5512953  )
        50           O   tau(  50) = (   0.0922329   0.8139662   0.4421417  )
        51           O   tau(  51) = (  -0.0774000   1.2800217   1.4355787  )
        52           O   tau(  52) = (   0.5685014   0.5820257   1.5447323  )
        53           C   tau(  53) = (   0.2077228   0.4198683   1.9463083  )
        54           C   tau(  54) = (   0.2833787   1.1178643   1.0340026  )
        55           C   tau(  55) = (   0.4530116   0.9761237   0.0405657  )
        56           C   tau(  56) = (   0.3773556   0.2781277   0.9528713  )
        57           C   tau(  57) = (   0.3581062   0.5521010   1.9826302  )
        58           C   tau(  58) = (   0.1329953   1.2500970   0.9976808  )
        59           C   tau(  59) = (   0.3026281   0.8438910   0.0042438  )
        60           C   tau(  60) = (   0.5277390   0.1458950   0.9891932  )
        61           O   tau(  61) = (   0.3175135   0.0835180   1.3775945  )
        62           O   tau(  62) = (   0.1735880   0.7815140   1.6027165  )
        63           O   tau(  63) = (   0.3432208   1.3124740   0.6092795  )
        64           O   tau(  64) = (   0.4871464   0.6144780   0.3841575  )
        65           C   tau(  65) = (   0.3826518   1.3840689   1.4945881  )
        66           C   tau(  66) = (   0.1084496   0.6860729   1.4857229  )
        67           C   tau(  67) = (   0.2780825   0.0119231   0.4922859  )
        68           C   tau(  68) = (   0.5522847   0.7099191   0.5011511  )
        69           O   tau(  69) = (   0.4659658   1.2305301   1.4532957  )
        70           O   tau(  70) = (   0.0251357   0.5325341   1.5270153  )
        71           O   tau(  71) = (   0.1947685   0.1654619   0.5335783  )
        72           O   tau(  72) = (   0.6355986   0.8634578   0.4598587  )
        73           O   tau(  73) = (   0.5256673   1.1629536   1.7765854  )
        74           O   tau(  74) = (  -0.0345658   0.4649577   1.2037256  )
        75           O   tau(  75) = (   0.1350670   0.2330383   0.2102886  )
        76           O   tau(  76) = (   0.6953001   0.9310343   0.7831484  )
        77           N   tau(  77) = (   0.9310500   1.0994377   0.1342529  )
        78           N   tau(  78) = (  -0.1006828   0.4014417   0.8591841  )
        79           N   tau(  79) = (  -0.2703157   0.2965543   1.8526211  )
        80           N   tau(  80) = (   0.7614172   0.9945503   1.1276899  )
        81           H   tau(  81) = (   0.2396492   0.2780844   1.6391034  )
        82           H   tau(  82) = (   0.2514523   0.9760804   1.3412076  )
        83           H   tau(  83) = (   0.4210851   1.1179076   0.3477706  )
        84           H   tau(  84) = (   0.4092820   0.4199116   0.6456664  )
        85           H   tau(  85) = (   0.6065236   0.3238017   0.2751913  )
        86           H   tau(  86) = (   0.2238436   1.0217976   0.7182457  )
        87           H   tau(  87) = (   0.0542107   1.0721903   1.7116827  )
        88           H   tau(  88) = (   0.4368907   0.3741943   1.2686283  )
        89           H   tau(  89) = (   0.6668773   1.2700408   0.6680638  )
        90           H   tau(  90) = (   0.1634898   0.5720448   0.3253732  )
        91           H   tau(  91) = (  -0.0061430   0.1259512   1.3188102  )
        92           H   tau(  92) = (   0.4972445   0.8239472   1.6615008  )
        93           H   tau(  93) = (  -0.1171515   1.3651384   0.7375877  )
        94           H   tau(  94) = (   0.9475186   0.6671424   0.2558493  )
        95           H   tau(  95) = (   0.7778858   0.0308536   1.2492863  )
        96           H   tau(  96) = (  -0.2867843   0.7288496   1.7310247  )
        97           H   tau(  97) = (   0.1313766   0.4596380   1.8278343  )
        98           H   tau(  98) = (   0.3597249   1.1576340   1.1524766  )
        99           H   tau(  99) = (   0.5293578   0.9363539   0.1590397  )
       100           H   tau( 100) = (   0.3010094   0.2383579   0.8343973  )
       101           H   tau( 101) = (   0.4536290   0.4110632   0.0720767  )
       102           H   tau( 102) = (   0.3767382   1.1090591   0.9213603  )
       103           H   tau( 103) = (   0.2071054   0.9849288   1.9147973  )
       104           H   tau( 104) = (   0.2839961   0.2869328   1.0655137  )
       105           H   tau( 105) = (   0.6430229   0.6798925   0.0414886  )
       106           H   tau( 106) = (   0.1873443   1.3778885   0.9519484  )
       107           H   tau( 107) = (   0.0177114   0.7160995   1.9453854  )
       108           H   tau( 108) = (   0.4733900   0.0181035   1.0349256  )
       109           H   tau( 109) = (   0.4354649   0.5731304   1.8601588  )
       110           H   tau( 110) = (   0.0556366   1.2711264   1.1201522  )
       111           H   tau( 111) = (   0.2252694   0.8228616   0.1267152  )
       112           H   tau( 112) = (   0.6050977   0.1248656   0.8667218  )
       113           H   tau( 113) = (   0.7853493   0.5002199   0.1007747  )
       114           H   tau( 114) = (   0.0450179   1.1982158   0.8926623  )
       115           H   tau( 115) = (  -0.1246150   0.8957721   1.8860993  )
       116           H   tau( 116) = (   0.6157164   0.1977761   1.0942116  )
       117           H   tau( 117) = (   0.5070780   1.1753119   1.5736406  )
       118           H   tau( 118) = (  -0.0159765   0.4773159   1.4066704  )
       119           H   tau( 119) = (   0.1536563   0.2206801   0.4132334  )
       120           H   tau( 120) = (   0.6767109   0.9186760   0.5802036  )
       121           H   tau( 121) = (   0.9447856   1.0580031   0.0055911  )
       122           H   tau( 122) = (  -0.1144185   0.3600071   0.9878459  )
       123           H   tau( 123) = (  -0.2840513   0.3379889   1.9812829  )
       124           H   tau( 124) = (   0.7751528   1.0359848   0.9990281  )
       125           H   tau( 125) = (   0.9710158   1.0257724   0.2406795  )
       126           H   tau( 126) = (  -0.1406487   0.3277764   0.7527575  )
       127           H   tau( 127) = (  -0.3102815   0.3702195   1.7461945  )
       128           H   tau( 128) = (   0.8013830   1.0682155   1.2341164  )

     number of k points=     8
                       cart. coord. in units 2pi/alat
        k(    1) = (   0.0000000   0.0000000   0.0000000), wk =   0.1666667
        k(    2) = (   0.0000000   0.0000000  -0.2516516), wk =   0.1666667
        k(    3) = (   0.0000000  -0.3581682   0.0000000), wk =   0.1666667
        k(    4) = (   0.0000000  -0.3581682  -0.2516516), wk =   0.1666667
        k(    5) = (   0.3333333   0.0000000   0.0569178), wk =   0.3333333
        k(    6) = (   0.3333333   0.0000000  -0.1947338), wk =   0.3333333
        k(    7) = (   0.3333333  -0.3581682   0.0569178), wk =   0.3333333
        k(    8) = (   0.3333333  -0.3581682  -0.1947338), wk =   0.3333333

     Dense  grid:  1060387 G-vectors     FFT dimensions: (  96, 125, 192)

     Estimated max dynamical RAM per process >    1368.21MB

     Estimated total allocated dynamical RAM >   10945.64MB

     Check: negative/imaginary core charge=   -0.000002    0.000000

     Initial potential from superposition of free atoms

     starting charge  415.99729, renormalised to  416.00000
     Starting wfc are  368 randomized atomic wfcs
     Checking if some PAW data can be deallocated... 

     total cpu time spent up to now is       97.7 secs

     per-process dynamical memory:   898.4 Mb

     Self-consistent Calculation

     iteration #  1     ecut=   100.00 Ry     beta=0.50
     Davidson diagonalization with overlap
     ethr =  1.00E-02,  avg # of iterations =  5.1

     total cpu time spent up to now is      412.9 secs

     total energy              =   -2072.93959958 Ry
     Harris-Foulkes estimate   =   -2079.34874970 Ry
     estimated scf accuracy    <      12.33937277 Ry

     iteration #  2     ecut=   100.00 Ry     beta=0.50
     Davidson diagonalization with overlap
     ethr =  2.97E-03,  avg # of iterations =  3.0

     total cpu time spent up to now is      577.3 secs

     total energy              =   -2073.98020560 Ry
     Harris-Foulkes estimate   =   -2074.75982594 Ry
     estimated scf accuracy    <       1.66953317 Ry

     iteration #  3     ecut=   100.00 Ry     beta=0.50
     Davidson diagonalization with overlap
     ethr =  4.01E-04,  avg # of iterations =  6.4

     total cpu time spent up to now is      929.9 secs

     total energy              =   -2074.87122663 Ry
     Harris-Foulkes estimate   =   -2075.30638900 Ry
     estimated scf accuracy    <       1.08664144 Ry

     iteration #  4     ecut=   100.00 Ry     beta=0.50
     Davidson diagonalization with overlap
     ethr =  2.61E-04,  avg # of iterations =  2.1

     total cpu time spent up to now is     1080.6 secs

     total energy              =   -2074.86272038 Ry
     Harris-Foulkes estimate   =   -2074.97794868 Ry
     estimated scf accuracy    <       0.21424704 Ry

     iteration #  5     ecut=   100.00 Ry     beta=0.50
     Davidson diagonalization with overlap
     ethr =  5.15E-05,  avg # of iterations =  5.8

     total cpu time spent up to now is     1432.1 secs

     total energy              =   -2075.00887271 Ry
     Harris-Foulkes estimate   =   -2075.07736928 Ry
     estimated scf accuracy    <       0.21214314 Ry

     iteration #  6     ecut=   100.00 Ry     beta=0.50
     Davidson diagonalization with overlap
     ethr =  5.10E-05,  avg # of iterations =  1.0

     total cpu time spent up to now is     1576.1 secs

     total energy              =   -2074.97481833 Ry
     Harris-Foulkes estimate   =   -2075.01740894 Ry
     estimated scf accuracy    <       0.08235927 Ry

     iteration #  7     ecut=   100.00 Ry     beta=0.50
     Davidson diagonalization with overlap
     ethr =  1.98E-05,  avg # of iterations =  5.5

     total cpu time spent up to now is     1859.1 secs

     total energy              =   -2075.01235488 Ry
     Harris-Foulkes estimate   =   -2075.01637098 Ry
     estimated scf accuracy    <       0.01252540 Ry

     iteration #  8     ecut=   100.00 Ry     beta=0.50
     Davidson diagonalization with overlap
     ethr =  3.01E-06,  avg # of iterations =  2.0

     total cpu time spent up to now is     2008.4 secs

     total energy              =   -2075.01039062 Ry
     Harris-Foulkes estimate   =   -2075.01287919 Ry
     estimated scf accuracy    <       0.00495163 Ry

     iteration #  9     ecut=   100.00 Ry     beta=0.50
     Davidson diagonalization with overlap
     ethr =  1.19E-06,  avg # of iterations =  6.5

     total cpu time spent up to now is     2280.9 secs

     total energy              =   -2075.01287312 Ry
     Harris-Foulkes estimate   =   -2075.01304896 Ry
     estimated scf accuracy    <       0.00086045 Ry

     iteration # 10     ecut=   100.00 Ry     beta=0.50
     Davidson diagonalization with overlap
     ethr =  2.07E-07,  avg # of iterations =  1.1

     total cpu time spent up to now is     2423.8 secs

     total energy              =   -2075.01260069 Ry
     Harris-Foulkes estimate   =   -2075.01290362 Ry
     estimated scf accuracy    <       0.00051444 Ry

     iteration # 11     ecut=   100.00 Ry     beta=0.50
     Davidson diagonalization with overlap
     ethr =  1.24E-07,  avg # of iterations =  4.0

     total cpu time spent up to now is     2653.7 secs

     total energy              =   -2075.01280547 Ry
     Harris-Foulkes estimate   =   -2075.01282773 Ry
     estimated scf accuracy    <       0.00008279 Ry

     iteration # 12     ecut=   100.00 Ry     beta=0.50
     Davidson diagonalization with overlap
     ethr =  1.99E-08,  avg # of iterations =  1.6

     total cpu time spent up to now is     2797.7 secs

     total energy              =   -2075.01278595 Ry
     Harris-Foulkes estimate   =   -2075.01280924 Ry
     estimated scf accuracy    <       0.00004228 Ry

     iteration # 13     ecut=   100.00 Ry     beta=0.50
     Davidson diagonalization with overlap
     ethr =  1.02E-08,  avg # of iterations =  4.0

     total cpu time spent up to now is     3022.2 secs

     total energy              =   -2075.01280411 Ry
     Harris-Foulkes estimate   =   -2075.01280571 Ry
     estimated scf accuracy    <       0.00000550 Ry

     iteration # 14     ecut=   100.00 Ry     beta=0.50
     Davidson diagonalization with overlap
     ethr =  1.32E-09,  avg # of iterations =  2.8

     total cpu time spent up to now is     3175.1 secs

     total energy              =   -2075.01280301 Ry
     Harris-Foulkes estimate   =   -2075.01280447 Ry
     estimated scf accuracy    <       0.00000252 Ry

     iteration # 15     ecut=   100.00 Ry     beta=0.50
     Davidson diagonalization with overlap
     ethr =  6.05E-10,  avg # of iterations =  4.0

     total cpu time spent up to now is     3407.4 secs

     total energy              =   -2075.01280436 Ry
     Harris-Foulkes estimate   =   -2075.01280455 Ry
     estimated scf accuracy    <       0.00000073 Ry

     iteration # 16     ecut=   100.00 Ry     beta=0.50
     Davidson diagonalization with overlap
     ethr =  1.75E-10,  avg # of iterations =  1.8

     total cpu time spent up to now is     3550.8 secs

     total energy              =   -2075.01280419 Ry
     Harris-Foulkes estimate   =   -2075.01280438 Ry
     estimated scf accuracy    <       0.00000038 Ry

     iteration # 17     ecut=   100.00 Ry     beta=0.50
     Davidson diagonalization with overlap
     ethr =  9.06E-11,  avg # of iterations =  4.0

     total cpu time spent up to now is     3760.9 secs

     total energy              =   -2075.01280434 Ry
     Harris-Foulkes estimate   =   -2075.01280435 Ry
     estimated scf accuracy    <       0.00000003 Ry

     iteration # 18     ecut=   100.00 Ry     beta=0.50
     Davidson diagonalization with overlap
     ethr =  6.45E-12,  avg # of iterations =  4.0

     total cpu time spent up to now is     3955.1 secs

     total energy              =   -2075.01280434 Ry
     Harris-Foulkes estimate   =   -2075.01280435 Ry
     estimated scf accuracy    <       0.00000002 Ry

     iteration # 19     ecut=   100.00 Ry     beta=0.50
     Davidson diagonalization with overlap
     ethr =  4.20E-12,  avg # of iterations =  4.0

     total cpu time spent up to now is     4136.5 secs

     End of self-consistent calculation

          k = 0.0000 0.0000 0.0000 (132597 PWs)   bands (ev):

   -21.1650 -21.1646 -21.1569 -21.1567 -19.7932 -19.7920 -19.7898 -19.7893
   -18.8303 -18.8302 -18.8142 -18.8131 -18.4397 -18.4334 -18.4072 -18.4066
   -17.9308 -17.9303 -17.9081 -17.9014 -17.4949 -17.4922 -17.4912 -17.4885
   -15.9587 -15.9547 -15.9545 -15.9541 -14.0127 -14.0021 -14.0021 -13.9760
   -13.1714 -13.1710 -13.1592 -13.1497 -12.1920 -12.1480 -12.0889 -12.0828
   -11.6442 -11.6295 -11.5635 -11.5460 -11.2465 -11.2360 -11.1677 -11.1472
   -10.0857 -10.0742 -10.0668 -10.0376  -9.4692  -9.4256  -9.4251  -9.4243
    -8.9884  -8.9655  -8.9475  -8.9187  -8.5197  -8.4846  -8.4646  -8.4523
    -7.6728  -7.6553  -7.6351  -7.6312  -7.6058  -7.5195  -7.5077  -7.4506
    -7.1262  -7.0902  -7.0862  -7.0364  -6.6659  -6.6478  -6.6451  -6.6449
    -6.1677  -6.1556  -6.1497  -6.0908  -5.7540  -5.7006  -5.6930  -5.6312
    -5.5525  -5.5470  -5.5432  -5.4603  -5.4462  -5.4013  -5.3411  -5.3177
    -5.0512  -5.0214  -4.9312  -4.9144  -4.8600  -4.8162  -4.7077  -4.6173
    -4.5025  -4.4680  -4.2663  -4.2261  -4.1682  -4.1610  -4.0940  -4.0384
    -3.9949  -3.9523  -3.9041  -3.7637  -3.7011  -3.6670  -3.6108  -3.5296
    -3.4780  -3.4396  -3.4394  -3.4085  -3.3763  -3.3216  -3.3141  -3.2978
    -3.2694  -3.2680  -3.2064  -3.1782  -3.0684  -3.0183  -2.9450  -2.8984
    -2.8695  -2.8461  -2.7813  -2.6765  -2.6700  -2.6090  -2.5645  -2.5555
    -2.4477  -2.4258  -2.3952  -2.3391  -2.3026  -2.2860  -2.2679  -2.1579
    -2.1552  -2.0792  -2.0151  -1.9026  -1.9007  -1.8248  -1.7960  -1.7606
    -1.6849  -1.6813  -1.6600  -1.6390  -1.6138  -1.5734  -1.4895  -1.4756
    -1.4393  -1.4162  -1.3892  -1.3286  -1.2868  -1.2145  -1.1967  -1.1133
    -0.8260  -0.7864  -0.7417  -0.7195  -0.3163  -0.2806  -0.1594  -0.1424
     0.0575   0.0782   0.0814   0.1130   0.9505   0.9617   0.9659   0.9676
     1.0162   1.0191   1.0255   1.0440   1.0671   1.0761   1.2503   1.3231
     1.4865   1.5637   1.8742   1.9025   2.3313   2.3748   2.5892   2.6089
     4.8949   4.9488   5.0059   5.0362   5.1590   5.1727   5.4516   5.4582
     6.3919   6.4354   6.8084   6.8207   6.8884   6.9763   7.1812   7.2234
     7.2584   7.4205   7.4511   7.6458   7.7560   7.7959   7.9739   8.1042
     8.2232   8.2574   8.3721   8.4774   8.5067   8.5616   8.6795   8.7040
     8.8659   9.0143   9.0389   9.0800   9.0938   9.1195   9.2911   9.3193
     9.3850

          k = 0.0000 0.0000-0.2517 (132628 PWs)   bands (ev):

   -21.1648 -21.1648 -21.1568 -21.1568 -19.7927 -19.7927 -19.7895 -19.7895
   -18.8302 -18.8302 -18.8137 -18.8137 -18.4366 -18.4366 -18.4068 -18.4068
   -17.9307 -17.9307 -17.9046 -17.9046 -17.4932 -17.4932 -17.4901 -17.4901
   -15.9568 -15.9568 -15.9541 -15.9541 -14.0117 -14.0117 -13.9848 -13.9848
   -13.1733 -13.1733 -13.1523 -13.1523 -12.1682 -12.1682 -12.0870 -12.0870
   -11.6391 -11.6391 -11.5545 -11.5545 -11.2409 -11.2409 -11.1573 -11.1573
   -10.0784 -10.0783 -10.0523 -10.0523  -9.4532  -9.4532  -9.4203  -9.4203
    -8.9758  -8.9758  -8.9317  -8.9317  -8.5058  -8.5058  -8.4543  -8.4543
    -7.6670  -7.6670  -7.6228  -7.6228  -7.5726  -7.5726  -7.4888  -7.4888
    -7.0995  -7.0995  -7.0644  -7.0644  -6.6744  -6.6744  -6.6273  -6.6273
    -6.1787  -6.1787  -6.1015  -6.1015  -5.7364  -5.7364  -5.6867  -5.6867
    -5.5227  -5.5227  -5.4793  -5.4793  -5.4175  -5.4175  -5.3298  -5.3298
    -4.9956  -4.9956  -4.9670  -4.9670  -4.8257  -4.8257  -4.7172  -4.7172
    -4.4622  -4.4622  -4.2504  -4.2504  -4.1511  -4.1511  -4.0880  -4.0880
    -3.9911  -3.9911  -3.8109  -3.8109  -3.6448  -3.6448  -3.5884  -3.5884
    -3.5064  -3.5064  -3.3840  -3.3840  -3.3276  -3.3276  -3.3134  -3.3134
    -3.2804  -3.2804  -3.1729  -3.1729  -3.0543  -3.0543  -2.9640  -2.9640
    -2.8533  -2.8533  -2.7335  -2.7335  -2.6186  -2.6186  -2.5950  -2.5950
    -2.4190  -2.4190  -2.3668  -2.3668  -2.2852  -2.2852  -2.2075  -2.2075
    -2.1205  -2.1205  -1.9475  -1.9475  -1.8414  -1.8414  -1.7584  -1.7584
    -1.6873  -1.6873  -1.6583  -1.6583  -1.6299  -1.6299  -1.4703  -1.4703
    -1.3929  -1.3929  -1.3659  -1.3659  -1.3018  -1.3018  -1.1313  -1.1313
    -0.8253  -0.8253  -0.7132  -0.7132  -0.3004  -0.3004  -0.1459  -0.1459
     0.0748   0.0748   0.0873   0.0873   0.9590   0.9590   0.9675   0.9675
     1.0101   1.0101   1.0361   1.0361   1.0702   1.0702   1.2872   1.2872
     1.5272   1.5272   1.8888   1.8888   2.3524   2.3524   2.5994   2.5994
     4.9225   4.9225   5.0240   5.0240   5.1677   5.1677   5.4549   5.4549
     6.4129   6.4129   6.7791   6.7791   6.9464   6.9464   7.1958   7.1958
     7.3157   7.3157   7.5816   7.5816   7.7862   7.7862   8.0376   8.0376
     8.2857   8.2857   8.4072   8.4072   8.5644   8.5644   8.7676   8.7676
     8.7879   8.7879   8.9738   8.9738   9.1440   9.1440   9.2608   9.2608
     9.4278

          k = 0.0000-0.3582 0.0000 (132582 PWs)   bands (ev):

   -21.1610 -21.1610 -21.1607 -21.1607 -19.7915 -19.7915 -19.7907 -19.7907
   -18.8222 -18.8222 -18.8215 -18.8215 -18.4364 -18.4364 -18.4069 -18.4069
   -17.9302 -17.9302 -17.9052 -17.9052 -17.4937 -17.4937 -17.4897 -17.4897
   -15.9572 -15.9572 -15.9538 -15.9538 -14.0080 -14.0080 -13.9873 -13.9873
   -13.1897 -13.1897 -13.1343 -13.1343 -12.1678 -12.1678 -12.0923 -12.0923
   -11.6676 -11.6676 -11.5274 -11.5274 -11.2293 -11.2293 -11.1664 -11.1664
   -10.0858 -10.0858 -10.0415 -10.0415  -9.4511  -9.4511  -9.4201  -9.4201
    -8.9920  -8.9920  -8.9133  -8.9133  -8.5056  -8.5056  -8.4539  -8.4539
    -7.6677  -7.6677  -7.6190  -7.6190  -7.5474  -7.5474  -7.5287  -7.5287
    -7.0927  -7.0927  -7.0816  -7.0816  -6.6669  -6.6669  -6.6439  -6.6439
    -6.1409  -6.1409  -6.1268  -6.1268  -5.7020  -5.7020  -5.6565  -5.6565
    -5.5480  -5.5480  -5.4863  -5.4863  -5.4221  -5.4221  -5.3337  -5.3337
    -5.0025  -5.0025  -4.9576  -4.9576  -4.8015  -4.8015  -4.7497  -4.7497
    -4.4878  -4.4878  -4.3119  -4.3119  -4.1538  -4.1538  -4.0927  -4.0927
    -3.8880  -3.8880  -3.8085  -3.8085  -3.6712  -3.6712  -3.5485  -3.5485
    -3.5322  -3.5322  -3.4060  -3.4060  -3.3206  -3.3206  -3.3011  -3.3011
    -3.2738  -3.2738  -3.1987  -3.1987  -2.9995  -2.9995  -2.9157  -2.9157
    -2.9109  -2.9109  -2.7193  -2.7193  -2.6379  -2.6379  -2.5580  -2.5580
    -2.4274  -2.4274  -2.3731  -2.3731  -2.3424  -2.3424  -2.2708  -2.2708
    -2.0339  -2.0339  -1.9303  -1.9303  -1.8763  -1.8763  -1.7498  -1.7498
    -1.7088  -1.7088  -1.6448  -1.6448  -1.5757  -1.5757  -1.4840  -1.4840
    -1.4572  -1.4572  -1.3788  -1.3788  -1.2201  -1.2201  -1.1661  -1.1661
    -0.8058  -0.8058  -0.7360  -0.7360  -0.3001  -0.3001  -0.1472  -0.1472
     0.0632   0.0632   0.0986   0.0986   0.9515   0.9515   0.9729   0.9729
     0.9954   0.9954   1.0421   1.0421   1.0511   1.0511   1.2992   1.2992
     1.5238   1.5238   1.8908   1.8908   2.3616   2.3616   2.6076   2.6077
     4.9027   4.9028   5.0181   5.0181   5.1843   5.1843   5.4495   5.4496
     6.4840   6.4840   6.8123   6.8123   6.9601   6.9601   7.1977   7.1977
     7.3948   7.3948   7.4819   7.4819   7.7043   7.7044   8.0776   8.0776
     8.1868   8.1868   8.2743   8.2743   8.6823   8.6823   8.8499   8.8499
     8.9112   8.9113   9.0676   9.0676   9.1792   9.1792   9.2515   9.2516
     9.3147

          k = 0.0000-0.3582-0.2517 (132596 PWs)   bands (ev):

   -21.1609 -21.1609 -21.1607 -21.1607 -19.7915 -19.7915 -19.7907 -19.7907
   -18.8222 -18.8222 -18.8216 -18.8216 -18.4364 -18.4364 -18.4070 -18.4070
   -17.9301 -17.9301 -17.9053 -17.9053 -17.4933 -17.4933 -17.4901 -17.4901
   -15.9568 -15.9568 -15.9543 -15.9542 -14.0082 -14.0082 -13.9872 -13.9872
   -13.1894 -13.1894 -13.1347 -13.1347 -12.1617 -12.1617 -12.0978 -12.0978
   -11.6680 -11.6680 -11.5285 -11.5285 -11.2286 -11.2286 -11.1667 -11.1667
   -10.0728 -10.0728 -10.0549 -10.0549  -9.4497  -9.4497  -9.4215  -9.4215
    -8.9850  -8.9849  -8.9163  -8.9163  -8.5017  -8.5017  -8.4565  -8.4565
    -7.6591  -7.6591  -7.6533  -7.6533  -7.5336  -7.5336  -7.5292  -7.5292
    -7.0945  -7.0945  -7.0765  -7.0765  -6.6567  -6.6567  -6.6480  -6.6480
    -6.1451  -6.1451  -6.1269  -6.1269  -5.6854  -5.6854  -5.6732  -5.6732
    -5.5222  -5.5222  -5.5148  -5.5148  -5.3977  -5.3977  -5.3527  -5.3527
    -4.9796  -4.9796  -4.9702  -4.9702  -4.8073  -4.8073  -4.7409  -4.7409
    -4.4940  -4.4940  -4.3228  -4.3228  -4.1615  -4.1615  -4.0721  -4.0721
    -3.8910  -3.8910  -3.8003  -3.8003  -3.6864  -3.6863  -3.6200  -3.6200
    -3.4562  -3.4562  -3.4328  -3.4328  -3.3212  -3.3212  -3.3015  -3.3015
    -3.2247  -3.2247  -3.2185  -3.2185  -2.9907  -2.9907  -2.9615  -2.9615
    -2.8494  -2.8494  -2.7370  -2.7370  -2.6494  -2.6494  -2.5853  -2.5853
    -2.4350  -2.4350  -2.3710  -2.3710  -2.3551  -2.3551  -2.2250  -2.2250
    -2.0368  -2.0368  -1.9244  -1.9244  -1.8265  -1.8265  -1.8111  -1.8111
    -1.6850  -1.6850  -1.6594  -1.6594  -1.5453  -1.5453  -1.5265  -1.5265
    -1.4458  -1.4458  -1.3709  -1.3709  -1.2042  -1.2042  -1.1882  -1.1882
    -0.8216  -0.8216  -0.7236  -0.7236  -0.2991  -0.2991  -0.1482  -0.1482
     0.0770   0.0770   0.0881   0.0881   0.9608   0.9608   0.9609   0.9609
     0.9886   0.9886   1.0416   1.0416   1.0627   1.0627   1.2906   1.2906
     1.5312   1.5312   1.8873   1.8873   2.3617   2.3617   2.6075   2.6075
     4.9038   4.9038   5.0250   5.0250   5.1822   5.1822   5.4505   5.4505
     6.4828   6.4828   6.7952   6.7952   6.9616   6.9616   7.1900   7.1900
     7.4069   7.4069   7.4403   7.4403   7.7703   7.7704   8.0677   8.0677
     8.2299   8.2300   8.2392   8.2392   8.6888   8.6889   8.7399   8.7399
     8.9705   8.9705   9.0953   9.0953   9.1158   9.1158   9.2340   9.2340
     9.4123

          k = 0.3333 0.0000 0.0569 (132543 PWs)   bands (ev):

   -21.1645 -21.1642 -21.1565 -21.1564 -19.7941 -19.7938 -19.7904 -19.7901
   -18.8309 -18.8299 -18.8129 -18.8126 -18.4313 -18.4283 -18.4135 -18.4108
   -17.9334 -17.9327 -17.9065 -17.8993 -17.4944 -17.4925 -17.4904 -17.4887
   -15.9633 -15.9621 -15.9529 -15.9499 -14.0111 -14.0046 -13.9920 -13.9834
   -13.1800 -13.1758 -13.1558 -13.1402 -12.1682 -12.1348 -12.1114 -12.0980
   -11.6415 -11.6409 -11.5635 -11.5389 -11.2355 -11.2197 -11.1731 -11.1629
   -10.0922 -10.0750 -10.0498 -10.0444  -9.4922  -9.4493  -9.4048  -9.3998
    -8.9775  -8.9541  -8.9510  -8.9270  -8.5056  -8.4987  -8.4699  -8.4538
    -7.6694  -7.6615  -7.6233  -7.6228  -7.5862  -7.5209  -7.5164  -7.4980
    -7.1245  -7.0838  -7.0836  -7.0517  -6.6803  -6.6588  -6.6391  -6.6268
    -6.1972  -6.1412  -6.0906  -6.0861  -5.7015  -5.6964  -5.6758  -5.6257
    -5.5609  -5.5307  -5.5044  -5.4640  -5.4192  -5.3764  -5.3315  -5.3258
    -5.0251  -4.9842  -4.9719  -4.9174  -4.8288  -4.7811  -4.6795  -4.6155
    -4.4628  -4.4259  -4.2690  -4.2647  -4.1869  -4.1282  -4.1257  -4.0801
    -3.9852  -3.9637  -3.9167  -3.8352  -3.7484  -3.6738  -3.6287  -3.5502
    -3.4659  -3.4654  -3.4456  -3.4113  -3.3776  -3.3760  -3.3570  -3.3330
    -3.3110  -3.2582  -3.2099  -3.1880  -3.1556  -3.1190  -2.9597  -2.9120
    -2.8843  -2.8791  -2.7650  -2.6887  -2.6379  -2.6349  -2.6228  -2.6039
    -2.3956  -2.3672  -2.3438  -2.3175  -2.2808  -2.2675  -2.2197  -2.1687
    -2.1443  -2.0730  -2.0523  -1.9574  -1.9546  -1.9009  -1.8246  -1.7813
    -1.7014  -1.6954  -1.6372  -1.6272  -1.5887  -1.5560  -1.5168  -1.4663
    -1.4060  -1.3849  -1.3354  -1.3304  -1.3177  -1.2236  -1.2020  -1.1235
    -0.8232  -0.7519  -0.7501  -0.7112  -0.3247  -0.3101  -0.1356  -0.0989
     0.0513   0.0651   0.1396   0.1698   0.9452   0.9570   0.9595   0.9636
     0.9995   1.0086   1.0542   1.0759   1.1135   1.1174   1.2340   1.2448
     1.6297   1.6799   1.8424   1.8534   2.3782   2.4105   2.5865   2.6270
     4.9053   4.9290   5.0054   5.0542   5.2231   5.2298   5.4063   5.4206
     6.4689   6.4861   6.7934   6.8044   6.9078   6.9286   7.0925   7.1160
     7.3534   7.3995   7.5882   7.6544   7.7910   7.8610   8.0706   8.1184
     8.3007   8.3057   8.4164   8.5527   8.6422   8.7310   8.7784   8.8456
     8.9375   8.9611   9.0074   9.0392   9.1375   9.2114   9.2362   9.2623
     9.2891

          k = 0.3333 0.0000-0.1947 (132511 PWs)   bands (ev):

   -21.1643 -21.1643 -21.1565 -21.1565 -19.7942 -19.7937 -19.7905 -19.7900
   -18.8307 -18.8302 -18.8130 -18.8126 -18.4311 -18.4282 -18.4137 -18.4108
   -17.9333 -17.9330 -17.9031 -17.9026 -17.4926 -17.4926 -17.4905 -17.4903
   -15.9631 -15.9623 -15.9517 -15.9510 -14.0114 -14.0016 -13.9941 -13.9842
   -13.1803 -13.1759 -13.1504 -13.1452 -12.1578 -12.1454 -12.1099 -12.0995
   -11.6463 -11.6358 -11.5536 -11.5480 -11.2297 -11.2270 -11.1706 -11.1652
   -10.0938 -10.0826 -10.0508 -10.0365  -9.4745  -9.4681  -9.4070  -9.3971
    -8.9646  -8.9578  -8.9422  -8.9343  -8.5079  -8.4887  -8.4760  -8.4558
    -7.6561  -7.6537  -7.6349  -7.6304  -7.6074  -7.5690  -7.5044  -7.4649
    -7.1079  -7.1031  -7.0648  -7.0538  -6.6742  -6.6613  -6.6442  -6.6263
    -6.1729  -6.1375  -6.1270  -6.0932  -5.7207  -5.6705  -5.6422  -5.6348
    -5.5624  -5.5323  -5.4734  -5.4715  -5.4153  -5.3974  -5.3414  -5.3113
    -5.0202  -5.0136  -4.9376  -4.9134  -4.8517  -4.8021  -4.6876  -4.6063
    -4.4732  -4.4318  -4.2411  -4.2312  -4.2020  -4.1515  -4.1101  -4.1060
    -4.0316  -3.9523  -3.8522  -3.8399  -3.6952  -3.6857  -3.6164  -3.6022
    -3.5591  -3.4962  -3.4509  -3.4248  -3.3927  -3.3347  -3.3309  -3.3084
    -3.2657  -3.2331  -3.2033  -3.1986  -3.1307  -3.1219  -2.9402  -2.9146
    -2.9016  -2.9000  -2.7239  -2.7129  -2.6806  -2.6395  -2.5873  -2.5704
    -2.4400  -2.4060  -2.3441  -2.3069  -2.2846  -2.2743  -2.1916  -2.1882
    -2.1046  -2.0922  -2.0488  -2.0447  -1.9302  -1.9105  -1.7925  -1.7526
    -1.7262  -1.7118  -1.6278  -1.6189  -1.5679  -1.5568  -1.5007  -1.4211
    -1.4072  -1.3971  -1.3445  -1.3165  -1.3131  -1.2788  -1.1568  -1.1547
    -0.8047  -0.8009  -0.7421  -0.6951  -0.3250  -0.3091  -0.1257  -0.1139
     0.0563   0.0648   0.1580   0.1595   0.9530   0.9536   0.9613   0.9617
     1.0046   1.0059   1.0533   1.0673   1.1010   1.1303   1.2103   1.2624
     1.6390   1.6719   1.8254   1.8660   2.3903   2.3997   2.5992   2.6147
     4.9163   4.9243   5.0274   5.0370   5.2269   5.2301   5.4076   5.4129
     6.4499   6.5110   6.7549   6.8376   6.9031   6.9154   7.0837   7.1115
     7.3691   7.3770   7.5535   7.6966   7.8220   7.8875   8.0600   8.1082
     8.2752   8.3254   8.4736   8.5666   8.6256   8.7100   8.8046   8.8612
     8.8872   8.9124   9.0196   9.0323   9.1385   9.1610   9.2357   9.3145
     9.3197

          k = 0.3333-0.3582 0.0569 (132546 PWs)   bands (ev):

   -21.1605 -21.1605 -21.1603 -21.1603 -19.7924 -19.7924 -19.7919 -19.7919
   -18.8219 -18.8219 -18.8212 -18.8211 -18.4296 -18.4296 -18.4123 -18.4123
   -17.9326 -17.9326 -17.9034 -17.9034 -17.4932 -17.4932 -17.4899 -17.4899
   -15.9627 -15.9627 -15.9514 -15.9514 -14.0033 -14.0033 -13.9913 -13.9913
   -13.1952 -13.1952 -13.1288 -13.1287 -12.1497 -12.1497 -12.1087 -12.1087
   -11.6654 -11.6654 -11.5321 -11.5321 -11.2181 -11.2181 -11.1759 -11.1759
   -10.0886 -10.0886 -10.0386 -10.0386  -9.4736  -9.4736  -9.3991  -9.3990
    -8.9733  -8.9733  -8.9237  -8.9237  -8.5022  -8.5022  -8.4617  -8.4617
    -7.6814  -7.6814  -7.6240  -7.6240  -7.5494  -7.5494  -7.5044  -7.5044
    -7.0917  -7.0917  -7.0858  -7.0858  -6.6663  -6.6663  -6.6345  -6.6344
    -6.1613  -6.1613  -6.1136  -6.1136  -5.6616  -5.6616  -5.6394  -5.6394
    -5.5555  -5.5555  -5.4675  -5.4675  -5.4297  -5.4297  -5.3202  -5.3202
    -5.0112  -5.0112  -4.9415  -4.9415  -4.7892  -4.7891  -4.6934  -4.6934
    -4.4385  -4.4385  -4.3127  -4.3127  -4.1620  -4.1620  -4.1134  -4.1134
    -3.9162  -3.9162  -3.8476  -3.8476  -3.6763  -3.6762  -3.5998  -3.5998
    -3.5154  -3.5154  -3.4581  -3.4581  -3.3823  -3.3823  -3.3127  -3.3127
    -3.2802  -3.2802  -3.2076  -3.2076  -3.1151  -3.1151  -2.9427  -2.9427
    -2.8762  -2.8762  -2.6770  -2.6770  -2.6333  -2.6332  -2.5757  -2.5757
    -2.4070  -2.4070  -2.3391  -2.3391  -2.3157  -2.3157  -2.2376  -2.2376
    -2.1182  -2.1182  -1.9795  -1.9795  -1.8765  -1.8764  -1.7926  -1.7926
    -1.7056  -1.7056  -1.6313  -1.6313  -1.5607  -1.5607  -1.4801  -1.4801
    -1.4452  -1.4452  -1.3768  -1.3768  -1.2228  -1.2228  -1.1782  -1.1782
    -0.7962  -0.7962  -0.7278  -0.7278  -0.3181  -0.3181  -0.1156  -0.1156
     0.0553   0.0553   0.1577   0.1577   0.9462   0.9462   0.9701   0.9701
     1.0183   1.0183   1.0447   1.0447   1.0998   1.0998   1.2423   1.2423
     1.6520   1.6520   1.8474   1.8474   2.4006   2.4006   2.6174   2.6174
     4.9111   4.9111   5.0209   5.0209   5.2307   5.2307   5.4152   5.4153
     6.5527   6.5527   6.8534   6.8534   6.9080   6.9080   7.0967   7.0967
     7.3689   7.3689   7.5693   7.5693   7.9025   7.9025   8.0608   8.0608
     8.2536   8.2536   8.5009   8.5009   8.6622   8.6622   8.8059   8.8059
     8.8755   8.8755   9.0583   9.0583   9.1437   9.1437   9.2510   9.2511
     9.3374

          k = 0.3333-0.3582-0.1947 (132488 PWs)   bands (ev):

   -21.1605 -21.1605 -21.1603 -21.1603 -19.7924 -19.7924 -19.7919 -19.7919
   -18.8218 -18.8218 -18.8213 -18.8213 -18.4296 -18.4296 -18.4123 -18.4123
   -17.9325 -17.9325 -17.9035 -17.9035 -17.4927 -17.4927 -17.4904 -17.4904
   -15.9626 -15.9626 -15.9515 -15.9515 -14.0033 -14.0033 -13.9914 -13.9914
   -13.1949 -13.1949 -13.1292 -13.1291 -12.1463 -12.1463 -12.1115 -12.1115
   -11.6646 -11.6646 -11.5335 -11.5335 -11.2178 -11.2178 -11.1769 -11.1769
   -10.0814 -10.0814 -10.0451 -10.0451  -9.4727  -9.4727  -9.4005  -9.4005
    -8.9665  -8.9665  -8.9296  -8.9296  -8.4971  -8.4971  -8.4656  -8.4656
    -7.6522  -7.6522  -7.6433  -7.6433  -7.5699  -7.5699  -7.5012  -7.5012
    -7.0909  -7.0909  -7.0819  -7.0819  -6.6606  -6.6606  -6.6474  -6.6474
    -6.1528  -6.1528  -6.1072  -6.1072  -5.6762  -5.6762  -5.6400  -5.6400
    -5.5296  -5.5296  -5.4742  -5.4742  -5.3980  -5.3980  -5.3653  -5.3653
    -4.9937  -4.9937  -4.9661  -4.9661  -4.7666  -4.7666  -4.7056  -4.7056
    -4.4407  -4.4407  -4.3339  -4.3339  -4.1561  -4.1561  -4.0828  -4.0828
    -3.9130  -3.9130  -3.8635  -3.8635  -3.6715  -3.6715  -3.6230  -3.6230
    -3.4871  -3.4871  -3.4359  -3.4359  -3.3980  -3.3980  -3.3459  -3.3459
    -3.2670  -3.2670  -3.1937  -3.1937  -3.1302  -3.1302  -2.9179  -2.9179
    -2.8902  -2.8902  -2.6719  -2.6719  -2.6301  -2.6301  -2.5956  -2.5956
    -2.3959  -2.3959  -2.3673  -2.3673  -2.3066  -2.3066  -2.2219  -2.2219
    -2.0972  -2.0972  -2.0443  -2.0443  -1.8607  -1.8607  -1.7848  -1.7848
    -1.6860  -1.6860  -1.6109  -1.6109  -1.5617  -1.5617  -1.5129  -1.5129
    -1.4303  -1.4303  -1.3775  -1.3775  -1.2257  -1.2257  -1.1750  -1.1750
    -0.7957  -0.7957  -0.7323  -0.7323  -0.3172  -0.3172  -0.1208  -0.1208
     0.0617   0.0617   0.1603   0.1603   0.9556   0.9556   0.9592   0.9592
     1.0160   1.0160   1.0394   1.0394   1.1131   1.1131   1.2319   1.2319
     1.6548   1.6548   1.8448   1.8448   2.4013   2.4013   2.6172   2.6172
     4.9153   4.9153   5.0241   5.0241   5.2304   5.2304   5.4136   5.4136
     6.5531   6.5531   6.8500   6.8500   6.8998   6.8998   7.0930   7.0930
     7.3638   7.3638   7.5807   7.5807   7.8744   7.8744   8.0884   8.0884
     8.2675   8.2675   8.5136   8.5136   8.6180   8.6180   8.8413   8.8413
     8.9211   8.9211   9.0759   9.0760   9.1300   9.1300   9.2393   9.2393
     9.2911

     highest occupied, lowest unoccupied level (ev):     2.6270    4.8949

!    total energy              =   -2075.01280435 Ry
     Harris-Foulkes estimate   =   -2075.01280435 Ry
     estimated scf accuracy    <          6.1E-10 Ry

     total all-electron energy =     -7906.074127 Ry

     The total energy is the sum of the following terms:

     one-electron contribution =   -1130.82421260 Ry
     hartree contribution      =     736.14525738 Ry
     xc contribution           =    -441.83102740 Ry
     ewald contribution        =    -635.48651238 Ry
     Dispersion Correction     =      -0.64974979 Ry
     one-center paw contrib.   =    -602.36655956 Ry

     convergence has been achieved in  19 iterations

     Forces acting on atoms (cartesian axes, Ry/au):

     atom    1 type  2   force =    -0.00126651    0.00002085    0.00092173
     atom    2 type  2   force =     0.00126633    0.00002207   -0.00092221
     atom    3 type  2   force =     0.00126651   -0.00002085   -0.00092173
     atom    4 type  2   force =    -0.00126633   -0.00002207    0.00092221
     atom    5 type  1   force =     0.00089036    0.00086424   -0.00026041
     atom    6 type  1   force =    -0.00089003    0.00086524    0.00025941
     atom    7 type  1   force =    -0.00089036   -0.00086424    0.00026041
     atom    8 type  1   force =     0.00089003   -0.00086524   -0.00025941
     atom    9 type  1   force =     0.00167414    0.00189537   -0.00168351
     atom   10 type  1   force =    -0.00167478    0.00190503    0.00168289
     atom   11 type  1   force =    -0.00167414   -0.00189537    0.00168351
     atom   12 type  1   force =     0.00167478   -0.00190503   -0.00168289
     atom   13 type  1   force =    -0.00128299   -0.00191676    0.00192039
     atom   14 type  1   force =     0.00128291   -0.00192869   -0.00192032
     atom   15 type  1   force =     0.00128299    0.00191676   -0.00192039
     atom   16 type  1   force =    -0.00128291    0.00192869    0.00192032
     atom   17 type  1   force =     0.00120623   -0.00026178   -0.00098726
     atom   18 type  1   force =    -0.00120534   -0.00028089    0.00098658
     atom   19 type  1   force =    -0.00120623    0.00026178    0.00098726
     atom   20 type  1   force =     0.00120534    0.00028089   -0.00098658
     atom   21 type  1   force =    -0.00222707   -0.00116492    0.00095846
     atom   22 type  1   force =     0.00222673   -0.00116479   -0.00095763
     atom   23 type  1   force =     0.00222707    0.00116492   -0.00095846
     atom   24 type  1   force =    -0.00222673    0.00116479    0.00095763
     atom   25 type  1   force =     0.00122537   -0.00144472   -0.00028518
     atom   26 type  1   force =    -0.00122475   -0.00144422    0.00028585
     atom   27 type  1   force =    -0.00122537    0.00144472    0.00028518
     atom   28 type  1   force =     0.00122475    0.00144422   -0.00028585
     atom   29 type  1   force =     0.00090967    0.00112984    0.00071481
     atom   30 type  1   force =    -0.00091056    0.00113970   -0.00071314
     atom   31 type  1   force =    -0.00090967   -0.00112984   -0.00071481
     atom   32 type  1   force =     0.00091056   -0.00113970    0.00071314
     atom   33 type  1   force =     0.00112924    0.00168924   -0.00086261
     atom   34 type  1   force =    -0.00112937    0.00169799    0.00086317
     atom   35 type  1   force =    -0.00112924   -0.00168924    0.00086261
     atom   36 type  1   force =     0.00112937   -0.00169799   -0.00086317
     atom   37 type  1   force =    -0.00029843   -0.00015948   -0.00012483
     atom   38 type  1   force =     0.00029813   -0.00017963    0.00012445
     atom   39 type  1   force =     0.00029843    0.00015948    0.00012483
     atom   40 type  1   force =    -0.00029813    0.00017963   -0.00012445
     atom   41 type  4   force =    -0.00123784   -0.00060221    0.00015940
     atom   42 type  4   force =     0.00123643   -0.00059803   -0.00015900
     atom   43 type  4   force =     0.00123784    0.00060221   -0.00015940
     atom   44 type  4   force =    -0.00123643    0.00059803    0.00015900
     atom   45 type  1   force =    -0.00067043   -0.00143039    0.00022533
     atom   46 type  1   force =     0.00067057   -0.00144684   -0.00022489
     atom   47 type  1   force =     0.00067043    0.00143039   -0.00022533
     atom   48 type  1   force =    -0.00067057    0.00144684    0.00022489
     atom   49 type  4   force =    -0.00023068    0.00020080   -0.00118372
     atom   50 type  4   force =     0.00023095    0.00020488    0.00118172
     atom   51 type  4   force =     0.00023068   -0.00020080    0.00118372
     atom   52 type  4   force =    -0.00023095   -0.00020488   -0.00118172
     atom   53 type  1   force =    -0.00025820   -0.00008648   -0.00007594
     atom   54 type  1   force =     0.00025830   -0.00006102    0.00007576
     atom   55 type  1   force =     0.00025820    0.00008648    0.00007594
     atom   56 type  1   force =    -0.00025830    0.00006102   -0.00007576
     atom   57 type  1   force =     0.00087913   -0.00043310    0.00077716
     atom   58 type  1   force =    -0.00087826   -0.00044659   -0.00077720
     atom   59 type  1   force =    -0.00087913    0.00043310   -0.00077716
     atom   60 type  1   force =     0.00087826    0.00044659    0.00077720
     atom   61 type  4   force =     0.00124966   -0.00042832    0.00030085
     atom   62 type  4   force =    -0.00124895   -0.00042601   -0.00030055
     atom   63 type  4   force =    -0.00124966    0.00042832   -0.00030085
     atom   64 type  4   force =     0.00124895    0.00042601    0.00030055
     atom   65 type  1   force =    -0.00116929    0.00012114    0.00022521
     atom   66 type  1   force =     0.00116868    0.00012681   -0.00022671
     atom   67 type  1   force =     0.00116929   -0.00012114   -0.00022521
     atom   68 type  1   force =    -0.00116868   -0.00012681    0.00022671
     atom   69 type  4   force =     0.00011915   -0.00053425    0.00028263
     atom   70 type  4   force =    -0.00011855   -0.00053214   -0.00028388
     atom   71 type  4   force =    -0.00011915    0.00053425   -0.00028263
     atom   72 type  4   force =     0.00011855    0.00053214    0.00028388
     atom   73 type  4   force =    -0.00092313   -0.00199568    0.00027144
     atom   74 type  4   force =     0.00092336   -0.00199173   -0.00027238
     atom   75 type  4   force =     0.00092313    0.00199568   -0.00027144
     atom   76 type  4   force =    -0.00092336    0.00199173    0.00027238
     atom   77 type  2   force =    -0.00148104   -0.00000101    0.00116937
     atom   78 type  2   force =     0.00148155    0.00000050   -0.00116907
     atom   79 type  2   force =     0.00148104    0.00000101   -0.00116937
     atom   80 type  2   force =    -0.00148155   -0.00000050    0.00116907
     atom   81 type  3   force =    -0.00046774    0.00061150   -0.00005835
     atom   82 type  3   force =     0.00046780    0.00061130    0.00005847
     atom   83 type  3   force =     0.00046774   -0.00061150    0.00005835
     atom   84 type  3   force =    -0.00046780   -0.00061130   -0.00005847
     atom   85 type  3   force =     0.00002546   -0.00011394    0.00023560
     atom   86 type  3   force =    -0.00002526   -0.00011441   -0.00023565
     atom   87 type  3   force =    -0.00002546    0.00011394   -0.00023560
     atom   88 type  3   force =     0.00002526    0.00011441    0.00023565
     atom   89 type  3   force =     0.00108317    0.00059674    0.00074167
     atom   90 type  3   force =    -0.00108309    0.00059631   -0.00074151
     atom   91 type  3   force =    -0.00108317   -0.00059674   -0.00074167
     atom   92 type  3   force =     0.00108309   -0.00059631    0.00074151
     atom   93 type  3   force =     0.00024349    0.00021277   -0.00009072
     atom   94 type  3   force =    -0.00024360    0.00021334    0.00009073
     atom   95 type  3   force =    -0.00024349   -0.00021277    0.00009072
     atom   96 type  3   force =     0.00024360   -0.00021334   -0.00009073
     atom   97 type  3   force =    -0.00036972   -0.00024964   -0.00055293
     atom   98 type  3   force =     0.00036972   -0.00024940    0.00055288
     atom   99 type  3   force =     0.00036972    0.00024964    0.00055293
     atom  100 type  3   force =    -0.00036972    0.00024940   -0.00055288
     atom  101 type  3   force =     0.00027800   -0.00005891    0.00051717
     atom  102 type  3   force =    -0.00027812   -0.00005925   -0.00051711
     atom  103 type  3   force =    -0.00027800    0.00005891   -0.00051717
     atom  104 type  3   force =     0.00027812    0.00005925    0.00051711
     atom  105 type  3   force =    -0.00015112   -0.00004289   -0.00009122
     atom  106 type  3   force =     0.00015071   -0.00004420    0.00009164
     atom  107 type  3   force =     0.00015112    0.00004289    0.00009122
     atom  108 type  3   force =    -0.00015071    0.00004420   -0.00009164
     atom  109 type  3   force =    -0.00007945    0.00057135   -0.00040997
     atom  110 type  3   force =     0.00007945    0.00057170    0.00040997
     atom  111 type  3   force =     0.00007945   -0.00057135    0.00040997
     atom  112 type  3   force =    -0.00007945   -0.00057170   -0.00040997
     atom  113 type  3   force =     0.00032349   -0.00027448    0.00059914
     atom  114 type  3   force =    -0.00032353   -0.00027465   -0.00059908
     atom  115 type  3   force =    -0.00032349    0.00027448   -0.00059914
     atom  116 type  3   force =     0.00032353    0.00027465    0.00059908
     atom  117 type  3   force =    -0.00052755    0.00038366   -0.00024532
     atom  118 type  3   force =     0.00052753    0.00038391    0.00024516
     atom  119 type  3   force =     0.00052755   -0.00038366    0.00024532
     atom  120 type  3   force =    -0.00052753   -0.00038391   -0.00024516
     atom  121 type  3   force =     0.00041770   -0.00001445   -0.00056469
     atom  122 type  3   force =    -0.00041768   -0.00001474    0.00056483
     atom  123 type  3   force =    -0.00041770    0.00001445    0.00056469
     atom  124 type  3   force =     0.00041768    0.00001474   -0.00056483
     atom  125 type  3   force =     0.00012117    0.00003998   -0.00009604
     atom  126 type  3   force =    -0.00012112    0.00003981    0.00009586
     atom  127 type  3   force =    -0.00012117   -0.00003998    0.00009604
     atom  128 type  3   force =     0.00012112   -0.00003981   -0.00009586

     Total force =     0.016603     Total SCF correction =     0.000050


     Computing stress (Cartesian axis) and pressure

          total   stress  (Ry/bohr**3)                   (kbar)     P=   -6.04
  -0.00003722  -0.00000000  -0.00000145         -5.48     -0.00     -0.21
  -0.00000000  -0.00002967  -0.00000000         -0.00     -4.37     -0.00
  -0.00000145  -0.00000000  -0.00005638         -0.21     -0.00     -8.29


     Writing output data file scf.save
 
     init_run     :     94.90s CPU     97.00s WALL (       1 calls)
     electrons    :   3899.96s CPU   4039.11s WALL (       1 calls)
     forces       :     47.33s CPU     47.65s WALL (       1 calls)
     stress       :    222.37s CPU    222.92s WALL (       1 calls)

     Called by init_run:
     wfcinit      :     81.53s CPU     83.47s WALL (       1 calls)
     potinit      :      4.78s CPU      4.80s WALL (       1 calls)

     Called by electrons:
     c_bands      :   3536.74s CPU   3655.05s WALL (      19 calls)
     sum_band     :    340.83s CPU    359.32s WALL (      19 calls)
     v_of_rho     :      3.08s CPU      3.38s WALL (      20 calls)
     newd         :      8.55s CPU     10.46s WALL (      20 calls)
     PAW_pot      :      9.93s CPU      9.94s WALL (      20 calls)
     mix_rho      :      0.78s CPU      0.84s WALL (      19 calls)

     Called by c_bands:
     init_us_2    :     14.99s CPU     15.05s WALL (     328 calls)
     cegterg      :   3469.80s CPU   3587.80s WALL (     152 calls)

     Called by sum_band:
     sum_band:bec :      0.17s CPU      0.17s WALL (     152 calls)
     addusdens    :      8.64s CPU     10.52s WALL (      19 calls)

     Called by *egterg:
     h_psi        :   1744.43s CPU   1837.46s WALL (     709 calls)
     s_psi        :    445.21s CPU    445.25s WALL (     709 calls)
     g_psi        :      7.02s CPU      7.02s WALL (     549 calls)
     cdiaghg      :    197.10s CPU    197.18s WALL (     701 calls)

     Called by h_psi:
     h_psi:pot    :   1734.26s CPU   1827.10s WALL (     709 calls)
     h_psi:calbec :    452.83s CPU    453.47s WALL (     709 calls)
     vloc_psi     :    835.95s CPU    928.15s WALL (     709 calls)
     add_vuspsi   :    445.48s CPU    445.48s WALL (     709 calls)

     General routines
     calbec       :    662.88s CPU    663.83s WALL (     901 calls)
     fft          :      4.59s CPU      5.12s WALL (     284 calls)
     fftw         :    902.50s CPU   1010.60s WALL (  249674 calls)
 
     Parallel routines
     fft_scatter  :    211.67s CPU    318.71s WALL (  249958 calls)
 
     PWSCF        :     1h11m CPU        1h14m WALL

 
   This run was terminated on:   2:33:47  21Dec2017            

=------------------------------------------------------------------------------=
   JOB DONE.
=------------------------------------------------------------------------------=
