
     Program PWSCF v.6.1 (svn rev. 13369) starts on 20Dec2017 at  6:10:46 

     This program is part of the open-source Quantum ESPRESSO suite
     for quantum simulation of materials; please cite
         "P. Giannozzi et al., J. Phys.:Condens. Matter 21 395502 (2009);
          URL http://www.quantum-espresso.org", 
     in publications or presentations arising from this work. More details at
     http://www.quantum-espresso.org/quote

     Parallel version (MPI), running on     8 processors
     R & G space division:  proc/nbgrp/npool/nimage =       8
     Waiting for input...
     Reading input from standard input

     Current dimensions of program PWSCF are:
     Max number of different atomic species (ntypx) = 10
     Max number of k-points (npk) =  40000
     Max angular momentum in pseudopotentials (lmaxx) =  3
               file C.pbe-n-kjpaw_psl.0.1.UPF: wavefunction(s)  2P renormalized
               file N.pbe-n-kjpaw_psl.0.1.UPF: wavefunction(s)  2P renormalized
               file H.pbe-kjpaw_psl.0.1.UPF: wavefunction(s)  1S renormalized
               file O.pbe-n-kjpaw_psl.0.1.UPF: wavefunction(s)  2P renormalized

     -------------------------------------
     Parameters for Dispersion Correction:
     -------------------------------------
       atom      VdW radius       C_6     

        C          2.744         60.710
        N          2.640         42.670
        H          1.892          4.857
        O          2.536         24.284

     Subspace diagonalization in iterative solution of the eigenvalue problem:
     a serial algorithm will be used

 
     Parallelization info
     --------------------
     sticks:   dense  smooth     PW     G-vecs:    dense   smooth      PW
     Min        1997    1997    520               124549   124549   16565
     Max        1999    1999    521               124550   124550   16566
     Sum       15987   15987   4163               996395   996395  132525
 


     bravais-lattice index     =            0
     lattice parameter (alat)  =      37.1426  a.u.
     unit-cell volume          =    7376.0133 (a.u.)^3
     number of atoms/cell      =          120
     number of atomic types    =            4
     number of electrons       =       336.00
     number of Kohn-Sham states=          201
     kinetic-energy cutoff     =     100.0000  Ry
     charge density cutoff     =     400.0000  Ry
     convergence threshold     =      1.0E-08
     mixing beta               =       0.5000
     number of iterations used =            8  plain     mixing
     Exchange-correlation      =  SLA  PW   PBX  PBC ( 1  4  3  4 0 0)

     celldm(1)=  37.142567  celldm(2)=   0.000000  celldm(3)=   0.000000
     celldm(4)=   0.000000  celldm(5)=   0.000000  celldm(6)=   0.000000

     crystal axes: (cart. coord. in units of alat)
               a(1) = (   1.000000   0.000000   0.000000 )  
               a(2) = (   0.000000   0.364131   0.000000 )  
               a(3) = (   0.000000   0.000000   0.395319 )  

     reciprocal axes: (cart. coord. in units 2 pi/alat)
               b(1) = (  1.000000  0.000000  0.000000 )  
               b(2) = (  0.000000  2.746262  0.000000 )  
               b(3) = (  0.000000  0.000000  2.529601 )  


     PseudoPot. # 1 for  C read from file:
     /scratch/ahofstet/pseudo/C.pbe-n-kjpaw_psl.0.1.UPF
     MD5 check sum: 430fe95172b1e11ef3f8ed03bac87931
     Pseudo is Projector augmented-wave + core cor, Zval =  4.0
     Generated using "atomic" code by A. Dal Corso  v.5.0.99 svn rev. 10869
     Shape of augmentation charge: BESSEL
     Using radial grid of 1073 points,  4 beta functions with: 
                l(1) =   0
                l(2) =   0
                l(3) =   1
                l(4) =   1
     Q(r) pseudized with 0 coefficients 


     PseudoPot. # 2 for  N read from file:
     /scratch/ahofstet/pseudo/N.pbe-n-kjpaw_psl.0.1.UPF
     MD5 check sum: f73187c8b701007e77325f868c9291d7
     Pseudo is Projector augmented-wave + core cor, Zval =  5.0
     Generated using "atomic" code by A. Dal Corso  v.5.0.99 svn rev. 10869
     Shape of augmentation charge: PSQ
     Using radial grid of 1085 points,  4 beta functions with: 
                l(1) =   0
                l(2) =   0
                l(3) =   1
                l(4) =   1
     Q(r) pseudized with 0 coefficients 


     PseudoPot. # 3 for  H read from file:
     /scratch/ahofstet/pseudo/H.pbe-kjpaw_psl.0.1.UPF
     MD5 check sum: 94e484f906d9e9773b2f6e52662335b2
     Pseudo is Projector augmented-wave, Zval =  1.0
     Generated using "atomic" code by A. Dal Corso  v.5.0.99 svn rev. 10869
     Shape of augmentation charge: PSQ
     Using radial grid of  929 points,  2 beta functions with: 
                l(1) =   0
                l(2) =   0
     Q(r) pseudized with 0 coefficients 


     PseudoPot. # 4 for  O read from file:
     /scratch/ahofstet/pseudo/O.pbe-n-kjpaw_psl.0.1.UPF
     MD5 check sum: 3f94a2996a3169367d6eb21d9b593f20
     Pseudo is Projector augmented-wave + core cor, Zval =  6.0
     Generated using "atomic" code by A. Dal Corso  v.5.0.99 svn rev. 10869
     Shape of augmentation charge: BESSEL
     Using radial grid of 1095 points,  4 beta functions with: 
                l(1) =   0
                l(2) =   0
                l(3) =   1
                l(4) =   1
     Q(r) pseudized with 0 coefficients 


     atomic species   valence    mass     pseudopotential
        C              4.00    12.01070      C( 1.00)
        N              5.00    14.00670      N( 1.00)
        H              1.00     1.00794      H( 1.00)
        O              6.00    15.99940      O( 1.00)

      4 Sym. Ops., with inversion, found ( 2 have fractional translation)



   Cartesian axes

     site n.     atom                  positions (alat units)
         1           C   tau(   1) = (   0.1074823   0.3328102   0.3136430  )
         2           C   tau(   2) = (   0.3925074   0.0313199   0.1159221  )
         3           C   tau(   3) = (   0.6074823   0.2133867   0.0816763  )
         4           C   tau(   4) = (   0.8925074   0.1507458   0.2793971  )
         5           C   tau(   5) = (   0.8925177   0.0313211   0.0816763  )
         6           C   tau(   6) = (   0.6074926   0.3328114   0.2793971  )
         7           C   tau(   7) = (   0.3925177   0.1507446   0.3136430  )
         8           C   tau(   8) = (   0.1074926   0.2133855   0.1159221  )
         9           C   tau(   9) = (   0.0662076   0.0181559   0.2816498  )
        10           C   tau(  10) = (   0.4337900   0.3459550   0.0839564  )
        11           C   tau(  11) = (   0.5662076   0.1639098   0.1136694  )
        12           C   tau(  12) = (   0.9337900   0.2002419   0.3113629  )
        13           C   tau(  13) = (   0.9337924   0.3459754   0.1136694  )
        14           C   tau(  14) = (   0.5662100   0.0181763   0.3113629  )
        15           C   tau(  15) = (   0.4337924   0.2002215   0.2816498  )
        16           C   tau(  16) = (   0.0662100   0.1638894   0.0839564  )
        17           C   tau(  17) = (   0.0932369   0.0573991   0.2287610  )
        18           C   tau(  18) = (   0.4067673   0.3066913   0.0310732  )
        19           C   tau(  19) = (   0.5932369   0.1246665   0.1665583  )
        20           C   tau(  20) = (   0.9067673   0.2395056   0.3642460  )
        21           C   tau(  21) = (   0.9067631   0.3067321   0.1665583  )
        22           C   tau(  22) = (   0.5932327   0.0574399   0.3642460  )
        23           C   tau(  23) = (   0.4067631   0.2394648   0.2287610  )
        24           C   tau(  24) = (   0.0932327   0.1246257   0.0310732  )
        25           C   tau(  25) = (   0.1602399   0.0477529   0.2069956  )
        26           C   tau(  26) = (   0.3397695   0.3163446   0.0092776  )
        27           C   tau(  27) = (   0.6602399   0.1343127   0.1883237  )
        28           C   tau(  28) = (   0.8397695   0.2298523   0.3860416  )
        29           C   tau(  29) = (   0.8397601   0.3163783   0.1883237  )
        30           C   tau(  30) = (   0.6602305   0.0477867   0.3860416  )
        31           C   tau(  31) = (   0.3397601   0.2298186   0.2069956  )
        32           C   tau(  32) = (   0.1602305   0.1342790   0.0092776  )
        33           C   tau(  33) = (   0.2012316  -0.0008591   0.2387215  )
        34           C   tau(  34) = (   0.2987855   0.3649917   0.0409696  )
        35           C   tau(  35) = (   0.7012316   0.1829247   0.1565978  )
        36           C   tau(  36) = (   0.7987855   0.1812052   0.3543497  )
        37           C   tau(  37) = (   0.7987684   0.3649903   0.1565978  )
        38           C   tau(  38) = (   0.7012145  -0.0008604   0.3543497  )
        39           C   tau(  39) = (   0.2987684   0.1812066   0.2387215  )
        40           C   tau(  40) = (   0.2012145   0.1829261   0.0409696  )
        41           C   tau(  41) = (   0.1747032   0.3240201   0.2919532  )
        42           C   tau(  42) = (   0.3253095   0.0401149   0.0941919  )
        43           C   tau(  43) = (   0.6747032   0.2221768   0.1033661  )
        44           C   tau(  44) = (   0.8253095   0.1419507   0.3011273  )
        45           C   tau(  45) = (   0.8252968   0.0401112   0.1033661  )
        46           C   tau(  46) = (   0.6746905   0.3240163   0.3011273  )
        47           C   tau(  47) = (   0.3252968   0.1419545   0.2919532  )
        48           C   tau(  48) = (   0.1746905   0.2221806   0.0941919  )
        49           O   tau(  49) = (   0.0009767   0.0233800   0.3039057  )
        50           O   tau(  50) = (   0.4990121   0.3407200   0.1062323  )
        51           O   tau(  51) = (   0.5009767   0.1586856   0.0914135  )
        52           O   tau(  52) = (   0.9990121   0.2054769   0.2890870  )
        53           O   tau(  53) = (   0.9990233   0.3407512   0.0914135  )
        54           O   tau(  54) = (   0.5009879   0.0234112   0.2890870  )
        55           O   tau(  55) = (   0.4990233   0.2054457   0.3039057  )
        56           O   tau(  56) = (   0.0009879   0.1586544   0.1062323  )
        57           N   tau(  57) = (   0.0773120   0.2894482   0.3624516  )
        58           N   tau(  58) = (   0.4226756   0.0746768   0.1647436  )
        59           N   tau(  59) = (   0.5773120   0.2567487   0.0328676  )
        60           N   tau(  60) = (   0.9226756   0.1073889   0.2305756  )
        61           N   tau(  61) = (   0.9226880   0.0746830   0.0328676  )
        62           N   tau(  62) = (   0.5773244   0.2894545   0.2305756  )
        63           N   tau(  63) = (   0.4226880   0.1073826   0.3624516  )
        64           N   tau(  64) = (   0.0773244   0.2567424   0.1647436  )
        65           H   tau(  65) = (   0.2057503   0.2847742   0.3160151  )
        66           H   tau(  66) = (   0.2942547   0.0793828   0.1182344  )
        67           H   tau(  67) = (   0.7057503   0.2614227   0.0793041  )
        68           H   tau(  68) = (   0.7942547   0.1026829   0.2770849  )
        69           H   tau(  69) = (   0.7942497   0.0793571   0.0793041  )
        70           H   tau(  70) = (   0.7057453   0.2847485   0.2770849  )
        71           H   tau(  71) = (   0.2942497   0.1027086   0.3160151  )
        72           H   tau(  72) = (   0.2057453   0.2614484   0.1182344  )
        73           H   tau(  73) = (   0.0459369   0.3143724   0.0005972  )
        74           H   tau(  74) = (   0.4540363   0.0497594   0.1982105  )
        75           H   tau(  75) = (   0.5459369   0.2318245   0.3947221  )
        76           H   tau(  76) = (   0.9540363   0.1323062   0.1971088  )
        77           H   tau(  77) = (   0.9540631   0.0497589   0.3947221  )
        78           H   tau(  78) = (   0.5459637   0.3143719   0.1971088  )
        79           H   tau(  79) = (   0.4540631   0.1323067   0.0005972  )
        80           H   tau(  80) = (   0.0459637   0.2318250   0.1982105  )
        81           H   tau(  81) = (   0.9730545   0.0551718   0.2729997  )
        82           H   tau(  82) = (   0.5269433   0.3089437   0.0753166  )
        83           H   tau(  83) = (   0.4730545   0.1268938   0.1223195  )
        84           H   tau(  84) = (   0.0269433   0.2372532   0.3200027  )
        85           H   tau(  85) = (   0.0269455   0.3089594   0.1223195  )
        86           H   tau(  86) = (   0.4730567   0.0551876   0.3200027  )
        87           H   tau(  87) = (   0.5269455   0.2372375   0.2729997  )
        88           H   tau(  88) = (   0.9730567   0.1268781   0.0753166  )
        89           H   tau(  89) = (   0.1124042   0.2616415   0.3889655  )
        90           H   tau(  90) = (   0.3875711   0.1024931   0.1912503  )
        91           H   tau(  91) = (   0.6124042   0.2845554   0.0063537  )
        92           H   tau(  92) = (   0.8875711   0.0795725   0.2040689  )
        93           H   tau(  93) = (   0.8875958   0.1024897   0.0063537  )
        94           H   tau(  94) = (   0.6124289   0.2616382   0.2040689  )
        95           H   tau(  95) = (   0.3875958   0.0795759   0.3889655  )
        96           H   tau(  96) = (   0.1124289   0.2845587   0.1912503  )
        97           H   tau(  97) = (   0.0608404   0.0944276   0.2033712  )
        98           H   tau(  98) = (   0.4391526   0.2696324   0.0057274  )
        99           H   tau(  99) = (   0.5608404   0.0876380   0.1919481  )
       100           H   tau( 100) = (   0.9391526   0.2765645   0.3895918  )
       101           H   tau( 101) = (   0.9391596   0.2697037   0.1919481  )
       102           H   tau( 102) = (   0.5608474   0.0944989   0.3895918  )
       103           H   tau( 103) = (   0.4391596   0.2764932   0.2033712  )
       104           H   tau( 104) = (   0.0608474   0.0875668   0.0057274  )
       105           H   tau( 105) = (   0.2533710   0.3549431   0.2218048  )
       106           H   tau( 106) = (   0.2466490   0.0091872   0.0240395  )
       107           H   tau( 107) = (   0.7533710   0.1912537   0.1735145  )
       108           H   tau( 108) = (   0.7466490   0.1728784   0.3712797  )
       109           H   tau( 109) = (   0.7466290   0.0091881   0.1735145  )
       110           H   tau( 110) = (   0.7533510   0.3549440   0.3712797  )
       111           H   tau( 111) = (   0.2466290   0.1728775   0.2218048  )
       112           H   tau( 112) = (   0.2533510   0.1912529   0.0240395  )
       113           H   tau( 113) = (   0.1792660   0.0776765   0.1643094  )
       114           H   tau( 114) = (   0.3207423   0.2863891   0.3619396  )
       115           H   tau( 115) = (   0.6792660   0.1043891   0.2310098  )
       116           H   tau( 116) = (   0.8207423   0.2598078   0.0333797  )
       117           H   tau( 117) = (   0.8207340   0.2864547   0.2310098  )
       118           H   tau( 118) = (   0.6792577   0.0777422   0.0333797  )
       119           H   tau( 119) = (   0.3207340   0.2597422   0.1643094  )
       120           H   tau( 120) = (   0.1792577   0.1043235   0.3619396  )

     number of k points=     5
                       cart. coord. in units 2pi/alat
        k(    1) = (   0.0000000   0.0000000   0.0000000), wk =   0.2222222
        k(    2) = (   0.0000000   0.0000000   0.8432003), wk =   0.4444444
        k(    3) = (   0.0000000   0.9154208   0.0000000), wk =   0.4444444
        k(    4) = (   0.0000000   0.9154208   0.8432003), wk =   0.4444444
        k(    5) = (   0.0000000   0.9154208  -0.8432003), wk =   0.4444444

     Dense  grid:   996395 G-vectors     FFT dimensions: ( 240,  90,  96)

     Estimated max dynamical RAM per process >     911.77MB

     Estimated total allocated dynamical RAM >    7294.18MB

     Check: negative/imaginary core charge=   -0.000002    0.000000

     Initial potential from superposition of free atoms

     starting charge  335.99740, renormalised to  336.00000
     Starting wfc are  312 randomized atomic wfcs
     Checking if some PAW data can be deallocated... 

     total cpu time spent up to now is       44.9 secs

     per-process dynamical memory:   571.4 Mb

     Self-consistent Calculation

     iteration #  1     ecut=   100.00 Ry     beta=0.50
     Davidson diagonalization with overlap
     ethr =  1.00E-02,  avg # of iterations =  4.0

     total cpu time spent up to now is      167.8 secs

     total energy              =   -1508.88253909 Ry
     Harris-Foulkes estimate   =   -1515.61993994 Ry
     estimated scf accuracy    <      12.65378254 Ry

     iteration #  2     ecut=   100.00 Ry     beta=0.50
     Davidson diagonalization with overlap
     ethr =  3.77E-03,  avg # of iterations =  2.2

     total cpu time spent up to now is      232.6 secs

     total energy              =   -1509.32213074 Ry
     Harris-Foulkes estimate   =   -1510.12829252 Ry
     estimated scf accuracy    <       1.58470087 Ry

     iteration #  3     ecut=   100.00 Ry     beta=0.50
     Davidson diagonalization with overlap
     ethr =  4.72E-04,  avg # of iterations =  5.0

     total cpu time spent up to now is      381.8 secs

     total energy              =   -1510.88717022 Ry
     Harris-Foulkes estimate   =   -1511.60823111 Ry
     estimated scf accuracy    <       1.91855970 Ry

     iteration #  4     ecut=   100.00 Ry     beta=0.50
     Davidson diagonalization with overlap
     ethr =  4.72E-04,  avg # of iterations =  2.0

     total cpu time spent up to now is      445.0 secs

     total energy              =   -1510.51635122 Ry
     Harris-Foulkes estimate   =   -1510.96252736 Ry
     estimated scf accuracy    <       0.66769063 Ry

     iteration #  5     ecut=   100.00 Ry     beta=0.50
     Davidson diagonalization with overlap
     ethr =  1.99E-04,  avg # of iterations =  6.4

     total cpu time spent up to now is      583.6 secs

     total energy              =   -1511.09455245 Ry
     Harris-Foulkes estimate   =   -1511.24015810 Ry
     estimated scf accuracy    <       0.84770723 Ry

     iteration #  6     ecut=   100.00 Ry     beta=0.50
     Davidson diagonalization with overlap
     ethr =  1.99E-04,  avg # of iterations =  1.0

     total cpu time spent up to now is      644.3 secs

     total energy              =   -1510.85679454 Ry
     Harris-Foulkes estimate   =   -1511.11917532 Ry
     estimated scf accuracy    <       0.51842070 Ry

     iteration #  7     ecut=   100.00 Ry     beta=0.50
     Davidson diagonalization with overlap
     ethr =  1.54E-04,  avg # of iterations =  3.6

     total cpu time spent up to now is      730.3 secs

     total energy              =   -1510.97365624 Ry
     Harris-Foulkes estimate   =   -1510.97585019 Ry
     estimated scf accuracy    <       0.00546349 Ry

     iteration #  8     ecut=   100.00 Ry     beta=0.50
     Davidson diagonalization with overlap
     c_bands:  1 eigenvalues not converged
     c_bands:  1 eigenvalues not converged
     ethr =  1.63E-06,  avg # of iterations = 16.2

     total cpu time spent up to now is      907.0 secs

     total energy              =   -1510.98166527 Ry
     Harris-Foulkes estimate   =   -1510.98334467 Ry
     estimated scf accuracy    <       0.00324257 Ry

     iteration #  9     ecut=   100.00 Ry     beta=0.50
     Davidson diagonalization with overlap
     c_bands:  1 eigenvalues not converged
     c_bands:  1 eigenvalues not converged
     ethr =  9.65E-07,  avg # of iterations = 16.2

     total cpu time spent up to now is      995.4 secs

     total energy              =   -1510.98207075 Ry
     Harris-Foulkes estimate   =   -1510.98214977 Ry
     estimated scf accuracy    <       0.00021471 Ry

     iteration # 10     ecut=   100.00 Ry     beta=0.50
     Davidson diagonalization with overlap
     ethr =  6.39E-08,  avg # of iterations =  4.0

     total cpu time spent up to now is     1136.2 secs

     total energy              =   -1510.98232277 Ry
     Harris-Foulkes estimate   =   -1510.98264416 Ry
     estimated scf accuracy    <       0.00058954 Ry

     iteration # 11     ecut=   100.00 Ry     beta=0.50
     Davidson diagonalization with overlap
     ethr =  6.39E-08,  avg # of iterations =  4.0

     total cpu time spent up to now is     1243.6 secs

     total energy              =   -1510.98245231 Ry
     Harris-Foulkes estimate   =   -1510.98245680 Ry
     estimated scf accuracy    <       0.00001221 Ry

     iteration # 12     ecut=   100.00 Ry     beta=0.50
     Davidson diagonalization with overlap
     ethr =  3.63E-09,  avg # of iterations =  3.0

     total cpu time spent up to now is     1323.0 secs

     total energy              =   -1510.98245363 Ry
     Harris-Foulkes estimate   =   -1510.98245519 Ry
     estimated scf accuracy    <       0.00000296 Ry

     iteration # 13     ecut=   100.00 Ry     beta=0.50
     Davidson diagonalization with overlap
     ethr =  8.81E-10,  avg # of iterations =  5.0

     total cpu time spent up to now is     1426.4 secs

     total energy              =   -1510.98245477 Ry
     Harris-Foulkes estimate   =   -1510.98245505 Ry
     estimated scf accuracy    <       0.00000056 Ry

     iteration # 14     ecut=   100.00 Ry     beta=0.50
     Davidson diagonalization with overlap
     ethr =  1.66E-10,  avg # of iterations =  3.4

     total cpu time spent up to now is     1496.7 secs

     total energy              =   -1510.98245484 Ry
     Harris-Foulkes estimate   =   -1510.98245487 Ry
     estimated scf accuracy    <       0.00000008 Ry

     iteration # 15     ecut=   100.00 Ry     beta=0.50
     Davidson diagonalization with overlap
     ethr =  2.48E-11,  avg # of iterations =  4.0

     total cpu time spent up to now is     1619.8 secs

     total energy              =   -1510.98245491 Ry
     Harris-Foulkes estimate   =   -1510.98245492 Ry
     estimated scf accuracy    <       0.00000003 Ry

     iteration # 16     ecut=   100.00 Ry     beta=0.50
     Davidson diagonalization with overlap
     ethr =  9.91E-12,  avg # of iterations =  1.0

     total cpu time spent up to now is     1680.5 secs

     total energy              =   -1510.98245490 Ry
     Harris-Foulkes estimate   =   -1510.98245491 Ry
     estimated scf accuracy    <       0.00000001 Ry

     iteration # 17     ecut=   100.00 Ry     beta=0.50
     Davidson diagonalization with overlap
     ethr =  4.07E-12,  avg # of iterations =  3.0

     total cpu time spent up to now is     1782.1 secs

     End of self-consistent calculation

          k = 0.0000 0.0000 0.0000 (124631 PWs)   bands (ev):

   -19.8282 -19.8281 -19.7594 -19.7594 -19.6773 -19.6773 -19.6568 -19.6568
   -16.8005 -16.7976 -16.6121 -16.6120 -16.5394 -16.5362 -16.4531 -16.4530
   -14.5126 -14.5067 -14.5048 -14.4987 -14.4555 -14.4059 -14.3935 -14.3411
   -11.9594 -11.9182 -11.8986 -11.8898 -11.8833 -11.8593 -11.8543 -11.8516
   -11.6572 -11.6405 -11.6393 -11.6263 -11.6152 -11.6049 -11.4261 -11.4082
    -9.2462  -9.1872  -9.1468  -9.1422  -9.0870  -9.0853  -9.0760  -9.0054
    -8.4320  -8.4190  -8.4175  -8.3340  -8.2774  -8.2662  -8.2498  -8.1705
    -7.1321  -7.1180  -7.0245  -6.9331  -6.9289  -6.9143  -6.8697  -6.8151
    -6.5161  -6.4910  -6.4391  -6.4304  -6.2515  -6.2437  -6.2246  -6.2141
    -6.1128  -6.1003  -6.0935  -6.0858  -6.0745  -6.0317  -6.0303  -6.0076
    -5.0210  -4.8801  -4.8778  -4.8616  -4.7873  -4.7618  -4.7589  -4.6522
    -4.4034  -4.3995  -4.3988  -4.3748  -4.3320  -4.2873  -4.2330  -4.2282
    -4.2021  -4.1878  -4.1445  -4.0632  -4.0545  -4.0516  -4.0410  -3.8828
    -3.8308  -3.8279  -3.7398  -3.7301  -3.6649  -3.6475  -3.5354  -3.4886
    -3.2261  -3.2229  -3.1963  -3.0893  -3.0524  -2.9983  -2.8364  -2.7874
    -2.6512  -2.5364  -2.5016  -2.3691  -2.3603  -2.3430  -2.2913  -2.2875
    -2.2268  -2.1627  -2.1620  -2.1056  -2.0732  -2.0095  -1.9473  -1.8658
    -1.8279  -1.7942  -1.7745  -1.6851  -1.6205  -1.5988  -1.5144  -1.4290
    -1.4157  -1.3249  -1.2304  -1.1301  -1.1275  -1.1171  -0.9235  -0.9098
     0.3789   0.3927   0.4189   0.4760   0.4897   0.4966   0.5865   0.6164
     1.1086   1.1977   1.2154   1.2200   1.2317   1.2549   1.3421   1.4326
     5.0607   5.1071   5.1130   5.1668   5.3034   5.4142   5.4231   5.4395
     5.4590   5.4855   5.4991   5.6151   5.6770   5.7003   5.7668   5.7692
     6.2592   6.3510   6.5200   7.0487   7.1692   7.3791   7.4609   7.5316
     7.7764   8.0058   8.0366   8.1327   8.2348   8.2659   8.3089   8.4944
     8.5367

          k = 0.0000 0.0000 0.8432 (124549 PWs)   bands (ev):

   -19.8115 -19.8115 -19.7773 -19.7773 -19.6717 -19.6717 -19.6616 -19.6616
   -16.7564 -16.7542 -16.6623 -16.6617 -16.5189 -16.5165 -16.4758 -16.4751
   -14.5032 -14.4854 -14.4709 -14.4653 -14.4468 -14.4322 -14.4129 -14.3721
   -11.9335 -11.9046 -11.8932 -11.8873 -11.8842 -11.8692 -11.8682 -11.8677
   -11.6778 -11.6627 -11.6397 -11.6259 -11.5845 -11.5379 -11.4833 -11.4482
    -9.2028  -9.1817  -9.1625  -9.1229  -9.1060  -9.0854  -9.0802  -9.0367
    -8.4240  -8.4153  -8.3960  -8.3521  -8.2701  -8.2583  -8.2369  -8.1905
    -7.0875  -7.0698  -7.0320  -6.9481  -6.9410  -6.9092  -6.8948  -6.8643
    -6.4682  -6.4434  -6.4227  -6.4175  -6.2084  -6.1970  -6.1946  -6.1893
    -6.1610  -6.1230  -6.1069  -6.0942  -6.0302  -6.0286  -6.0212  -6.0111
    -5.0448  -4.9558  -4.8981  -4.8939  -4.8331  -4.7652  -4.7363  -4.6821
    -4.5087  -4.4838  -4.4751  -4.4237  -4.3847  -4.3658  -4.3456  -4.3090
    -4.2257  -4.2188  -4.2014  -4.1212  -4.0512  -4.0183  -3.9647  -3.9430
    -3.7691  -3.7101  -3.6987  -3.6424  -3.5964  -3.5851  -3.4715  -3.4574
    -3.1679  -3.1624  -3.1338  -3.0816  -3.0609  -2.9457  -2.9456  -2.8384
    -2.5014  -2.4563  -2.4552  -2.3440  -2.3242  -2.3050  -2.2567  -2.2381
    -2.1423  -2.1375  -2.1005  -2.0646  -1.9951  -1.9865  -1.9471  -1.8773
    -1.8350  -1.8297  -1.8046  -1.7844  -1.7440  -1.6599  -1.6327  -1.5308
    -1.3010  -1.2377  -1.2204  -1.1610  -1.1444  -1.1366  -1.0346  -1.0251
     0.3871   0.4075   0.4412   0.4736   0.4760   0.5147   0.5226   0.5738
     1.1589   1.1822   1.1881   1.1916   1.3179   1.3388   1.3469   1.4093
     5.1206   5.1765   5.1767   5.2374   5.2467   5.3353   5.3370   5.4432
     5.4671   5.4727   5.5593   5.5679   5.5828   5.6015   5.6890   5.7135
     6.3537   6.6313   6.7166   6.8817   7.1385   7.2846   7.2864   7.5021
     7.6190   8.0057   8.0819   8.1996   8.2379   8.2991   8.3410   8.3815
     8.4040

          k = 0.0000 0.9154 0.0000 (124653 PWs)   bands (ev):

   -19.7930 -19.7930 -19.7337 -19.7337 -19.7184 -19.7184 -19.6817 -19.6817
   -16.7347 -16.7328 -16.6038 -16.6028 -16.5712 -16.5709 -16.4917 -16.4913
   -14.5479 -14.5356 -14.5320 -14.5292 -14.3860 -14.3692 -14.3677 -14.3405
   -11.9373 -11.9118 -11.8966 -11.8966 -11.8839 -11.8675 -11.8625 -11.8610
   -11.6406 -11.6336 -11.6235 -11.6201 -11.5995 -11.5805 -11.4820 -11.4763
    -9.2128  -9.1620  -9.1430  -9.1361  -9.1177  -9.0803  -9.0718  -9.0426
    -8.4155  -8.4145  -8.4000  -8.3521  -8.2508  -8.2491  -8.2447  -8.1987
    -7.1006  -7.0771  -7.0267  -6.9734  -6.8934  -6.8884  -6.8770  -6.8239
    -6.4746  -6.4371  -6.4360  -6.4124  -6.2537  -6.2366  -6.2197  -6.2172
    -6.1539  -6.1472  -6.1469  -6.1463  -6.0025  -6.0015  -6.0012  -5.9766
    -4.9729  -4.9702  -4.9154  -4.8528  -4.8151  -4.7838  -4.7552  -4.6796
    -4.4857  -4.4823  -4.4655  -4.4174  -4.4019  -4.3956  -4.3527  -4.3494
    -4.1438  -4.1223  -4.1200  -4.1142  -4.0203  -4.0167  -3.9828  -3.9466
    -3.7679  -3.7174  -3.7006  -3.6826  -3.5631  -3.5448  -3.5334  -3.5322
    -3.1841  -3.1743  -3.1694  -3.1317  -3.0622  -3.0233  -2.9519  -2.8948
    -2.4866  -2.4805  -2.4094  -2.3966  -2.3257  -2.3239  -2.2634  -2.2082
    -2.1694  -2.1238  -2.0809  -2.0460  -2.0422  -2.0315  -2.0296  -1.9449
    -1.8925  -1.8012  -1.7773  -1.7097  -1.6942  -1.6123  -1.5861  -1.5623
    -1.2351  -1.2164  -1.2003  -1.1893  -1.0541  -1.0283  -1.0240  -0.9844
     0.2841   0.2922   0.3001   0.3269   0.5780   0.6216   0.6265   0.6438
     1.1603   1.2330   1.2343   1.2625   1.2640   1.2667   1.3172   1.3734
     5.0722   5.0890   5.1283   5.1358   5.1663   5.3030   5.3193   5.3469
     5.5035   5.5262   5.5655   5.5674   5.6298   5.6604   5.6736   5.7507
     6.6071   6.6842   6.6968   6.9112   7.0414   7.1327   7.5876   7.6062
     7.7655   7.8039   8.0687   8.0857   8.1689   8.2837   8.4284   8.5273
     8.5303

          k = 0.0000 0.9154 0.8432 (124514 PWs)   bands (ev):

   -19.7789 -19.7789 -19.7499 -19.7499 -19.7080 -19.7080 -19.6903 -19.6903
   -16.6972 -16.6959 -16.6188 -16.6186 -16.5729 -16.5720 -16.5204 -16.5198
   -14.5086 -14.4966 -14.4887 -14.4781 -14.4242 -14.4098 -14.4039 -14.3828
   -11.9203 -11.9011 -11.8952 -11.8935 -11.8830 -11.8761 -11.8746 -11.8721
   -11.6406 -11.6332 -11.6203 -11.6167 -11.5739 -11.5503 -11.5139 -11.4971
    -9.1768  -9.1538  -9.1327  -9.1192  -9.1176  -9.1100  -9.0882  -9.0676
    -8.4189  -8.4095  -8.4078  -8.3761  -8.2539  -8.2465  -8.2389  -8.2117
    -7.0782  -7.0709  -7.0279  -7.0007  -6.8996  -6.8745  -6.8589  -6.8330
    -6.4757  -6.4485  -6.4293  -6.4281  -6.2896  -6.2868  -6.2475  -6.2328
    -6.1398  -6.1263  -6.0836  -6.0822  -6.0281  -6.0193  -6.0164  -6.0018
    -4.9422  -4.9143  -4.8810  -4.8452  -4.8380  -4.7981  -4.7841  -4.6925
    -4.4717  -4.4393  -4.4241  -4.3806  -4.3547  -4.3394  -4.2762  -4.2706
    -4.1940  -4.1604  -4.1257  -4.0911  -4.0645  -4.0441  -3.9814  -3.9523
    -3.7528  -3.7477  -3.7258  -3.7023  -3.5807  -3.5744  -3.5521  -3.5466
    -3.2038  -3.1732  -3.1663  -3.1458  -3.0506  -2.9949  -2.9864  -2.9412
    -2.4527  -2.4449  -2.3960  -2.3928  -2.3448  -2.3206  -2.2827  -2.2785
    -2.2300  -2.2238  -2.1523  -2.0932  -2.0777  -2.0513  -2.0180  -1.9592
    -1.7962  -1.7255  -1.7172  -1.6942  -1.6784  -1.6459  -1.5548  -1.5418
    -1.2148  -1.2019  -1.1316  -1.1293  -1.0920  -1.0780  -1.0016  -0.9865
     0.3420   0.3631   0.3789   0.3923   0.5229   0.5381   0.5573   0.5684
     1.1686   1.1921   1.2052   1.2186   1.3032   1.3128   1.3200   1.3531
     5.0648   5.0680   5.1162   5.1666   5.1702   5.1920   5.2693   5.2787
     5.5396   5.5711   5.5955   5.6262   5.6300   5.6557   5.6835   5.7154
     6.6889   6.9042   6.9333   7.0546   7.1300   7.2962   7.4735   7.5216
     7.5813   7.6668   7.7699   7.8149   7.9231   8.1262   8.2031   8.2860
     8.3249

          k = 0.0000 0.9154-0.8432 (124514 PWs)   bands (ev):

   -19.7789 -19.7789 -19.7499 -19.7499 -19.7080 -19.7080 -19.6903 -19.6903
   -16.6972 -16.6959 -16.6188 -16.6186 -16.5729 -16.5721 -16.5203 -16.5198
   -14.5085 -14.4966 -14.4887 -14.4781 -14.4242 -14.4098 -14.4039 -14.3829
   -11.9203 -11.9011 -11.8952 -11.8935 -11.8831 -11.8764 -11.8745 -11.8719
   -11.6406 -11.6333 -11.6202 -11.6167 -11.5737 -11.5501 -11.5141 -11.4973
    -9.1769  -9.1541  -9.1327  -9.1189  -9.1175  -9.1102  -9.0883  -9.0675
    -8.4191  -8.4093  -8.4078  -8.3761  -8.2545  -8.2459  -8.2390  -8.2117
    -7.0779  -7.0709  -7.0284  -7.0008  -6.8995  -6.8748  -6.8587  -6.8326
    -6.4758  -6.4489  -6.4289  -6.4282  -6.2892  -6.2865  -6.2479  -6.2331
    -6.1398  -6.1266  -6.0835  -6.0820  -6.0275  -6.0185  -6.0172  -6.0024
    -4.9424  -4.9145  -4.8807  -4.8450  -4.8382  -4.7981  -4.7838  -4.6927
    -4.4725  -4.4391  -4.4242  -4.3809  -4.3545  -4.3390  -4.2758  -4.2701
    -4.1940  -4.1604  -4.1257  -4.0915  -4.0646  -4.0443  -3.9811  -3.9523
    -3.7530  -3.7475  -3.7253  -3.7025  -3.5808  -3.5747  -3.5524  -3.5467
    -3.2039  -3.1735  -3.1664  -3.1460  -3.0504  -2.9944  -2.9862  -2.9414
    -2.4524  -2.4448  -2.3964  -2.3933  -2.3447  -2.3207  -2.2823  -2.2783
    -2.2293  -2.2234  -2.1525  -2.0933  -2.0782  -2.0513  -2.0180  -1.9594
    -1.7962  -1.7256  -1.7172  -1.6943  -1.6786  -1.6459  -1.5547  -1.5415
    -1.2144  -1.2016  -1.1321  -1.1300  -1.0923  -1.0784  -1.0010  -0.9860
     0.3419   0.3631   0.3791   0.3925   0.5228   0.5379   0.5573   0.5682
     1.1686   1.1921   1.2052   1.2185   1.3030   1.3126   1.3202   1.3533
     5.0651   5.0684   5.1157   5.1672   5.1709   5.1914   5.2687   5.2783
     5.5397   5.5706   5.5956   5.6260   5.6298   5.6562   5.6833   5.7158
     6.6882   6.9033   6.9331   7.0566   7.1298   7.2975   7.4735   7.5203
     7.5808   7.6690   7.7674   7.8146   7.9237   8.1255   8.2034   8.2867
     8.3246

     highest occupied, lowest unoccupied level (ev):     1.4326    5.0607

!    total energy              =   -1510.98245490 Ry
     Harris-Foulkes estimate   =   -1510.98245491 Ry
     estimated scf accuracy    <          2.1E-09 Ry

     total all-electron energy =     -5804.824629 Ry

     The total energy is the sum of the following terms:

     one-electron contribution =    -851.65423190 Ry
     hartree contribution      =     551.65694922 Ry
     xc contribution           =    -341.81160698 Ry
     ewald contribution        =    -407.00348322 Ry
     Dispersion Correction     =      -0.56361335 Ry
     one-center paw contrib.   =    -461.60646867 Ry

     convergence has been achieved in  17 iterations

     Forces acting on atoms (cartesian axes, Ry/au):

     atom    1 type  1   force =     0.00102587    0.00035227   -0.00024933
     atom    2 type  1   force =    -0.00054913   -0.00054991   -0.00019300
     atom    3 type  1   force =     0.00102587   -0.00035227    0.00024933
     atom    4 type  1   force =    -0.00054913    0.00054991    0.00019300
     atom    5 type  1   force =    -0.00102587   -0.00035227    0.00024933
     atom    6 type  1   force =     0.00054913    0.00054991    0.00019300
     atom    7 type  1   force =    -0.00102587    0.00035227   -0.00024933
     atom    8 type  1   force =     0.00054913   -0.00054991   -0.00019300
     atom    9 type  1   force =     0.00147422   -0.00135022   -0.00031716
     atom   10 type  1   force =    -0.00157132    0.00132061   -0.00036928
     atom   11 type  1   force =     0.00147422    0.00135022    0.00031716
     atom   12 type  1   force =    -0.00157132   -0.00132061    0.00036928
     atom   13 type  1   force =    -0.00147422    0.00135022    0.00031716
     atom   14 type  1   force =     0.00157132   -0.00132061    0.00036928
     atom   15 type  1   force =    -0.00147422   -0.00135022   -0.00031716
     atom   16 type  1   force =     0.00157132    0.00132061   -0.00036928
     atom   17 type  1   force =    -0.00100423    0.00028890   -0.00085473
     atom   18 type  1   force =     0.00076988   -0.00011233   -0.00073925
     atom   19 type  1   force =    -0.00100423   -0.00028890    0.00085473
     atom   20 type  1   force =     0.00076988    0.00011233    0.00073925
     atom   21 type  1   force =     0.00100423   -0.00028890    0.00085473
     atom   22 type  1   force =    -0.00076988    0.00011233    0.00073925
     atom   23 type  1   force =     0.00100423    0.00028890   -0.00085473
     atom   24 type  1   force =    -0.00076988   -0.00011233   -0.00073925
     atom   25 type  1   force =    -0.00134864   -0.00039490   -0.00020085
     atom   26 type  1   force =     0.00148992    0.00052421    0.00005326
     atom   27 type  1   force =    -0.00134864    0.00039490    0.00020085
     atom   28 type  1   force =     0.00148992   -0.00052421   -0.00005326
     atom   29 type  1   force =     0.00134864    0.00039490    0.00020085
     atom   30 type  1   force =    -0.00148992   -0.00052421   -0.00005326
     atom   31 type  1   force =     0.00134864   -0.00039490   -0.00020085
     atom   32 type  1   force =    -0.00148992    0.00052421    0.00005326
     atom   33 type  1   force =     0.00157911   -0.00065098   -0.00019329
     atom   34 type  1   force =    -0.00159363    0.00035583   -0.00041323
     atom   35 type  1   force =     0.00157911    0.00065098    0.00019329
     atom   36 type  1   force =    -0.00159363   -0.00035583    0.00041323
     atom   37 type  1   force =    -0.00157911    0.00065098    0.00019329
     atom   38 type  1   force =     0.00159363   -0.00035583    0.00041323
     atom   39 type  1   force =    -0.00157911   -0.00065098   -0.00019329
     atom   40 type  1   force =     0.00159363    0.00035583   -0.00041323
     atom   41 type  1   force =    -0.00017195    0.00150752   -0.00031992
     atom   42 type  1   force =    -0.00020849   -0.00106598    0.00001024
     atom   43 type  1   force =    -0.00017195   -0.00150752    0.00031992
     atom   44 type  1   force =    -0.00020849    0.00106598   -0.00001024
     atom   45 type  1   force =     0.00017195   -0.00150752    0.00031992
     atom   46 type  1   force =     0.00020849    0.00106598   -0.00001024
     atom   47 type  1   force =     0.00017195    0.00150752   -0.00031992
     atom   48 type  1   force =     0.00020849   -0.00106598    0.00001024
     atom   49 type  4   force =    -0.00010706    0.00121335    0.00006749
     atom   50 type  4   force =     0.00007993   -0.00118151    0.00010009
     atom   51 type  4   force =    -0.00010706   -0.00121335   -0.00006749
     atom   52 type  4   force =     0.00007993    0.00118151   -0.00010009
     atom   53 type  4   force =     0.00010706   -0.00121335   -0.00006749
     atom   54 type  4   force =    -0.00007993    0.00118151   -0.00010009
     atom   55 type  4   force =     0.00010706    0.00121335    0.00006749
     atom   56 type  4   force =    -0.00007993   -0.00118151    0.00010009
     atom   57 type  2   force =     0.00144802    0.00043103    0.00132012
     atom   58 type  2   force =    -0.00195784   -0.00009373    0.00122400
     atom   59 type  2   force =     0.00144802   -0.00043103   -0.00132012
     atom   60 type  2   force =    -0.00195784    0.00009373   -0.00122400
     atom   61 type  2   force =    -0.00144802   -0.00043103   -0.00132012
     atom   62 type  2   force =     0.00195784    0.00009373   -0.00122400
     atom   63 type  2   force =    -0.00144802    0.00043103    0.00132012
     atom   64 type  2   force =     0.00195784   -0.00009373    0.00122400
     atom   65 type  3   force =     0.00034728   -0.00042388    0.00085936
     atom   66 type  3   force =    -0.00020889    0.00023852    0.00074500
     atom   67 type  3   force =     0.00034728    0.00042388   -0.00085936
     atom   68 type  3   force =    -0.00020889   -0.00023852   -0.00074500
     atom   69 type  3   force =    -0.00034728    0.00042388   -0.00085936
     atom   70 type  3   force =     0.00020889   -0.00023852   -0.00074500
     atom   71 type  3   force =    -0.00034728   -0.00042388    0.00085936
     atom   72 type  3   force =     0.00020889    0.00023852    0.00074500
     atom   73 type  3   force =    -0.00006873   -0.00017102    0.00041332
     atom   74 type  3   force =     0.00023173   -0.00000516    0.00058513
     atom   75 type  3   force =    -0.00006873    0.00017102   -0.00041332
     atom   76 type  3   force =     0.00023173    0.00000516   -0.00058513
     atom   77 type  3   force =     0.00006873    0.00017102   -0.00041332
     atom   78 type  3   force =    -0.00023173    0.00000516   -0.00058513
     atom   79 type  3   force =     0.00006873   -0.00017102    0.00041332
     atom   80 type  3   force =    -0.00023173   -0.00000516    0.00058513
     atom   81 type  3   force =     0.00027216    0.00000269   -0.00003249
     atom   82 type  3   force =    -0.00028040   -0.00000830   -0.00003349
     atom   83 type  3   force =     0.00027216   -0.00000269    0.00003249
     atom   84 type  3   force =    -0.00028040    0.00000830    0.00003349
     atom   85 type  3   force =    -0.00027216   -0.00000269    0.00003249
     atom   86 type  3   force =     0.00028040    0.00000830    0.00003349
     atom   87 type  3   force =    -0.00027216    0.00000269   -0.00003249
     atom   88 type  3   force =     0.00028040   -0.00000830   -0.00003349
     atom   89 type  3   force =    -0.00042080    0.00022526   -0.00082626
     atom   90 type  3   force =     0.00062265   -0.00036533   -0.00093645
     atom   91 type  3   force =    -0.00042080   -0.00022526    0.00082626
     atom   92 type  3   force =     0.00062265    0.00036533    0.00093645
     atom   93 type  3   force =     0.00042080   -0.00022526    0.00082626
     atom   94 type  3   force =    -0.00062265    0.00036533    0.00093645
     atom   95 type  3   force =     0.00042080    0.00022526   -0.00082626
     atom   96 type  3   force =    -0.00062265   -0.00036533   -0.00093645
     atom   97 type  3   force =     0.00021578    0.00043567    0.00059933
     atom   98 type  3   force =    -0.00012054   -0.00051347    0.00052894
     atom   99 type  3   force =     0.00021578   -0.00043567   -0.00059933
     atom  100 type  3   force =    -0.00012054    0.00051347   -0.00052894
     atom  101 type  3   force =    -0.00021578   -0.00043567   -0.00059933
     atom  102 type  3   force =     0.00012054    0.00051347   -0.00052894
     atom  103 type  3   force =    -0.00021578    0.00043567    0.00059933
     atom  104 type  3   force =     0.00012054   -0.00051347    0.00052894
     atom  105 type  3   force =     0.00083087   -0.00004656    0.00019824
     atom  106 type  3   force =    -0.00079620    0.00007333    0.00020547
     atom  107 type  3   force =     0.00083087    0.00004656   -0.00019824
     atom  108 type  3   force =    -0.00079620   -0.00007333   -0.00020547
     atom  109 type  3   force =    -0.00083087    0.00004656   -0.00019824
     atom  110 type  3   force =     0.00079620   -0.00007333   -0.00020547
     atom  111 type  3   force =    -0.00083087   -0.00004656    0.00019824
     atom  112 type  3   force =     0.00079620    0.00007333    0.00020547
     atom  113 type  3   force =     0.00061948    0.00075046    0.00052415
     atom  114 type  3   force =    -0.00064518   -0.00077880    0.00041292
     atom  115 type  3   force =     0.00061948   -0.00075046   -0.00052415
     atom  116 type  3   force =    -0.00064518    0.00077880   -0.00041292
     atom  117 type  3   force =    -0.00061948   -0.00075046   -0.00052415
     atom  118 type  3   force =     0.00064518    0.00077880   -0.00041292
     atom  119 type  3   force =    -0.00061948    0.00075046    0.00052415
     atom  120 type  3   force =     0.00064518   -0.00077880    0.00041292

     Total force =     0.014028     Total SCF correction =     0.000102


     Computing stress (Cartesian axis) and pressure

          total   stress  (Ry/bohr**3)                   (kbar)     P=   -3.72
  -0.00001915   0.00000000   0.00000000         -2.82      0.00      0.00
   0.00000000  -0.00002404  -0.00000037          0.00     -3.54     -0.05
   0.00000000  -0.00000037  -0.00003267          0.00     -0.05     -4.81


     Writing output data file scf.save
 
     init_run     :     42.57s CPU     44.20s WALL (       1 calls)
     electrons    :   1676.09s CPU   1737.36s WALL (       1 calls)
     forces       :     21.18s CPU     21.44s WALL (       1 calls)
     stress       :     93.46s CPU     93.76s WALL (       1 calls)

     Called by init_run:
     wfcinit      :     35.50s CPU     36.97s WALL (       1 calls)
     potinit      :      2.47s CPU      2.51s WALL (       1 calls)

     Called by electrons:
     c_bands      :   1524.31s CPU   1575.80s WALL (      17 calls)
     sum_band     :    134.24s CPU    142.18s WALL (      17 calls)
     v_of_rho     :      2.54s CPU      2.79s WALL (      18 calls)
     newd         :      6.01s CPU      7.56s WALL (      18 calls)
     PAW_pot      :      8.27s CPU      8.27s WALL (      18 calls)
     mix_rho      :      0.64s CPU      0.71s WALL (      17 calls)

     Called by c_bands:
     init_us_2    :      6.93s CPU      6.98s WALL (     185 calls)
     cegterg      :   1497.18s CPU   1548.53s WALL (      85 calls)

     Called by sum_band:
     sum_band:bec :      0.07s CPU      0.07s WALL (      85 calls)
     addusdens    :      6.01s CPU      7.41s WALL (      17 calls)

     Called by *egterg:
     h_psi        :    768.84s CPU    810.35s WALL (     510 calls)
     s_psi        :    191.98s CPU    192.06s WALL (     510 calls)
     g_psi        :      3.64s CPU      3.64s WALL (     420 calls)
     cdiaghg      :     76.99s CPU     77.01s WALL (     505 calls)

     Called by h_psi:
     h_psi:pot    :    763.77s CPU    805.13s WALL (     510 calls)
     h_psi:calbec :    187.07s CPU    187.46s WALL (     510 calls)
     vloc_psi     :    385.04s CPU    425.90s WALL (     510 calls)
     add_vuspsi   :    191.66s CPU    191.77s WALL (     510 calls)

     General routines
     calbec       :    261.56s CPU    262.05s WALL (     620 calls)
     fft          :      1.58s CPU      1.99s WALL (     258 calls)
     fftw         :    403.30s CPU    450.17s WALL (  124733 calls)
 
     Parallel routines
     fft_scatter  :     83.64s CPU    128.61s WALL (  124991 calls)
 
     PWSCF        : 30m42.27s CPU    32m22.14s WALL

 
   This run was terminated on:   6:43: 8  20Dec2017            

=------------------------------------------------------------------------------=
   JOB DONE.
=------------------------------------------------------------------------------=
