
     Program PWSCF v.6.1 (svn rev. 13369) starts on 21Dec2017 at  0: 7: 2 

     This program is part of the open-source Quantum ESPRESSO suite
     for quantum simulation of materials; please cite
         "P. Giannozzi et al., J. Phys.:Condens. Matter 21 395502 (2009);
          URL http://www.quantum-espresso.org", 
     in publications or presentations arising from this work. More details at
     http://www.quantum-espresso.org/quote

     Parallel version (MPI), running on     8 processors
     R & G space division:  proc/nbgrp/npool/nimage =       8
     Waiting for input...
     Reading input from standard input

     Current dimensions of program PWSCF are:
     Max number of different atomic species (ntypx) = 10
     Max number of k-points (npk) =  40000
     Max angular momentum in pseudopotentials (lmaxx) =  3
               file C.pbe-n-kjpaw_psl.0.1.UPF: wavefunction(s)  2P renormalized
               file N.pbe-n-kjpaw_psl.0.1.UPF: wavefunction(s)  2P renormalized
               file H.pbe-kjpaw_psl.0.1.UPF: wavefunction(s)  1S renormalized
               file O.pbe-n-kjpaw_psl.0.1.UPF: wavefunction(s)  2P renormalized

     -------------------------------------
     Parameters for Dispersion Correction:
     -------------------------------------
       atom      VdW radius       C_6     

        C          2.744         60.710
        N          2.640         42.670
        H          1.892          4.857
        O          2.536         24.284

     Subspace diagonalization in iterative solution of the eigenvalue problem:
     a serial algorithm will be used

 
     Parallelization info
     --------------------
     sticks:   dense  smooth     PW     G-vecs:    dense   smooth      PW
     Min         914     914    242                53986    53986    7340
     Max         915     915    244                53988    53988    7341
     Sum        7317    7317   1945               431893   431893   58721
 


     bravais-lattice index     =            0
     lattice parameter (alat)  =      11.8788  a.u.
     unit-cell volume          =    3196.1400 (a.u.)^3
     number of atoms/cell      =           48
     number of atomic types    =            4
     number of electrons       =       144.00
     number of Kohn-Sham states=           86
     kinetic-energy cutoff     =     100.0000  Ry
     charge density cutoff     =     400.0000  Ry
     convergence threshold     =      1.0E-08
     mixing beta               =       0.5000
     number of iterations used =            8  plain     mixing
     Exchange-correlation      =  SLA  PW   PBX  PBC ( 1  4  3  4 0 0)

     celldm(1)=  11.878818  celldm(2)=   0.000000  celldm(3)=   0.000000
     celldm(4)=   0.000000  celldm(5)=   0.000000  celldm(6)=   0.000000

     crystal axes: (cart. coord. in units of alat)
               a(1) = (   1.000000   0.000000   0.000000 )  
               a(2) = (   0.000000   1.628699   0.000000 )  
               a(3) = (  -0.062996   0.000000   1.170753 )  

     reciprocal axes: (cart. coord. in units 2 pi/alat)
               b(1) = (  1.000000  0.000000  0.053808 )  
               b(2) = (  0.000000  0.613987  0.000000 )  
               b(3) = (  0.000000  0.000000  0.854151 )  


     PseudoPot. # 1 for  C read from file:
     /scratch/ahofstet/pseudo/C.pbe-n-kjpaw_psl.0.1.UPF
     MD5 check sum: 430fe95172b1e11ef3f8ed03bac87931
     Pseudo is Projector augmented-wave + core cor, Zval =  4.0
     Generated using "atomic" code by A. Dal Corso  v.5.0.99 svn rev. 10869
     Shape of augmentation charge: BESSEL
     Using radial grid of 1073 points,  4 beta functions with: 
                l(1) =   0
                l(2) =   0
                l(3) =   1
                l(4) =   1
     Q(r) pseudized with 0 coefficients 


     PseudoPot. # 2 for  N read from file:
     /scratch/ahofstet/pseudo/N.pbe-n-kjpaw_psl.0.1.UPF
     MD5 check sum: f73187c8b701007e77325f868c9291d7
     Pseudo is Projector augmented-wave + core cor, Zval =  5.0
     Generated using "atomic" code by A. Dal Corso  v.5.0.99 svn rev. 10869
     Shape of augmentation charge: PSQ
     Using radial grid of 1085 points,  4 beta functions with: 
                l(1) =   0
                l(2) =   0
                l(3) =   1
                l(4) =   1
     Q(r) pseudized with 0 coefficients 


     PseudoPot. # 3 for  H read from file:
     /scratch/ahofstet/pseudo/H.pbe-kjpaw_psl.0.1.UPF
     MD5 check sum: 94e484f906d9e9773b2f6e52662335b2
     Pseudo is Projector augmented-wave, Zval =  1.0
     Generated using "atomic" code by A. Dal Corso  v.5.0.99 svn rev. 10869
     Shape of augmentation charge: PSQ
     Using radial grid of  929 points,  2 beta functions with: 
                l(1) =   0
                l(2) =   0
     Q(r) pseudized with 0 coefficients 


     PseudoPot. # 4 for  O read from file:
     /scratch/ahofstet/pseudo/O.pbe-n-kjpaw_psl.0.1.UPF
     MD5 check sum: 3f94a2996a3169367d6eb21d9b593f20
     Pseudo is Projector augmented-wave + core cor, Zval =  6.0
     Generated using "atomic" code by A. Dal Corso  v.5.0.99 svn rev. 10869
     Shape of augmentation charge: BESSEL
     Using radial grid of 1095 points,  4 beta functions with: 
                l(1) =   0
                l(2) =   0
                l(3) =   1
                l(4) =   1
     Q(r) pseudized with 0 coefficients 


     atomic species   valence    mass     pseudopotential
        C              4.00    12.01070      C( 1.00)
        N              5.00    14.00670      N( 1.00)
        H              1.00     1.00794      H( 1.00)
        O              6.00    15.99940      O( 1.00)

      2 Sym. Ops., with inversion, found
          (note:  2 additional sym.ops. were found but ignored
           their fractional translations are incommensurate with FFT grid)


   Cartesian axes

     site n.     atom                  positions (alat units)
         1           C   tau(   1) = (   0.2247052   1.4394427   0.4366025  )
         2           C   tau(   2) = (   0.7437968   0.6250933   0.1487741  )
         3           C   tau(   3) = (   0.7122989   0.1892560   0.7341506  )
         4           C   tau(   4) = (   0.1932073   1.0036054   1.0219790  )
         5           C   tau(   5) = (   0.3865785   1.3077538   0.3466884  )
         6           C   tau(   6) = (   0.5819236   0.4934044   0.2386881  )
         7           C   tau(   7) = (   0.5504256   0.3209449   0.8240647  )
         8           C   tau(   8) = (   0.3550806   1.1352943   0.9320649  )
         9           C   tau(   9) = (   0.1912502   1.0093960   0.4198967  )
        10           C   tau(  10) = (   0.7772519   0.1950467   0.1654798  )
        11           C   tau(  11) = (   0.7457540   0.6193026   0.7508564  )
        12           C   tau(  12) = (   0.1597522   1.4336520   1.0052733  )
        13           C   tau(  13) = (   0.0342886   1.1357960   0.5105627  )
        14           C   tau(  14) = (   0.9342134   0.3214467   0.0748139  )
        15           C   tau(  15) = (   0.9027155   0.4929027   0.6601904  )
        16           C   tau(  16) = (   0.0027907   1.3072520   1.0959392  )
        17           H   tau(  17) = (   0.5302117   1.3789821   0.2799996  )
        18           H   tau(  18) = (   0.4382904   0.5646328   0.3053770  )
        19           H   tau(  19) = (   0.4067925   0.2497166   0.8907535  )
        20           H   tau(  20) = (   0.4987138   1.0640659   0.8653761  )
        21           H   tau(  21) = (   0.1738354   0.8373292   0.4072833  )
        22           H   tau(  22) = (   0.7946667   0.0229799   0.1780932  )
        23           H   tau(  23) = (   0.7631688   0.7913695   0.7634698  )
        24           H   tau(  24) = (   0.1423374   1.6057188   0.9926599  )
        25           H   tau(  25) = (   0.8919125   1.0641447   0.5796037  )
        26           H   tau(  26) = (   0.0765896   0.2497954   0.0057729  )
        27           H   tau(  27) = (   0.0450917   0.5645540   0.5911494  )
        28           H   tau(  28) = (   0.8604145   1.3789033   1.1649802  )
        29           H   tau(  29) = (   0.1205039   0.1120518   0.5100124  )
        30           H   tau(  30) = (   0.8479982   0.9264011   0.0753641  )
        31           H   tau(  31) = (   0.8165002   1.5166469   0.6607407  )
        32           H   tau(  32) = (   0.0890060   0.7022975   1.0953889  )
        33           H   tau(  33) = (   0.3724517   0.1012594   0.3803716  )
        34           H   tau(  34) = (   0.5960503   0.9156088   0.2050050  )
        35           H   tau(  35) = (   0.5645524   1.5274393   0.7903815  )
        36           H   tau(  36) = (   0.3409538   0.7130899   0.9657481  )
        37           N   tau(  37) = (   0.0476752   1.3482738   0.5187464  )
        38           N   tau(  38) = (   0.9208269   0.5339245   0.0666302  )
        39           N   tau(  39) = (   0.8893289   0.2804249   0.6520067  )
        40           N   tau(  40) = (   0.0161773   1.0947742   1.1041229  )
        41           N   tau(  41) = (   0.3689350   1.0975907   0.3386927  )
        42           N   tau(  42) = (   0.5995671   0.2832414   0.2466839  )
        43           N   tau(  43) = (   0.5680691   0.5311079   0.8320604  )
        44           N   tau(  44) = (   0.3374371   1.3454573   0.9240692  )
        45           N   tau(  45) = (   0.2415006   0.0242941   0.4420227  )
        46           N   tau(  46) = (   0.7270015   0.8386434   0.1433539  )
        47           N   tau(  47) = (   0.6955036   1.6044046   0.7287304  )
        48           N   tau(  48) = (   0.2100027   0.7900553   1.0273992  )

     number of k points=    10
                       cart. coord. in units 2pi/alat
        k(    1) = (   0.0000000   0.0000000   0.0000000), wk =   0.1111111
        k(    2) = (   0.0000000   0.0000000   0.2847170), wk =   0.2222222
        k(    3) = (   0.0000000  -0.3069936   0.0000000), wk =   0.1111111
        k(    4) = (   0.0000000  -0.3069936   0.2847170), wk =   0.2222222
        k(    5) = (   0.3333333   0.0000000   0.0179360), wk =   0.2222222
        k(    6) = (   0.3333333   0.0000000   0.3026530), wk =   0.2222222
        k(    7) = (   0.3333333   0.0000000  -0.2667810), wk =   0.2222222
        k(    8) = (   0.3333333  -0.3069936   0.0179360), wk =   0.2222222
        k(    9) = (   0.3333333  -0.3069936   0.3026530), wk =   0.2222222
        k(   10) = (   0.3333333  -0.3069936  -0.2667810), wk =   0.2222222

     Dense  grid:   431893 G-vectors     FFT dimensions: (  75, 125,  90)

     Estimated max dynamical RAM per process >     231.15MB

     Estimated total allocated dynamical RAM >    1849.20MB

     Check: negative/imaginary core charge=   -0.000002    0.000000

     Initial potential from superposition of free atoms

     starting charge  143.99906, renormalised to  144.00000
     Starting wfc are  132 randomized atomic wfcs
     Checking if some PAW data can be deallocated... 

     total cpu time spent up to now is       14.7 secs

     per-process dynamical memory:   232.1 Mb

     Self-consistent Calculation

     iteration #  1     ecut=   100.00 Ry     beta=0.50
     Davidson diagonalization with overlap
     ethr =  1.00E-02,  avg # of iterations =  4.0

     total cpu time spent up to now is       39.5 secs

     total energy              =    -656.65636979 Ry
     Harris-Foulkes estimate   =    -659.19920199 Ry
     estimated scf accuracy    <       4.88941273 Ry

     iteration #  2     ecut=   100.00 Ry     beta=0.50
     Davidson diagonalization with overlap
     ethr =  3.40E-03,  avg # of iterations =  2.5

     total cpu time spent up to now is       54.6 secs

     total energy              =    -657.06732002 Ry
     Harris-Foulkes estimate   =    -657.29327831 Ry
     estimated scf accuracy    <       0.50108080 Ry

     iteration #  3     ecut=   100.00 Ry     beta=0.50
     Davidson diagonalization with overlap
     ethr =  3.48E-04,  avg # of iterations =  5.6

     total cpu time spent up to now is       82.6 secs

     total energy              =    -657.42057147 Ry
     Harris-Foulkes estimate   =    -657.54629138 Ry
     estimated scf accuracy    <       0.31912013 Ry

     iteration #  4     ecut=   100.00 Ry     beta=0.50
     Davidson diagonalization with overlap
     ethr =  2.22E-04,  avg # of iterations =  2.9

     total cpu time spent up to now is       97.1 secs

     total energy              =    -657.38869114 Ry
     Harris-Foulkes estimate   =    -657.43959744 Ry
     estimated scf accuracy    <       0.08518871 Ry

     iteration #  5     ecut=   100.00 Ry     beta=0.50
     Davidson diagonalization with overlap
     ethr =  5.92E-05,  avg # of iterations =  5.3

     total cpu time spent up to now is      123.8 secs

     total energy              =    -657.44583672 Ry
     Harris-Foulkes estimate   =    -657.48975905 Ry
     estimated scf accuracy    <       0.12212027 Ry

     iteration #  6     ecut=   100.00 Ry     beta=0.50
     Davidson diagonalization with overlap
     ethr =  5.92E-05,  avg # of iterations =  1.0

     total cpu time spent up to now is      137.0 secs

     total energy              =    -657.42959383 Ry
     Harris-Foulkes estimate   =    -657.45039122 Ry
     estimated scf accuracy    <       0.04322453 Ry

     iteration #  7     ecut=   100.00 Ry     beta=0.50
     Davidson diagonalization with overlap
     ethr =  3.00E-05,  avg # of iterations =  5.9

     total cpu time spent up to now is      160.0 secs

     total energy              =    -657.44904779 Ry
     Harris-Foulkes estimate   =    -657.45003285 Ry
     estimated scf accuracy    <       0.00272289 Ry

     iteration #  8     ecut=   100.00 Ry     beta=0.50
     Davidson diagonalization with overlap
     ethr =  1.89E-06,  avg # of iterations =  6.0

     total cpu time spent up to now is      177.3 secs

     total energy              =    -657.44905359 Ry
     Harris-Foulkes estimate   =    -657.44939710 Ry
     estimated scf accuracy    <       0.00062910 Ry

     iteration #  9     ecut=   100.00 Ry     beta=0.50
     Davidson diagonalization with overlap
     ethr =  4.37E-07,  avg # of iterations =  4.2

     total cpu time spent up to now is      199.4 secs

     total energy              =    -657.44946273 Ry
     Harris-Foulkes estimate   =    -657.44951774 Ry
     estimated scf accuracy    <       0.00018806 Ry

     iteration # 10     ecut=   100.00 Ry     beta=0.50
     Davidson diagonalization with overlap
     ethr =  1.31E-07,  avg # of iterations =  1.0

     total cpu time spent up to now is      212.6 secs

     total energy              =    -657.44943031 Ry
     Harris-Foulkes estimate   =    -657.44947149 Ry
     estimated scf accuracy    <       0.00008467 Ry

     iteration # 11     ecut=   100.00 Ry     beta=0.50
     Davidson diagonalization with overlap
     ethr =  5.88E-08,  avg # of iterations =  3.0

     total cpu time spent up to now is      231.7 secs

     total energy              =    -657.44946053 Ry
     Harris-Foulkes estimate   =    -657.44946112 Ry
     estimated scf accuracy    <       0.00000354 Ry

     iteration # 12     ecut=   100.00 Ry     beta=0.50
     Davidson diagonalization with overlap
     ethr =  2.46E-09,  avg # of iterations =  4.0

     total cpu time spent up to now is      253.3 secs

     total energy              =    -657.44946070 Ry
     Harris-Foulkes estimate   =    -657.44946212 Ry
     estimated scf accuracy    <       0.00000326 Ry

     iteration # 13     ecut=   100.00 Ry     beta=0.50
     Davidson diagonalization with overlap
     ethr =  2.27E-09,  avg # of iterations =  1.0

     total cpu time spent up to now is      266.6 secs

     total energy              =    -657.44946061 Ry
     Harris-Foulkes estimate   =    -657.44946094 Ry
     estimated scf accuracy    <       0.00000055 Ry

     iteration # 14     ecut=   100.00 Ry     beta=0.50
     Davidson diagonalization with overlap
     ethr =  3.80E-10,  avg # of iterations =  4.0

     total cpu time spent up to now is      291.9 secs

     total energy              =    -657.44946112 Ry
     Harris-Foulkes estimate   =    -657.44946129 Ry
     estimated scf accuracy    <       0.00000051 Ry

     iteration # 15     ecut=   100.00 Ry     beta=0.50
     Davidson diagonalization with overlap
     ethr =  3.56E-10,  avg # of iterations =  1.0

     total cpu time spent up to now is      305.3 secs

     total energy              =    -657.44946106 Ry
     Harris-Foulkes estimate   =    -657.44946114 Ry
     estimated scf accuracy    <       0.00000017 Ry

     iteration # 16     ecut=   100.00 Ry     beta=0.50
     Davidson diagonalization with overlap
     ethr =  1.21E-10,  avg # of iterations =  3.6

     total cpu time spent up to now is      326.2 secs

     End of self-consistent calculation

          k = 0.0000 0.0000 0.0000 ( 53923 PWs)   bands (ev):

   -18.3741 -18.2730 -18.1753 -18.1560 -16.7768 -16.6124 -16.5882 -16.5708
   -15.6032 -15.5309 -15.5265 -15.4794 -12.3188 -12.3179 -12.2714 -12.2294
   -10.0418 -10.0147 -10.0118  -9.8371  -9.5968  -9.5500  -9.5085  -9.3594
    -7.2200  -7.1026  -7.0742  -7.0112  -6.7769  -6.6419  -6.5438  -6.4081
    -6.1332  -6.1315  -5.7611  -5.6811  -5.0932  -4.9749  -4.9459  -4.9308
    -4.8474  -4.8228  -4.4850  -4.4758  -4.3155  -4.2882  -3.7533  -3.6866
    -3.5120  -3.2816  -3.1857  -3.0410  -2.5119  -2.4797  -1.9475  -1.9359
    -1.4956  -1.3999  -1.3911  -1.1842  -1.0339  -1.0247  -0.9515  -0.8335
     0.1447   0.2734   0.5936   0.7262   0.8356   1.1533   1.2038   1.4370
     3.8748   3.9088   4.0359   4.3627   5.1577   5.4227   5.5335   5.5432
     5.9618   6.6156   6.7600   7.2721   7.8259   8.3607

          k = 0.0000 0.0000 0.2847 ( 53987 PWs)   bands (ev):

   -18.3315 -18.2402 -18.2365 -18.1775 -16.7442 -16.6709 -16.5645 -16.5645
   -15.5903 -15.5609 -15.5012 -15.4844 -12.3126 -12.2930 -12.2867 -12.2512
   -10.0429 -10.0415  -9.9434  -9.8684  -9.5926  -9.5762  -9.4561  -9.3884
    -7.2147  -7.1773  -6.9802  -6.9748  -6.8185  -6.7545  -6.4521  -6.4014
    -6.1409  -6.1403  -5.7376  -5.6986  -5.0660  -4.9884  -4.9092  -4.8569
    -4.7393  -4.6144  -4.5181  -4.4454  -4.3074  -4.2957  -4.1171  -3.9940
    -3.4885  -3.3629  -3.1248  -3.0619  -2.3930  -2.3021  -2.1098  -2.0293
    -1.4451  -1.3998  -1.2491  -1.2239  -1.0293  -1.0091  -0.9067  -0.8569
     0.1702   0.2379   0.6434   0.7085   0.8716   1.0213   1.2257   1.3312
     4.0058   4.0091   4.1690   4.3165   5.2570   5.3879   5.4495   5.4724
     6.2436   6.6664   6.8924   7.2208   7.9829   8.0673

          k = 0.0000-0.3070 0.0000 ( 53990 PWs)   bands (ev):

   -18.3305 -18.3305 -18.1596 -18.1596 -16.6982 -16.6982 -16.5779 -16.5779
   -15.5645 -15.5645 -15.5026 -15.5026 -12.3364 -12.3364 -12.2311 -12.2311
   -10.0207 -10.0207  -9.9288  -9.9288  -9.5936  -9.5936  -9.4335  -9.4335
    -7.0793  -7.0793  -6.9785  -6.9785  -6.8661  -6.8661  -6.4730  -6.4730
    -6.0229  -6.0229  -5.8279  -5.8279  -5.0379  -5.0379  -4.9341  -4.9341
    -4.8236  -4.8236  -4.4773  -4.4773  -4.3244  -4.3244  -3.6959  -3.6959
    -3.4090  -3.4090  -3.1034  -3.1034  -2.5004  -2.5004  -1.9181  -1.9181
    -1.4610  -1.4610  -1.1891  -1.1891  -1.1207  -1.1207  -0.9190  -0.9190
     0.2744   0.2744   0.5947   0.5947   1.0568   1.0568   1.2454   1.2454
     3.9451   3.9451   4.2006   4.2006   5.2022   5.2022   5.5550   5.5550
     6.1788   6.1788   7.1809   7.1809   8.1384   8.1384

          k = 0.0000-0.3070 0.2847 ( 53952 PWs)   bands (ev):

   -18.2969 -18.2969 -18.1972 -18.1972 -16.6837 -16.6837 -16.5902 -16.5902
   -15.5626 -15.5626 -15.5028 -15.5028 -12.3293 -12.3293 -12.2409 -12.2409
   -10.0050 -10.0050  -9.9407  -9.9407  -9.5897  -9.5897  -9.4358  -9.4358
    -7.0653  -7.0653  -7.0174  -7.0174  -6.8404  -6.8404  -6.4802  -6.4802
    -6.0151  -6.0151  -5.8386  -5.8386  -4.9956  -4.9956  -4.9093  -4.9093
    -4.6542  -4.6542  -4.4825  -4.4825  -4.3275  -4.3275  -4.0534  -4.0534
    -3.3923  -3.3923  -3.1113  -3.1113  -2.3496  -2.3496  -2.0545  -2.0545
    -1.4047  -1.4047  -1.2112  -1.2112  -1.0290  -1.0290  -0.9352  -0.9352
     0.2929   0.2929   0.5826   0.5826   1.0646   1.0646   1.1494   1.1494
     4.0868   4.0868   4.2246   4.2246   5.2378   5.2378   5.4651   5.4651
     6.4202   6.4202   7.1366   7.1366   8.1152   8.1152

          k = 0.3333 0.0000 0.0179 ( 53945 PWs)   bands (ev):

   -18.3461 -18.2942 -18.1885 -18.1386 -16.7302 -16.6643 -16.6219 -16.5388
   -15.6458 -15.5845 -15.5056 -15.4202 -12.3276 -12.3233 -12.3149 -12.1895
   -10.0815 -10.0173  -9.9254  -9.9143  -9.6286  -9.5317  -9.4149  -9.3523
    -7.1780  -7.1359  -6.9778  -6.9437  -6.8211  -6.7380  -6.4452  -6.4382
    -6.1832  -6.0744  -5.7480  -5.7327  -5.1095  -5.0032  -4.9847  -4.8624
    -4.8265  -4.8080  -4.6735  -4.4614  -4.3184  -4.2999  -3.7491  -3.6693
    -3.4930  -3.3659  -3.1096  -3.0693  -2.6218  -2.3764  -1.9226  -1.8989
    -1.4481  -1.3304  -1.2436  -1.1728  -1.1182  -1.0339  -0.9820  -0.8523
     0.0866   0.2457   0.6062   0.6402   0.8379   1.1807   1.1862   1.3860
     3.9529   4.0464   4.0568   4.3458   5.0601   5.2107   5.3511   5.5540
     6.3661   6.8636   6.8845   7.2425   7.8772   8.1455

          k = 0.3333 0.0000 0.3027 ( 53978 PWs)   bands (ev):

   -18.3163 -18.2495 -18.2134 -18.1954 -16.7320 -16.6508 -16.5888 -16.5795
   -15.6284 -15.6190 -15.4548 -15.4506 -12.3418 -12.3325 -12.2717 -12.2145
   -10.0484 -10.0394  -9.9551  -9.8822  -9.5956  -9.5883  -9.3956  -9.3501
    -7.1829  -7.1346  -6.9832  -6.9673  -6.8011  -6.7047  -6.4988  -6.4223
    -6.1422  -6.1092  -5.7650  -5.7168  -5.0783  -5.0063  -4.8945  -4.8520
    -4.7358  -4.6476  -4.5823  -4.5065  -4.3139  -4.2903  -4.0751  -4.0295
    -3.4699  -3.3615  -3.1274  -3.0710  -2.4965  -2.2108  -2.0875  -2.0021
    -1.3911  -1.2867  -1.2629  -1.1367  -1.0698  -1.0362  -0.9219  -0.8424
     0.1103   0.1809   0.5950   0.6883   0.8660   1.0647   1.2107   1.2748
     4.0508   4.1710   4.2369   4.3006   5.1368   5.1802   5.3095   5.4788
     6.4707   6.9584   6.9692   7.0569   7.9491   8.1881

          k = 0.3333 0.0000-0.2668 ( 54037 PWs)   bands (ev):

   -18.2966 -18.2685 -18.2391 -18.1704 -16.6983 -16.6798 -16.6342 -16.5387
   -15.6496 -15.5780 -15.5036 -15.4217 -12.3409 -12.3328 -12.2709 -12.2163
   -10.0771  -9.9857  -9.9713  -9.8913  -9.6318  -9.5106  -9.4559  -9.3316
    -7.1921  -7.0669  -7.0401  -6.9759  -6.8333  -6.6432  -6.5289  -6.4247
    -6.1601  -6.0862  -5.7693  -5.7028  -5.1278  -4.9609  -4.9294  -4.8101
    -4.7047  -4.7021  -4.5896  -4.4183  -4.3203  -4.3096  -4.1406  -3.9902
    -3.5298  -3.2768  -3.1732  -3.0487  -2.4457  -2.2416  -2.1502  -1.9795
    -1.3672  -1.3461  -1.2445  -1.1414  -1.0801  -0.9942  -0.9739  -0.7981
     0.0423   0.2687   0.5681   0.6951   0.8954   1.0258   1.1896   1.3101
     4.0759   4.1310   4.1561   4.3792   5.1454   5.2608   5.3313   5.4202
     6.5892   6.6766   6.9409   7.1365   7.9682   8.1893

          k = 0.3333-0.3070 0.0179 ( 53972 PWs)   bands (ev):

   -18.3227 -18.3227 -18.1614 -18.1614 -16.6897 -16.6897 -16.5909 -16.5909
   -15.6092 -15.6092 -15.4652 -15.4652 -12.3273 -12.3273 -12.2536 -12.2536
   -10.0106 -10.0106  -9.9335  -9.9335  -9.5952  -9.5952  -9.4020  -9.4020
    -7.0589  -7.0589  -7.0234  -7.0234  -6.8015  -6.8015  -6.4733  -6.4733
    -5.9998  -5.9998  -5.8485  -5.8485  -5.0524  -5.0524  -4.9286  -4.9286
    -4.8315  -4.8315  -4.5192  -4.5192  -4.3615  -4.3615  -3.7078  -3.7078
    -3.3965  -3.3965  -3.0994  -3.0994  -2.5030  -2.5030  -1.9103  -1.9103
    -1.3887  -1.3887  -1.1657  -1.1657  -1.0861  -1.0861  -0.9494  -0.9494
     0.2297   0.2297   0.5426   0.5426   1.0080   1.0080   1.2955   1.2955
     3.9999   3.9999   4.2155   4.2155   5.0867   5.0867   5.4650   5.4650
     6.5464   6.5464   7.1639   7.1640   8.0336   8.0336

          k = 0.3333-0.3070 0.3027 ( 53972 PWs)   bands (ev):

   -18.2882 -18.2882 -18.1995 -18.1995 -16.6781 -16.6781 -16.6007 -16.6006
   -15.6079 -15.6079 -15.4647 -15.4647 -12.3189 -12.3189 -12.2649 -12.2649
    -9.9988  -9.9988  -9.9411  -9.9411  -9.5897  -9.5896  -9.4066  -9.4066
    -7.0660  -7.0660  -7.0087  -7.0087  -6.8212  -6.8212  -6.4666  -6.4666
    -5.9886  -5.9886  -5.8580  -5.8580  -5.0072  -5.0072  -4.9347  -4.9347
    -4.6462  -4.6462  -4.5123  -4.5123  -4.3780  -4.3780  -4.0532  -4.0532
    -3.3842  -3.3842  -3.1006  -3.1006  -2.3481  -2.3481  -2.0546  -2.0546
    -1.3270  -1.3270  -1.2067  -1.2067  -1.0015  -1.0015  -0.9462  -0.9462
     0.2440   0.2440   0.5308   0.5308   1.0145   1.0145   1.2048   1.2048
     4.1518   4.1518   4.2462   4.2462   5.1075   5.1075   5.4034   5.4034
     6.6665   6.6665   7.1300   7.1300   8.0250   8.0250

          k = 0.3333-0.3070-0.2668 ( 53966 PWs)   bands (ev):

   -18.2870 -18.2870 -18.2009 -18.2009 -16.6753 -16.6753 -16.6033 -16.6033
   -15.6079 -15.6079 -15.4647 -15.4647 -12.3181 -12.3181 -12.2656 -12.2656
    -9.9949  -9.9949  -9.9449  -9.9449  -9.5920  -9.5920  -9.4046  -9.4046
    -7.0728  -7.0728  -7.0094  -7.0094  -6.8039  -6.8039  -6.4781  -6.4781
    -6.0023  -6.0023  -5.8434  -5.8433  -5.0440  -5.0440  -4.8889  -4.8889
    -4.6525  -4.6525  -4.5262  -4.5262  -4.3492  -4.3492  -4.0612  -4.0612
    -3.3867  -3.3867  -3.1028  -3.1028  -2.3563  -2.3563  -2.0457  -2.0457
    -1.3380  -1.3380  -1.2039  -1.2039  -1.0653  -1.0653  -0.8734  -0.8734
     0.2159   0.2159   0.5503   0.5503   1.0465   1.0465   1.1728   1.1729
     4.1354   4.1354   4.2609   4.2609   5.1510   5.1510   5.3851   5.3851
     6.6501   6.6501   7.0766   7.0766   8.0613   8.0613

     highest occupied, lowest unoccupied level (ev):     1.4370    3.8748

!    total energy              =    -657.44946113 Ry
     Harris-Foulkes estimate   =    -657.44946114 Ry
     estimated scf accuracy    <          9.4E-09 Ry

     total all-electron energy =     -2557.260611 Ry

     The total energy is the sum of the following terms:

     one-electron contribution =    -357.84094244 Ry
     hartree contribution      =     232.12868299 Ry
     xc contribution           =    -145.56264207 Ry
     ewald contribution        =    -180.18490584 Ry
     Dispersion Correction     =      -0.21221331 Ry
     one-center paw contrib.   =    -205.77744047 Ry

     convergence has been achieved in  16 iterations

     Forces acting on atoms (cartesian axes, Ry/au):

     atom    1 type  1   force =     0.00178580    0.00816260   -0.00121072
     atom    2 type  1   force =    -0.00178488    0.00813896    0.00121023
     atom    3 type  1   force =    -0.00178580   -0.00816260    0.00121072
     atom    4 type  1   force =     0.00178488   -0.00813896   -0.00121023
     atom    5 type  1   force =     0.00002536   -0.00392730    0.00074402
     atom    6 type  1   force =    -0.00002644   -0.00392220   -0.00074271
     atom    7 type  1   force =    -0.00002536    0.00392730   -0.00074402
     atom    8 type  1   force =     0.00002644    0.00392220    0.00074271
     atom    9 type  1   force =    -0.00055763   -0.00232106    0.00085913
     atom   10 type  1   force =     0.00055967   -0.00231399   -0.00086027
     atom   11 type  1   force =     0.00055763    0.00232106   -0.00085913
     atom   12 type  1   force =    -0.00055967    0.00231399    0.00086027
     atom   13 type  1   force =     0.00117918    0.00329232   -0.00111722
     atom   14 type  1   force =    -0.00117977    0.00328631    0.00111789
     atom   15 type  1   force =    -0.00117918   -0.00329232    0.00111722
     atom   16 type  1   force =     0.00117977   -0.00328631   -0.00111789
     atom   17 type  3   force =     0.00160033    0.00217352    0.00033342
     atom   18 type  3   force =    -0.00160164    0.00217412   -0.00033273
     atom   19 type  3   force =    -0.00160033   -0.00217352   -0.00033342
     atom   20 type  3   force =     0.00160164   -0.00217412    0.00033273
     atom   21 type  3   force =     0.00019778   -0.00058071    0.00125409
     atom   22 type  3   force =    -0.00019774   -0.00057971   -0.00125406
     atom   23 type  3   force =    -0.00019778    0.00058071   -0.00125409
     atom   24 type  3   force =     0.00019774    0.00057971    0.00125406
     atom   25 type  3   force =    -0.00204797   -0.00039919   -0.00178082
     atom   26 type  3   force =     0.00204761   -0.00039923    0.00178106
     atom   27 type  3   force =     0.00204797    0.00039919    0.00178082
     atom   28 type  3   force =    -0.00204761    0.00039923   -0.00178106
     atom   29 type  3   force =    -0.00068576   -0.00042795    0.00036342
     atom   30 type  3   force =     0.00068615   -0.00042830   -0.00036363
     atom   31 type  3   force =     0.00068576    0.00042795   -0.00036342
     atom   32 type  3   force =    -0.00068615    0.00042830    0.00036363
     atom   33 type  3   force =    -0.00037555    0.00025898   -0.00109196
     atom   34 type  3   force =     0.00037538    0.00025828    0.00109195
     atom   35 type  3   force =     0.00037555   -0.00025898    0.00109196
     atom   36 type  3   force =    -0.00037538   -0.00025828   -0.00109195
     atom   37 type  2   force =    -0.00680189   -0.00293710   -0.00014016
     atom   38 type  2   force =     0.00680115   -0.00293659    0.00014023
     atom   39 type  2   force =     0.00680189    0.00293710    0.00014016
     atom   40 type  2   force =    -0.00680115    0.00293659   -0.00014023
     atom   41 type  2   force =     0.00448712    0.00372262    0.00000393
     atom   42 type  2   force =    -0.00448811    0.00372529   -0.00000366
     atom   43 type  2   force =    -0.00448712   -0.00372262   -0.00000393
     atom   44 type  2   force =     0.00448811   -0.00372529    0.00000366
     atom   45 type  2   force =     0.00003169   -0.00347838    0.00022283
     atom   46 type  2   force =    -0.00003227   -0.00348418   -0.00022222
     atom   47 type  2   force =    -0.00003169    0.00347838   -0.00022283
     atom   48 type  2   force =     0.00003227    0.00348418    0.00022222

     Total force =     0.030138     Total SCF correction =     0.000244


     Computing stress (Cartesian axis) and pressure

          total   stress  (Ry/bohr**3)                   (kbar)     P=   -7.51
  -0.00002867   0.00000000   0.00001391         -4.22      0.00      2.05
   0.00000000  -0.00008319  -0.00000000          0.00    -12.24     -0.00
   0.00001391  -0.00000000  -0.00004135          2.05     -0.00     -6.08


     Writing output data file scf.save
 
     init_run     :     13.72s CPU     14.11s WALL (       1 calls)
     electrons    :    299.79s CPU    311.58s WALL (       1 calls)
     forces       :      7.08s CPU      7.13s WALL (       1 calls)
     stress       :     24.07s CPU     24.10s WALL (       1 calls)

     Called by init_run:
     wfcinit      :      7.34s CPU      7.67s WALL (       1 calls)
     potinit      :      2.28s CPU      2.30s WALL (       1 calls)

     Called by electrons:
     c_bands      :    259.44s CPU    270.24s WALL (      16 calls)
     sum_band     :     33.30s CPU     34.07s WALL (      16 calls)
     v_of_rho     :      0.97s CPU      1.10s WALL (      17 calls)
     newd         :      2.23s CPU      2.28s WALL (      17 calls)
     PAW_pot      :      3.48s CPU      3.48s WALL (      17 calls)
     mix_rho      :      0.28s CPU      0.30s WALL (      16 calls)

     Called by c_bands:
     init_us_2    :      2.84s CPU      2.86s WALL (     350 calls)
     cegterg      :    249.10s CPU    259.82s WALL (     160 calls)

     Called by sum_band:
     sum_band:bec :      0.02s CPU      0.02s WALL (     160 calls)
     addusdens    :      2.39s CPU      2.42s WALL (      16 calls)

     Called by *egterg:
     h_psi        :    166.74s CPU    174.89s WALL (     720 calls)
     s_psi        :     17.39s CPU     17.39s WALL (     720 calls)
     g_psi        :      1.20s CPU      1.20s WALL (     550 calls)
     cdiaghg      :     11.28s CPU     11.29s WALL (     710 calls)

     Called by h_psi:
     h_psi:pot    :    165.22s CPU    173.35s WALL (     720 calls)
     h_psi:calbec :     18.48s CPU     18.57s WALL (     720 calls)
     vloc_psi     :    129.37s CPU    137.40s WALL (     720 calls)
     add_vuspsi   :     17.37s CPU     17.37s WALL (     720 calls)

     General routines
     calbec       :     28.38s CPU     28.50s WALL (     930 calls)
     fft          :      2.48s CPU      2.67s WALL (     245 calls)
     fftw         :    139.96s CPU    148.47s WALL (   95442 calls)
 
     Parallel routines
     fft_scatter  :     46.99s CPU     51.63s WALL (   95687 calls)
 
     PWSCF        :  5m48.10s CPU     6m 1.27s WALL

 
   This run was terminated on:   0:13: 4  21Dec2017            

=------------------------------------------------------------------------------=
   JOB DONE.
=------------------------------------------------------------------------------=
