
     Program PWSCF v.6.1 (svn rev. 13369) starts on 21Dec2017 at  0:22:44 

     This program is part of the open-source Quantum ESPRESSO suite
     for quantum simulation of materials; please cite
         "P. Giannozzi et al., J. Phys.:Condens. Matter 21 395502 (2009);
          URL http://www.quantum-espresso.org", 
     in publications or presentations arising from this work. More details at
     http://www.quantum-espresso.org/quote

     Parallel version (MPI), running on     8 processors
     R & G space division:  proc/nbgrp/npool/nimage =       8
     Waiting for input...
     Reading input from standard input

     Current dimensions of program PWSCF are:
     Max number of different atomic species (ntypx) = 10
     Max number of k-points (npk) =  40000
     Max angular momentum in pseudopotentials (lmaxx) =  3
               file C.pbe-n-kjpaw_psl.0.1.UPF: wavefunction(s)  2P renormalized
               file N.pbe-n-kjpaw_psl.0.1.UPF: wavefunction(s)  2P renormalized
               file H.pbe-kjpaw_psl.0.1.UPF: wavefunction(s)  1S renormalized
               file O.pbe-n-kjpaw_psl.0.1.UPF: wavefunction(s)  2P renormalized

     -------------------------------------
     Parameters for Dispersion Correction:
     -------------------------------------
       atom      VdW radius       C_6     

        C          2.744         60.710
        N          2.640         42.670
        H          1.892          4.857
        O          2.536         24.284

     Subspace diagonalization in iterative solution of the eigenvalue problem:
     a serial algorithm will be used

 
     Parallelization info
     --------------------
     sticks:   dense  smooth     PW     G-vecs:    dense   smooth      PW
     Min        1549    1549    412                85165    85165   11708
     Max        1550    1550    413                85166    85166   11709
     Sum       12397   12397   3299               681325   681325   93671
 


     bravais-lattice index     =            0
     lattice parameter (alat)  =      19.8856  a.u.
     unit-cell volume          =    5042.8206 (a.u.)^3
     number of atoms/cell      =           78
     number of atomic types    =            4
     number of electrons       =       224.00
     number of Kohn-Sham states=          134
     kinetic-energy cutoff     =     100.0000  Ry
     charge density cutoff     =     400.0000  Ry
     convergence threshold     =      1.0E-08
     mixing beta               =       0.5000
     number of iterations used =            8  plain     mixing
     Exchange-correlation      =  SLA  PW   PBX  PBC ( 1  4  3  4 0 0)

     celldm(1)=  19.885588  celldm(2)=   0.000000  celldm(3)=   0.000000
     celldm(4)=   0.000000  celldm(5)=   0.000000  celldm(6)=   0.000000

     crystal axes: (cart. coord. in units of alat)
               a(1) = (   1.000000   0.000000   0.000000 )  
               a(2) = (  -0.410682   0.984177   0.000000 )  
               a(3) = (  -0.289072  -0.282275   0.651606 )  

     reciprocal axes: (cart. coord. in units 2 pi/alat)
               b(1) = (  1.000000  0.417284  0.624396 )  
               b(2) = (  0.000000  1.016077  0.440163 )  
               b(3) = (  0.000000  0.000000  1.534670 )  


     PseudoPot. # 1 for  C read from file:
     /scratch/ahofstet/pseudo/C.pbe-n-kjpaw_psl.0.1.UPF
     MD5 check sum: 430fe95172b1e11ef3f8ed03bac87931
     Pseudo is Projector augmented-wave + core cor, Zval =  4.0
     Generated using "atomic" code by A. Dal Corso  v.5.0.99 svn rev. 10869
     Shape of augmentation charge: BESSEL
     Using radial grid of 1073 points,  4 beta functions with: 
                l(1) =   0
                l(2) =   0
                l(3) =   1
                l(4) =   1
     Q(r) pseudized with 0 coefficients 


     PseudoPot. # 2 for  N read from file:
     /scratch/ahofstet/pseudo/N.pbe-n-kjpaw_psl.0.1.UPF
     MD5 check sum: f73187c8b701007e77325f868c9291d7
     Pseudo is Projector augmented-wave + core cor, Zval =  5.0
     Generated using "atomic" code by A. Dal Corso  v.5.0.99 svn rev. 10869
     Shape of augmentation charge: PSQ
     Using radial grid of 1085 points,  4 beta functions with: 
                l(1) =   0
                l(2) =   0
                l(3) =   1
                l(4) =   1
     Q(r) pseudized with 0 coefficients 


     PseudoPot. # 3 for  H read from file:
     /scratch/ahofstet/pseudo/H.pbe-kjpaw_psl.0.1.UPF
     MD5 check sum: 94e484f906d9e9773b2f6e52662335b2
     Pseudo is Projector augmented-wave, Zval =  1.0
     Generated using "atomic" code by A. Dal Corso  v.5.0.99 svn rev. 10869
     Shape of augmentation charge: PSQ
     Using radial grid of  929 points,  2 beta functions with: 
                l(1) =   0
                l(2) =   0
     Q(r) pseudized with 0 coefficients 


     PseudoPot. # 4 for  O read from file:
     /scratch/ahofstet/pseudo/O.pbe-n-kjpaw_psl.0.1.UPF
     MD5 check sum: 3f94a2996a3169367d6eb21d9b593f20
     Pseudo is Projector augmented-wave + core cor, Zval =  6.0
     Generated using "atomic" code by A. Dal Corso  v.5.0.99 svn rev. 10869
     Shape of augmentation charge: BESSEL
     Using radial grid of 1095 points,  4 beta functions with: 
                l(1) =   0
                l(2) =   0
                l(3) =   1
                l(4) =   1
     Q(r) pseudized with 0 coefficients 


     atomic species   valence    mass     pseudopotential
        C              4.00    12.01070      C( 1.00)
        N              5.00    14.00670      N( 1.00)
        H              1.00     1.00794      H( 1.00)
        O              6.00    15.99940      O( 1.00)

      2 Sym. Ops., with inversion, found



   Cartesian axes

     site n.     atom                  positions (alat units)
         1           C   tau(   1) = (  -0.1694076   0.1652737   0.4475565  )
         2           C   tau(   2) = (   0.4696545   0.5366291   0.2040492  )
         3           C   tau(   3) = (   0.1294805   0.4180643   0.5364572  )
         4           C   tau(   4) = (   0.1707665   0.2838385   0.1151485  )
         5           C   tau(   5) = (  -0.2263552   0.8901386   0.2208867  )
         6           C   tau(   6) = (   0.5266022  -0.1882359   0.4307189  )
         7           C   tau(   7) = (  -0.2945995   0.2077830   0.4622098  )
         8           C   tau(   8) = (   0.5948464   0.4941197   0.1893959  )
         9           C   tau(   9) = (  -0.3188776   0.3311439   0.5061002  )
        10           C   tau(  10) = (   0.6191246   0.3707589   0.1455054  )
        11           C   tau(  11) = (  -0.0148104  -0.0012348   0.2078244  )
        12           C   tau(  12) = (   0.3150574   0.7031375   0.4437813  )
        13           C   tau(  13) = (  -0.2174170   0.4122958   0.5372843  )
        14           C   tau(  14) = (   0.5176640   0.2896070   0.1143213  )
        15           C   tau(  15) = (  -0.0264721  -0.0056980   0.3427472  )
        16           C   tau(  16) = (   0.3267191   0.7076007   0.3088585  )
        17           C   tau(  17) = (  -0.0917129   0.3691683   0.5218530  )
        18           C   tau(  18) = (   0.3919599   0.3327345   0.1297526  )
        19           C   tau(  19) = (   0.0801705  -0.0495892   0.4064244  )
        20           C   tau(  20) = (   0.2200765   0.7514919   0.2451813  )
        21           C   tau(  21) = (  -0.0679560   0.2462164   0.4759723  )
        22           C   tau(  22) = (   0.3682030   0.4556864   0.1756333  )
        23           C   tau(  23) = (  -0.1474093   0.0270210   0.4113465  )
        24           C   tau(  24) = (   0.4476563   0.6748818   0.2402591  )
        25           C   tau(  25) = (   0.4569945   0.3027137   0.4885349  )
        26           C   tau(  26) = (  -0.1567475   0.3991890   0.1630708  )
        27           C   tau(  27) = (  -0.2267154   0.6332886   0.4963252  )
        28           C   tau(  28) = (   0.5269623   0.0686141   0.1552805  )
        29           H   tau(  29) = (  -0.0436598   0.8175898   0.2135295  )
        30           H   tau(  30) = (   0.3439068  -0.1156870   0.4380762  )
        31           H   tau(  31) = (   0.1544739   0.3363266   0.5970777  )
        32           H   tau(  32) = (   0.1457731   0.3655761   0.0545280  )
        33           H   tau(  33) = (   0.1478437   0.3938326   0.4360649  )
        34           H   tau(  34) = (   0.1524033   0.3080701   0.2155408  )
        35           H   tau(  35) = (   0.1862054   0.5013270   0.5627303  )
        36           H   tau(  36) = (   0.1140415   0.2005758   0.0888753  )
        37           H   tau(  37) = (  -0.1179918   0.8379772   0.0665275  )
        38           H   tau(  38) = (   0.4182388  -0.1360744   0.5850782  )
        39           H   tau(  39) = (   0.6270632   0.1440010   0.4396352  )
        40           H   tau(  40) = (  -0.3268162   0.5579018   0.2119705  )
        41           H   tau(  41) = (   0.9010407   0.0474754   0.0353047  )
        42           H   tau(  42) = (  -0.6007937   0.6544273   0.6163009  )
        43           H   tau(  43) = (   0.8194085   0.0960504   0.1732880  )
        44           H   tau(  44) = (  -0.5191615   0.6058524   0.4783176  )
        45           H   tau(  45) = (   0.0793265  -0.0535434   0.5105491  )
        46           H   tau(  46) = (   0.2209205   0.7554461   0.1410565  )
        47           H   tau(  47) = (   0.0290279   0.2119109   0.4646163  )
        48           H   tau(  48) = (   0.2712190   0.4899918   0.1869894  )
        49           H   tau(  49) = (  -0.1500661  -0.0296181   0.4995640  )
        50           H   tau(  50) = (   0.4503131   0.7315209   0.1520417  )
        51           H   tau(  51) = (   0.7702469  -0.0063232   0.3557004  )
        52           H   tau(  52) = (  -0.4699999   0.7082260   0.2959053  )
        53           H   tau(  53) = (   0.4598469   0.2778389   0.3868835  )
        54           H   tau(  54) = (  -0.1595999   0.4240639   0.2647221  )
        55           H   tau(  55) = (   0.3726967   0.3602634   0.5081526  )
        56           H   tau(  56) = (  -0.0724498   0.3416393   0.1434530  )
        57           H   tau(  57) = (   0.4550879   0.2155646   0.5466042  )
        58           H   tau(  58) = (  -0.1548410   0.4863382   0.1050015  )
        59           H   tau(  59) = (  -0.2948193   0.6230729   0.4174110  )
        60           H   tau(  60) = (   0.5950663   0.0788299   0.2341947  )
        61           H   tau(  61) = (  -0.1293154   0.6351985   0.4589376  )
        62           H   tau(  62) = (   0.4295624   0.0667043   0.1926680  )
        63           H   tau(  63) = (  -0.2450189   0.7217476   0.5479367  )
        64           H   tau(  64) = (   0.5452658  -0.0198448   0.1036690  )
        65           N   tau(  65) = (   0.1867921  -0.0914211   0.3499143  )
        66           N   tau(  66) = (   0.1134548   0.7933239   0.3016913  )
        67           N   tau(  67) = (  -0.1262042   0.8350512   0.1625792  )
        68           N   tau(  68) = (   0.4264512  -0.1331484   0.4890264  )
        69           N   tau(  69) = (   0.0890436  -0.0475534   0.1481031  )
        70           N   tau(  70) = (   0.2112034   0.7494562   0.5035026  )
        71           N   tau(  71) = (   0.8924183   0.0474575   0.1335488  )
        72           N   tau(  72) = (  -0.5921713   0.6544453   0.5180569  )
        73           O   tau(  73) = (  -0.4373088   0.3815576   0.5219567  )
        74           O   tau(  74) = (   0.7375558   0.3203452   0.1296490  )
        75           O   tau(  75) = (  -0.2426085   0.5310275   0.5863784  )
        76           O   tau(  76) = (   0.5428554   0.1708752   0.0652273  )
        77           O   tau(  77) = (   0.0001867   0.4546471   0.5549304  )
        78           O   tau(  78) = (   0.3000603   0.2472556   0.0966753  )

     number of k points=     8
                       cart. coord. in units 2pi/alat
        k(    1) = (   0.0000000   0.0000000   0.0000000), wk =   0.1666667
        k(    2) = (   0.0000000   0.0000000   0.5115568), wk =   0.3333333
        k(    3) = (   0.0000000  -0.5080385  -0.2200815), wk =   0.1666667
        k(    4) = (   0.0000000  -0.5080385   0.2914753), wk =   0.3333333
        k(    5) = (  -0.5000000  -0.2086420  -0.3121982), wk =   0.1666667
        k(    6) = (  -0.5000000  -0.2086420   0.1993587), wk =   0.3333333
        k(    7) = (  -0.5000000  -0.7166806  -0.5322796), wk =   0.1666667
        k(    8) = (  -0.5000000  -0.7166806  -0.0207228), wk =   0.3333333

     Dense  grid:   681325 G-vectors     FFT dimensions: ( 128, 135, 100)

     Estimated max dynamical RAM per process >     499.28MB

     Estimated total allocated dynamical RAM >    3994.27MB

     Check: negative/imaginary core charge=   -0.000002    0.000000

     Initial potential from superposition of free atoms

     starting charge  223.99842, renormalised to  224.00000
     Starting wfc are  204 randomized atomic wfcs
     Checking if some PAW data can be deallocated... 

     total cpu time spent up to now is       33.9 secs

     per-process dynamical memory:   367.1 Mb

     Self-consistent Calculation

     iteration #  1     ecut=   100.00 Ry     beta=0.50
     Davidson diagonalization with overlap
     ethr =  1.00E-02,  avg # of iterations =  4.0

     total cpu time spent up to now is      115.3 secs

     total energy              =   -1033.55730097 Ry
     Harris-Foulkes estimate   =   -1037.57236542 Ry
     estimated scf accuracy    <       7.79039518 Ry

     iteration #  2     ecut=   100.00 Ry     beta=0.50
     Davidson diagonalization with overlap
     ethr =  3.48E-03,  avg # of iterations =  2.8

     total cpu time spent up to now is      159.6 secs

     total energy              =   -1034.04728395 Ry
     Harris-Foulkes estimate   =   -1034.42396598 Ry
     estimated scf accuracy    <       0.84191963 Ry

     iteration #  3     ecut=   100.00 Ry     beta=0.50
     Davidson diagonalization with overlap
     ethr =  3.76E-04,  avg # of iterations =  5.0

     total cpu time spent up to now is      254.2 secs

     total energy              =   -1034.73040925 Ry
     Harris-Foulkes estimate   =   -1034.98335146 Ry
     estimated scf accuracy    <       0.62727859 Ry

     iteration #  4     ecut=   100.00 Ry     beta=0.50
     Davidson diagonalization with overlap
     ethr =  2.80E-04,  avg # of iterations =  2.4

     total cpu time spent up to now is      295.6 secs

     total energy              =   -1034.64305650 Ry
     Harris-Foulkes estimate   =   -1034.76006380 Ry
     estimated scf accuracy    <       0.18221550 Ry

     iteration #  5     ecut=   100.00 Ry     beta=0.50
     Davidson diagonalization with overlap
     ethr =  8.13E-05,  avg # of iterations =  5.0

     total cpu time spent up to now is      386.6 secs

     total energy              =   -1034.76641290 Ry
     Harris-Foulkes estimate   =   -1034.89000177 Ry
     estimated scf accuracy    <       0.33402174 Ry

     iteration #  6     ecut=   100.00 Ry     beta=0.50
     Davidson diagonalization with overlap
     ethr =  8.13E-05,  avg # of iterations =  1.9

     total cpu time spent up to now is      428.1 secs

     total energy              =   -1034.72385589 Ry
     Harris-Foulkes estimate   =   -1034.77750365 Ry
     estimated scf accuracy    <       0.11459732 Ry

     iteration #  7     ecut=   100.00 Ry     beta=0.50
     Davidson diagonalization with overlap
     ethr =  5.12E-05,  avg # of iterations =  7.5

     total cpu time spent up to now is      503.4 secs

     total energy              =   -1034.77667754 Ry
     Harris-Foulkes estimate   =   -1034.77966913 Ry
     estimated scf accuracy    <       0.00761356 Ry

     iteration #  8     ecut=   100.00 Ry     beta=0.50
     Davidson diagonalization with overlap
     ethr =  3.40E-06,  avg # of iterations =  4.1

     total cpu time spent up to now is      550.9 secs

     total energy              =   -1034.77621101 Ry
     Harris-Foulkes estimate   =   -1034.77741268 Ry
     estimated scf accuracy    <       0.00199338 Ry

     iteration #  9     ecut=   100.00 Ry     beta=0.50
     Davidson diagonalization with overlap
     ethr =  8.90E-07,  avg # of iterations =  7.6

     total cpu time spent up to now is      636.6 secs

     total energy              =   -1034.77777128 Ry
     Harris-Foulkes estimate   =   -1034.77830217 Ry
     estimated scf accuracy    <       0.00159459 Ry

     iteration # 10     ecut=   100.00 Ry     beta=0.50
     Davidson diagonalization with overlap
     ethr =  7.12E-07,  avg # of iterations =  1.1

     total cpu time spent up to now is      677.0 secs

     total energy              =   -1034.77749058 Ry
     Harris-Foulkes estimate   =   -1034.77781712 Ry
     estimated scf accuracy    <       0.00060781 Ry

     iteration # 11     ecut=   100.00 Ry     beta=0.50
     Davidson diagonalization with overlap
     ethr =  2.71E-07,  avg # of iterations =  4.0

     total cpu time spent up to now is      744.7 secs

     total energy              =   -1034.77780801 Ry
     Harris-Foulkes estimate   =   -1034.77784768 Ry
     estimated scf accuracy    <       0.00013127 Ry

     iteration # 12     ecut=   100.00 Ry     beta=0.50
     Davidson diagonalization with overlap
     ethr =  5.86E-08,  avg # of iterations =  1.0

     total cpu time spent up to now is      785.2 secs

     total energy              =   -1034.77778004 Ry
     Harris-Foulkes estimate   =   -1034.77781203 Ry
     estimated scf accuracy    <       0.00005907 Ry

     iteration # 13     ecut=   100.00 Ry     beta=0.50
     Davidson diagonalization with overlap
     ethr =  2.64E-08,  avg # of iterations =  3.9

     total cpu time spent up to now is      851.9 secs

     total energy              =   -1034.77780803 Ry
     Harris-Foulkes estimate   =   -1034.77781110 Ry
     estimated scf accuracy    <       0.00000962 Ry

     iteration # 14     ecut=   100.00 Ry     beta=0.50
     Davidson diagonalization with overlap
     ethr =  4.29E-09,  avg # of iterations =  1.4

     total cpu time spent up to now is      892.6 secs

     total energy              =   -1034.77780593 Ry
     Harris-Foulkes estimate   =   -1034.77780839 Ry
     estimated scf accuracy    <       0.00000407 Ry

     iteration # 15     ecut=   100.00 Ry     beta=0.50
     Davidson diagonalization with overlap
     ethr =  1.82E-09,  avg # of iterations =  4.0

     total cpu time spent up to now is      963.7 secs

     total energy              =   -1034.77780815 Ry
     Harris-Foulkes estimate   =   -1034.77780874 Ry
     estimated scf accuracy    <       0.00000166 Ry

     iteration # 16     ecut=   100.00 Ry     beta=0.50
     Davidson diagonalization with overlap
     ethr =  7.41E-10,  avg # of iterations =  1.8

     total cpu time spent up to now is     1004.9 secs

     total energy              =   -1034.77780790 Ry
     Harris-Foulkes estimate   =   -1034.77780821 Ry
     estimated scf accuracy    <       0.00000061 Ry

     iteration # 17     ecut=   100.00 Ry     beta=0.50
     Davidson diagonalization with overlap
     ethr =  2.74E-10,  avg # of iterations =  4.0

     total cpu time spent up to now is     1072.4 secs

     total energy              =   -1034.77780825 Ry
     Harris-Foulkes estimate   =   -1034.77780826 Ry
     estimated scf accuracy    <       0.00000011 Ry

     iteration # 18     ecut=   100.00 Ry     beta=0.50
     Davidson diagonalization with overlap
     ethr =  4.90E-11,  avg # of iterations =  2.0

     total cpu time spent up to now is     1113.7 secs

     total energy              =   -1034.77780822 Ry
     Harris-Foulkes estimate   =   -1034.77780826 Ry
     estimated scf accuracy    <       0.00000010 Ry

     iteration # 19     ecut=   100.00 Ry     beta=0.50
     Davidson diagonalization with overlap
     ethr =  4.64E-11,  avg # of iterations =  1.8

     total cpu time spent up to now is     1154.8 secs

     total energy              =   -1034.77780821 Ry
     Harris-Foulkes estimate   =   -1034.77780823 Ry
     estimated scf accuracy    <       0.00000004 Ry

     iteration # 20     ecut=   100.00 Ry     beta=0.50
     Davidson diagonalization with overlap
     ethr =  1.88E-11,  avg # of iterations =  4.1

     total cpu time spent up to now is     1214.8 secs

     End of self-consistent calculation

          k = 0.0000 0.0000 0.0000 ( 85187 PWs)   bands (ev):

   -20.9515 -20.9392 -20.7369 -20.7317 -20.0319 -20.0175 -18.6684 -18.5709
   -17.1458 -17.0383 -15.8217 -15.7342 -15.2204 -15.1989 -15.0291 -15.0050
   -13.6985 -13.6506 -12.6890 -12.6685 -12.6552 -12.5923 -11.4205 -11.3940
   -11.2987 -11.2896 -11.1983 -11.1737 -10.1486 -10.1450  -9.8964  -9.6369
    -9.3572  -9.2155  -8.4744  -8.4415  -8.3347  -8.2990  -7.6345  -7.5489
    -7.3722  -7.2235  -7.1493  -7.1328  -6.6024  -6.5739  -6.4965  -6.3945
    -6.1625  -6.1145  -6.0581  -5.9411  -5.8740  -5.4083  -5.4020  -5.3638
    -5.2192  -5.1745  -5.1525  -5.0318  -5.0129  -4.9402  -4.8905  -4.8410
    -4.8005  -4.6663  -4.5639  -4.5135  -4.4165  -4.4038  -4.3064  -4.2271
    -3.8696  -3.8074  -3.5502  -3.4730  -3.4668  -3.4553  -3.4052  -3.2497
    -3.1257  -2.9872  -2.8850  -2.8064  -2.6859  -2.4479  -2.3472  -2.3466
    -2.2302  -2.1585  -2.1309  -2.1105  -1.7206  -1.6980  -1.4477  -1.3832
    -1.3831  -1.1924  -1.0942  -0.8562  -0.3755  -0.3052   0.0787   0.2622
     0.3065   0.4597   0.5564   0.6624   0.7770   0.8458   1.0997   1.1662
     4.6249   4.7174   4.9720   4.9948   5.3230   5.3566   5.4958   5.5437
     5.6372   5.7956   6.3461   6.6588   6.8694   6.9556   7.2188   7.2385
     7.3389   7.6803   7.7522   7.8025   7.9683   8.0041

          k = 0.0000 0.0000 0.5116 ( 85145 PWs)   bands (ev):

   -20.9484 -20.9422 -20.7358 -20.7329 -20.0323 -20.0170 -18.6455 -18.5968
   -17.1172 -17.0625 -15.8359 -15.7124 -15.2207 -15.2137 -15.1034 -14.9258
   -13.6782 -13.6615 -12.6885 -12.6762 -12.6323 -12.6168 -11.4172 -11.3887
   -11.3387 -11.2501 -11.2194 -11.1918 -10.1201 -10.0967  -9.8667  -9.6832
    -9.3557  -9.2590  -8.4717  -8.4460  -8.3254  -8.2971  -7.6028  -7.5468
    -7.3487  -7.2041  -7.1666  -7.1199  -6.6744  -6.5871  -6.4929  -6.4095
    -6.1847  -6.1281  -6.0468  -5.9575  -5.7134  -5.5634  -5.4625  -5.3606
    -5.2446  -5.2182  -5.0826  -5.0479  -5.0357  -4.9557  -4.8289  -4.8017
    -4.7677  -4.6193  -4.5229  -4.4754  -4.4400  -4.3927  -4.3308  -4.2103
    -3.8645  -3.8332  -3.5346  -3.4688  -3.4569  -3.4309  -3.3762  -3.3411
    -3.1525  -2.9895  -2.8877  -2.8225  -2.6459  -2.4747  -2.4075  -2.3440
    -2.2282  -2.1343  -2.1188  -2.1012  -1.7655  -1.6533  -1.4057  -1.3807
    -1.3269  -1.2579  -1.0607  -0.9803  -0.3616  -0.3088   0.1329   0.2059
     0.3433   0.4570   0.5815   0.6864   0.7197   0.8586   1.0909   1.1697
     4.4867   4.7664   5.0075   5.0453   5.2403   5.4034   5.4356   5.6080
     5.7542   6.0496   6.1608   6.7226   6.8062   7.0068   7.1108   7.1460
     7.3750   7.4903   7.7784   7.8512   7.9289   7.9839

          k = 0.0000-0.5080-0.2201 ( 85152 PWs)   bands (ev):

   -20.9487 -20.9420 -20.7369 -20.7316 -20.0316 -20.0177 -18.6685 -18.5708
   -17.1460 -17.0378 -15.8211 -15.7312 -15.2325 -15.2049 -15.0290 -14.9917
   -13.6840 -13.6607 -12.6895 -12.6723 -12.6297 -12.6185 -11.4083 -11.3827
   -11.3294 -11.2872 -11.1978 -11.1762 -10.1625 -10.1324  -9.8929  -9.6355
    -9.3188  -9.2268  -8.4819  -8.4372  -8.3500  -8.3172  -7.6092  -7.5472
    -7.4262  -7.1661  -7.1337  -7.1179  -6.6444  -6.5917  -6.4819  -6.4291
    -6.1181  -6.1074  -6.1026  -5.8905  -5.8502  -5.5789  -5.4089  -5.3215
    -5.2626  -5.2067  -5.1067  -5.0270  -4.9488  -4.9396  -4.8892  -4.8718
    -4.8178  -4.6403  -4.5041  -4.4931  -4.4260  -4.3363  -4.2845  -4.1803
    -3.8536  -3.8165  -3.5754  -3.5434  -3.5091  -3.4969  -3.4061  -3.3125
    -3.0719  -2.9015  -2.8956  -2.8380  -2.6187  -2.5614  -2.3910  -2.2812
    -2.2360  -2.1543  -2.1246  -2.1091  -1.7831  -1.6702  -1.4026  -1.3840
    -1.3533  -1.2579  -1.0015  -0.8843  -0.3600  -0.3290   0.0892   0.2648
     0.2993   0.4245   0.5612   0.6558   0.8043   0.8082   1.1326   1.1650
     4.6165   4.6753   5.0048   5.0219   5.3491   5.3799   5.4831   5.5042
     5.6882   5.7923   6.3627   6.5379   6.6392   7.1282   7.2810   7.3958
     7.4020   7.4819   7.7422   7.9505   7.9906   8.0493

          k = 0.0000-0.5080 0.2915 ( 85178 PWs)   bands (ev):

   -20.9485 -20.9420 -20.7358 -20.7329 -20.0311 -20.0182 -18.6456 -18.5968
   -17.1174 -17.0623 -15.8381 -15.7129 -15.2265 -15.2038 -15.0958 -14.9299
   -13.6948 -13.6615 -12.6890 -12.6706 -12.6357 -12.6074 -11.4275 -11.3894
   -11.3102 -11.2654 -11.2304 -11.1311 -10.2147 -10.1602  -9.8576  -9.6849
    -9.2702  -9.1842  -8.4771  -8.4412  -8.3505  -8.3204  -7.6151  -7.5455
    -7.3371  -7.2158  -7.1868  -7.1621  -6.6247  -6.5920  -6.4856  -6.3972
    -6.1276  -6.1099  -6.0920  -5.9621  -5.7922  -5.5326  -5.4153  -5.3955
    -5.2805  -5.1942  -5.1330  -4.9998  -4.9801  -4.9104  -4.8685  -4.8466
    -4.7917  -4.6508  -4.4978  -4.4830  -4.4300  -4.3628  -4.2982  -4.1875
    -3.8275  -3.7994  -3.5940  -3.5147  -3.4963  -3.4576  -3.4136  -3.3465
    -3.0914  -2.9293  -2.8605  -2.8291  -2.6239  -2.5880  -2.3912  -2.3126
    -2.2332  -2.1513  -2.1163  -2.1016  -1.7597  -1.7109  -1.3863  -1.3479
    -1.3333  -1.1628  -1.1252  -0.9666  -0.3679  -0.3233   0.1281   0.1956
     0.3454   0.4525   0.5754   0.6837   0.7087   0.8531   1.1196   1.1720
     4.5057   4.8085   4.9991   5.0352   5.2536   5.4119   5.4560   5.5509
     5.7662   6.0356   6.3018   6.4947   6.7738   6.9817   7.0532   7.2658
     7.4509   7.6574   7.7636   7.8230   7.9495   7.9928

          k =-0.5000-0.2086-0.3122 ( 85146 PWs)   bands (ev):

   -20.9470 -20.9423 -20.7372 -20.7334 -20.0315 -20.0172 -18.6268 -18.6168
   -17.0913 -17.0849 -15.8450 -15.7056 -15.2246 -15.2029 -15.1067 -14.9226
   -13.6907 -13.6582 -12.7174 -12.7063 -12.6452 -12.5805 -11.4524 -11.4163
   -11.2980 -11.2284 -11.1569 -11.1449 -10.1518 -10.0904  -9.8483  -9.7025
    -9.3491  -9.1809  -8.6046  -8.5865  -8.3392  -8.2890  -7.5836  -7.5715
    -7.2884  -7.2652  -7.1342  -7.1179  -6.6507  -6.6235  -6.3716  -6.3572
    -6.1481  -6.1049  -6.0234  -5.9885  -5.7437  -5.7196  -5.3644  -5.3094
    -5.2815  -5.2030  -5.1097  -5.0648  -5.0271  -4.9215  -4.8161  -4.7472
    -4.6455  -4.5811  -4.5698  -4.5466  -4.4970  -4.4560  -4.1986  -4.1129
    -3.9152  -3.9068  -3.5766  -3.5613  -3.4893  -3.4713  -3.3367  -3.3297
    -3.2349  -2.9072  -2.8983  -2.8067  -2.6174  -2.5730  -2.3590  -2.2683
    -2.2646  -2.2349  -2.0610  -2.0605  -1.7283  -1.7162  -1.4303  -1.3238
    -1.2965  -1.2365  -1.1165  -0.9580  -0.3566  -0.3142   0.1241   0.2149
     0.3316   0.4535   0.5489   0.6590   0.7445   0.8860   1.0738   1.2028
     4.6470   4.7083   4.9434   5.0518   5.2984   5.3482   5.4403   5.5505
     5.7289   5.9011   6.3567   6.4309   6.8755   6.8790   7.2833   7.4361
     7.5314   7.5349   7.7528   7.8008   7.9615   7.9639

          k =-0.5000-0.2086 0.1994 ( 85109 PWs)   bands (ev):

   -20.9482 -20.9411 -20.7363 -20.7343 -20.0309 -20.0177 -18.6582 -18.5825
   -17.1358 -17.0471 -15.8281 -15.7218 -15.2252 -15.2068 -15.0635 -14.9630
   -13.6967 -13.6351 -12.7273 -12.7005 -12.6601 -12.5759 -11.4619 -11.4148
   -11.2663 -11.2204 -11.2000 -11.1591 -10.1201 -10.0361  -9.8874  -9.6539
    -9.4019  -9.2101  -8.6141  -8.5757  -8.3174  -8.2909  -7.6243  -7.5391
    -7.3804  -7.2056  -7.1115  -7.0895  -6.6687  -6.6082  -6.4091  -6.3499
    -6.1596  -6.1119  -6.0987  -5.9035  -5.7667  -5.5275  -5.4641  -5.3889
    -5.2415  -5.1872  -5.1131  -5.0400  -5.0209  -4.8968  -4.8651  -4.7529
    -4.7001  -4.5886  -4.5364  -4.5104  -4.4878  -4.4250  -4.2232  -4.1232
    -3.9575  -3.8818  -3.5929  -3.5512  -3.5002  -3.4694  -3.4104  -3.3199
    -3.1171  -2.9813  -2.8666  -2.8119  -2.6538  -2.5145  -2.4268  -2.3676
    -2.2338  -2.1759  -2.0876  -2.0079  -1.7678  -1.6774  -1.4430  -1.3927
    -1.3277  -1.1841  -1.0479  -0.9231  -0.3615  -0.3191   0.1233   0.2024
     0.3288   0.4296   0.5623   0.6398   0.7793   0.8581   1.0783   1.2001
     4.4894   4.7650   4.9835   5.0439   5.3148   5.3303   5.4876   5.5628
     5.7526   6.2490   6.3293   6.4878   6.8153   6.8500   7.1774   7.2827
     7.5296   7.5809   7.6574   7.7725   7.8908   8.0011

          k =-0.5000-0.7167-0.5323 ( 85170 PWs)   bands (ev):

   -20.9498 -20.9395 -20.7371 -20.7334 -20.0313 -20.0173 -18.6268 -18.6169
   -17.0908 -17.0849 -15.8438 -15.7037 -15.2214 -15.2184 -15.1104 -14.9115
   -13.7098 -13.6284 -12.7181 -12.7149 -12.6171 -12.6138 -11.4497 -11.4153
   -11.2537 -11.2208 -11.2057 -11.1589 -10.1595 -10.0792  -9.8308  -9.6981
    -9.2751  -9.2602  -8.6112  -8.5802  -8.3305  -8.3012  -7.5956  -7.5617
    -7.2981  -7.2633  -7.1255  -7.0939  -6.6875  -6.6273  -6.4011  -6.3638
    -6.1729  -6.1087  -6.0377  -5.9661  -5.8413  -5.6170  -5.3737  -5.3227
    -5.2251  -5.1310  -5.0729  -5.0431  -4.9322  -4.9027  -4.8248  -4.7746
    -4.7119  -4.6363  -4.5907  -4.5366  -4.4474  -4.3283  -4.3004  -4.2433
    -3.9827  -3.9458  -3.5449  -3.5175  -3.4905  -3.4537  -3.4266  -3.3804
    -3.0040  -2.9668  -2.8510  -2.8122  -2.6368  -2.4884  -2.4141  -2.3649
    -2.2237  -2.2097  -2.0636  -2.0293  -1.8164  -1.6935  -1.4435  -1.3290
    -1.3044  -1.2212  -1.0756  -0.9736  -0.3619  -0.3306   0.1227   0.2091
     0.3205   0.4655   0.5467   0.6634   0.7512   0.8710   1.0672   1.2427
     4.6417   4.7148   5.0117   5.0525   5.2783   5.3490   5.4086   5.6144
     5.6951   5.7909   6.3584   6.4792   6.8786   6.9821   7.0585   7.4862
     7.6035   7.6637   7.7648   7.7905   7.8473   8.0078

          k =-0.5000-0.7167-0.0207 ( 85155 PWs)   bands (ev):

   -20.9473 -20.9419 -20.7363 -20.7343 -20.0318 -20.0167 -18.6583 -18.5824
   -17.1356 -17.0474 -15.8301 -15.7229 -15.2193 -15.2042 -15.0646 -14.9619
   -13.7053 -13.6458 -12.7262 -12.6992 -12.6216 -12.6018 -11.4627 -11.4130
   -11.2695 -11.2129 -11.1789 -11.1434 -10.2097 -10.1056  -9.8825  -9.6423
    -9.2547  -9.2045  -8.6158  -8.5748  -8.3460  -8.2978  -7.6250  -7.5369
    -7.4043  -7.2053  -7.1500  -7.1117  -6.6344  -6.6066  -6.3740  -6.3373
    -6.1621  -6.1179  -6.1042  -5.9195  -5.7306  -5.6174  -5.4096  -5.3754
    -5.2397  -5.1882  -5.1084  -5.0274  -4.9431  -4.8917  -4.8651  -4.7413
    -4.7004  -4.6113  -4.5618  -4.5456  -4.4237  -4.3319  -4.3240  -4.2766
    -4.0234  -3.8910  -3.6045  -3.5196  -3.4863  -3.4370  -3.4005  -3.3177
    -3.1051  -2.8872  -2.8447  -2.8399  -2.6158  -2.5306  -2.3943  -2.3427
    -2.2725  -2.1812  -2.0718  -2.0385  -1.8133  -1.7446  -1.4240  -1.3853
    -1.2880  -1.2046  -1.0398  -0.9162  -0.3611  -0.3243   0.1229   0.2033
     0.3311   0.4141   0.5628   0.6468   0.7739   0.8487   1.0695   1.2276
     4.4938   4.8064   4.9853   5.0191   5.3179   5.3764   5.4459   5.5850
     5.9360   5.9809   6.2201   6.4864   6.7831   6.9338   7.1920   7.3143
     7.3712   7.5939   7.6629   7.7704   7.8699   8.0919

     highest occupied, lowest unoccupied level (ev):     1.2427    4.4867

!    total energy              =   -1034.77780823 Ry
     Harris-Foulkes estimate   =   -1034.77780823 Ry
     estimated scf accuracy    <          1.3E-09 Ry

     total all-electron energy =     -3955.644255 Ry

     The total energy is the sum of the following terms:

     one-electron contribution =    -637.84774875 Ry
     hartree contribution      =     401.14039731 Ry
     xc contribution           =    -229.84363217 Ry
     ewald contribution        =    -258.37320762 Ry
     Dispersion Correction     =      -0.34030908 Ry
     one-center paw contrib.   =    -309.51330792 Ry

     convergence has been achieved in  20 iterations

     Forces acting on atoms (cartesian axes, Ry/au):

     atom    1 type  1   force =    -0.00036047   -0.00035619    0.00094466
     atom    2 type  1   force =     0.00036047    0.00035619   -0.00094466
     atom    3 type  1   force =     0.00115730   -0.00087002    0.00017551
     atom    4 type  1   force =    -0.00115730    0.00087002   -0.00017551
     atom    5 type  1   force =     0.00029989   -0.00004938    0.00062032
     atom    6 type  1   force =    -0.00029989    0.00004938   -0.00062032
     atom    7 type  1   force =    -0.00087922    0.00047849   -0.00075628
     atom    8 type  1   force =     0.00087922   -0.00047849    0.00075628
     atom    9 type  1   force =    -0.00001530   -0.00018978   -0.00127634
     atom   10 type  1   force =     0.00001530    0.00018978    0.00127634
     atom   11 type  1   force =     0.00071125   -0.00095417   -0.00011951
     atom   12 type  1   force =    -0.00071125    0.00095417    0.00011951
     atom   13 type  1   force =     0.00037849    0.00194938   -0.00010399
     atom   14 type  1   force =    -0.00037849   -0.00194938    0.00010399
     atom   15 type  1   force =     0.00036727    0.00036384   -0.00005808
     atom   16 type  1   force =    -0.00036727   -0.00036384    0.00005808
     atom   17 type  1   force =     0.00061183   -0.00001100    0.00027116
     atom   18 type  1   force =    -0.00061183    0.00001100   -0.00027116
     atom   19 type  1   force =     0.00019339   -0.00043887   -0.00029624
     atom   20 type  1   force =    -0.00019339    0.00043887    0.00029624
     atom   21 type  1   force =     0.00112177    0.00010631    0.00111127
     atom   22 type  1   force =    -0.00112177   -0.00010631   -0.00111127
     atom   23 type  1   force =    -0.00048580    0.00054831    0.00023956
     atom   24 type  1   force =     0.00048580   -0.00054831   -0.00023956
     atom   25 type  1   force =     0.00084376    0.00012653   -0.00054843
     atom   26 type  1   force =    -0.00084376   -0.00012653    0.00054843
     atom   27 type  1   force =    -0.00017206   -0.00006576   -0.00033903
     atom   28 type  1   force =     0.00017206    0.00006576    0.00033903
     atom   29 type  3   force =    -0.00006942    0.00039555    0.00073255
     atom   30 type  3   force =     0.00006942   -0.00039555   -0.00073255
     atom   31 type  3   force =    -0.00012887   -0.00076813    0.00011954
     atom   32 type  3   force =     0.00012887    0.00076813   -0.00011954
     atom   33 type  3   force =    -0.00024207    0.00009139    0.00036211
     atom   34 type  3   force =     0.00024207   -0.00009139   -0.00036211
     atom   35 type  3   force =     0.00036006    0.00034501    0.00019272
     atom   36 type  3   force =    -0.00036006   -0.00034501   -0.00019272
     atom   37 type  3   force =    -0.00027418   -0.00017872    0.00016046
     atom   38 type  3   force =     0.00027418    0.00017872   -0.00016046
     atom   39 type  3   force =     0.00029189   -0.00057674    0.00036944
     atom   40 type  3   force =    -0.00029189    0.00057674   -0.00036944
     atom   41 type  3   force =     0.00036586    0.00090049   -0.00064268
     atom   42 type  3   force =    -0.00036586   -0.00090049    0.00064268
     atom   43 type  3   force =    -0.00052180    0.00031762    0.00018657
     atom   44 type  3   force =     0.00052180   -0.00031762   -0.00018657
     atom   45 type  3   force =     0.00001446   -0.00008213   -0.00019591
     atom   46 type  3   force =    -0.00001446    0.00008213    0.00019591
     atom   47 type  3   force =    -0.00049661   -0.00042990    0.00018464
     atom   48 type  3   force =     0.00049661    0.00042990   -0.00018464
     atom   49 type  3   force =     0.00017556    0.00044879   -0.00015876
     atom   50 type  3   force =    -0.00017556   -0.00044879    0.00015876
     atom   51 type  3   force =     0.00059753   -0.00073367   -0.00035092
     atom   52 type  3   force =    -0.00059753    0.00073367    0.00035092
     atom   53 type  3   force =     0.00054172   -0.00021747   -0.00012634
     atom   54 type  3   force =    -0.00054172    0.00021747    0.00012634
     atom   55 type  3   force =    -0.00099839    0.00035127    0.00044224
     atom   56 type  3   force =     0.00099839   -0.00035127   -0.00044224
     atom   57 type  3   force =    -0.00056079   -0.00012705   -0.00049175
     atom   58 type  3   force =     0.00056079    0.00012705    0.00049175
     atom   59 type  3   force =    -0.00014236    0.00023162    0.00030337
     atom   60 type  3   force =     0.00014236   -0.00023162   -0.00030337
     atom   61 type  3   force =     0.00047993   -0.00031506   -0.00040244
     atom   62 type  3   force =    -0.00047993    0.00031506    0.00040244
     atom   63 type  3   force =    -0.00058043   -0.00077019    0.00015494
     atom   64 type  3   force =     0.00058043    0.00077019   -0.00015494
     atom   65 type  2   force =     0.00010789    0.00056253   -0.00067140
     atom   66 type  2   force =    -0.00010789   -0.00056253    0.00067140
     atom   67 type  2   force =    -0.00027822   -0.00011501   -0.00088375
     atom   68 type  2   force =     0.00027822    0.00011501    0.00088375
     atom   69 type  2   force =    -0.00180319   -0.00015938   -0.00021682
     atom   70 type  2   force =     0.00180319    0.00015938    0.00021682
     atom   71 type  2   force =    -0.00130728    0.00081200   -0.00103184
     atom   72 type  2   force =     0.00130728   -0.00081200    0.00103184
     atom   73 type  4   force =    -0.00052557    0.00110642    0.00061403
     atom   74 type  4   force =     0.00052557   -0.00110642   -0.00061403
     atom   75 type  4   force =     0.00021389   -0.00037800    0.00024335
     atom   76 type  4   force =    -0.00021389    0.00037800   -0.00024335
     atom   77 type  4   force =    -0.00148521    0.00007026   -0.00069065
     atom   78 type  4   force =     0.00148521   -0.00007026    0.00069065

     Total force =     0.009034     Total SCF correction =     0.000071


     Computing stress (Cartesian axis) and pressure

          total   stress  (Ry/bohr**3)                   (kbar)     P=   -6.74
  -0.00003618   0.00000425   0.00000151         -5.32      0.63      0.22
   0.00000425  -0.00005265  -0.00000332          0.63     -7.74     -0.49
   0.00000151  -0.00000332  -0.00004856          0.22     -0.49     -7.14


     Writing output data file scf.save
 
     init_run     :     31.93s CPU     33.26s WALL (       1 calls)
     electrons    :   1124.09s CPU   1181.03s WALL (       1 calls)
     forces       :     15.39s CPU     15.53s WALL (       1 calls)
     stress       :     51.87s CPU     52.12s WALL (       1 calls)

     Called by init_run:
     wfcinit      :     22.83s CPU     24.03s WALL (       1 calls)
     potinit      :      3.19s CPU      3.22s WALL (       1 calls)

     Called by electrons:
     c_bands      :    992.36s CPU   1041.44s WALL (      20 calls)
     sum_band     :    117.70s CPU    124.20s WALL (      20 calls)
     v_of_rho     :      2.48s CPU      2.76s WALL (      21 calls)
     newd         :      4.49s CPU      5.53s WALL (      21 calls)
     PAW_pot      :      6.43s CPU      6.43s WALL (      21 calls)
     mix_rho      :      0.55s CPU      0.62s WALL (      20 calls)

     Called by c_bands:
     init_us_2    :      6.28s CPU      6.31s WALL (     344 calls)
     cegterg      :    969.31s CPU   1018.25s WALL (     160 calls)

     Called by sum_band:
     sum_band:bec :      0.06s CPU      0.06s WALL (     160 calls)
     addusdens    :      4.46s CPU      5.54s WALL (      20 calls)

     Called by *egterg:
     h_psi        :    602.76s CPU    643.35s WALL (     722 calls)
     s_psi        :     97.81s CPU     97.82s WALL (     722 calls)
     g_psi        :      2.74s CPU      2.74s WALL (     554 calls)
     cdiaghg      :     42.11s CPU     42.11s WALL (     714 calls)

     Called by h_psi:
     h_psi:pot    :    598.54s CPU    639.07s WALL (     722 calls)
     h_psi:calbec :     97.66s CPU     97.90s WALL (     722 calls)
     vloc_psi     :    402.73s CPU    443.00s WALL (     722 calls)
     add_vuspsi   :     98.15s CPU     98.16s WALL (     722 calls)

     General routines
     calbec       :    140.02s CPU    140.35s WALL (     922 calls)
     fft          :      1.48s CPU      1.95s WALL (     297 calls)
     fftw         :    436.26s CPU    479.99s WALL (  144400 calls)
 
     Parallel routines
     fft_scatter  :     88.10s CPU    128.59s WALL (  144697 calls)
 
     PWSCF        : 20m30.17s CPU    22m 4.71s WALL

 
   This run was terminated on:   0:44:49  21Dec2017            

=------------------------------------------------------------------------------=
   JOB DONE.
=------------------------------------------------------------------------------=
