
     Program PWSCF v.6.1 (svn rev. 13369) starts on 20Dec2017 at 12:17:36 

     This program is part of the open-source Quantum ESPRESSO suite
     for quantum simulation of materials; please cite
         "P. Giannozzi et al., J. Phys.:Condens. Matter 21 395502 (2009);
          URL http://www.quantum-espresso.org", 
     in publications or presentations arising from this work. More details at
     http://www.quantum-espresso.org/quote

     Parallel version (MPI), running on     8 processors
     R & G space division:  proc/nbgrp/npool/nimage =       8
     Waiting for input...
     Reading input from standard input

     Current dimensions of program PWSCF are:
     Max number of different atomic species (ntypx) = 10
     Max number of k-points (npk) =  40000
     Max angular momentum in pseudopotentials (lmaxx) =  3
               file C.pbe-n-kjpaw_psl.0.1.UPF: wavefunction(s)  2P renormalized
               file N.pbe-n-kjpaw_psl.0.1.UPF: wavefunction(s)  2P renormalized
               file H.pbe-kjpaw_psl.0.1.UPF: wavefunction(s)  1S renormalized
               file O.pbe-n-kjpaw_psl.0.1.UPF: wavefunction(s)  2P renormalized

     -------------------------------------
     Parameters for Dispersion Correction:
     -------------------------------------
       atom      VdW radius       C_6     

        C          2.744         60.710
        N          2.640         42.670
        H          1.892          4.857
        O          2.536         24.284

     Subspace diagonalization in iterative solution of the eigenvalue problem:
     a serial algorithm will be used

 
     Parallelization info
     --------------------
     sticks:   dense  smooth     PW     G-vecs:    dense   smooth      PW
     Min         899     899    236                73819    73819   10046
     Max         901     901    237                73822    73822   10051
     Sum        7201    7201   1893               590567   590567   80387
 


     bravais-lattice index     =            0
     lattice parameter (alat)  =      12.7934  a.u.
     unit-cell volume          =    4370.8851 (a.u.)^3
     number of atoms/cell      =           84
     number of atomic types    =            4
     number of electrons       =       256.00
     number of Kohn-Sham states=          153
     kinetic-energy cutoff     =     100.0000  Ry
     charge density cutoff     =     400.0000  Ry
     convergence threshold     =      1.0E-08
     mixing beta               =       0.5000
     number of iterations used =            8  plain     mixing
     Exchange-correlation      =  SLA  PW   PBX  PBC ( 1  4  3  4 0 0)

     celldm(1)=  12.793446  celldm(2)=   0.000000  celldm(3)=   0.000000
     celldm(4)=   0.000000  celldm(5)=   0.000000  celldm(6)=   0.000000

     crystal axes: (cart. coord. in units of alat)
               a(1) = (   1.000000   0.000000   0.000000 )  
               a(2) = (   0.000000   1.381536   0.000000 )  
               a(3) = (   0.000000   0.000000   1.510931 )  

     reciprocal axes: (cart. coord. in units 2 pi/alat)
               b(1) = (  1.000000  0.000000  0.000000 )  
               b(2) = (  0.000000  0.723832  0.000000 )  
               b(3) = (  0.000000  0.000000  0.661844 )  


     PseudoPot. # 1 for  C read from file:
     /scratch/ahofstet/pseudo/C.pbe-n-kjpaw_psl.0.1.UPF
     MD5 check sum: 430fe95172b1e11ef3f8ed03bac87931
     Pseudo is Projector augmented-wave + core cor, Zval =  4.0
     Generated using "atomic" code by A. Dal Corso  v.5.0.99 svn rev. 10869
     Shape of augmentation charge: BESSEL
     Using radial grid of 1073 points,  4 beta functions with: 
                l(1) =   0
                l(2) =   0
                l(3) =   1
                l(4) =   1
     Q(r) pseudized with 0 coefficients 


     PseudoPot. # 2 for  N read from file:
     /scratch/ahofstet/pseudo/N.pbe-n-kjpaw_psl.0.1.UPF
     MD5 check sum: f73187c8b701007e77325f868c9291d7
     Pseudo is Projector augmented-wave + core cor, Zval =  5.0
     Generated using "atomic" code by A. Dal Corso  v.5.0.99 svn rev. 10869
     Shape of augmentation charge: PSQ
     Using radial grid of 1085 points,  4 beta functions with: 
                l(1) =   0
                l(2) =   0
                l(3) =   1
                l(4) =   1
     Q(r) pseudized with 0 coefficients 


     PseudoPot. # 3 for  H read from file:
     /scratch/ahofstet/pseudo/H.pbe-kjpaw_psl.0.1.UPF
     MD5 check sum: 94e484f906d9e9773b2f6e52662335b2
     Pseudo is Projector augmented-wave, Zval =  1.0
     Generated using "atomic" code by A. Dal Corso  v.5.0.99 svn rev. 10869
     Shape of augmentation charge: PSQ
     Using radial grid of  929 points,  2 beta functions with: 
                l(1) =   0
                l(2) =   0
     Q(r) pseudized with 0 coefficients 


     PseudoPot. # 4 for  O read from file:
     /scratch/ahofstet/pseudo/O.pbe-n-kjpaw_psl.0.1.UPF
     MD5 check sum: 3f94a2996a3169367d6eb21d9b593f20
     Pseudo is Projector augmented-wave + core cor, Zval =  6.0
     Generated using "atomic" code by A. Dal Corso  v.5.0.99 svn rev. 10869
     Shape of augmentation charge: BESSEL
     Using radial grid of 1095 points,  4 beta functions with: 
                l(1) =   0
                l(2) =   0
                l(3) =   1
                l(4) =   1
     Q(r) pseudized with 0 coefficients 


     atomic species   valence    mass     pseudopotential
        C              4.00    12.01070      C( 1.00)
        N              5.00    14.00670      N( 1.00)
        H              1.00     1.00794      H( 1.00)
        O              6.00    15.99940      O( 1.00)

     No symmetry found
          (note:  3 additional sym.ops. were found but ignored
           their fractional translations are incommensurate with FFT grid)


   Cartesian axes

     site n.     atom                  positions (alat units)
         1           C   tau(   1) = (   0.6675685   0.3235802   0.4816237  )
         2           C   tau(   2) = (   0.1675685   0.3671879   1.0293069  )
         3           C   tau(   3) = (   0.3324315   1.0143483   0.2738416  )
         4           C   tau(   4) = (   0.8324315   1.0579560   1.2370890  )
         5           C   tau(   5) = (   0.5729691   0.5219093   0.4213523  )
         6           C   tau(   6) = (   0.0729691   0.1688588   1.0895783  )
         7           C   tau(   7) = (   0.4270309   1.2126774   0.3341130  )
         8           C   tau(   8) = (   0.9270309   0.8596269   1.1768176  )
         9           C   tau(   9) = (   0.6643903   0.5631107   0.2118432  )
        10           C   tau(  10) = (   0.1643903   0.1276574   1.2990873  )
        11           C   tau(  11) = (   0.3356097   1.2538788   0.5436220  )
        12           C   tau(  12) = (   0.8356097   0.8184255   0.9673085  )
        13           C   tau(  13) = (   0.8057382   0.3872634   0.1831533  )
        14           C   tau(  14) = (   0.3057382   0.3035047   1.3277772  )
        15           C   tau(  15) = (   0.1942618   1.0780315   0.5723119  )
        16           C   tau(  16) = (   0.6942618   0.9942728   0.9386186  )
        17           C   tau(  17) = (   0.0117777   0.4124056   0.2780076  )
        18           C   tau(  18) = (   0.5117777   0.2783625   1.2329230  )
        19           C   tau(  19) = (   0.9882223   1.1031737   0.4774577  )
        20           C   tau(  20) = (   0.4882223   0.9691306   1.0334729  )
        21           C   tau(  21) = (   0.9915213   0.4626242   0.4982250  )
        22           C   tau(  22) = (   0.4915213   0.2281439   1.0127056  )
        23           C   tau(  23) = (   0.0084787   1.1533923   0.2572403  )
        24           C   tau(  24) = (   0.5084787   0.9189120   1.2536903  )
        25           O   tau(  25) = (   0.8428669   0.3414244   0.5934561  )
        26           O   tau(  26) = (   0.3428669   0.3493437   0.9174745  )
        27           O   tau(  27) = (   0.1571331   1.0321925   0.1620092  )
        28           O   tau(  28) = (   0.6571331   1.0401118   1.3489213  )
        29           O   tau(  29) = (   0.6057207   0.6699364   0.5656949  )
        30           O   tau(  30) = (   0.1057207   0.0208317   0.9452357  )
        31           O   tau(  31) = (   0.3942793   1.3607045   0.1897704  )
        32           O   tau(  32) = (   0.8942793   0.7115998   1.3211602  )
        33           O   tau(  33) = (   0.7556314   0.7514622   0.1992305  )
        34           O   tau(  34) = (   0.2556314   1.3208421   1.3117001  )
        35           O   tau(  35) = (   0.2443686   0.0606941   0.5562348  )
        36           O   tau(  36) = (   0.7443686   0.6300740   0.9546958  )
        37           O   tau(  37) = (   0.7076202   0.2306225   0.2946508  )
        38           O   tau(  38) = (   0.2076202   0.4601456   1.2162798  )
        39           O   tau(  39) = (   0.2923798   0.9213906   0.4608145  )
        40           O   tau(  40) = (   0.7923798   1.1509137   1.0501161  )
        41           O   tau(  41) = (   0.1337355   0.5527433   0.1797969  )
        42           O   tau(  42) = (   0.6337355   0.1380248   1.3311337  )
        43           O   tau(  43) = (   0.8662645   1.2435114   0.5756684  )
        44           O   tau(  44) = (   0.3662645   0.8287929   0.9352622  )
        45           H   tau(  45) = (   0.5682333   0.2269798   0.5648907  )
        46           H   tau(  46) = (   0.0682333   0.4637883   0.9460399  )
        47           H   tau(  47) = (   0.4317667   0.9177479   0.1905746  )
        48           H   tau(  48) = (   0.9317667   1.1545564   1.3203560  )
        49           H   tau(  49) = (   0.4134275   0.4964222   0.4026234  )
        50           H   tau(  50) = (   0.9134275   0.1943459   1.1083072  )
        51           H   tau(  51) = (   0.5865725   1.1871903   0.3528419  )
        52           H   tau(  52) = (   0.0865725   0.8851140   1.1580887  )
        53           H   tau(  53) = (   0.5432012   0.5522450   0.1029792  )
        54           H   tau(  54) = (   0.0432012   0.1385231   1.4079513  )
        55           H   tau(  55) = (   0.4567988   1.2430131   0.6524860  )
        56           H   tau(  56) = (   0.9567988   0.8292912   0.8584445  )
        57           H   tau(  57) = (   0.8181030   0.3369397   0.0298966  )
        58           H   tau(  58) = (   0.3181030   0.3538284   1.4810339  )
        59           H   tau(  59) = (   0.1818970   1.0277078   0.7255687  )
        60           H   tau(  60) = (   0.6818970   1.0445965   0.7853619  )
        61           H   tau(  61) = (   0.0872711   0.2691179   0.2644044  )
        62           H   tau(  62) = (   0.5872711   0.4216502   1.2465262  )
        63           H   tau(  63) = (   0.9127289   0.9598860   0.4910609  )
        64           H   tau(  64) = (   0.4127289   1.1124183   1.0198696  )
        65           H   tau(  65) = (   0.1302768   0.4330039   0.5763184  )
        66           H   tau(  66) = (   0.6302768   0.2577642   0.9346122  )
        67           H   tau(  67) = (   0.8697232   1.1237720   0.1791469  )
        68           H   tau(  68) = (   0.3697232   0.9485323   1.3317837  )
        69           H   tau(  69) = (   0.9516154   0.6195061   0.5133047  )
        70           H   tau(  70) = (   0.4516154   0.0712620   0.9976259  )
        71           H   tau(  71) = (   0.0483846   1.3102742   0.2421606  )
        72           H   tau(  72) = (   0.5483846   0.7620301   1.2687700  )
        73           H   tau(  73) = (   0.4970593   0.7665545   0.5545929  )
        74           H   tau(  74) = (  -0.0029407   1.3057498   0.9563377  )
        75           H   tau(  75) = (   0.5029407   0.0757864   0.2008724  )
        76           H   tau(  76) = (   1.0029407   0.6149817   1.3100582  )
        77           H   tau(  77) = (   0.7932863   0.7680119   0.0589679  )
        78           H   tau(  78) = (   0.2932863   1.3042924   1.4519627  )
        79           H   tau(  79) = (   0.2067137   0.0772438   0.6964974  )
        80           H   tau(  80) = (   0.7067137   0.6135243   0.8144332  )
        81           H   tau(  81) = (   0.0743555   0.6834529   0.1974210  )
        82           H   tau(  82) = (   0.5743555   1.3888514   1.3135095  )
        83           H   tau(  83) = (   0.9256445  -0.0073152   0.5580443  )
        84           H   tau(  84) = (   0.4256445   0.6980833   0.9528863  )

     number of k points=     8
                       cart. coord. in units 2pi/alat
        k(    1) = (   0.0000000   0.0000000   0.0000000), wk =   0.1666667
        k(    2) = (   0.0000000   0.0000000  -0.3309219), wk =   0.1666667
        k(    3) = (   0.0000000  -0.3619160   0.0000000), wk =   0.1666667
        k(    4) = (   0.0000000  -0.3619160  -0.3309219), wk =   0.1666667
        k(    5) = (   0.3333333   0.0000000   0.0000000), wk =   0.3333333
        k(    6) = (   0.3333333   0.0000000  -0.3309219), wk =   0.3333333
        k(    7) = (   0.3333333  -0.3619160   0.0000000), wk =   0.3333333
        k(    8) = (   0.3333333  -0.3619160  -0.3309219), wk =   0.3333333

     Dense  grid:   590567 G-vectors     FFT dimensions: (  81, 120, 125)

     Estimated max dynamical RAM per process >     483.04MB

     Estimated total allocated dynamical RAM >    3864.34MB

     Check: negative/imaginary core charge=   -0.000003    0.000000

     Initial potential from superposition of free atoms

     starting charge  255.99859, renormalised to  256.00000
     Starting wfc are  216 randomized atomic wfcs
     Checking if some PAW data can be deallocated... 

     total cpu time spent up to now is       24.9 secs

     per-process dynamical memory:   331.0 Mb

     Self-consistent Calculation

     iteration #  1     ecut=   100.00 Ry     beta=0.50
     Davidson diagonalization with overlap
     ethr =  1.00E-02,  avg # of iterations =  3.5

     total cpu time spent up to now is      100.0 secs

     total energy              =   -1322.14897611 Ry
     Harris-Foulkes estimate   =   -1325.30497595 Ry
     estimated scf accuracy    <       6.49794372 Ry

     iteration #  2     ecut=   100.00 Ry     beta=0.50
     Davidson diagonalization with overlap
     ethr =  2.54E-03,  avg # of iterations =  2.0

     total cpu time spent up to now is      143.8 secs

     total energy              =   -1322.94550984 Ry
     Harris-Foulkes estimate   =   -1323.21986128 Ry
     estimated scf accuracy    <       0.74043321 Ry

     iteration #  3     ecut=   100.00 Ry     beta=0.50
     Davidson diagonalization with overlap
     ethr =  2.89E-04,  avg # of iterations =  8.2

     total cpu time spent up to now is      224.5 secs

     total energy              =   -1323.11538141 Ry
     Harris-Foulkes estimate   =   -1323.17304771 Ry
     estimated scf accuracy    <       0.16311164 Ry

     iteration #  4     ecut=   100.00 Ry     beta=0.50
     Davidson diagonalization with overlap
     ethr =  6.37E-05,  avg # of iterations =  2.0

     total cpu time spent up to now is      262.7 secs

     total energy              =   -1323.12284686 Ry
     Harris-Foulkes estimate   =   -1323.12801803 Ry
     estimated scf accuracy    <       0.02157031 Ry

     iteration #  5     ecut=   100.00 Ry     beta=0.50
     Davidson diagonalization with overlap
     ethr =  8.43E-06,  avg # of iterations =  5.0

     total cpu time spent up to now is      347.2 secs

     total energy              =   -1323.13279013 Ry
     Harris-Foulkes estimate   =   -1323.14254434 Ry
     estimated scf accuracy    <       0.02387643 Ry

     iteration #  6     ecut=   100.00 Ry     beta=0.50
     Davidson diagonalization with overlap
     ethr =  8.43E-06,  avg # of iterations =  1.5

     total cpu time spent up to now is      384.1 secs

     total energy              =   -1323.13092830 Ry
     Harris-Foulkes estimate   =   -1323.13422680 Ry
     estimated scf accuracy    <       0.00553526 Ry

     iteration #  7     ecut=   100.00 Ry     beta=0.50
     Davidson diagonalization with overlap
     ethr =  2.16E-06,  avg # of iterations =  6.2

     total cpu time spent up to now is      466.7 secs

     total energy              =   -1323.13466228 Ry
     Harris-Foulkes estimate   =   -1323.13683028 Ry
     estimated scf accuracy    <       0.00487471 Ry

     iteration #  8     ecut=   100.00 Ry     beta=0.50
     Davidson diagonalization with overlap
     ethr =  1.90E-06,  avg # of iterations =  1.0

     total cpu time spent up to now is      503.1 secs

     total energy              =   -1323.13443383 Ry
     Harris-Foulkes estimate   =   -1323.13499945 Ry
     estimated scf accuracy    <       0.00090510 Ry

     iteration #  9     ecut=   100.00 Ry     beta=0.50
     Davidson diagonalization with overlap
     ethr =  3.54E-07,  avg # of iterations =  4.5

     total cpu time spent up to now is      580.8 secs

     total energy              =   -1323.13537367 Ry
     Harris-Foulkes estimate   =   -1323.13577277 Ry
     estimated scf accuracy    <       0.00126906 Ry

     iteration # 10     ecut=   100.00 Ry     beta=0.50
     Davidson diagonalization with overlap
     ethr =  3.54E-07,  avg # of iterations =  1.0

     total cpu time spent up to now is      617.2 secs

     total energy              =   -1323.13509838 Ry
     Harris-Foulkes estimate   =   -1323.13540901 Ry
     estimated scf accuracy    <       0.00050781 Ry

     iteration # 11     ecut=   100.00 Ry     beta=0.50
     Davidson diagonalization with overlap
     ethr =  1.98E-07,  avg # of iterations =  3.4

     total cpu time spent up to now is      681.0 secs

     total energy              =   -1323.13537682 Ry
     Harris-Foulkes estimate   =   -1323.13546771 Ry
     estimated scf accuracy    <       0.00025046 Ry

     iteration # 12     ecut=   100.00 Ry     beta=0.50
     Davidson diagonalization with overlap
     ethr =  9.78E-08,  avg # of iterations =  1.0

     total cpu time spent up to now is      717.0 secs

     total energy              =   -1323.13534355 Ry
     Harris-Foulkes estimate   =   -1323.13538668 Ry
     estimated scf accuracy    <       0.00008264 Ry

     iteration # 13     ecut=   100.00 Ry     beta=0.50
     Davidson diagonalization with overlap
     ethr =  3.23E-08,  avg # of iterations =  3.1

     total cpu time spent up to now is      780.6 secs

     total energy              =   -1323.13539476 Ry
     Harris-Foulkes estimate   =   -1323.13539897 Ry
     estimated scf accuracy    <       0.00002136 Ry

     iteration # 14     ecut=   100.00 Ry     beta=0.50
     Davidson diagonalization with overlap
     ethr =  8.34E-09,  avg # of iterations =  1.0

     total cpu time spent up to now is      816.7 secs

     total energy              =   -1323.13538810 Ry
     Harris-Foulkes estimate   =   -1323.13539511 Ry
     estimated scf accuracy    <       0.00001335 Ry

     iteration # 15     ecut=   100.00 Ry     beta=0.50
     Davidson diagonalization with overlap
     ethr =  5.21E-09,  avg # of iterations =  3.0

     total cpu time spent up to now is      874.3 secs

     total energy              =   -1323.13539261 Ry
     Harris-Foulkes estimate   =   -1323.13539276 Ry
     estimated scf accuracy    <       0.00000071 Ry

     iteration # 16     ecut=   100.00 Ry     beta=0.50
     Davidson diagonalization with overlap
     ethr =  2.78E-10,  avg # of iterations =  1.9

     total cpu time spent up to now is      911.2 secs

     total energy              =   -1323.13539248 Ry
     Harris-Foulkes estimate   =   -1323.13539264 Ry
     estimated scf accuracy    <       0.00000046 Ry

     iteration # 17     ecut=   100.00 Ry     beta=0.50
     Davidson diagonalization with overlap
     ethr =  1.79E-10,  avg # of iterations =  3.0

     total cpu time spent up to now is      955.2 secs

     total energy              =   -1323.13539254 Ry
     Harris-Foulkes estimate   =   -1323.13539256 Ry
     estimated scf accuracy    <       0.00000005 Ry

     iteration # 18     ecut=   100.00 Ry     beta=0.50
     Davidson diagonalization with overlap
     ethr =  1.92E-11,  avg # of iterations =  3.6

     total cpu time spent up to now is     1004.4 secs

     End of self-consistent calculation

          k = 0.0000 0.0000 0.0000 ( 73829 PWs)   bands (ev):

   -20.0424 -20.0046 -19.9589 -19.9551 -18.6586 -18.5492 -18.4800 -18.4195
   -18.3739 -18.3596 -18.2676 -18.2470 -18.1451 -18.1372 -18.1344 -18.1021
   -17.9274 -17.8750 -17.8588 -17.7859 -12.0743 -12.0585 -12.0526 -12.0246
   -11.5831 -11.5587 -11.4952 -11.4233  -9.7811  -9.7310  -9.7208  -9.7095
    -9.2610  -9.1274  -9.1231  -9.0224  -7.4169  -7.3807  -7.3642  -7.3542
    -7.1154  -6.9847  -6.7993  -6.7210  -6.6442  -6.3206  -6.3056  -6.1694
    -6.0582  -5.7759  -5.5282  -5.5120  -5.3066  -5.2122  -5.1729  -5.0220
    -5.0095  -4.9347  -4.8370  -4.8297  -4.6285  -4.5978  -4.4811  -4.4492
    -4.0436  -4.0279  -3.8707  -3.8668  -3.7334  -3.6007  -3.4925  -3.4096
    -3.1989  -3.1064  -3.1057  -3.0809  -2.9582  -2.8904  -2.8243  -2.8235
    -2.5496  -2.5347  -2.4869  -2.3567  -2.2396  -2.1334  -2.0369  -2.0160
    -2.0136  -1.8009  -1.7531  -1.6839  -1.6824  -1.5620  -1.4647  -1.3886
    -1.2613  -1.2104  -1.1490  -1.1422  -0.8177  -0.7188  -0.6219  -0.5562
    -0.3695  -0.3457  -0.3258  -0.2700  -0.0009   0.0246   0.0977   0.1184
     0.3828   0.5068   0.5610   0.5615   0.7272   0.7446   0.7649   0.8303
     1.1715   1.1954   1.3020   1.3291   1.4456   1.5954   1.6033   1.6053
     6.8545   6.8804   7.5691   7.6454   7.7603   8.0337   8.2110   8.3111
     8.4896   8.6629   8.7108   8.8988   9.0751   9.0787   9.3795   9.4795
     9.5558   9.5869   9.6763   9.7187   9.8964   9.9419  10.0126  10.0129
    10.2292

          k = 0.0000 0.0000-0.3309 ( 73838 PWs)   bands (ev):

   -20.0238 -20.0238 -19.9568 -19.9568 -18.5919 -18.5919 -18.5100 -18.5100
   -18.3006 -18.3006 -18.2727 -18.2727 -18.1583 -18.1583 -18.0924 -18.0924
   -17.9076 -17.9076 -17.8271 -17.8271 -12.0734 -12.0734 -12.0291 -12.0291
   -11.5729 -11.5729 -11.4591 -11.4591  -9.7807  -9.7807  -9.6941  -9.6941
    -9.1967  -9.1967  -9.0700  -9.0700  -7.4059  -7.4059  -7.3616  -7.3616
    -7.0411  -7.0411  -6.7494  -6.7494  -6.4617  -6.4617  -6.2924  -6.2924
    -5.8922  -5.8922  -5.5803  -5.5803  -5.2619  -5.2619  -5.0619  -5.0619
    -4.9932  -4.9932  -4.7976  -4.7976  -4.5612  -4.5612  -4.5247  -4.5247
    -3.9751  -3.9751  -3.9319  -3.9319  -3.5596  -3.5596  -3.4656  -3.4656
    -3.2292  -3.2292  -3.0498  -3.0498  -2.8762  -2.8762  -2.8245  -2.8245
    -2.6705  -2.6705  -2.4460  -2.4460  -2.1732  -2.1732  -1.9799  -1.9799
    -1.8550  -1.8550  -1.7309  -1.7309  -1.5732  -1.5732  -1.4617  -1.4617
    -1.3652  -1.3652  -1.0450  -1.0450  -0.7932  -0.7932  -0.6277  -0.6277
    -0.3568  -0.3568  -0.2690  -0.2690   0.0233   0.0233   0.0832   0.0832
     0.4054   0.4054   0.5480   0.5480   0.7916   0.7916   0.8857   0.8858
     1.1475   1.1475   1.2872   1.2872   1.5066   1.5066   1.6249   1.6249
     7.0210   7.0210   7.2377   7.2377   8.2106   8.2106   8.4045   8.4045
     8.5923   8.5923   8.7185   8.7185   8.8943   8.8943   9.3291   9.3291
     9.5921   9.5921   9.7613   9.7613   9.9159   9.9159  10.1180  10.1180
    10.2563

          k = 0.0000-0.3619 0.0000 ( 73788 PWs)   bands (ev):

   -20.0043 -20.0043 -19.9783 -19.9783 -18.6019 -18.6019 -18.4250 -18.4250
   -18.3936 -18.3936 -18.2588 -18.2588 -18.1565 -18.1565 -18.0999 -18.0999
   -17.9085 -17.9085 -17.8144 -17.8144 -12.0636 -12.0636 -12.0408 -12.0408
   -11.5423 -11.5423 -11.4892 -11.4892  -9.7547  -9.7547  -9.7143  -9.7143
    -9.1994  -9.1994  -9.0706  -9.0706  -7.4091  -7.4091  -7.3697  -7.3697
    -6.9482  -6.9482  -6.8779  -6.8779  -6.5069  -6.5069  -6.3107  -6.3107
    -5.6799  -5.6799  -5.5842  -5.5842  -5.2538  -5.2538  -5.1156  -5.1156
    -4.9665  -4.9665  -4.8308  -4.8308  -4.6264  -4.6264  -4.4777  -4.4777
    -4.0483  -4.0483  -3.8537  -3.8537  -3.7142  -3.7142  -3.4630  -3.4630
    -3.2064  -3.2064  -3.0264  -3.0264  -2.8958  -2.8958  -2.8178  -2.8178
    -2.5565  -2.5565  -2.4434  -2.4434  -2.1653  -2.1653  -1.9957  -1.9957
    -1.8869  -1.8869  -1.7380  -1.7380  -1.6226  -1.6226  -1.3758  -1.3758
    -1.2709  -1.2709  -1.1243  -1.1243  -0.7758  -0.7758  -0.5732  -0.5732
    -0.4148  -0.4148  -0.3330  -0.3330   0.0583   0.0583   0.1332   0.1332
     0.4588   0.4588   0.5727   0.5727   0.6252   0.6252   0.8403   0.8403
     1.2223   1.2223   1.2687   1.2687   1.4969   1.4969   1.6167   1.6167
     6.8244   6.8244   7.6377   7.6377   7.9038   7.9038   8.3461   8.3461
     8.5668   8.5668   8.9048   8.9048   9.1299   9.1299   9.2553   9.2553
     9.5720   9.5720   9.7490   9.7490   9.9879   9.9880  10.0408  10.0408
    10.2330

          k = 0.0000-0.3619-0.3309 ( 73896 PWs)   bands (ev):

   -19.9935 -19.9935 -19.9893 -19.9893 -18.5534 -18.5534 -18.5407 -18.5407
   -18.2935 -18.2935 -18.2885 -18.2885 -18.1556 -18.1556 -18.0997 -18.0997
   -17.8851 -17.8851 -17.8424 -17.8424 -12.0692 -12.0692 -12.0329 -12.0329
   -11.5191 -11.5191 -11.5138 -11.5138  -9.7726  -9.7726  -9.7004  -9.7004
    -9.1581  -9.1581  -9.1116  -9.1116  -7.4048  -7.4048  -7.3809  -7.3809
    -6.9090  -6.9090  -6.8846  -6.8846  -6.4498  -6.4498  -6.3814  -6.3814
    -5.6812  -5.6812  -5.6525  -5.6525  -5.1877  -5.1877  -5.1531  -5.1531
    -4.9820  -4.9820  -4.8058  -4.8058  -4.5548  -4.5548  -4.5504  -4.5504
    -3.9647  -3.9647  -3.9578  -3.9578  -3.5741  -3.5741  -3.5038  -3.5038
    -3.1728  -3.1728  -3.0607  -3.0607  -2.8822  -2.8822  -2.8405  -2.8405
    -2.6508  -2.6508  -2.4310  -2.4310  -2.1641  -2.1641  -1.9691  -1.9691
    -1.7998  -1.7998  -1.7959  -1.7959  -1.4991  -1.4991  -1.4970  -1.4970
    -1.3380  -1.3380  -1.0906  -1.0906  -0.7330  -0.7330  -0.6716  -0.6716
    -0.3634  -0.3634  -0.3499  -0.3499   0.0827   0.0827   0.0947   0.0947
     0.4607   0.4607   0.4930   0.4930   0.8107   0.8107   0.8390   0.8390
     1.1797   1.1797   1.2418   1.2418   1.5520   1.5520   1.5714   1.5714
     7.0035   7.0035   7.2437   7.2437   8.2184   8.2184   8.2321   8.2321
     8.7554   8.7554   8.8665   8.8665   9.0321   9.0321   9.4061   9.4061
     9.5491   9.5491   9.6424   9.6424   9.7999   9.7999  10.1536  10.1716
    10.1717

          k = 0.3333 0.0000 0.0000 ( 73781 PWs)   bands (ev):

   -20.0229 -19.9995 -19.9678 -19.9653 -18.6395 -18.5921 -18.4371 -18.4028
   -18.3877 -18.3788 -18.2622 -18.2541 -18.1581 -18.1522 -18.1133 -18.0988
   -17.9235 -17.9049 -17.8288 -17.7996 -12.0776 -12.0696 -12.0546 -12.0405
   -11.5739 -11.5449 -11.5207 -11.4684  -9.7361  -9.7123  -9.6765  -9.6671
    -9.1991  -9.1251  -9.0961  -9.0489  -7.4986  -7.4791  -7.3535  -7.3407
    -7.0298  -6.9047  -6.7839  -6.7242  -6.5086  -6.3191  -6.1987  -6.1510
    -6.0290  -5.8995  -5.5126  -5.4894  -5.3797  -5.2197  -5.2028  -5.0024
    -4.9418  -4.9312  -4.9178  -4.8323  -4.6400  -4.6151  -4.4836  -4.4559
    -4.1789  -4.1634  -4.0031  -3.9982  -3.6257  -3.5517  -3.5339  -3.4516
    -3.3144  -3.2347  -3.0697  -3.0673  -2.9888  -2.8714  -2.8272  -2.7726
    -2.5804  -2.5349  -2.5346  -2.4363  -2.3697  -2.2561  -2.0890  -2.0554
    -1.8683  -1.7502  -1.7446  -1.6661  -1.4919  -1.4913  -1.3844  -1.2702
    -1.2202  -1.1680  -1.1280  -1.0392  -0.7797  -0.6958  -0.6101  -0.5966
    -0.5131  -0.4812  -0.3493  -0.2849  -0.1685  -0.1339   0.0665   0.0949
     0.5301   0.6759   0.6925   0.7322   0.7781   0.7896   0.8351   0.8486
     1.1953   1.2206   1.3119   1.3344   1.4319   1.5390   1.6204   1.6383
     6.8597   6.9992   7.2768   7.5079   7.8727   7.9276   8.0043   8.3637
     8.5395   8.5974   8.8321   8.8974   9.0257   9.0733   9.3529   9.6502
     9.7192   9.7989   9.8573   9.8738   9.9254   9.9289  10.0931  10.1830
    10.3311

          k = 0.3333 0.0000-0.3309 ( 73820 PWs)   bands (ev):

   -20.0105 -20.0105 -19.9673 -19.9673 -18.5876 -18.5876 -18.5164 -18.5164
   -18.2923 -18.2923 -18.2771 -18.2771 -18.1485 -18.1485 -18.1118 -18.1118
   -17.8967 -17.8967 -17.8366 -17.8366 -12.0743 -12.0743 -12.0463 -12.0463
   -11.5574 -11.5574 -11.4959 -11.4959  -9.7281  -9.7281  -9.6676  -9.6676
    -9.1663  -9.1663  -9.0756  -9.0756  -7.4883  -7.4883  -7.3508  -7.3508
    -6.9469  -6.9469  -6.7661  -6.7661  -6.3733  -6.3733  -6.2315  -6.2315
    -5.9262  -5.9262  -5.5583  -5.5583  -5.2790  -5.2790  -5.0881  -5.0880
    -4.9489  -4.9489  -4.8685  -4.8685  -4.5634  -4.5634  -4.5430  -4.5430
    -4.1706  -4.1706  -4.0184  -4.0184  -3.5642  -3.5642  -3.4742  -3.4742
    -3.2968  -3.2968  -3.0686  -3.0686  -2.9426  -2.9426  -2.8664  -2.8664
    -2.4827  -2.4827  -2.4414  -2.4414  -2.2631  -2.2631  -2.0326  -2.0326
    -1.8930  -1.8930  -1.7157  -1.7157  -1.4372  -1.4372  -1.4041  -1.4041
    -1.2278  -1.2278  -1.0939  -1.0939  -0.7090  -0.7090  -0.6304  -0.6304
    -0.4872  -0.4872  -0.2858  -0.2858  -0.1455  -0.1455   0.0478   0.0478
     0.5613   0.5613   0.7404   0.7404   0.8098   0.8098   0.9216   0.9216
     1.1663   1.1663   1.2884   1.2884   1.5060   1.5060   1.6196   1.6196
     7.0521   7.0521   7.2154   7.2154   7.9538   7.9538   8.2275   8.2275
     8.5041   8.5041   8.7145   8.7145   9.2014   9.2014   9.5228   9.5228
     9.6828   9.6828   9.8481   9.8481  10.0038  10.0038  10.2518  10.2518
    10.3176

          k = 0.3333-0.3619 0.0000 ( 73860 PWs)   bands (ev):

   -19.9983 -19.9983 -19.9804 -19.9804 -18.6066 -18.6066 -18.4253 -18.4253
   -18.3900 -18.3900 -18.2598 -18.2598 -18.1493 -18.1493 -18.1135 -18.1135
   -17.9032 -17.9032 -17.8182 -17.8182 -12.0687 -12.0687 -12.0560 -12.0560
   -11.5502 -11.5502 -11.5006 -11.5006  -9.7188  -9.7188  -9.6810  -9.6810
    -9.1471  -9.1471  -9.0837  -9.0837  -7.4218  -7.4218  -7.3843  -7.3843
    -6.9455  -6.9455  -6.8248  -6.8248  -6.4052  -6.4052  -6.2767  -6.2767
    -5.7853  -5.7853  -5.6238  -5.6238  -5.2941  -5.2941  -5.0946  -5.0946
    -4.9498  -4.9498  -4.8683  -4.8683  -4.6398  -4.6398  -4.4475  -4.4475
    -4.0832  -4.0832  -4.0184  -4.0184  -3.6033  -3.6033  -3.4963  -3.4963
    -3.2233  -3.2233  -3.1254  -3.1254  -2.8890  -2.8890  -2.8602  -2.8602
    -2.5902  -2.5902  -2.4713  -2.4713  -2.2110  -2.2110  -2.0665  -2.0665
    -1.8214  -1.8214  -1.7064  -1.7064  -1.5588  -1.5588  -1.3397  -1.3397
    -1.1742  -1.1742  -1.0979  -1.0979  -0.7240  -0.7240  -0.6078  -0.6078
    -0.4451  -0.4451  -0.3816  -0.3816  -0.0650  -0.0650   0.0266   0.0266
     0.6051   0.6051   0.7061   0.7061   0.7531   0.7531   0.8421   0.8421
     1.2214   1.2214   1.2631   1.2631   1.5122   1.5122   1.6402   1.6402
     7.0039   7.0039   7.5050   7.5050   7.7917   7.7917   8.1834   8.1834
     8.4187   8.4187   8.8542   8.8542   9.2216   9.2216   9.4033   9.4033
     9.6672   9.6672   9.8039   9.8039   9.9347   9.9347  10.1783  10.1783
    10.2669

          k = 0.3333-0.3619-0.3309 ( 73820 PWs)   bands (ev):

   -19.9904 -19.9904 -19.9882 -19.9882 -18.5541 -18.5541 -18.5477 -18.5477
   -18.2880 -18.2880 -18.2857 -18.2857 -18.1462 -18.1462 -18.1183 -18.1183
   -17.8736 -17.8736 -17.8525 -17.8525 -12.0710 -12.0710 -12.0531 -12.0531
   -11.5264 -11.5264 -11.5236 -11.5236  -9.7192  -9.7192  -9.6805  -9.6805
    -9.1303  -9.1303  -9.1077  -9.1077  -7.4114  -7.4114  -7.3982  -7.3982
    -6.8760  -6.8760  -6.8730  -6.8730  -6.3555  -6.3555  -6.3289  -6.3289
    -5.7377  -5.7377  -5.7049  -5.7049  -5.2065  -5.2065  -5.1611  -5.1610
    -4.9453  -4.9453  -4.8820  -4.8820  -4.5582  -4.5582  -4.5423  -4.5423
    -4.0609  -4.0609  -4.0476  -4.0476  -3.5387  -3.5387  -3.5219  -3.5219
    -3.2106  -3.2106  -3.1709  -3.1709  -2.9025  -2.9025  -2.8933  -2.8933
    -2.5017  -2.5017  -2.4079  -2.4079  -2.1699  -2.1699  -2.1187  -2.1187
    -1.8174  -1.8174  -1.7848  -1.7848  -1.4417  -1.4417  -1.4358  -1.4358
    -1.2121  -1.2121  -1.1164  -1.1164  -0.6862  -0.6862  -0.6407  -0.6407
    -0.4231  -0.4231  -0.3774  -0.3774  -0.0302  -0.0302  -0.0245  -0.0245
     0.6179   0.6179   0.6260   0.6260   0.8725   0.8725   0.8898   0.8898
     1.1912   1.1912   1.2168   1.2168   1.5746   1.5746   1.5808   1.5808
     7.1489   7.1489   7.2953   7.2953   7.9555   7.9555   8.0171   8.0171
     8.4983   8.4983   8.7545   8.7545   9.2521   9.2521   9.4303   9.4303
     9.7280   9.7280   9.7837   9.7837  10.0542  10.0542  10.0554  10.0554
    10.2594

     highest occupied, lowest unoccupied level (ev):     1.6402    6.8244

!    total energy              =   -1323.13539255 Ry
     Harris-Foulkes estimate   =   -1323.13539255 Ry
     estimated scf accuracy    <          5.3E-09 Ry

     total all-electron energy =     -4886.411502 Ry

     The total energy is the sum of the following terms:

     one-electron contribution =    -648.29357705 Ry
     hartree contribution      =     436.71826605 Ry
     xc contribution           =    -277.07123661 Ry
     ewald contribution        =    -484.23675864 Ry
     Dispersion Correction     =      -0.43271748 Ry
     one-center paw contrib.   =    -349.81936881 Ry

     convergence has been achieved in  18 iterations

     Forces acting on atoms (cartesian axes, Ry/au):

     atom    1 type  1   force =     0.00265495   -0.00223266    0.00123904
     atom    2 type  1   force =     0.00264372    0.00223294   -0.00124064
     atom    3 type  1   force =    -0.00265644   -0.00223312   -0.00125862
     atom    4 type  1   force =    -0.00264329    0.00223257    0.00125777
     atom    5 type  1   force =    -0.00124484    0.00142979   -0.00124731
     atom    6 type  1   force =    -0.00123866   -0.00142988    0.00124745
     atom    7 type  1   force =     0.00124526    0.00142933    0.00123835
     atom    8 type  1   force =     0.00123800   -0.00142968   -0.00123847
     atom    9 type  1   force =    -0.00066119   -0.00007416   -0.00263439
     atom   10 type  1   force =    -0.00064541    0.00007391    0.00263445
     atom   11 type  1   force =     0.00066118   -0.00007448    0.00263597
     atom   12 type  1   force =     0.00064560    0.00007402   -0.00263547
     atom   13 type  1   force =     0.00407455   -0.00277500    0.00157827
     atom   14 type  1   force =     0.00405663    0.00277562   -0.00157820
     atom   15 type  1   force =    -0.00407414   -0.00277464   -0.00155997
     atom   16 type  1   force =    -0.00405702    0.00277496    0.00156033
     atom   17 type  1   force =    -0.00286046   -0.00257443   -0.00060457
     atom   18 type  1   force =    -0.00286794    0.00257471    0.00060456
     atom   19 type  1   force =     0.00286057   -0.00257479    0.00059380
     atom   20 type  1   force =     0.00286765    0.00257444   -0.00059362
     atom   21 type  1   force =    -0.00265310    0.00060521   -0.00236346
     atom   22 type  1   force =    -0.00267807   -0.00060461    0.00236295
     atom   23 type  1   force =     0.00265338    0.00060523    0.00238219
     atom   24 type  1   force =     0.00267787   -0.00060495   -0.00238184
     atom   25 type  4   force =    -0.00143634   -0.00399113    0.00098627
     atom   26 type  4   force =    -0.00143470    0.00399155   -0.00098595
     atom   27 type  4   force =     0.00143612   -0.00399116   -0.00098485
     atom   28 type  4   force =     0.00143430    0.00399140    0.00098464
     atom   29 type  4   force =    -0.00139022    0.00072121    0.00097288
     atom   30 type  4   force =    -0.00138417   -0.00072144   -0.00097297
     atom   31 type  4   force =     0.00138988    0.00072174   -0.00097307
     atom   32 type  4   force =     0.00138451   -0.00072127    0.00097272
     atom   33 type  4   force =    -0.00076929    0.00117651   -0.00017273
     atom   34 type  4   force =    -0.00076174   -0.00117676    0.00017296
     atom   35 type  4   force =     0.00076951    0.00117618    0.00017299
     atom   36 type  4   force =     0.00076185   -0.00117649   -0.00017302
     atom   37 type  4   force =    -0.00073405    0.00201852    0.00089248
     atom   38 type  4   force =    -0.00073051   -0.00201858   -0.00089205
     atom   39 type  4   force =     0.00073392    0.00201908   -0.00089310
     atom   40 type  4   force =     0.00073092   -0.00201910    0.00089257
     atom   41 type  4   force =    -0.00050807    0.00148709    0.00041686
     atom   42 type  4   force =    -0.00050557   -0.00148803   -0.00041623
     atom   43 type  4   force =     0.00050813    0.00148747   -0.00041569
     atom   44 type  4   force =     0.00050585   -0.00148751    0.00041566
     atom   45 type  3   force =    -0.00058573   -0.00030253    0.00072273
     atom   46 type  3   force =    -0.00058556    0.00030282   -0.00072294
     atom   47 type  3   force =     0.00058593   -0.00030261   -0.00072339
     atom   48 type  3   force =     0.00058595    0.00030291    0.00072373
     atom   49 type  3   force =     0.00339016    0.00212739   -0.00002499
     atom   50 type  3   force =     0.00339125   -0.00212752    0.00002497
     atom   51 type  3   force =    -0.00339004    0.00212734    0.00002479
     atom   52 type  3   force =    -0.00339162   -0.00212760   -0.00002465
     atom   53 type  3   force =     0.00320062   -0.00023594    0.00066251
     atom   54 type  3   force =     0.00320127    0.00023601   -0.00066260
     atom   55 type  3   force =    -0.00320067   -0.00023588   -0.00066239
     atom   56 type  3   force =    -0.00320125    0.00023600    0.00066255
     atom   57 type  3   force =    -0.00077879    0.00089312    0.00035825
     atom   58 type  3   force =    -0.00077848   -0.00089304   -0.00035812
     atom   59 type  3   force =     0.00077871    0.00089269   -0.00035732
     atom   60 type  3   force =     0.00077837   -0.00089271    0.00035754
     atom   61 type  3   force =     0.00106438   -0.00073720   -0.00002340
     atom   62 type  3   force =     0.00106440    0.00073755    0.00002335
     atom   63 type  3   force =    -0.00106442   -0.00073723    0.00002359
     atom   64 type  3   force =    -0.00106428    0.00073732   -0.00002341
     atom   65 type  3   force =     0.00008052    0.00035027    0.00053890
     atom   66 type  3   force =     0.00008013   -0.00035036   -0.00053814
     atom   67 type  3   force =    -0.00008026    0.00035031   -0.00053828
     atom   68 type  3   force =    -0.00007995   -0.00035059    0.00053770
     atom   69 type  3   force =     0.00057737    0.00131156    0.00028653
     atom   70 type  3   force =     0.00057779   -0.00131179   -0.00028662
     atom   71 type  3   force =    -0.00057745    0.00131148   -0.00028660
     atom   72 type  3   force =    -0.00057773   -0.00131167    0.00028665
     atom   73 type  3   force =    -0.00014916   -0.00015318    0.00064806
     atom   74 type  3   force =    -0.00014903    0.00015331   -0.00064807
     atom   75 type  3   force =     0.00014922   -0.00015313   -0.00064791
     atom   76 type  3   force =     0.00014916    0.00015325    0.00064795
     atom   77 type  3   force =     0.00033939    0.00019638    0.00120517
     atom   78 type  3   force =     0.00033959   -0.00019633   -0.00120519
     atom   79 type  3   force =    -0.00033936    0.00019633   -0.00120514
     atom   80 type  3   force =    -0.00033963   -0.00019632    0.00120514
     atom   81 type  3   force =    -0.00055890   -0.00062196   -0.00039665
     atom   82 type  3   force =    -0.00055858    0.00062199    0.00039670
     atom   83 type  3   force =     0.00055889   -0.00062198    0.00039641
     atom   84 type  3   force =     0.00055868    0.00062188   -0.00039634

     Total force =     0.024485     Total SCF correction =     0.000217


     Computing stress (Cartesian axis) and pressure

          total   stress  (Ry/bohr**3)                   (kbar)     P=   -9.70
  -0.00009505  -0.00000000   0.00000000        -13.98     -0.00      0.00
  -0.00000000  -0.00004907  -0.00000000         -0.00     -7.22     -0.00
   0.00000000  -0.00000000  -0.00005377          0.00     -0.00     -7.91


     Writing output data file scf.save
 
     init_run     :     23.66s CPU     24.21s WALL (       1 calls)
     electrons    :    963.35s CPU    979.68s WALL (       1 calls)
     forces       :     11.61s CPU     11.70s WALL (       1 calls)
     stress       :     41.71s CPU     41.83s WALL (       1 calls)

     Called by init_run:
     wfcinit      :     19.65s CPU     20.13s WALL (       1 calls)
     potinit      :      1.51s CPU      1.53s WALL (       1 calls)

     Called by electrons:
     c_bands      :    861.67s CPU    875.57s WALL (      18 calls)
     sum_band     :     89.85s CPU     91.49s WALL (      18 calls)
     v_of_rho     :      1.59s CPU      1.70s WALL (      19 calls)
     newd         :      3.04s CPU      3.68s WALL (      19 calls)
     PAW_pot      :      6.52s CPU      6.53s WALL (      19 calls)
     mix_rho      :      0.37s CPU      0.39s WALL (      18 calls)

     Called by c_bands:
     init_us_2    :      4.82s CPU      4.84s WALL (     312 calls)
     cegterg      :    841.18s CPU    855.04s WALL (     144 calls)

     Called by sum_band:
     sum_band:bec :      0.06s CPU      0.06s WALL (     144 calls)
     addusdens    :      3.13s CPU      3.77s WALL (      18 calls)

     Called by *egterg:
     h_psi        :    468.44s CPU    474.53s WALL (     592 calls)
     s_psi        :     86.41s CPU     86.40s WALL (     592 calls)
     g_psi        :      2.32s CPU      2.32s WALL (     440 calls)
     cdiaghg      :     46.81s CPU     46.79s WALL (     584 calls)

     Called by h_psi:
     h_psi:pot    :    465.48s CPU    471.52s WALL (     592 calls)
     h_psi:calbec :     92.05s CPU     92.28s WALL (     592 calls)
     vloc_psi     :    287.18s CPU    293.00s WALL (     592 calls)
     add_vuspsi   :     86.24s CPU     86.24s WALL (     592 calls)

     General routines
     calbec       :    136.44s CPU    136.78s WALL (     776 calls)
     fft          :      2.13s CPU      2.32s WALL (     271 calls)
     fftw         :    312.97s CPU    319.20s WALL (  148896 calls)
 
     Parallel routines
     fft_scatter  :     92.62s CPU     97.09s WALL (  149167 calls)
 
     PWSCF        : 17m26.69s CPU    18m25.74s WALL

 
   This run was terminated on:  12:36: 2  20Dec2017            

=------------------------------------------------------------------------------=
   JOB DONE.
=------------------------------------------------------------------------------=
