
     Program PWSCF v.6.1 (svn rev. 13369) starts on 20Dec2017 at  6: 5:39 

     This program is part of the open-source Quantum ESPRESSO suite
     for quantum simulation of materials; please cite
         "P. Giannozzi et al., J. Phys.:Condens. Matter 21 395502 (2009);
          URL http://www.quantum-espresso.org", 
     in publications or presentations arising from this work. More details at
     http://www.quantum-espresso.org/quote

     Parallel version (MPI), running on     8 processors
     R & G space division:  proc/nbgrp/npool/nimage =       8
     Waiting for input...
     Reading input from standard input

     Current dimensions of program PWSCF are:
     Max number of different atomic species (ntypx) = 10
     Max number of k-points (npk) =  40000
     Max angular momentum in pseudopotentials (lmaxx) =  3
               file C.pbe-n-kjpaw_psl.0.1.UPF: wavefunction(s)  2P renormalized
               file N.pbe-n-kjpaw_psl.0.1.UPF: wavefunction(s)  2P renormalized
               file H.pbe-kjpaw_psl.0.1.UPF: wavefunction(s)  1S renormalized
               file O.pbe-n-kjpaw_psl.0.1.UPF: wavefunction(s)  2P renormalized

     -------------------------------------
     Parameters for Dispersion Correction:
     -------------------------------------
       atom      VdW radius       C_6     

        C          2.744         60.710
        N          2.640         42.670
        H          1.892          4.857
        O          2.536         24.284

     Subspace diagonalization in iterative solution of the eigenvalue problem:
     a serial algorithm will be used

 
     Parallelization info
     --------------------
     sticks:   dense  smooth     PW     G-vecs:    dense   smooth      PW
     Min        1766    1766    475               128478   128478   17908
     Max        1767    1767    476               128479   128479   17909
     Sum       14135   14135   3807              1027831  1027831  143269
 


     bravais-lattice index     =            0
     lattice parameter (alat)  =       9.7276  a.u.
     unit-cell volume          =    7608.7260 (a.u.)^3
     number of atoms/cell      =          106
     number of atomic types    =            4
     number of electrons       =       432.00
     number of Kohn-Sham states=          259
     kinetic-energy cutoff     =     100.0000  Ry
     charge density cutoff     =     400.0000  Ry
     convergence threshold     =      1.0E-08
     mixing beta               =       0.5000
     number of iterations used =            8  plain     mixing
     Exchange-correlation      =  SLA  PW   PBX  PBC ( 1  4  3  4 0 0)

     celldm(1)=   9.727554  celldm(2)=   0.000000  celldm(3)=   0.000000
     celldm(4)=   0.000000  celldm(5)=   0.000000  celldm(6)=   0.000000

     crystal axes: (cart. coord. in units of alat)
               a(1) = (   1.000000   0.000000   0.000000 )  
               a(2) = (   0.000000   4.700831   0.000000 )  
               a(3) = (  -0.007427   0.000000   1.758435 )  

     reciprocal axes: (cart. coord. in units 2 pi/alat)
               b(1) = (  1.000000  0.000000  0.004224 )  
               b(2) = (  0.000000  0.212728  0.000000 )  
               b(3) = (  0.000000  0.000000  0.568688 )  


     PseudoPot. # 1 for  C read from file:
     /scratch/ahofstet/pseudo/C.pbe-n-kjpaw_psl.0.1.UPF
     MD5 check sum: 430fe95172b1e11ef3f8ed03bac87931
     Pseudo is Projector augmented-wave + core cor, Zval =  4.0
     Generated using "atomic" code by A. Dal Corso  v.5.0.99 svn rev. 10869
     Shape of augmentation charge: BESSEL
     Using radial grid of 1073 points,  4 beta functions with: 
                l(1) =   0
                l(2) =   0
                l(3) =   1
                l(4) =   1
     Q(r) pseudized with 0 coefficients 


     PseudoPot. # 2 for  N read from file:
     /scratch/ahofstet/pseudo/N.pbe-n-kjpaw_psl.0.1.UPF
     MD5 check sum: f73187c8b701007e77325f868c9291d7
     Pseudo is Projector augmented-wave + core cor, Zval =  5.0
     Generated using "atomic" code by A. Dal Corso  v.5.0.99 svn rev. 10869
     Shape of augmentation charge: PSQ
     Using radial grid of 1085 points,  4 beta functions with: 
                l(1) =   0
                l(2) =   0
                l(3) =   1
                l(4) =   1
     Q(r) pseudized with 0 coefficients 


     PseudoPot. # 3 for  H read from file:
     /scratch/ahofstet/pseudo/H.pbe-kjpaw_psl.0.1.UPF
     MD5 check sum: 94e484f906d9e9773b2f6e52662335b2
     Pseudo is Projector augmented-wave, Zval =  1.0
     Generated using "atomic" code by A. Dal Corso  v.5.0.99 svn rev. 10869
     Shape of augmentation charge: PSQ
     Using radial grid of  929 points,  2 beta functions with: 
                l(1) =   0
                l(2) =   0
     Q(r) pseudized with 0 coefficients 


     PseudoPot. # 4 for  O read from file:
     /scratch/ahofstet/pseudo/O.pbe-n-kjpaw_psl.0.1.UPF
     MD5 check sum: 3f94a2996a3169367d6eb21d9b593f20
     Pseudo is Projector augmented-wave + core cor, Zval =  6.0
     Generated using "atomic" code by A. Dal Corso  v.5.0.99 svn rev. 10869
     Shape of augmentation charge: BESSEL
     Using radial grid of 1095 points,  4 beta functions with: 
                l(1) =   0
                l(2) =   0
                l(3) =   1
                l(4) =   1
     Q(r) pseudized with 0 coefficients 


     atomic species   valence    mass     pseudopotential
        C              4.00    12.01070      C( 1.00)
        N              5.00    14.00670      N( 1.00)
        H              1.00     1.00794      H( 1.00)
        O              6.00    15.99940      O( 1.00)

     No symmetry found



   Cartesian axes

     site n.     atom                  positions (alat units)
         1           O   tau(   1) = (   0.3746621   0.9429255   1.0983066  )
         2           O   tau(   2) = (   0.6179239   3.2932340   0.6601369  )
         3           O   tau(   3) = (   0.5720680   0.2318020   0.8500794  )
         4           O   tau(   4) = (   0.4205342   2.5821253   0.9083359  )
         5           C   tau(   5) = (   0.7089587   0.9786634   0.4254425  )
         6           C   tau(   6) = (   0.2836409   3.3290344   1.3330203  )
         7           C   tau(   7) = (   0.0436522   1.2374877   0.4626033  )
         8           C   tau(   8) = (   0.9488541   3.5877177   1.2958138  )
         9           H   tau(   9) = (   0.2156417   1.3492444   0.4148093  )
        10           H   tau(  10) = (   0.7768732   3.6994869   1.3436162  )
        11           C   tau(  11) = (   0.8277743   0.8226581   1.7228939  )
        12           C   tau(  12) = (   0.1647935   3.1729372   0.0355409  )
        13           C   tau(  13) = (   0.0456355   0.7826926   1.2986765  )
        14           C   tau(  14) = (   0.9469348   3.1329754   0.4597617  )
        15           C   tau(  15) = (   0.0576551   0.6789449   1.0382613  )
        16           C   tau(  16) = (   0.9349271   3.0292509   0.7201852  )
        17           C   tau(  17) = (   0.8865400   0.5004002   0.9081750  )
        18           C   tau(  18) = (   0.1060520   2.8507190   0.8502680  )
        19           C   tau(  19) = (   0.8988500   0.4041619   0.6426676  )
        20           C   tau(  20) = (   0.0937260   2.7544209   1.1157522  )
        21           N   tau(  21) = (   0.6924590   1.0887879   0.6605886  )
        22           N   tau(  22) = (   0.3001087   3.4391308   1.0978571  )
        23           N   tau(  23) = (   0.8992960   1.2474261   0.6812841  )
        24           N   tau(  24) = (   0.0932151   3.5976912   1.0771353  )
        25           N   tau(  25) = (   0.9290696   1.0697476   0.2984828  )
        26           N   tau(  26) = (   0.0634922   3.4200479   1.4599614  )
        27           N   tau(  27) = (   0.9995389   0.9979152   0.0560964  )
        28           N   tau(  28) = (  -0.0069759   3.3481959   1.7023437  )
        29           N   tau(  29) = (   0.6195122   0.7140153   0.0869660  )
        30           N   tau(  30) = (   0.3730669   3.0643270   1.6714642  )
        31           N   tau(  31) = (   0.5552629   0.7962947   0.3161445  )
        32           N   tau(  32) = (   0.4373376   3.1466580   1.4423081  )
        33           N   tau(  33) = (   0.8560123   0.7256593   1.4762528  )
        34           N   tau(  34) = (   0.1365742   3.0759595   0.2821916  )
        35           N   tau(  35) = (   0.2449087   0.9400759   1.3345277  )
        36           N   tau(  36) = (   0.7476650   3.2903616   0.4239083  )
        37           N   tau(  37) = (   0.2622485   0.7798777   0.9214334  )
        38           N   tau(  38) = (   0.7303416   3.1301986   0.8370177  )
        39           N   tau(  39) = (   0.6859749   0.3937566   1.0262089  )
        40           N   tau(  40) = (   0.3066363   2.7441112   0.7322309  )
        41           N   tau(  41) = (   0.6995011   0.2434768   0.6085880  )
        42           N   tau(  42) = (   0.2930754   2.5937420   1.1498190  )
        43           N   tau(  43) = (   0.0722823   0.4692002   0.4581240  )
        44           N   tau(  44) = (   0.9202828   2.8194563   1.3002947  )
        45           H   tau(  45) = (   0.7200370   0.5923355   1.4211457  )
        46           H   tau(  46) = (   0.2725627   2.9426581   0.3373113  )
        47           H   tau(  47) = (   0.2301066   0.5810553   0.5030160  )
        48           H   tau(  48) = (   0.7624851   2.9313439   1.2554081  )
        49           H   tau(  49) = (   0.0829024   0.3647638   0.2885029  )
        50           H   tau(  50) = (   0.9096702   2.7150543   1.4699367  )
        51           O   tau(  51) = (   0.1271730   1.8246489   0.5247625  )
        52           O   tau(  52) = (   0.8653594   4.1749723   1.2336581  )
        53           O   tau(  53) = (   0.9282124   2.5372393   0.2808400  )
        54           O   tau(  54) = (   0.0643944   0.1868083   1.4776133  )
        55           N   tau(  55) = (   0.7732587   1.6412148   0.0922377  )
        56           N   tau(  56) = (   0.2192821   3.9915926   1.6662187  )
        57           N   tau(  57) = (   0.5655317   1.4806130   0.0965432  )
        58           N   tau(  58) = (   0.4270308   3.8310189   1.6619128  )
        59           N   tau(  59) = (   0.5438503   1.6802781   1.4814450  )
        60           N   tau(  60) = (   0.4487273   4.0307394   0.2769815  )
        61           N   tau(  61) = (   0.4813280   1.7678447   1.2426715  )
        62           N   tau(  62) = (   0.5112535   4.1183326   0.5157398  )
        63           N   tau(  63) = (   0.8609109   2.0455819   1.2993295  )
        64           N   tau(  64) = (   0.1316579   4.3960476   0.4590759  )
        65           N   tau(  65) = (   0.9140259   1.9553229   1.5280167  )
        66           N   tau(  66) = (   0.0785198   4.3057348   0.2304112  )
        67           N   tau(  67) = (   0.6365958   2.0418630   0.9151690  )
        68           N   tau(  68) = (   0.3559749   4.3923064   0.8432530  )
        69           N   tau(  69) = (   0.2557317   1.8255922   0.7618531  )
        70           N   tau(  70) = (   0.7367959   4.1759317   0.9965683  )
        71           N   tau(  71) = (   0.2401843   1.9902014   0.3507763  )
        72           N   tau(  72) = (   0.7523656   4.3405337   1.4076490  )
        73           N   tau(  73) = (   0.8158693   2.3756244   0.4579786  )
        74           N   tau(  74) = (   0.1767372   0.0252173   1.3004512  )
        75           N   tau(  75) = (   0.7984683   2.5266805   0.0405475  )
        76           N   tau(  76) = (   0.1941192   0.1761896   1.7179121  )
        77           N   tau(  77) = (   0.4138507   2.3033542   1.6530902  )
        78           N   tau(  78) = (   0.5787217   4.6536777   0.1053592  )
        79           C   tau(  79) = (   0.7587064   1.7643956   1.6210173  )
        80           C   tau(  80) = (   0.2338391   4.1147991   0.1374255  )
        81           C   tau(  81) = (   0.4226850   1.5033801   1.6314723  )
        82           C   tau(  82) = (   0.5699015   3.8538384   0.1269669  )
        83           H   tau(  83) = (   0.2571139   1.3887999   1.5678277  )
        84           H   tau(  84) = (   0.7354846   3.7392804   0.1906188  )
        85           C   tau(  85) = (   0.6534124   1.9398903   1.1615307  )
        86           C   tau(  86) = (   0.3391660   4.2903787   0.5968734  )
        87           C   tau(  87) = (   0.4536509   1.9856720   0.7305712  )
        88           C   tau(  88) = (   0.5388922   4.3360282   1.0278568  )
        89           C   tau(  89) = (   0.4432131   2.0913042   0.4703518  )
        90           C   tau(  90) = (   0.5493402   4.4416490   1.2880786  )
        91           C   tau(  91) = (   0.6137952   2.2702600   0.3412558  )
        92           C   tau(  92) = (   0.3787956   4.6206493   1.4171704  )
        93           C   tau(  93) = (   0.5984532   2.3670789   0.0762445  )
        94           C   tau(  94) = (   0.3941199   0.0165708   1.6822011  )
        95           H   tau(  95) = (   0.7724170   2.1784900   0.8689152  )
        96           H   tau(  96) = (   0.2201885   4.5289607   0.8895217  )
        97           H   tau(  97) = (   0.2580173   2.1904170   1.7014986  )
        98           H   tau(  98) = (   0.7345730   4.5407673   0.0569449  )
        99           H   tau(  99) = (   0.4033964   2.4044532   1.4814363  )
       100           H   tau( 100) = (   0.5891870   0.0539875   0.2769861  )
       101           O   tau( 101) = (  -0.0078227   1.4804005   1.1789771  )
       102           O   tau( 102) = (   1.0004090   3.8308603   0.5794652  )
       103           H   tau( 103) = (   0.9478704   1.4026531   1.0090275  )
       104           H   tau( 104) = (   0.0446851   3.7530398   0.7493869  )
       105           H   tau( 105) = (   0.1493767   1.5795340   1.1391581  )
       106           H   tau( 106) = (   0.8432161   3.9299948   0.6193056  )

     number of k points=     6
                       cart. coord. in units 2pi/alat
        k(    1) = (   0.0000000   0.0000000   0.0000000), wk =   0.2500000
        k(    2) = (   0.0000000   0.0000000  -0.2843438), wk =   0.2500000
        k(    3) = (   0.2500000   0.0000000   0.0010559), wk =   0.5000000
        k(    4) = (   0.2500000   0.0000000  -0.2832878), wk =   0.5000000
        k(    5) = (  -0.5000000   0.0000000  -0.0021119), wk =   0.2500000
        k(    6) = (  -0.5000000   0.0000000  -0.2864556), wk =   0.2500000

     Dense  grid:  1027831 G-vectors     FFT dimensions: (  64, 300, 120)

     Estimated max dynamical RAM per process >    1243.26MB

     Estimated total allocated dynamical RAM >    9946.11MB

     Check: negative/imaginary core charge=   -0.000002    0.000000

     Initial potential from superposition of free atoms

     starting charge  431.99828, renormalised to  432.00000
     Starting wfc are  364 randomized atomic wfcs
     Checking if some PAW data can be deallocated... 

     total cpu time spent up to now is       74.2 secs

     per-process dynamical memory:   758.7 Mb

     Self-consistent Calculation

     iteration #  1     ecut=   100.00 Ry     beta=0.50
     Davidson diagonalization with overlap
     ethr =  1.00E-02,  avg # of iterations =  3.0

     total cpu time spent up to now is      289.9 secs

     total energy              =   -2307.38439681 Ry
     Harris-Foulkes estimate   =   -2311.98166169 Ry
     estimated scf accuracy    <       9.02067589 Ry

     iteration #  2     ecut=   100.00 Ry     beta=0.50
     Davidson diagonalization with overlap
     ethr =  2.09E-03,  avg # of iterations =  3.0

     total cpu time spent up to now is      428.1 secs

     total energy              =   -2308.43575564 Ry
     Harris-Foulkes estimate   =   -2309.21150320 Ry
     estimated scf accuracy    <       1.65448577 Ry

     iteration #  3     ecut=   100.00 Ry     beta=0.50
     Davidson diagonalization with overlap
     ethr =  3.83E-04,  avg # of iterations =  9.5

     total cpu time spent up to now is      618.3 secs

     total energy              =   -2308.79697208 Ry
     Harris-Foulkes estimate   =   -2309.03807671 Ry
     estimated scf accuracy    <       0.56634765 Ry

     iteration #  4     ecut=   100.00 Ry     beta=0.50
     Davidson diagonalization with overlap
     ethr =  1.31E-04,  avg # of iterations = 10.8

     total cpu time spent up to now is      786.9 secs

     total energy              =   -2308.89611441 Ry
     Harris-Foulkes estimate   =   -2308.96511714 Ry
     estimated scf accuracy    <       0.18697935 Ry

     iteration #  5     ecut=   100.00 Ry     beta=0.50
     Davidson diagonalization with overlap
     ethr =  4.33E-05,  avg # of iterations =  8.7

     total cpu time spent up to now is      932.2 secs

     total energy              =   -2308.93345146 Ry
     Harris-Foulkes estimate   =   -2308.94042735 Ry
     estimated scf accuracy    <       0.02160027 Ry

     iteration #  6     ecut=   100.00 Ry     beta=0.50
     Davidson diagonalization with overlap
     ethr =  5.00E-06,  avg # of iterations =  8.5

     total cpu time spent up to now is     1200.0 secs

     total energy              =   -2308.94228144 Ry
     Harris-Foulkes estimate   =   -2308.94411170 Ry
     estimated scf accuracy    <       0.00488478 Ry

     iteration #  7     ecut=   100.00 Ry     beta=0.50
     Davidson diagonalization with overlap
     ethr =  1.13E-06,  avg # of iterations =  2.0

     total cpu time spent up to now is     1321.5 secs

     total energy              =   -2308.94304957 Ry
     Harris-Foulkes estimate   =   -2308.94323517 Ry
     estimated scf accuracy    <       0.00068500 Ry

     iteration #  8     ecut=   100.00 Ry     beta=0.50
     Davidson diagonalization with overlap
     ethr =  1.59E-07,  avg # of iterations =  3.8

     total cpu time spent up to now is     1506.0 secs

     total energy              =   -2308.94323673 Ry
     Harris-Foulkes estimate   =   -2308.94332682 Ry
     estimated scf accuracy    <       0.00025762 Ry

     iteration #  9     ecut=   100.00 Ry     beta=0.50
     Davidson diagonalization with overlap
     ethr =  5.96E-08,  avg # of iterations =  2.0

     total cpu time spent up to now is     1623.9 secs

     total energy              =   -2308.94327213 Ry
     Harris-Foulkes estimate   =   -2308.94328479 Ry
     estimated scf accuracy    <       0.00003707 Ry

     iteration # 10     ecut=   100.00 Ry     beta=0.50
     Davidson diagonalization with overlap
     ethr =  8.58E-09,  avg # of iterations =  4.0

     total cpu time spent up to now is     1837.6 secs

     total energy              =   -2308.94328968 Ry
     Harris-Foulkes estimate   =   -2308.94329609 Ry
     estimated scf accuracy    <       0.00001996 Ry

     iteration # 11     ecut=   100.00 Ry     beta=0.50
     Davidson diagonalization with overlap
     ethr =  4.62E-09,  avg # of iterations =  1.2

     total cpu time spent up to now is     1948.6 secs

     total energy              =   -2308.94328958 Ry
     Harris-Foulkes estimate   =   -2308.94329162 Ry
     estimated scf accuracy    <       0.00000514 Ry

     iteration # 12     ecut=   100.00 Ry     beta=0.50
     Davidson diagonalization with overlap
     ethr =  1.19E-09,  avg # of iterations =  4.0

     total cpu time spent up to now is     2144.7 secs

     total energy              =   -2308.94329170 Ry
     Harris-Foulkes estimate   =   -2308.94329209 Ry
     estimated scf accuracy    <       0.00000140 Ry

     iteration # 13     ecut=   100.00 Ry     beta=0.50
     Davidson diagonalization with overlap
     ethr =  3.24E-10,  avg # of iterations =  2.0

     total cpu time spent up to now is     2258.6 secs

     total energy              =   -2308.94329174 Ry
     Harris-Foulkes estimate   =   -2308.94329189 Ry
     estimated scf accuracy    <       0.00000040 Ry

     iteration # 14     ecut=   100.00 Ry     beta=0.50
     Davidson diagonalization with overlap
     ethr =  9.29E-11,  avg # of iterations =  4.0

     total cpu time spent up to now is     2429.3 secs

     total energy              =   -2308.94329184 Ry
     Harris-Foulkes estimate   =   -2308.94329187 Ry
     estimated scf accuracy    <       0.00000007 Ry

     iteration # 15     ecut=   100.00 Ry     beta=0.50
     Davidson diagonalization with overlap
     ethr =  1.51E-11,  avg # of iterations =  2.3

     total cpu time spent up to now is     2552.4 secs

     total energy              =   -2308.94329185 Ry
     Harris-Foulkes estimate   =   -2308.94329186 Ry
     estimated scf accuracy    <       0.00000002 Ry

     iteration # 16     ecut=   100.00 Ry     beta=0.50
     Davidson diagonalization with overlap
     ethr =  4.25E-12,  avg # of iterations =  3.0

     total cpu time spent up to now is     2693.3 secs

     End of self-consistent calculation

          k = 0.0000 0.0000 0.0000 (128643 PWs)   bands (ev):

   -22.4375 -22.4373 -22.2779 -22.2778 -22.2583 -22.2583 -22.2097 -22.2096
   -20.7957 -20.7956 -20.7722 -20.7721 -19.0060 -19.0058 -18.9818 -18.9816
   -18.0358 -18.0357 -18.0084 -18.0082 -17.4748 -17.4740 -17.4096 -17.4089
   -16.3586 -16.3585 -16.2770 -16.2763 -16.2092 -16.2086 -15.6669 -15.6668
   -15.5712 -15.5710 -15.0900 -15.0899 -14.9990 -14.9990 -14.5200 -14.5188
   -14.4532 -14.4510 -13.8638 -13.8599 -13.7980 -13.7951 -13.5435 -13.5411
   -13.4575 -13.4545 -13.3308 -13.3221 -13.3189 -13.3091 -11.4319 -11.4312
   -11.4093 -11.4083 -10.2233 -10.2203 -10.1870 -10.1860  -9.8991  -9.8963
    -9.7956  -9.7948  -8.9894  -8.9842  -8.9406  -8.9329  -8.6427  -8.6412
    -8.5988  -8.5945  -8.5017  -8.5012  -8.3912  -8.3885  -7.9913  -7.9906
    -7.9345  -7.9340  -7.7499  -7.7447  -7.6668  -7.6660  -6.5680  -6.5616
    -6.5053  -6.4990  -6.3164  -6.2935  -6.1805  -6.1562  -6.0359  -6.0355
    -6.0013  -5.9993  -5.5004  -5.4924  -5.4481  -5.4459  -5.4013  -5.3950
    -5.3712  -5.3445  -5.1852  -5.1662  -5.0897  -5.0787  -5.0090  -4.9993
    -4.9676  -4.9486  -4.8358  -4.8171  -4.6759  -4.6600  -4.6005  -4.5927
    -4.5632  -4.5264  -4.4098  -4.4021  -4.3566  -4.3531  -4.1419  -4.1312
    -3.5168  -3.5147  -3.5064  -3.4876  -3.2324  -3.1937  -3.1385  -3.1314
    -2.8280  -2.8271  -2.7710  -2.7384  -2.6065  -2.5970  -2.4940  -2.4776
    -2.0412  -2.0153  -1.9464  -1.9031  -1.8670  -1.8334  -1.8242  -1.8188
    -1.7394  -1.7166  -1.7011  -1.6587  -1.5756  -1.5672  -1.3675  -1.3575
    -1.3117  -1.2974  -1.2764  -1.2687  -1.2133  -1.2111  -1.1622  -1.1272
    -0.8872  -0.8820  -0.7814  -0.7165  -0.6794  -0.6153  -0.5703  -0.5503
    -0.3695  -0.3476  -0.2935  -0.2791  -0.2085  -0.2017  -0.1744  -0.1695
    -0.1253  -0.1211   0.0486   0.0545   0.1374   0.1459   0.2080   0.2114
     0.2731   0.2791   0.6698   0.6767   0.8159   0.8333   1.1435   1.1513
     1.2477   1.2480   1.3201   1.3324   1.3942   1.3986   1.4969   1.4981
     1.5288   1.5454   1.5899   1.6045   1.7541   1.7581   1.8017   1.8051
     3.7323   3.7332   3.7805   3.7818   4.7980   4.7986   4.9214   4.9273
     5.3913   5.4015   5.5381   5.5407   6.1068   6.1320   6.1532   6.1747
     6.9726   6.9773   7.1470   7.1785   7.3505   7.4205   7.5134   7.5583
     7.8115   7.8246   7.9316   7.9354   8.0828   8.0831   8.3451   8.3533
     8.4472   8.5536   8.5692   8.6104   8.7135   8.7230   8.7984   8.8285
     8.8749   8.9631   8.9655

          k = 0.0000 0.0000-0.2843 (128506 PWs)   bands (ev):

   -22.4373 -22.4371 -22.2770 -22.2769 -22.2588 -22.2588 -22.2100 -22.2099
   -20.7961 -20.7960 -20.7735 -20.7735 -19.0046 -19.0044 -18.9801 -18.9799
   -18.0315 -18.0311 -18.0053 -18.0048 -17.4801 -17.4796 -17.4161 -17.4155
   -16.3591 -16.3590 -16.2748 -16.2745 -16.2102 -16.2099 -15.6688 -15.6687
   -15.5752 -15.5751 -15.0823 -15.0820 -14.9834 -14.9827 -14.5297 -14.5247
   -14.4608 -14.4563 -13.8764 -13.8712 -13.8134 -13.8064 -13.5301 -13.5233
   -13.4819 -13.4778 -13.3125 -13.3091 -13.2970 -13.2929 -11.4324 -11.4319
   -11.4150 -11.4147 -10.2014 -10.1998 -10.1601 -10.1597  -9.9024  -9.8990
    -9.7999  -9.7988  -9.0274  -9.0137  -8.9739  -8.9549  -8.6171  -8.6153
    -8.5967  -8.5861  -8.5428  -8.5386  -8.4128  -8.3996  -8.0165  -8.0122
    -7.9555  -7.9476  -7.6963  -7.6795  -7.6044  -7.5926  -6.5901  -6.5899
    -6.5359  -6.5306  -6.3048  -6.3003  -6.1624  -6.1610  -6.1319  -6.1214
    -5.9668  -5.9568  -5.4969  -5.4872  -5.4671  -5.4598  -5.3996  -5.3789
    -5.3505  -5.3052  -5.2051  -5.2035  -5.1241  -5.1214  -4.9314  -4.9277
    -4.9250  -4.8740  -4.7931  -4.7813  -4.7339  -4.6877  -4.6188  -4.5805
    -4.4630  -4.4602  -4.4142  -4.4066  -4.3572  -4.3499  -4.1411  -4.1407
    -3.5804  -3.5736  -3.5220  -3.5142  -3.2519  -3.2174  -3.1730  -3.1707
    -2.8292  -2.8290  -2.7875  -2.7796  -2.5971  -2.5771  -2.5039  -2.4938
    -2.0743  -2.0358  -1.9941  -1.9387  -1.8617  -1.8360  -1.8240  -1.7955
    -1.7890  -1.7669  -1.7163  -1.6660  -1.5674  -1.5589  -1.4019  -1.3644
    -1.2793  -1.2270  -1.1383  -1.1340  -1.0403  -1.0340  -1.0145  -0.9907
    -0.9262  -0.9032  -0.7446  -0.7319  -0.6512  -0.6308  -0.5745  -0.5664
    -0.5022  -0.4851  -0.3781  -0.3718  -0.2873  -0.2410  -0.2162  -0.1912
    -0.1542  -0.1407   0.0030   0.0093   0.1103   0.1193   0.2561   0.2779
     0.3433   0.3547   0.7271   0.7283   0.8351   0.8379   1.1672   1.1812
     1.2184   1.2223   1.3119   1.3324   1.3884   1.4010   1.4800   1.4952
     1.5064   1.5111   1.6350   1.6372   1.7124   1.7149   1.7788   1.7813
     3.6857   3.6934   3.7424   3.7513   4.8044   4.8116   4.9228   4.9241
     5.2926   5.3296   5.4062   5.4418   6.2531   6.2581   6.3146   6.3161
     6.9558   6.9596   7.1939   7.2037   7.4553   7.4579   7.4888   7.4988
     7.8219   7.8250   7.9797   7.9975   8.1508   8.2370   8.3832   8.3929
     8.4684   8.4934   8.5231   8.5875   8.6834   8.7152   8.7244   8.7300
     8.8793   8.8927   8.9506

          k = 0.2500 0.0000 0.0011 (128489 PWs)   bands (ev):

   -22.4331 -22.4329 -22.2708 -22.2708 -22.2557 -22.2556 -22.2156 -22.2155
   -20.7868 -20.7867 -20.7651 -20.7650 -19.0035 -19.0033 -18.9811 -18.9809
   -18.0459 -18.0458 -18.0206 -18.0203 -17.4767 -17.4762 -17.4137 -17.4132
   -16.3513 -16.3511 -16.2904 -16.2899 -16.2120 -16.2116 -15.6541 -15.6540
   -15.5595 -15.5593 -15.1115 -15.1114 -15.0195 -15.0194 -14.5323 -14.5310
   -14.4654 -14.4636 -13.8769 -13.8741 -13.8197 -13.8174 -13.5342 -13.5284
   -13.4702 -13.4617 -13.3369 -13.3290 -13.3181 -13.3128 -11.4328 -11.4322
   -11.4045 -11.4036 -10.2125 -10.2112 -10.1792 -10.1765  -9.8878  -9.8848
    -9.7814  -9.7806  -8.9829  -8.9800  -8.9338  -8.9307  -8.6089  -8.6061
    -8.5551  -8.5506  -8.4934  -8.4919  -8.4081  -8.4026  -7.9863  -7.9856
    -7.9289  -7.9280  -7.7125  -7.7058  -7.6415  -7.6372  -6.5849  -6.5767
    -6.5207  -6.5110  -6.3052  -6.2911  -6.1850  -6.1706  -6.0581  -6.0541
    -6.0248  -6.0196  -5.5504  -5.5319  -5.4605  -5.4437  -5.4119  -5.3883
    -5.3783  -5.3568  -5.2872  -5.2642  -5.1582  -5.1278  -5.0916  -5.0810
    -4.9895  -4.9887  -4.8750  -4.8623  -4.6786  -4.6372  -4.6080  -4.5991
    -4.5111  -4.5008  -4.4273  -4.4222  -4.3612  -4.3563  -4.1361  -4.1303
    -3.5053  -3.4833  -3.4698  -3.4558  -3.2470  -3.1943  -3.1362  -3.1278
    -2.7176  -2.6899  -2.6719  -2.6630  -2.5584  -2.5441  -2.4699  -2.4627
    -1.9665  -1.9645  -1.8812  -1.8658  -1.8300  -1.8225  -1.7556  -1.7342
    -1.6928  -1.6684  -1.6627  -1.6235  -1.5928  -1.5762  -1.3777  -1.3577
    -1.3189  -1.3087  -1.2791  -1.2606  -1.2539  -1.2402  -1.1409  -1.1365
    -0.9161  -0.9154  -0.7869  -0.7397  -0.6942  -0.6482  -0.5922  -0.5818
    -0.3554  -0.3427  -0.2812  -0.2615  -0.2445  -0.2098  -0.1746  -0.1671
    -0.1259  -0.1060   0.0358   0.0373   0.1128   0.1158   0.3141   0.3200
     0.4043   0.4096   0.7884   0.7962   0.9012   0.9133   1.1711   1.1720
     1.2241   1.2291   1.3366   1.3477   1.4377   1.4529   1.5050   1.5151
     1.5444   1.5611   1.6163   1.6286   1.7811   1.7954   1.8014   1.8126
     3.7123   3.7155   3.7409   3.7440   4.6492   4.6521   4.7700   4.7743
     5.3816   5.3893   5.4989   5.5019   6.0473   6.0640   6.0867   6.1013
     6.8055   6.8127   7.0307   7.0475   7.2960   7.3381   7.4287   7.4521
     7.7655   7.7897   7.8413   7.8498   8.1709   8.2038   8.3111   8.3810
     8.5708   8.5929   8.6344   8.6536   8.7874   8.8061   8.8201   8.8519
     8.9065   8.9343   9.1013

          k = 0.2500 0.0000-0.2833 (128490 PWs)   bands (ev):

   -22.4330 -22.4328 -22.2702 -22.2702 -22.2560 -22.2560 -22.2158 -22.2157
   -20.7867 -20.7866 -20.7660 -20.7659 -19.0038 -19.0036 -18.9802 -18.9800
   -18.0451 -18.0449 -18.0209 -18.0205 -17.4771 -17.4766 -17.4124 -17.4120
   -16.3528 -16.3526 -16.2894 -16.2890 -16.2125 -16.2122 -15.6545 -15.6544
   -15.5620 -15.5619 -15.1070 -15.1068 -15.0121 -15.0117 -14.5398 -14.5371
   -14.4752 -14.4726 -13.8725 -13.8693 -13.8086 -13.8046 -13.5286 -13.5238
   -13.4945 -13.4903 -13.3401 -13.3360 -13.3081 -13.3038 -11.4277 -11.4262
   -11.3995 -11.3982 -10.2079 -10.2064 -10.1706 -10.1693  -9.8891  -9.8860
    -9.7869  -9.7861  -8.9764  -8.9672  -8.9237  -8.9124  -8.6198  -8.6132
    -8.5598  -8.5508  -8.5358  -8.5268  -8.4101  -8.3995  -7.9980  -7.9947
    -7.9410  -7.9359  -7.6972  -7.6855  -7.6268  -7.6180  -6.5758  -6.5734
    -6.5211  -6.5113  -6.3161  -6.3047  -6.1907  -6.1821  -6.1004  -6.0948
    -5.9460  -5.9403  -5.5927  -5.5799  -5.5268  -5.5162  -5.4361  -5.4294
    -5.3871  -5.3756  -5.2033  -5.1900  -5.1216  -5.1119  -5.0278  -5.0238
    -4.9525  -4.9343  -4.8601  -4.8280  -4.6901  -4.6368  -4.6105  -4.5825
    -4.5141  -4.5070  -4.4296  -4.4287  -4.3701  -4.3627  -4.1324  -4.1282
    -3.5852  -3.5479  -3.5383  -3.5224  -3.2548  -3.2137  -3.1630  -3.1524
    -2.7208  -2.7013  -2.6603  -2.6529  -2.5677  -2.5439  -2.4615  -2.4546
    -1.9818  -1.9518  -1.9060  -1.8890  -1.8245  -1.8087  -1.7618  -1.7470
    -1.7148  -1.6668  -1.6509  -1.6053  -1.5758  -1.5527  -1.3891  -1.3565
    -1.3065  -1.2605  -1.2126  -1.2042  -1.1669  -1.1362  -1.1138  -1.1034
    -0.9944  -0.9361  -0.7621  -0.7076  -0.6396  -0.6189  -0.5956  -0.5881
    -0.4396  -0.4313  -0.3197  -0.3117  -0.2367  -0.2270  -0.2062  -0.1899
    -0.1768  -0.1536   0.0434   0.0442   0.1254   0.1267   0.3688   0.3825
     0.4585   0.4689   0.8255   0.8271   0.9245   0.9288   1.1800   1.1919
     1.2017   1.2068   1.2975   1.3109   1.3991   1.4203   1.5016   1.5089
     1.5436   1.5538   1.6806   1.6902   1.7362   1.7402   1.7889   1.7947
     3.6760   3.6850   3.7208   3.7300   4.6539   4.6598   4.7674   4.7702
     5.2547   5.2759   5.3547   5.3767   6.2107   6.2145   6.2747   6.2824
     6.7846   6.7858   7.0581   7.0688   7.3172   7.3276   7.3641   7.3737
     7.8135   7.8274   7.9393   7.9547   8.2540   8.2712   8.3074   8.3396
     8.5398   8.5626   8.6593   8.6670   8.7704   8.7833   8.8306   8.8515
     8.9278   8.9471   8.9924

          k =-0.5000 0.0000-0.0021 (128338 PWs)   bands (ev):

   -22.4285 -22.4283 -22.2661 -22.2661 -22.2461 -22.2461 -22.2263 -22.2261
   -20.7777 -20.7776 -20.7580 -20.7580 -19.0011 -19.0009 -18.9806 -18.9804
   -18.0558 -18.0557 -18.0326 -18.0324 -17.4787 -17.4786 -17.4179 -17.4178
   -16.3390 -16.3389 -16.3090 -16.3089 -16.2147 -16.2145 -15.6387 -15.6386
   -15.5459 -15.5458 -15.1351 -15.1349 -15.0422 -15.0421 -14.5438 -14.5434
   -14.4774 -14.4770 -13.8883 -13.8881 -13.8389 -13.8388 -13.5189 -13.5172
   -13.4799 -13.4788 -13.3385 -13.3380 -13.3187 -13.3176 -11.4334 -11.4333
   -11.4012 -11.4009 -10.2024 -10.2022 -10.1701 -10.1675  -9.8760  -9.8734
    -9.7669  -9.7667  -8.9731  -8.9729  -8.9244  -8.9235  -8.5843  -8.5819
    -8.5207  -8.5189  -8.4570  -8.4551  -8.4274  -8.4254  -7.9840  -7.9833
    -7.9265  -7.9253  -7.6694  -7.6675  -7.6167  -7.6164  -6.5977  -6.5959
    -6.5358  -6.5341  -6.2968  -6.2862  -6.1973  -6.1945  -6.0693  -6.0669
    -6.0456  -6.0321  -5.5983  -5.5932  -5.5043  -5.4984  -5.4054  -5.3877
    -5.3508  -5.3445  -5.3187  -5.3063  -5.2177  -5.2112  -5.1457  -5.1384
    -5.0817  -5.0731  -4.7981  -4.7916  -4.7255  -4.7215  -4.6155  -4.6091
    -4.4889  -4.4874  -4.4586  -4.4585  -4.3457  -4.3413  -4.1296  -4.1296
    -3.4559  -3.4539  -3.4432  -3.4057  -3.2580  -3.1925  -3.1594  -3.1575
    -2.6482  -2.5863  -2.5733  -2.5681  -2.5199  -2.4951  -2.4518  -2.4350
    -1.9696  -1.9530  -1.8502  -1.8405  -1.7553  -1.7436  -1.7259  -1.7204
    -1.6779  -1.6490  -1.5640  -1.5632  -1.5478  -1.5432  -1.4153  -1.3929
    -1.3148  -1.2956  -1.2778  -1.2616  -1.2156  -1.1996  -1.1342  -1.1312
    -0.9126  -0.9057  -0.7582  -0.7513  -0.7093  -0.7066  -0.6252  -0.6240
    -0.3413  -0.3358  -0.2799  -0.2725  -0.2384  -0.2264  -0.1862  -0.1734
    -0.1225  -0.1074  -0.0021   0.0008   0.0836   0.0909   0.4540   0.4570
     0.5215   0.5271   0.9092   0.9111   0.9705   0.9721   1.1748   1.1798
     1.2353   1.2389   1.3380   1.3445   1.4469   1.4648   1.5299   1.5442
     1.5563   1.5661   1.6553   1.6612   1.8197   1.8216   1.8453   1.8455
     3.6779   3.6799   3.7023   3.7032   4.5065   4.5096   4.6104   4.6117
     5.3690   5.3731   5.4690   5.4704   5.9908   5.9915   6.0128   6.0159
     6.6506   6.6516   6.8990   6.8992   7.2475   7.2528   7.3595   7.3607
     7.8055   7.8061   7.8308   7.8374   8.2454   8.2486   8.3617   8.3713
     8.4632   8.4649   8.5549   8.5744   8.7454   8.7573   8.8117   8.8120
     9.1476   9.1759   9.2004

          k =-0.5000 0.0000-0.2865 (128346 PWs)   bands (ev):

   -22.4285 -22.4283 -22.2661 -22.2661 -22.2461 -22.2461 -22.2263 -22.2262
   -20.7771 -20.7770 -20.7584 -20.7584 -19.0029 -19.0028 -18.9803 -18.9802
   -18.0588 -18.0587 -18.0365 -18.0363 -17.4739 -17.4738 -17.4086 -17.4085
   -16.3405 -16.3404 -16.3100 -16.3098 -16.2149 -16.2146 -15.6382 -15.6381
   -15.5466 -15.5465 -15.1334 -15.1332 -15.0430 -15.0428 -14.5492 -14.5489
   -14.4890 -14.4887 -13.8684 -13.8683 -13.8043 -13.8040 -13.5263 -13.5262
   -13.5107 -13.5092 -13.3600 -13.3584 -13.3169 -13.3166 -11.4199 -11.4198
   -11.3841 -11.3837 -10.2143 -10.2136 -10.1813 -10.1793  -9.8754  -9.8728
    -9.7737  -9.7735  -8.9249  -8.9245  -8.8714  -8.8709  -8.6218  -8.6199
    -8.5511  -8.5496  -8.4647  -8.4646  -8.4284  -8.4267  -7.9793  -7.9776
    -7.9243  -7.9227  -7.6955  -7.6943  -7.6422  -7.6416  -6.5622  -6.5598
    -6.5098  -6.4997  -6.3150  -6.3043  -6.2189  -6.2103  -6.0197  -6.0156
    -5.9888  -5.9833  -5.6745  -5.6687  -5.6065  -5.5944  -5.4571  -5.4549
    -5.4119  -5.4075  -5.1756  -5.1739  -5.1482  -5.1349  -5.0776  -5.0550
    -5.0263  -5.0185  -4.8183  -4.8059  -4.7779  -4.7482  -4.6315  -4.5945
    -4.5076  -4.4975  -4.4286  -4.4209  -4.3810  -4.3785  -4.1275  -4.1238
    -3.5769  -3.5684  -3.5271  -3.5176  -3.2429  -3.1949  -3.1445  -3.1422
    -2.6496  -2.6141  -2.5742  -2.5664  -2.4981  -2.4904  -2.4500  -2.4392
    -1.8862  -1.8572  -1.8171  -1.7833  -1.7710  -1.7708  -1.7332  -1.7017
    -1.6469  -1.6355  -1.5870  -1.5618  -1.5502  -1.5287  -1.3710  -1.3694
    -1.3087  -1.3035  -1.2909  -1.2761  -1.2272  -1.2230  -1.1920  -1.1823
    -0.9826  -0.9592  -0.7293  -0.7159  -0.6517  -0.6454  -0.5976  -0.5786
    -0.3841  -0.3718  -0.2601  -0.2535  -0.2374  -0.2303  -0.2065  -0.2053
    -0.1873  -0.1779   0.0668   0.0679   0.1315   0.1337   0.4927   0.4959
     0.5677   0.5759   0.9079   0.9110   1.0115   1.0145   1.1888   1.1907
     1.2105   1.2220   1.3092   1.3111   1.3675   1.3816   1.4982   1.5016
     1.6140   1.6213   1.7372   1.7383   1.7758   1.7789   1.8113   1.8120
     3.6614   3.6631   3.6939   3.6946   4.5049   4.5092   4.6098   4.6100
     5.2170   5.2180   5.3013   5.3047   6.1687   6.1692   6.2422   6.2444
     6.6352   6.6355   6.9308   6.9317   7.1929   7.1950   7.2445   7.2473
     7.9010   7.9097   7.9470   7.9521   8.2128   8.2261   8.2951   8.2969
     8.5374   8.5389   8.6101   8.6151   8.8117   8.8265   8.9077   8.9118
     9.0658   9.0861   9.1123

     highest occupied, lowest unoccupied level (ev):     1.8455    3.6614

!    total energy              =   -2308.94329186 Ry
     Harris-Foulkes estimate   =   -2308.94329186 Ry
     estimated scf accuracy    <          4.0E-09 Ry

     total all-electron energy =     -8917.149422 Ry

     The total energy is the sum of the following terms:

     one-electron contribution =   -1127.07092636 Ry
     hartree contribution      =     741.28750738 Ry
     xc contribution           =    -462.32073009 Ry
     ewald contribution        =    -781.22795526 Ry
     Dispersion Correction     =      -0.53276612 Ry
     one-center paw contrib.   =    -679.07842141 Ry

     convergence has been achieved in  16 iterations

     Forces acting on atoms (cartesian axes, Ry/au):

     atom    1 type  4   force =     0.00229899   -0.01007433    0.00230516
     atom    2 type  4   force =    -0.00230727   -0.01008113   -0.00230599
     atom    3 type  4   force =    -0.00132738    0.01119529   -0.00417216
     atom    4 type  4   force =     0.00132477    0.01119898    0.00417864
     atom    5 type  1   force =    -0.00331985   -0.00265706    0.00826006
     atom    6 type  1   force =     0.00331098   -0.00273888   -0.00826709
     atom    7 type  1   force =    -0.01327565   -0.00088879    0.00561008
     atom    8 type  1   force =     0.01327344   -0.00077803   -0.00561056
     atom    9 type  3   force =     0.00330790   -0.00230412    0.00302672
     atom   10 type  3   force =    -0.00332260   -0.00233023   -0.00303678
     atom   11 type  1   force =     0.00082020   -0.00003385   -0.01002960
     atom   12 type  1   force =    -0.00080391    0.00004554    0.01002316
     atom   13 type  1   force =     0.00303727   -0.00269209   -0.00735716
     atom   14 type  1   force =    -0.00299395   -0.00266034    0.00734183
     atom   15 type  1   force =     0.00470955    0.01061695    0.00464085
     atom   16 type  1   force =    -0.00472277    0.01063705   -0.00463228
     atom   17 type  1   force =    -0.00595777   -0.00925036   -0.00500974
     atom   18 type  1   force =     0.00598276   -0.00929709    0.00498846
     atom   19 type  1   force =    -0.00029474    0.00205487    0.00649488
     atom   20 type  1   force =     0.00022773    0.00215637   -0.00643900
     atom   21 type  2   force =    -0.00064375   -0.00461067   -0.00701459
     atom   22 type  2   force =     0.00065165   -0.00461046    0.00702483
     atom   23 type  2   force =     0.00741043    0.00478584   -0.00792545
     atom   24 type  2   force =    -0.00741005    0.00478821    0.00793567
     atom   25 type  2   force =     0.00976662    0.00051468   -0.00569524
     atom   26 type  2   force =    -0.00976303    0.00048899    0.00570948
     atom   27 type  2   force =    -0.00597696   -0.00071674    0.00253655
     atom   28 type  2   force =     0.00597121   -0.00072939   -0.00254516
     atom   29 type  2   force =    -0.00698784   -0.00073958    0.00325931
     atom   30 type  2   force =     0.00699525   -0.00074077   -0.00326421
     atom   31 type  2   force =     0.00787970    0.00589732   -0.00063590
     atom   32 type  2   force =    -0.00788335    0.00588585    0.00064216
     atom   33 type  2   force =     0.00285285    0.00271039    0.00632600
     atom   34 type  2   force =    -0.00289543    0.00270831   -0.00632680
     atom   35 type  2   force =    -0.00484337    0.00122764   -0.00109354
     atom   36 type  2   force =     0.00483439    0.00124447    0.00109111
     atom   37 type  2   force =    -0.01011811    0.00284757    0.00208991
     atom   38 type  2   force =     0.01013034    0.00283675   -0.00210022
     atom   39 type  2   force =     0.00966091   -0.00309862   -0.00192493
     atom   40 type  2   force =    -0.00967974   -0.00310572    0.00193293
     atom   41 type  2   force =     0.00655341   -0.00302611    0.00381110
     atom   42 type  2   force =    -0.00653088   -0.00303581   -0.00381585
     atom   43 type  2   force =    -0.00276431   -0.00073316   -0.00076125
     atom   44 type  2   force =     0.00283022   -0.00076527    0.00071271
     atom   45 type  3   force =     0.00045722    0.00002819   -0.00053833
     atom   46 type  3   force =    -0.00044615    0.00001060    0.00053992
     atom   47 type  3   force =    -0.00250239   -0.00074238    0.00050399
     atom   48 type  3   force =     0.00248230   -0.00072774   -0.00051374
     atom   49 type  3   force =     0.00062775    0.00023764    0.00145644
     atom   50 type  3   force =    -0.00062465    0.00023259   -0.00144465
     atom   51 type  4   force =    -0.00225230    0.01003461    0.00168845
     atom   52 type  4   force =     0.00224039    0.01001836   -0.00168382
     atom   53 type  4   force =     0.00125286   -0.01150023   -0.00492974
     atom   54 type  4   force =    -0.00125686   -0.01148836    0.00492615
     atom   55 type  2   force =     0.00181997    0.00788634   -0.00691810
     atom   56 type  2   force =    -0.00182575    0.00786790    0.00691927
     atom   57 type  2   force =    -0.00868941   -0.00479660   -0.00991599
     atom   58 type  2   force =     0.00869605   -0.00479646    0.00992196
     atom   59 type  2   force =    -0.00881376    0.00091887   -0.00770516
     atom   60 type  2   force =     0.00881800    0.00090164    0.00770055
     atom   61 type  2   force =     0.00615026    0.00161821    0.00486108
     atom   62 type  2   force =    -0.00614356    0.00161282   -0.00486165
     atom   63 type  2   force =     0.00636676   -0.00040561    0.00204795
     atom   64 type  2   force =    -0.00636653   -0.00041915   -0.00205250
     atom   65 type  2   force =    -0.00681900   -0.00572559   -0.00118150
     atom   66 type  2   force =     0.00682808   -0.00571424    0.00118708
     atom   67 type  2   force =    -0.00203009   -0.00213805    0.00643345
     atom   68 type  2   force =     0.00205274   -0.00214855   -0.00643491
     atom   69 type  2   force =     0.00512620   -0.00191934   -0.00160189
     atom   70 type  2   force =    -0.00512423   -0.00192297    0.00159900
     atom   71 type  2   force =     0.01089665   -0.00301582    0.00267554
     atom   72 type  2   force =    -0.01089582   -0.00302075   -0.00267825
     atom   73 type  2   force =    -0.01071126    0.00278872   -0.00236862
     atom   74 type  2   force =     0.01070385    0.00278140    0.00237070
     atom   75 type  2   force =    -0.00656570    0.00290882    0.00369941
     atom   76 type  2   force =     0.00655612    0.00291578   -0.00369290
     atom   77 type  2   force =     0.00320199    0.00043573   -0.00030936
     atom   78 type  2   force =    -0.00321297    0.00042523    0.00030265
     atom   79 type  1   force =     0.00176700    0.00226162    0.00941720
     atom   80 type  1   force =    -0.00176578    0.00230741   -0.00941622
     atom   81 type  1   force =     0.01336651   -0.00239805    0.00645028
     atom   82 type  1   force =    -0.01338283   -0.00241913   -0.00646395
     atom   83 type  3   force =    -0.00329088    0.00135843    0.00277707
     atom   84 type  3   force =     0.00329801    0.00136010   -0.00277922
     atom   85 type  1   force =    -0.00053517    0.00161326   -0.00961295
     atom   86 type  1   force =     0.00051831    0.00155653    0.00962446
     atom   87 type  1   force =    -0.00402625    0.00216269   -0.00814428
     atom   88 type  1   force =     0.00402413    0.00222748    0.00813209
     atom   89 type  1   force =    -0.00492089   -0.01041485    0.00545851
     atom   90 type  1   force =     0.00493885   -0.01035868   -0.00545403
     atom   91 type  1   force =     0.00572626    0.01017483   -0.00542345
     atom   92 type  1   force =    -0.00573680    0.01008496    0.00542366
     atom   93 type  1   force =     0.00073340   -0.00223612    0.00599478
     atom   94 type  1   force =    -0.00071215   -0.00213724   -0.00598216
     atom   95 type  3   force =    -0.00050270   -0.00033306   -0.00053400
     atom   96 type  3   force =     0.00048918   -0.00032599    0.00054214
     atom   97 type  3   force =     0.00223667    0.00125038    0.00061551
     atom   98 type  3   force =    -0.00223393    0.00124439   -0.00060879
     atom   99 type  3   force =    -0.00042168   -0.00005674    0.00174601
     atom  100 type  3   force =     0.00042631   -0.00005831   -0.00174687
     atom  101 type  4   force =     0.00126743   -0.00113462   -0.00099377
     atom  102 type  4   force =    -0.00126962   -0.00114856    0.00099360
     atom  103 type  3   force =     0.00084232   -0.00078286    0.00105437
     atom  104 type  3   force =    -0.00084042   -0.00078866   -0.00105046
     atom  105 type  3   force =    -0.00241365    0.00085182   -0.00069795
     atom  106 type  3   force =     0.00241377    0.00085490    0.00069785

     Total force =     0.092427     Total SCF correction =     0.000162


     Computing stress (Cartesian axis) and pressure

          total   stress  (Ry/bohr**3)                   (kbar)     P=   -8.75
  -0.00005287  -0.00000003  -0.00000664         -7.78     -0.00     -0.98
  -0.00000003  -0.00003661  -0.00000001         -0.00     -5.39     -0.00
  -0.00000664  -0.00000001  -0.00008891         -0.98     -0.00    -13.08


     Writing output data file scf.save
 
     init_run     :     71.24s CPU     73.51s WALL (       1 calls)
     electrons    :   2531.78s CPU   2619.26s WALL (       1 calls)
     forces       :     37.61s CPU     37.89s WALL (       1 calls)
     stress       :    173.00s CPU    173.44s WALL (       1 calls)

     Called by init_run:
     wfcinit      :     58.71s CPU     60.84s WALL (       1 calls)
     potinit      :      4.47s CPU      4.49s WALL (       1 calls)

     Called by electrons:
     c_bands      :   2291.67s CPU   2366.10s WALL (      16 calls)
     sum_band     :    222.99s CPU    234.34s WALL (      16 calls)
     v_of_rho     :      2.66s CPU      2.90s WALL (      17 calls)
     newd         :      6.60s CPU      8.07s WALL (      17 calls)
     PAW_pot      :      7.32s CPU      7.32s WALL (      17 calls)
     mix_rho      :      0.62s CPU      0.68s WALL (      16 calls)

     Called by c_bands:
     init_us_2    :      8.93s CPU      9.01s WALL (     210 calls)
     cegterg      :   2249.81s CPU   2324.04s WALL (      96 calls)

     Called by sum_band:
     sum_band:bec :      0.14s CPU      0.14s WALL (      96 calls)
     addusdens    :      6.75s CPU      8.19s WALL (      16 calls)

     Called by *egterg:
     h_psi        :   1122.28s CPU   1180.48s WALL (     533 calls)
     s_psi        :    286.77s CPU    286.85s WALL (     533 calls)
     g_psi        :      4.43s CPU      4.43s WALL (     431 calls)
     cdiaghg      :    165.62s CPU    165.66s WALL (     527 calls)

     Called by h_psi:
     h_psi:pot    :   1115.76s CPU   1173.83s WALL (     533 calls)
     h_psi:calbec :    287.84s CPU    288.37s WALL (     533 calls)
     vloc_psi     :    540.73s CPU    598.15s WALL (     533 calls)
     add_vuspsi   :    287.18s CPU    287.31s WALL (     533 calls)

     General routines
     calbec       :    422.12s CPU    422.84s WALL (     659 calls)
     fft          :      3.55s CPU      3.95s WALL (     245 calls)
     fftw         :    571.99s CPU    638.78s WALL (  162122 calls)
 
     Parallel routines
     fft_scatter  :    127.81s CPU    193.19s WALL (  162367 calls)
 
     PWSCF        : 47m 7.56s CPU    49m25.91s WALL

 
   This run was terminated on:   6:55: 5  20Dec2017            

=------------------------------------------------------------------------------=
   JOB DONE.
=------------------------------------------------------------------------------=
