
     Program PWSCF v.6.1 (svn rev. 13369) starts on  4Nov2017 at  6: 1:11 

     This program is part of the open-source Quantum ESPRESSO suite
     for quantum simulation of materials; please cite
         "P. Giannozzi et al., J. Phys.:Condens. Matter 21 395502 (2009);
          URL http://www.quantum-espresso.org", 
     in publications or presentations arising from this work. More details at
     http://www.quantum-espresso.org/quote

     Parallel version (MPI), running on     8 processors
     R & G space division:  proc/nbgrp/npool/nimage =       8
     Waiting for input...
     Reading input from standard input

     Current dimensions of program PWSCF are:
     Max number of different atomic species (ntypx) = 10
     Max number of k-points (npk) =  40000
     Max angular momentum in pseudopotentials (lmaxx) =  3
               file C.pbe-n-kjpaw_psl.0.1.UPF: wavefunction(s)  2P renormalized
               file N.pbe-n-kjpaw_psl.0.1.UPF: wavefunction(s)  2P renormalized
               file H.pbe-kjpaw_psl.0.1.UPF: wavefunction(s)  1S renormalized
               file O.pbe-n-kjpaw_psl.0.1.UPF: wavefunction(s)  2P renormalized

     -------------------------------------
     Parameters for Dispersion Correction:
     -------------------------------------
       atom      VdW radius       C_6     

        C          2.744         60.710
        N          2.640         42.670
        H          1.892          4.857
        O          2.536         24.284

     Subspace diagonalization in iterative solution of the eigenvalue problem:
     a serial algorithm will be used

 
     Parallelization info
     --------------------
     sticks:   dense  smooth     PW     G-vecs:    dense   smooth      PW
     Min         946     946    248                69641    69641    9366
     Max         947     947    249                69642    69642    9369
     Sum        7575    7575   1991               557129   557129   74939
 


     bravais-lattice index     =            0
     lattice parameter (alat)  =      15.4296  a.u.
     unit-cell volume          =    4123.5876 (a.u.)^3
     number of atoms/cell      =           64
     number of atomic types    =            4
     number of electrons       =       204.00
     number of Kohn-Sham states=          122
     kinetic-energy cutoff     =     100.0000  Ry
     charge density cutoff     =     400.0000  Ry
     convergence threshold     =      1.0E-08
     mixing beta               =       0.5000
     number of iterations used =            8  plain     mixing
     Exchange-correlation      =  SLA  PW   PBX  PBC ( 1  4  3  4 0 0)

     celldm(1)=  15.429614  celldm(2)=   0.000000  celldm(3)=   0.000000
     celldm(4)=   0.000000  celldm(5)=   0.000000  celldm(6)=   0.000000

     crystal axes: (cart. coord. in units of alat)
               a(1) = (   1.000000   0.000000   0.000000 )  
               a(2) = (  -0.112252   0.998856   0.000000 )  
               a(3) = (  -0.239105  -0.048663   1.123847 )  

     reciprocal axes: (cart. coord. in units 2 pi/alat)
               b(1) = (  1.000000  0.112380  0.217622 )  
               b(2) = (  0.000000  1.001145  0.043350 )  
               b(3) = (  0.000000  0.000000  0.889801 )  


     PseudoPot. # 1 for  C read from file:
     /scratch/ahofstet/pseudo/C.pbe-n-kjpaw_psl.0.1.UPF
     MD5 check sum: 430fe95172b1e11ef3f8ed03bac87931
     Pseudo is Projector augmented-wave + core cor, Zval =  4.0
     Generated using "atomic" code by A. Dal Corso  v.5.0.99 svn rev. 10869
     Shape of augmentation charge: BESSEL
     Using radial grid of 1073 points,  4 beta functions with: 
                l(1) =   0
                l(2) =   0
                l(3) =   1
                l(4) =   1
     Q(r) pseudized with 0 coefficients 


     PseudoPot. # 2 for  N read from file:
     /scratch/ahofstet/pseudo/N.pbe-n-kjpaw_psl.0.1.UPF
     MD5 check sum: f73187c8b701007e77325f868c9291d7
     Pseudo is Projector augmented-wave + core cor, Zval =  5.0
     Generated using "atomic" code by A. Dal Corso  v.5.0.99 svn rev. 10869
     Shape of augmentation charge: PSQ
     Using radial grid of 1085 points,  4 beta functions with: 
                l(1) =   0
                l(2) =   0
                l(3) =   1
                l(4) =   1
     Q(r) pseudized with 0 coefficients 


     PseudoPot. # 3 for  H read from file:
     /scratch/ahofstet/pseudo/H.pbe-kjpaw_psl.0.1.UPF
     MD5 check sum: 94e484f906d9e9773b2f6e52662335b2
     Pseudo is Projector augmented-wave, Zval =  1.0
     Generated using "atomic" code by A. Dal Corso  v.5.0.99 svn rev. 10869
     Shape of augmentation charge: PSQ
     Using radial grid of  929 points,  2 beta functions with: 
                l(1) =   0
                l(2) =   0
     Q(r) pseudized with 0 coefficients 


     PseudoPot. # 4 for  O read from file:
     /scratch/ahofstet/pseudo/O.pbe-n-kjpaw_psl.0.1.UPF
     MD5 check sum: 3f94a2996a3169367d6eb21d9b593f20
     Pseudo is Projector augmented-wave + core cor, Zval =  6.0
     Generated using "atomic" code by A. Dal Corso  v.5.0.99 svn rev. 10869
     Shape of augmentation charge: BESSEL
     Using radial grid of 1095 points,  4 beta functions with: 
                l(1) =   0
                l(2) =   0
                l(3) =   1
                l(4) =   1
     Q(r) pseudized with 0 coefficients 


     atomic species   valence    mass     pseudopotential
        C              4.00    12.01070      C( 1.00)
        N              5.00    14.00670      N( 1.00)
        H              1.00     1.00794      H( 1.00)
        O              6.00    15.99940      O( 1.00)

      2 Sym. Ops., with inversion, found



   Cartesian axes

     site n.     atom                  positions (alat units)
         1           O   tau(   1) = (   0.1385431   0.2916985   0.9182997  )
         2           O   tau(   2) = (   0.5101006   0.6584946   0.2055470  )
         3           O   tau(   3) = (   0.2699876   0.7552245   0.6256551  )
         4           O   tau(   4) = (   0.3786560   0.1949686   0.4981915  )
         5           O   tau(   5) = (   0.4069987   0.5740765   0.9590607  )
         6           O   tau(   6) = (   0.2416449   0.3761167   0.1647860  )
         7           H   tau(   7) = (   0.4838436   0.6596428   0.9242580  )
         8           H   tau(   8) = (   0.1648000   0.2905504   0.1995886  )
         9           O   tau(   9) = (   0.0205205   0.4568995   0.5646833  )
        10           O   tau(  10) = (   0.6281231   0.4932937   0.5591634  )
        11           C   tau(  11) = (   0.1154383   0.4912402   0.6771725  )
        12           C   tau(  12) = (   0.5332053   0.4589529   0.4466741  )
        13           C   tau(  13) = (   0.1725599   0.4150645   0.8365845  )
        14           C   tau(  14) = (   0.4760837   0.5351286   0.2872621  )
        15           C   tau(  15) = (   0.2902962   0.5476118   0.8497757  )
        16           C   tau(  16) = (   0.3583474   0.4025814   0.2740709  )
        17           C   tau(  17) = (   0.2344587   0.6274040   0.7036499  )
        18           C   tau(  18) = (   0.4141850   0.3227891   0.4201968  )
        19           O   tau(  19) = (   0.0303760   0.0340950   0.7684272  )
        20           O   tau(  20) = (   0.6182677   0.9160981   0.3554194  )
        21           H   tau(  21) = (   0.0672058   0.1350427   0.8307181  )
        22           H   tau(  22) = (   0.5814379   0.8151504   0.2931286  )
        23           O   tau(  23) = (  -0.2089006   0.7644927   0.6391191  )
        24           O   tau(  24) = (   0.8575443   0.1857004   0.4847276  )
        25           H   tau(  25) = (  -0.2615967   0.6599117   0.6022237  )
        26           H   tau(  26) = (   0.9102404   0.2902814   0.5216229  )
        27           N   tau(  27) = (   0.0429180   0.9480431   0.4519084  )
        28           N   tau(  28) = (   0.6057257   0.0021500   0.6719382  )
        29           H   tau(  29) = (   0.1029127   0.8512918   0.5102438  )
        30           H   tau(  30) = (   0.5457310   0.0989013   0.6136028  )
        31           H   tau(  31) = (  -0.0638192   0.9722364   0.5153059  )
        32           H   tau(  32) = (   0.7124629  -0.0220432   0.6085407  )
        33           H   tau(  33) = (   0.2338669   0.0507477   0.4650018  )
        34           H   tau(  34) = (   0.4147768   0.8994454   0.6588448  )
        35           C   tau(  35) = (  -0.1730917   0.7599797   0.8018311  )
        36           C   tau(  36) = (   0.8217354   0.1902134   0.3220155  )
        37           C   tau(  37) = (  -0.0686766   0.9086798   1.0372534  )
        38           C   tau(  38) = (   0.7173203   0.0415133   0.0865932  )
        39           H   tau(  39) = (   0.0956858   0.0223449   1.0875345  )
        40           H   tau(  40) = (   0.5529578   0.9278483   0.0363121  )
        41           C   tau(  41) = (  -0.1048881   0.9039248   0.8704538  )
        42           C   tau(  42) = (   0.7535317   0.0462683   0.2533928  )
        43           C   tau(  43) = (  -0.2020925   0.6246791   0.9027716  )
        44           C   tau(  44) = (   0.8507362   0.3255140   0.2210750  )
        45           H   tau(  45) = (  -0.2504344   0.5127791   0.8479469  )
        46           H   tau(  46) = (   0.8990781   0.4374140   0.2758997  )
        47           C   tau(  47) = (   0.1399153   0.8222277   0.0149156  )
        48           C   tau(  48) = (   0.5087284   0.1279654   1.1089310  )
        49           C   tau(  49) = (   0.1664496   0.8374235   0.1966284  )
        50           C   tau(  50) = (   0.4821941   0.1127696   0.9272182  )
        51           H   tau(  51) = (   0.2737404   0.9152795   0.2226547  )
        52           H   tau(  52) = (   0.3749033   0.0349137   0.9011919  )
        53           H   tau(  53) = (   0.1901772   0.7169672   0.2516423  )
        54           H   tau(  54) = (   0.4584665   0.2332259   0.8722043  )
        55           C   tau(  55) = (  -0.1655672   0.6318400   1.0703116  )
        56           C   tau(  56) = (   0.8142109   0.3183532   0.0535351  )
        57           H   tau(  57) = (   0.0529429   0.5733538   0.0231041  )
        58           H   tau(  58) = (   0.5957007   0.3768393   1.1007425  )
        59           C   tau(  59) = (   0.0144233   0.9119852   0.2758116  )
        60           C   tau(  60) = (   0.6342204   0.0382080   0.8480350  )
        61           H   tau(  61) = (   0.0922323   0.0284172   0.2152646  )
        62           H   tau(  62) = (   0.5564113   0.9217760   0.9085820  )
        63           H   tau(  63) = (  -0.0912929   0.8296211   0.2665555  )
        64           H   tau(  64) = (   0.7399366   0.1205720   0.8572911  )

     number of k points=    10
                       cart. coord. in units 2pi/alat
        k(    1) = (   0.0000000   0.0000000   0.0000000), wk =   0.1111111
        k(    2) = (   0.0000000   0.0000000  -0.4449006), wk =   0.1111111
        k(    3) = (   0.0000000   0.3337150   0.0144500), wk =   0.2222222
        k(    4) = (   0.0000000   0.3337150  -0.4304505), wk =   0.2222222
        k(    5) = (   0.3333333   0.0374600   0.0725406), wk =   0.2222222
        k(    6) = (   0.3333333   0.0374600  -0.3723600), wk =   0.2222222
        k(    7) = (   0.3333333   0.3711750   0.0869907), wk =   0.2222222
        k(    8) = (   0.3333333   0.3711750  -0.3579099), wk =   0.2222222
        k(    9) = (   0.3333333  -0.2962550   0.0580906), wk =   0.2222222
        k(   10) = (   0.3333333  -0.2962550  -0.3868100), wk =   0.2222222

     Dense  grid:   557129 G-vectors     FFT dimensions: ( 100, 100, 120)

     Estimated max dynamical RAM per process >     404.45MB

     Estimated total allocated dynamical RAM >    3235.62MB

     Check: negative/imaginary core charge=   -0.000002    0.000000

     Initial potential from superposition of free atoms

     starting charge  203.99872, renormalised to  204.00000
     Starting wfc are  178 randomized atomic wfcs
     Checking if some PAW data can be deallocated... 

     total cpu time spent up to now is       24.7 secs

     per-process dynamical memory:   342.7 Mb

     Self-consistent Calculation

     iteration #  1     ecut=   100.00 Ry     beta=0.50
     Davidson diagonalization with overlap
     ethr =  1.00E-02,  avg # of iterations =  3.5

     total cpu time spent up to now is       84.7 secs

     total energy              =   -1028.59645955 Ry
     Harris-Foulkes estimate   =   -1032.09461231 Ry
     estimated scf accuracy    <       6.48190581 Ry

     iteration #  2     ecut=   100.00 Ry     beta=0.50
     Davidson diagonalization with overlap
     ethr =  3.18E-03,  avg # of iterations =  3.0

     total cpu time spent up to now is      121.6 secs

     total energy              =   -1029.37838659 Ry
     Harris-Foulkes estimate   =   -1029.84221352 Ry
     estimated scf accuracy    <       0.94957672 Ry

     iteration #  3     ecut=   100.00 Ry     beta=0.50
     Davidson diagonalization with overlap
     ethr =  4.65E-04,  avg # of iterations =  7.6

     total cpu time spent up to now is      186.2 secs

     total energy              =   -1029.74048504 Ry
     Harris-Foulkes estimate   =   -1029.91645642 Ry
     estimated scf accuracy    <       0.44141005 Ry

     iteration #  4     ecut=   100.00 Ry     beta=0.50
     Davidson diagonalization with overlap
     ethr =  2.16E-04,  avg # of iterations =  3.0

     total cpu time spent up to now is      218.9 secs

     total energy              =   -1029.77276750 Ry
     Harris-Foulkes estimate   =   -1029.79791962 Ry
     estimated scf accuracy    <       0.05736896 Ry

     iteration #  5     ecut=   100.00 Ry     beta=0.50
     Davidson diagonalization with overlap
     ethr =  2.81E-05,  avg # of iterations =  5.2

     total cpu time spent up to now is      285.6 secs

     total energy              =   -1029.80616844 Ry
     Harris-Foulkes estimate   =   -1029.82555685 Ry
     estimated scf accuracy    <       0.06293675 Ry

     iteration #  6     ecut=   100.00 Ry     beta=0.50
     Davidson diagonalization with overlap
     ethr =  2.81E-05,  avg # of iterations =  2.0

     total cpu time spent up to now is      316.3 secs

     total energy              =   -1029.80234699 Ry
     Harris-Foulkes estimate   =   -1029.81055103 Ry
     estimated scf accuracy    <       0.02008710 Ry

     iteration #  7     ecut=   100.00 Ry     beta=0.50
     Davidson diagonalization with overlap
     ethr =  9.85E-06,  avg # of iterations =  6.3

     total cpu time spent up to now is      367.4 secs

     total energy              =   -1029.80841899 Ry
     Harris-Foulkes estimate   =   -1029.80875465 Ry
     estimated scf accuracy    <       0.00098620 Ry

     iteration #  8     ecut=   100.00 Ry     beta=0.50
     Davidson diagonalization with overlap
     c_bands:  1 eigenvalues not converged
     ethr =  4.83E-07,  avg # of iterations =  5.1

     total cpu time spent up to now is      414.8 secs

     total energy              =   -1029.80859187 Ry
     Harris-Foulkes estimate   =   -1029.80872222 Ry
     estimated scf accuracy    <       0.00037707 Ry

     iteration #  9     ecut=   100.00 Ry     beta=0.50
     Davidson diagonalization with overlap
     ethr =  1.85E-07,  avg # of iterations =  2.0

     total cpu time spent up to now is      445.4 secs

     total energy              =   -1029.80860838 Ry
     Harris-Foulkes estimate   =   -1029.80864152 Ry
     estimated scf accuracy    <       0.00007554 Ry

     iteration # 10     ecut=   100.00 Ry     beta=0.50
     Davidson diagonalization with overlap
     ethr =  3.70E-08,  avg # of iterations =  4.0

     total cpu time spent up to now is      498.2 secs

     total energy              =   -1029.80864804 Ry
     Harris-Foulkes estimate   =   -1029.80865677 Ry
     estimated scf accuracy    <       0.00002365 Ry

     iteration # 11     ecut=   100.00 Ry     beta=0.50
     Davidson diagonalization with overlap
     ethr =  1.16E-08,  avg # of iterations =  2.0

     total cpu time spent up to now is      529.5 secs

     total energy              =   -1029.80864921 Ry
     Harris-Foulkes estimate   =   -1029.80865077 Ry
     estimated scf accuracy    <       0.00000422 Ry

     iteration # 12     ecut=   100.00 Ry     beta=0.50
     Davidson diagonalization with overlap
     ethr =  2.07E-09,  avg # of iterations =  4.0

     total cpu time spent up to now is      582.6 secs

     total energy              =   -1029.80865152 Ry
     Harris-Foulkes estimate   =   -1029.80865178 Ry
     estimated scf accuracy    <       0.00000075 Ry

     iteration # 13     ecut=   100.00 Ry     beta=0.50
     Davidson diagonalization with overlap
     ethr =  3.66E-10,  avg # of iterations =  1.1

     total cpu time spent up to now is      612.1 secs

     total energy              =   -1029.80865144 Ry
     Harris-Foulkes estimate   =   -1029.80865156 Ry
     estimated scf accuracy    <       0.00000023 Ry

     iteration # 14     ecut=   100.00 Ry     beta=0.50
     Davidson diagonalization with overlap
     ethr =  1.14E-10,  avg # of iterations =  4.0

     total cpu time spent up to now is      669.2 secs

     total energy              =   -1029.80865161 Ry
     Harris-Foulkes estimate   =   -1029.80865168 Ry
     estimated scf accuracy    <       0.00000024 Ry

     iteration # 15     ecut=   100.00 Ry     beta=0.50
     Davidson diagonalization with overlap
     ethr =  1.14E-10,  avg # of iterations =  1.0

     total cpu time spent up to now is      698.6 secs

     total energy              =   -1029.80865154 Ry
     Harris-Foulkes estimate   =   -1029.80865162 Ry
     estimated scf accuracy    <       0.00000011 Ry

     iteration # 16     ecut=   100.00 Ry     beta=0.50
     Davidson diagonalization with overlap
     ethr =  5.38E-11,  avg # of iterations =  4.0

     total cpu time spent up to now is      752.3 secs

     total energy              =   -1029.80865161 Ry
     Harris-Foulkes estimate   =   -1029.80865163 Ry
     estimated scf accuracy    <       0.00000008 Ry

     iteration # 17     ecut=   100.00 Ry     beta=0.50
     Davidson diagonalization with overlap
     ethr =  3.83E-11,  avg # of iterations =  1.0

     total cpu time spent up to now is      781.8 secs

     total energy              =   -1029.80865160 Ry
     Harris-Foulkes estimate   =   -1029.80865161 Ry
     estimated scf accuracy    <       0.00000003 Ry

     iteration # 18     ecut=   100.00 Ry     beta=0.50
     Davidson diagonalization with overlap
     ethr =  1.47E-11,  avg # of iterations =  3.5

     total cpu time spent up to now is      830.5 secs

     End of self-consistent calculation

          k = 0.0000 0.0000 0.0000 ( 69677 PWs)   bands (ev):

   -21.0886 -21.0817 -19.9905 -19.8328 -19.7857 -19.6909 -19.3911 -19.3856
   -19.2986 -19.1909 -19.0858 -18.9812 -17.4738 -17.4461 -15.0713 -15.0579
   -14.5555 -14.5048 -12.8656 -12.8233 -11.6189 -11.5586 -11.2109 -11.0902
    -9.8202  -9.8094  -9.5281  -9.4708  -8.9187  -8.7685  -8.2819  -8.2686
    -7.8957  -7.8427  -7.4318  -7.2750  -7.0894  -7.0209  -6.9072  -6.8736
    -6.4965  -6.4398  -6.2228  -6.2046  -5.7172  -5.7163  -5.6751  -5.4344
    -5.4301  -5.2977  -5.2504  -5.0693  -4.8658  -4.8572  -4.6972  -4.4355
    -4.1601  -4.1436  -3.9754  -3.9049  -3.8727  -3.7972  -3.7715  -3.7428
    -3.7026  -3.6696  -3.3607  -3.3029  -3.0345  -3.0211  -3.0025  -2.9408
    -2.8556  -2.7988  -2.6334  -2.6325  -2.5543  -2.5008  -2.2554  -2.1237
    -2.0637  -1.9628  -1.8456  -1.7716  -1.4616  -1.4312  -1.3889  -1.3505
    -1.0941  -1.0613  -0.9075  -0.8367  -0.4436  -0.4349   0.7130   0.7562
     0.7848   0.8181   1.2365   1.2578   1.6176   1.6961   4.3180   4.4856
     4.6575   4.8370   5.2194   5.6589   5.6714   5.9062   6.0804   6.2549
     7.1135   7.4479   7.5408   7.8640   7.9519   8.0753   8.5510   8.7487
     8.8264   9.0928

          k = 0.0000 0.0000-0.4449 ( 69682 PWs)   bands (ev):

   -21.0857 -21.0846 -19.9915 -19.8331 -19.7833 -19.6911 -19.3921 -19.3871
   -19.2977 -19.1901 -19.0847 -18.9820 -17.4753 -17.4477 -15.0684 -15.0601
   -14.5340 -14.4977 -12.9060 -12.8414 -11.6283 -11.5623 -11.1827 -11.1085
    -9.8450  -9.8211  -9.4895  -9.3180  -8.8945  -8.8295  -8.2447  -8.2006
    -7.9269  -7.9241  -7.4448  -7.3220  -7.0417  -6.9326  -6.8847  -6.8780
    -6.6238  -6.6020  -6.4803  -6.1823  -5.8013  -5.6961  -5.6000  -5.4825
    -5.3128  -5.1713  -5.0380  -4.9214  -4.9001  -4.8503  -4.5761  -4.4924
    -4.3142  -4.0935  -4.0377  -3.9773  -3.9026  -3.8983  -3.8648  -3.6903
    -3.6595  -3.6010  -3.4362  -3.2433  -3.1482  -3.0801  -3.0263  -2.9823
    -2.8086  -2.6783  -2.5997  -2.5438  -2.3526  -2.3494  -2.2152  -2.2003
    -2.0069  -1.9603  -1.8049  -1.7941  -1.6255  -1.5847  -1.4582  -1.3417
    -1.1111  -1.1073  -0.8814  -0.8021  -0.4608  -0.4569   0.7074   0.7404
     0.7709   0.8106   1.2054   1.2699   1.6424   1.7528   4.3106   4.5056
     4.6529   4.8123   5.3019   5.5594   5.7712   5.9096   5.9387   6.2077
     7.2657   7.3660   7.8240   7.9313   8.1798   8.3231   8.4262   8.5055
     8.6316   8.9178

          k = 0.0000 0.3337 0.0145 ( 69659 PWs)   bands (ev):

   -21.0883 -21.0818 -19.9554 -19.8699 -19.7899 -19.7064 -19.3919 -19.3811
   -19.2751 -19.1745 -19.0917 -18.9966 -17.4738 -17.4471 -15.0708 -15.0560
   -14.5482 -14.5140 -12.8652 -12.8240 -11.6131 -11.5620 -11.2087 -11.0961
    -9.8244  -9.8095  -9.5241  -9.4462  -8.9542  -8.7964  -8.2646  -8.1780
    -7.9829  -7.8708  -7.3807  -7.3174  -7.0390  -6.9166  -6.8789  -6.8476
    -6.5532  -6.5290  -6.2909  -6.2200  -5.7777  -5.6930  -5.6383  -5.4726
    -5.4021  -5.3565  -5.1820  -4.9673  -4.8755  -4.7980  -4.6525  -4.5153
    -4.2274  -4.1342  -4.0048  -3.9571  -3.8693  -3.8292  -3.7887  -3.7443
    -3.6984  -3.6036  -3.3235  -3.2662  -3.1203  -2.9898  -2.9403  -2.9015
    -2.8488  -2.7688  -2.6977  -2.6541  -2.5704  -2.4027  -2.3206  -2.2125
    -1.9980  -1.9578  -1.8630  -1.7604  -1.4817  -1.4394  -1.3955  -1.3196
    -1.1076  -1.0361  -0.9229  -0.8453  -0.4744  -0.3952   0.6874   0.7339
     0.8014   0.8341   1.2215   1.2670   1.6362   1.7127   4.3107   4.4954
     4.6718   4.8492   5.2694   5.5556   5.6836   5.9134   6.0564   6.2147
     7.1149   7.2432   7.5377   7.9067   8.1800   8.1926   8.5113   8.6667
     8.7585   8.9552

          k = 0.0000 0.3337-0.4305 ( 69648 PWs)   bands (ev):

   -21.0858 -21.0843 -19.9554 -19.8697 -19.7907 -19.7061 -19.3920 -19.3802
   -19.2752 -19.1749 -19.0918 -18.9964 -17.4752 -17.4486 -15.0686 -15.0587
   -14.5263 -14.5056 -12.9054 -12.8430 -11.6214 -11.5701 -11.1824 -11.1110
    -9.8172  -9.8008  -9.5139  -9.3606  -8.8937  -8.8195  -8.2694  -8.2288
    -7.9125  -7.8389  -7.4001  -7.3053  -7.1129  -6.9886  -6.9467  -6.8932
    -6.5734  -6.4902  -6.4167  -6.2794  -5.7915  -5.6755  -5.6498  -5.5343
    -5.2532  -5.2018  -5.0711  -4.9244  -4.9124  -4.7334  -4.6560  -4.4550
    -4.2668  -4.1230  -4.1044  -4.0417  -3.9750  -3.8576  -3.7741  -3.7310
    -3.6795  -3.6180  -3.3255  -3.2301  -3.0821  -3.0502  -2.9795  -2.9130
    -2.8416  -2.7617  -2.6173  -2.5630  -2.3767  -2.3668  -2.3391  -2.1651
    -2.0087  -1.8719  -1.8217  -1.7844  -1.6263  -1.5221  -1.4618  -1.3847
    -1.1151  -1.0771  -0.9281  -0.8443  -0.5012  -0.3972   0.6992   0.7316
     0.7835   0.8115   1.2337   1.2728   1.6448   1.7559   4.3093   4.4972
     4.6523   4.8461   5.2724   5.5502   5.8402   5.9458   5.9774   6.2026
     7.0007   7.0276   7.9120   8.0148   8.2605   8.3483   8.4778   8.6200
     8.6390   8.8048

          k = 0.3333 0.0375 0.0725 ( 69617 PWs)   bands (ev):

   -21.0883 -21.0818 -19.9823 -19.8338 -19.8084 -19.6770 -19.3910 -19.3906
   -19.2875 -19.1940 -19.0851 -18.9833 -17.4684 -17.4519 -15.0690 -15.0624
   -14.5460 -14.5117 -12.8709 -12.8183 -11.6096 -11.5673 -11.2042 -11.0921
    -9.8391  -9.8264  -9.5063  -9.4504  -8.8841  -8.8207  -8.2821  -8.2563
    -7.9103  -7.8462  -7.3915  -7.3018  -7.1309  -6.9920  -6.8703  -6.8233
    -6.5154  -6.5053  -6.2761  -6.1837  -5.7279  -5.6828  -5.6327  -5.4990
    -5.3789  -5.3391  -5.2100  -5.0645  -4.8971  -4.7638  -4.6511  -4.4173
    -4.2152  -4.1270  -4.0786  -3.9291  -3.8611  -3.8345  -3.8157  -3.7520
    -3.6808  -3.6656  -3.4095  -3.2796  -3.0960  -3.0274  -2.9913  -2.9108
    -2.8736  -2.7168  -2.6582  -2.6074  -2.5318  -2.4828  -2.2522  -2.1600
    -2.1097  -2.0134  -1.7583  -1.6946  -1.4915  -1.4410  -1.4084  -1.3214
    -1.0668  -1.0252  -0.9461  -0.8499  -0.4639  -0.3945   0.6561   0.7140
     0.8260   0.9089   1.2417   1.2504   1.6371   1.6930   4.3451   4.4384
     4.6585   4.8186   5.3890   5.4189   5.8711   5.9290   6.0563   6.4296
     7.1046   7.1870   7.4742   7.5305   7.6994   8.2683   8.5478   8.6788
     8.7531   8.8798

          k = 0.3333 0.0375-0.3724 ( 69646 PWs)   bands (ev):

   -21.0856 -21.0844 -19.9818 -19.8337 -19.8098 -19.6765 -19.3908 -19.3895
   -19.2878 -19.1942 -19.0856 -18.9830 -17.4700 -17.4535 -15.0675 -15.0626
   -14.5265 -14.5035 -12.9085 -12.8380 -11.6153 -11.5737 -11.1890 -11.1039
    -9.8280  -9.8073  -9.4639  -9.3909  -8.8919  -8.8415  -8.2295  -8.2100
    -7.9647  -7.8756  -7.4024  -7.2877  -7.0696  -6.9794  -6.9092  -6.8676
    -6.6395  -6.5679  -6.3906  -6.2495  -5.7732  -5.7307  -5.6370  -5.4403
    -5.3160  -5.1093  -5.0527  -4.9655  -4.8543  -4.8407  -4.6962  -4.4984
    -4.2380  -4.0821  -4.0373  -4.0007  -3.9671  -3.8886  -3.8540  -3.7506
    -3.6583  -3.6186  -3.3634  -3.3345  -3.1543  -3.0592  -3.0033  -2.8259
    -2.8012  -2.7657  -2.6108  -2.5479  -2.3834  -2.3493  -2.2730  -2.1361
    -2.0309  -1.9965  -1.7840  -1.7431  -1.6534  -1.5428  -1.4777  -1.3089
    -1.1235  -1.0625  -0.8808  -0.8427  -0.4772  -0.4068   0.6402   0.7026
     0.7948   0.9150   1.2164   1.2611   1.6763   1.7401   4.3456   4.4382
     4.6567   4.8045   5.3166   5.5202   5.8843   5.9758   6.0794   6.3505
     6.9491   7.1733   7.4211   7.5676   8.2954   8.3408   8.4918   8.6882
     8.7267   8.8036

          k = 0.3333 0.3712 0.0870 ( 69621 PWs)   bands (ev):

   -21.0881 -21.0819 -19.9498 -19.8724 -19.7945 -19.7078 -19.3842 -19.3777
   -19.2915 -19.1662 -19.0913 -18.9978 -17.4681 -17.4526 -15.0687 -15.0600
   -14.5378 -14.5222 -12.8687 -12.8208 -11.6160 -11.5596 -11.2015 -11.1015
    -9.8327  -9.8133  -9.5046  -9.4513  -8.9230  -8.8266  -8.2706  -8.1691
    -7.9753  -7.8846  -7.3658  -7.3171  -7.0537  -6.9268  -6.8871  -6.8185
    -6.5737  -6.5286  -6.3320  -6.2003  -5.7614  -5.6583  -5.5904  -5.5209
    -5.3988  -5.3263  -5.1921  -4.9894  -4.9034  -4.8143  -4.5922  -4.4722
    -4.2897  -4.1332  -3.9782  -3.9617  -3.9378  -3.8442  -3.7719  -3.7088
    -3.6734  -3.6170  -3.3806  -3.3074  -3.1502  -3.0330  -2.9423  -2.9231
    -2.8529  -2.7435  -2.6805  -2.6257  -2.5176  -2.4302  -2.2934  -2.1807
    -2.0825  -1.9985  -1.7488  -1.7032  -1.5403  -1.4309  -1.3970  -1.3149
    -1.0722  -1.0493  -0.8940  -0.8683  -0.4578  -0.4135   0.6459   0.7184
     0.8270   0.8929   1.2346   1.2670   1.6522   1.6970   4.3470   4.4378
     4.6691   4.8407   5.3177   5.4713   5.8678   5.9361   6.0828   6.4218
     7.0543   7.1699   7.5289   7.6622   7.7944   8.1283   8.3262   8.4602
     8.6987   8.9258

          k = 0.3333 0.3712-0.3579 ( 69628 PWs)   bands (ev):

   -21.0857 -21.0842 -19.9490 -19.8727 -19.7962 -19.7068 -19.3843 -19.3767
   -19.2912 -19.1669 -19.0917 -18.9973 -17.4697 -17.4541 -15.0671 -15.0611
   -14.5166 -14.5145 -12.9069 -12.8411 -11.6220 -11.5686 -11.1842 -11.1083
    -9.8247  -9.7954  -9.4802  -9.3987  -8.8780  -8.8362  -8.2858  -8.2076
    -7.9104  -7.8345  -7.3942  -7.3146  -7.0967  -7.0086  -6.9359  -6.9108
    -6.5710  -6.4776  -6.3688  -6.3062  -5.7795  -5.7226  -5.6740  -5.4903
    -5.2119  -5.1748  -5.1136  -4.9628  -4.8783  -4.7813  -4.6449  -4.4814
    -4.2436  -4.1116  -4.0724  -4.0127  -3.9456  -3.9308  -3.8131  -3.7780
    -3.6557  -3.6019  -3.3580  -3.2886  -3.0789  -3.0022  -2.9581  -2.9064
    -2.8297  -2.7651  -2.6849  -2.5608  -2.4003  -2.3923  -2.2783  -2.1337
    -2.0124  -1.9500  -1.7636  -1.7519  -1.6505  -1.4975  -1.4670  -1.3483
    -1.1103  -1.0541  -0.9068  -0.8873  -0.4662  -0.4123   0.6331   0.7340
     0.7707   0.9107   1.2299   1.2621   1.6661   1.7547   4.3429   4.4388
     4.6539   4.8441   5.3474   5.4335   5.9345   5.9644   6.2171   6.3200
     6.9061   7.1270   7.3292   7.7112   7.9879   8.1203   8.3771   8.6537
     8.7685   8.8812

          k = 0.3333-0.2963 0.0581 ( 69610 PWs)   bands (ev):

   -21.0882 -21.0819 -19.9573 -19.8669 -19.7799 -19.7156 -19.4008 -19.3824
   -19.2640 -19.1807 -19.0910 -18.9947 -17.4682 -17.4518 -15.0698 -15.0586
   -14.5428 -14.5177 -12.8679 -12.8213 -11.6262 -11.5504 -11.2021 -11.1039
    -9.8129  -9.8103  -9.5147  -9.4706  -8.9159  -8.8135  -8.2677  -8.1820
    -7.9707  -7.8781  -7.3909  -7.2773  -7.0516  -6.9966  -6.8861  -6.8488
    -6.5478  -6.4909  -6.3222  -6.1904  -5.7211  -5.6505  -5.6343  -5.5258
    -5.3899  -5.3463  -5.1948  -4.9632  -4.8691  -4.8033  -4.7010  -4.4874
    -4.1826  -4.1591  -4.0488  -3.9479  -3.8857  -3.8266  -3.8053  -3.7213
    -3.7117  -3.6298  -3.3859  -3.2877  -3.1570  -3.0382  -2.9121  -2.8517
    -2.7970  -2.7609  -2.7118  -2.6377  -2.5516  -2.4408  -2.2623  -2.2185
    -2.0378  -2.0110  -1.7855  -1.7077  -1.5431  -1.4278  -1.3885  -1.3264
    -1.0827  -1.0358  -0.8787  -0.8160  -0.5039  -0.4096   0.6749   0.7053
     0.8334   0.8686   1.2070   1.2876   1.6487   1.6997   4.3424   4.4285
     4.6686   4.8434   5.3080   5.4542   5.9065   5.9261   6.1705   6.3195
     7.0518   7.2938   7.3874   7.6566   7.8948   8.0980   8.3383   8.4109
     8.6781   8.9150

          k = 0.3333-0.2963-0.3868 ( 69617 PWs)   bands (ev):

   -21.0858 -21.0843 -19.9583 -19.8671 -19.7777 -19.7160 -19.4022 -19.3830
   -19.2635 -19.1797 -19.0904 -18.9953 -17.4698 -17.4534 -15.0675 -15.0600
   -14.5270 -14.5051 -12.9071 -12.8411 -11.6326 -11.5591 -11.1800 -11.1093
    -9.8513  -9.8035  -9.4648  -9.3718  -8.8852  -8.8165  -8.2733  -8.2326
    -7.8776  -7.8639  -7.4252  -7.3498  -7.0989  -6.9794  -6.9168  -6.8663
    -6.6469  -6.4729  -6.4069  -6.2108  -5.8134  -5.7197  -5.6829  -5.4721
    -5.2416  -5.1774  -5.0981  -4.9512  -4.8791  -4.7318  -4.6210  -4.4867
    -4.2875  -4.0828  -4.0564  -4.0106  -4.0042  -3.9343  -3.8613  -3.7526
    -3.6591  -3.6371  -3.3497  -3.2993  -3.0728  -3.0213  -2.9900  -2.8410
    -2.7803  -2.7470  -2.6519  -2.5920  -2.4139  -2.3689  -2.3247  -2.1125
    -2.0234  -1.9359  -1.7685  -1.7585  -1.6411  -1.5349  -1.4545  -1.3532
    -1.1303  -1.0570  -0.8950  -0.8177  -0.5052  -0.4124   0.6438   0.7135
     0.8449   0.8518   1.2170   1.2699   1.6671   1.7450   4.3440   4.4434
     4.6559   4.8409   5.3033   5.4726   5.8619   5.9653   6.1714   6.3394
     7.0829   7.1693   7.4035   7.6074   7.7920   8.2128   8.4361   8.6472
     8.7391   8.8592

     highest occupied, lowest unoccupied level (ev):     1.7559    4.3093

!    total energy              =   -1029.80865161 Ry
     Harris-Foulkes estimate   =   -1029.80865161 Ry
     estimated scf accuracy    <          8.4E-10 Ry

     total all-electron energy =     -3884.907284 Ry

     The total energy is the sum of the following terms:

     one-electron contribution =    -533.71622689 Ry
     hartree contribution      =     347.42253024 Ry
     xc contribution           =    -217.82413391 Ry
     ewald contribution        =    -335.04057375 Ry
     Dispersion Correction     =      -0.28682902 Ry
     one-center paw contrib.   =    -290.36341828 Ry

     convergence has been achieved in  18 iterations

     Forces acting on atoms (cartesian axes, Ry/au):

     atom    1 type  4   force =     0.00070394    0.00153358   -0.00019595
     atom    2 type  4   force =    -0.00070394   -0.00153358    0.00019595
     atom    3 type  4   force =    -0.00065411   -0.00073688   -0.00024487
     atom    4 type  4   force =     0.00065411    0.00073688    0.00024487
     atom    5 type  4   force =     0.00132859   -0.00098336    0.00041618
     atom    6 type  4   force =    -0.00132859    0.00098336   -0.00041618
     atom    7 type  3   force =    -0.00123953   -0.00125318   -0.00059055
     atom    8 type  3   force =     0.00123953    0.00125318    0.00059055
     atom    9 type  4   force =     0.00022086   -0.00006582    0.00102597
     atom   10 type  4   force =    -0.00022086    0.00006582   -0.00102597
     atom   11 type  1   force =     0.00015685   -0.00034937   -0.00116601
     atom   12 type  1   force =    -0.00015685    0.00034937    0.00116601
     atom   13 type  1   force =     0.00014184    0.00044451   -0.00064880
     atom   14 type  1   force =    -0.00014184   -0.00044451    0.00064880
     atom   15 type  1   force =    -0.00074138    0.00039428   -0.00055986
     atom   16 type  1   force =     0.00074138   -0.00039428    0.00055986
     atom   17 type  1   force =     0.00032751   -0.00093547   -0.00028369
     atom   18 type  1   force =    -0.00032751    0.00093547    0.00028369
     atom   19 type  4   force =    -0.00053877   -0.00094957    0.00016504
     atom   20 type  4   force =     0.00053877    0.00094957   -0.00016504
     atom   21 type  3   force =     0.00058877   -0.00037034   -0.00095664
     atom   22 type  3   force =    -0.00058877    0.00037034    0.00095664
     atom   23 type  4   force =    -0.00027979   -0.00101544   -0.00145893
     atom   24 type  4   force =     0.00027979    0.00101544    0.00145893
     atom   25 type  3   force =    -0.00012452    0.00132186    0.00003508
     atom   26 type  3   force =     0.00012452   -0.00132186   -0.00003508
     atom   27 type  2   force =     0.00098834   -0.00007184    0.00060208
     atom   28 type  2   force =    -0.00098834    0.00007184   -0.00060208
     atom   29 type  3   force =     0.00005076    0.00044752    0.00096269
     atom   30 type  3   force =    -0.00005076   -0.00044752   -0.00096269
     atom   31 type  3   force =     0.00006438   -0.00037864   -0.00010720
     atom   32 type  3   force =    -0.00006438    0.00037864    0.00010720
     atom   33 type  3   force =    -0.00087120   -0.00019608    0.00029472
     atom   34 type  3   force =     0.00087120    0.00019608   -0.00029472
     atom   35 type  1   force =    -0.00016551   -0.00053019    0.00068162
     atom   36 type  1   force =     0.00016551    0.00053019   -0.00068162
     atom   37 type  1   force =     0.00066525    0.00054048    0.00032954
     atom   38 type  1   force =    -0.00066525   -0.00054048   -0.00032954
     atom   39 type  3   force =     0.00011304    0.00030440    0.00070943
     atom   40 type  3   force =    -0.00011304   -0.00030440   -0.00070943
     atom   41 type  1   force =     0.00049155   -0.00057110   -0.00041024
     atom   42 type  1   force =    -0.00049155    0.00057110    0.00041024
     atom   43 type  1   force =     0.00077562    0.00012476   -0.00005029
     atom   44 type  1   force =    -0.00077562   -0.00012476    0.00005029
     atom   45 type  3   force =    -0.00039030    0.00015834   -0.00033327
     atom   46 type  3   force =     0.00039030   -0.00015834    0.00033327
     atom   47 type  1   force =    -0.00029468    0.00083111    0.00040459
     atom   48 type  1   force =     0.00029468   -0.00083111   -0.00040459
     atom   49 type  1   force =     0.00105648    0.00161215    0.00089364
     atom   50 type  1   force =    -0.00105648   -0.00161215   -0.00089364
     atom   51 type  3   force =    -0.00134539   -0.00156359   -0.00096826
     atom   52 type  3   force =     0.00134539    0.00156359    0.00096826
     atom   53 type  3   force =     0.00031974    0.00032885   -0.00011198
     atom   54 type  3   force =    -0.00031974   -0.00032885    0.00011198
     atom   55 type  1   force =    -0.00078620   -0.00048645   -0.00041616
     atom   56 type  1   force =     0.00078620    0.00048645    0.00041616
     atom   57 type  3   force =     0.00043632    0.00044567   -0.00007811
     atom   58 type  3   force =    -0.00043632   -0.00044567    0.00007811
     atom   59 type  1   force =    -0.00158083   -0.00084620   -0.00079422
     atom   60 type  1   force =     0.00158083    0.00084620    0.00079422
     atom   61 type  3   force =    -0.00052457   -0.00117403   -0.00007192
     atom   62 type  3   force =     0.00052457    0.00117403    0.00007192
     atom   63 type  3   force =     0.00131855   -0.00017791    0.00031970
     atom   64 type  3   force =    -0.00131855    0.00017791   -0.00031970

     Total force =     0.010029     Total SCF correction =     0.000057


     Computing stress (Cartesian axis) and pressure

          total   stress  (Ry/bohr**3)                   (kbar)     P=   -0.78
  -0.00003656  -0.00000098   0.00000209         -5.38     -0.14      0.31
  -0.00000098   0.00000421  -0.00002146         -0.14      0.62     -3.16
   0.00000209  -0.00002146   0.00001636          0.31     -3.16      2.41


     Writing output data file scf.save
 
     init_run     :     23.36s CPU     24.07s WALL (       1 calls)
     electrons    :    779.20s CPU    805.94s WALL (       1 calls)
     forces       :     11.68s CPU     11.77s WALL (       1 calls)
     stress       :     38.15s CPU     38.31s WALL (       1 calls)

     Called by init_run:
     wfcinit      :     16.13s CPU     16.68s WALL (       1 calls)
     potinit      :      2.56s CPU      2.64s WALL (       1 calls)

     Called by electrons:
     c_bands      :    696.13s CPU    718.83s WALL (      18 calls)
     sum_band     :     73.81s CPU     77.05s WALL (      18 calls)
     v_of_rho     :      1.39s CPU      1.55s WALL (      19 calls)
     newd         :      2.95s CPU      3.48s WALL (      19 calls)
     PAW_pot      :      4.52s CPU      4.53s WALL (      19 calls)
     mix_rho      :      0.32s CPU      0.35s WALL (      18 calls)

     Called by c_bands:
     init_us_2    :      4.85s CPU      4.87s WALL (     390 calls)
     cegterg      :    677.93s CPU    700.57s WALL (     180 calls)

     Called by sum_band:
     sum_band:bec :      0.06s CPU      0.06s WALL (     180 calls)
     addusdens    :      3.01s CPU      3.50s WALL (      18 calls)

     Called by *egterg:
     h_psi        :    390.34s CPU    405.75s WALL (     813 calls)
     s_psi        :     72.31s CPU     72.34s WALL (     813 calls)
     g_psi        :      2.33s CPU      2.33s WALL (     623 calls)
     cdiaghg      :     38.56s CPU     38.58s WALL (     803 calls)

     Called by h_psi:
     h_psi:pot    :    387.66s CPU    403.02s WALL (     813 calls)
     h_psi:calbec :     72.32s CPU     72.54s WALL (     813 calls)
     vloc_psi     :    242.51s CPU    257.63s WALL (     813 calls)
     add_vuspsi   :     72.82s CPU     72.85s WALL (     813 calls)

     General routines
     calbec       :    104.11s CPU    104.43s WALL (    1043 calls)
     fft          :      1.10s CPU      1.36s WALL (     271 calls)
     fftw         :    258.70s CPU    275.67s WALL (  150728 calls)
 
     Parallel routines
     fft_scatter  :     61.84s CPU     72.49s WALL (  150999 calls)
 
     PWSCF        : 14m18.67s CPU    15m21.55s WALL

 
   This run was terminated on:   6:16:32   4Nov2017            

=------------------------------------------------------------------------------=
   JOB DONE.
=------------------------------------------------------------------------------=
