
     Program PWSCF v.6.1 (svn rev. 13369) starts on  4Nov2017 at  4:59:28 

     This program is part of the open-source Quantum ESPRESSO suite
     for quantum simulation of materials; please cite
         "P. Giannozzi et al., J. Phys.:Condens. Matter 21 395502 (2009);
          URL http://www.quantum-espresso.org", 
     in publications or presentations arising from this work. More details at
     http://www.quantum-espresso.org/quote

     Parallel version (MPI), running on     8 processors
     R & G space division:  proc/nbgrp/npool/nimage =       8
     Waiting for input...
     Reading input from standard input

     Current dimensions of program PWSCF are:
     Max number of different atomic species (ntypx) = 10
     Max number of k-points (npk) =  40000
     Max angular momentum in pseudopotentials (lmaxx) =  3
               file C.pbe-n-kjpaw_psl.0.1.UPF: wavefunction(s)  2P renormalized
               file N.pbe-n-kjpaw_psl.0.1.UPF: wavefunction(s)  2P renormalized
               file H.pbe-kjpaw_psl.0.1.UPF: wavefunction(s)  1S renormalized
               file O.pbe-n-kjpaw_psl.0.1.UPF: wavefunction(s)  2P renormalized

     -------------------------------------
     Parameters for Dispersion Correction:
     -------------------------------------
       atom      VdW radius       C_6     

        C          2.744         60.710
        N          2.640         42.670
        H          1.892          4.857
        O          2.536         24.284

     Subspace diagonalization in iterative solution of the eigenvalue problem:
     a serial algorithm will be used

 
     Parallelization info
     --------------------
     sticks:   dense  smooth     PW     G-vecs:    dense   smooth      PW
     Min         630     630    166                51660    51660    7007
     Max         631     631    167                51662    51662    7010
     Sum        5045    5045   1329               413285   413285   56063
 


     bravais-lattice index     =            0
     lattice parameter (alat)  =      11.7157  a.u.
     unit-cell volume          =    3059.1131 (a.u.)^3
     number of atoms/cell      =           52
     number of atomic types    =            4
     number of electrons       =       184.00
     number of Kohn-Sham states=          110
     kinetic-energy cutoff     =     100.0000  Ry
     charge density cutoff     =     400.0000  Ry
     convergence threshold     =      1.0E-08
     mixing beta               =       0.5000
     number of iterations used =            8  plain     mixing
     Exchange-correlation      =  SLA  PW   PBX  PBC ( 1  4  3  4 0 0)

     celldm(1)=  11.715735  celldm(2)=   0.000000  celldm(3)=   0.000000
     celldm(4)=   0.000000  celldm(5)=   0.000000  celldm(6)=   0.000000

     crystal axes: (cart. coord. in units of alat)
               a(1) = (   1.000000   0.000000   0.000000 )  
               a(2) = (  -0.134351   1.151828   0.000000 )  
               a(3) = (  -0.285550  -0.171082   1.651579 )  

     reciprocal axes: (cart. coord. in units 2 pi/alat)
               b(1) = (  1.000000  0.116641  0.184978 )  
               b(2) = (  0.000000  0.868185  0.089933 )  
               b(3) = (  0.000000  0.000000  0.605481 )  


     PseudoPot. # 1 for  C read from file:
     /scratch/ahofstet/pseudo/C.pbe-n-kjpaw_psl.0.1.UPF
     MD5 check sum: 430fe95172b1e11ef3f8ed03bac87931
     Pseudo is Projector augmented-wave + core cor, Zval =  4.0
     Generated using "atomic" code by A. Dal Corso  v.5.0.99 svn rev. 10869
     Shape of augmentation charge: BESSEL
     Using radial grid of 1073 points,  4 beta functions with: 
                l(1) =   0
                l(2) =   0
                l(3) =   1
                l(4) =   1
     Q(r) pseudized with 0 coefficients 


     PseudoPot. # 2 for  N read from file:
     /scratch/ahofstet/pseudo/N.pbe-n-kjpaw_psl.0.1.UPF
     MD5 check sum: f73187c8b701007e77325f868c9291d7
     Pseudo is Projector augmented-wave + core cor, Zval =  5.0
     Generated using "atomic" code by A. Dal Corso  v.5.0.99 svn rev. 10869
     Shape of augmentation charge: PSQ
     Using radial grid of 1085 points,  4 beta functions with: 
                l(1) =   0
                l(2) =   0
                l(3) =   1
                l(4) =   1
     Q(r) pseudized with 0 coefficients 


     PseudoPot. # 3 for  H read from file:
     /scratch/ahofstet/pseudo/H.pbe-kjpaw_psl.0.1.UPF
     MD5 check sum: 94e484f906d9e9773b2f6e52662335b2
     Pseudo is Projector augmented-wave, Zval =  1.0
     Generated using "atomic" code by A. Dal Corso  v.5.0.99 svn rev. 10869
     Shape of augmentation charge: PSQ
     Using radial grid of  929 points,  2 beta functions with: 
                l(1) =   0
                l(2) =   0
     Q(r) pseudized with 0 coefficients 


     PseudoPot. # 4 for  O read from file:
     /scratch/ahofstet/pseudo/O.pbe-n-kjpaw_psl.0.1.UPF
     MD5 check sum: 3f94a2996a3169367d6eb21d9b593f20
     Pseudo is Projector augmented-wave + core cor, Zval =  6.0
     Generated using "atomic" code by A. Dal Corso  v.5.0.99 svn rev. 10869
     Shape of augmentation charge: BESSEL
     Using radial grid of 1095 points,  4 beta functions with: 
                l(1) =   0
                l(2) =   0
                l(3) =   1
                l(4) =   1
     Q(r) pseudized with 0 coefficients 


     atomic species   valence    mass     pseudopotential
        C              4.00    12.01070      C( 1.00)
        N              5.00    14.00670      N( 1.00)
        H              1.00     1.00794      H( 1.00)
        O              6.00    15.99940      O( 1.00)

      2 Sym. Ops., with inversion, found



   Cartesian axes

     site n.     atom                  positions (alat units)
         1           O   tau(   1) = (   0.5639665   0.3710196   1.1454177  )
         2           O   tau(   2) = (   0.0161322   0.6097257   0.5061613  )
         3           O   tau(   3) = (   0.5446829   0.0722560   0.9388934  )
         4           O   tau(   4) = (   0.0354159   0.9084893   0.7126856  )
         5           O   tau(   5) = (   0.5259829   0.3276806   0.5813546  )
         6           O   tau(   6) = (   0.0541158   0.6530647   1.0702244  )
         7           O   tau(   7) = (   0.5466603   0.6227956   0.7947682  )
         8           O   tau(   8) = (   0.0334385   0.3579497   0.8568108  )
         9           C   tau(   9) = (   0.5494510   0.2704066   0.9620802  )
        10           C   tau(  10) = (   0.0306478   0.7103387   0.6894988  )
        11           C   tau(  11) = (   0.5391717   0.4231387   0.7615985  )
        12           C   tau(  12) = (   0.0409270   0.5576066   0.8899805  )
        13           H   tau(  13) = (   0.5974805   0.2639436   1.2805048  )
        14           H   tau(  14) = (  -0.0173818   0.7168017   0.3710742  )
        15           O   tau(  15) = (   0.5471696   0.5583154   0.2571516  )
        16           O   tau(  16) = (   0.0329292   0.4224299   1.3944273  )
        17           O   tau(  17) = (   0.2700076   0.3712330   0.1110266  )
        18           O   tau(  18) = (   0.3100912   0.6095123   1.5405524  )
        19           C   tau(  19) = (   0.4144219   0.5089998   0.1041106  )
        20           C   tau(  20) = (   0.1656769   0.4717455   1.5474684  )
        21           H   tau(  21) = (   0.5306723   0.4574019   0.4034306  )
        22           H   tau(  22) = (   0.0494264   0.5233434   1.2481484  )
        23           O   tau(  23) = (   0.3408032   1.0352633   0.2553088  )
        24           O   tau(  24) = (   0.2392956  -0.0545180   1.3962702  )
        25           O   tau(  25) = (   0.7248011   0.1169042   0.1284371  )
        26           O   tau(  26) = (  -0.1447024   0.8638411   1.5231418  )
        27           C   tau(  27) = (   0.5615124   0.0030659   0.1085293  )
        28           C   tau(  28) = (   0.0185863   0.9776794   1.5430497  )
        29           H   tau(  29) = (   0.4358789   1.0277523   0.4106936  )
        30           H   tau(  30) = (   0.1442198  -0.0470070   1.2408853  )
        31           O   tau(  31) = (   0.5438377   1.0078413   0.5898177  )
        32           O   tau(  32) = (   0.0362611  -0.0270960   1.0617613  )
        33           H   tau(  33) = (   0.6149961  -0.0518645   0.7061994  )
        34           H   tau(  34) = (  -0.0348973   1.0326098   0.9453795  )
        35           H   tau(  35) = (   0.5426324   0.8568632   0.6452081  )
        36           H   tau(  36) = (   0.0374663   0.1238821   1.0063709  )
        37           O   tau(  37) = (   0.6640042   0.1318978   1.4487679  )
        38           O   tau(  38) = (  -0.0839055   0.8488475   0.2028111  )
        39           H   tau(  39) = (   0.5589071   0.0706390   1.5525284  )
        40           H   tau(  40) = (   0.0211916   0.9101063   0.0990506  )
        41           H   tau(  41) = (  -0.2115408   0.1826863   1.5338865  )
        42           H   tau(  42) = (   0.7916395   0.7980590   0.1176925  )
        43           N   tau(  43) = (   0.5224191   0.8497014   1.1986199  )
        44           N   tau(  44) = (   0.0576797   0.1310439   0.4529591  )
        45           H   tau(  45) = (   0.4084358   0.7792788   1.2979880  )
        46           H   tau(  46) = (   0.1716630   0.2014665   0.3535910  )
        47           H   tau(  47) = (   0.4728529   1.0000214   1.1449295  )
        48           H   tau(  48) = (   0.1072459  -0.0192761   0.5066495  )
        49           H   tau(  49) = (   0.5466939   0.7486698   1.0665205  )
        50           H   tau(  50) = (   0.0334048   0.2320755   0.5850585  )
        51           H   tau(  51) = (   0.6632949   0.8670983   1.2876557  )
        52           H   tau(  52) = (  -0.0831962   0.1136470   0.3639233  )

     number of k points=    10
                       cart. coord. in units 2pi/alat
        k(    1) = (   0.0000000   0.0000000   0.0000000), wk =   0.1111111
        k(    2) = (   0.0000000   0.0000000  -0.3027406), wk =   0.1111111
        k(    3) = (   0.0000000   0.2893951   0.0299776), wk =   0.2222222
        k(    4) = (   0.0000000   0.2893951  -0.2727630), wk =   0.2222222
        k(    5) = (   0.3333333   0.0388805   0.0616593), wk =   0.2222222
        k(    6) = (   0.3333333   0.0388805  -0.2410813), wk =   0.2222222
        k(    7) = (   0.3333333   0.3282756   0.0916370), wk =   0.2222222
        k(    8) = (   0.3333333   0.3282756  -0.2111036), wk =   0.2222222
        k(    9) = (   0.3333333  -0.2505146   0.0316817), wk =   0.2222222
        k(   10) = (   0.3333333  -0.2505146  -0.2710589), wk =   0.2222222

     Dense  grid:   413285 G-vectors     FFT dimensions: (  75,  90, 125)

     Estimated max dynamical RAM per process >     270.76MB

     Estimated total allocated dynamical RAM >    2166.07MB

     Check: negative/imaginary core charge=   -0.000003    0.000000

     Initial potential from superposition of free atoms

     starting charge  183.99941, renormalised to  184.00000
     Starting wfc are  142 randomized atomic wfcs
     Checking if some PAW data can be deallocated... 

     total cpu time spent up to now is       15.2 secs

     per-process dynamical memory:   235.5 Mb

     Self-consistent Calculation

     iteration #  1     ecut=   100.00 Ry     beta=0.50
     Davidson diagonalization with overlap
     ethr =  1.00E-02,  avg # of iterations =  3.7

     total cpu time spent up to now is       48.9 secs

     total energy              =   -1062.54297524 Ry
     Harris-Foulkes estimate   =   -1065.66283322 Ry
     estimated scf accuracy    <       5.36927353 Ry

     iteration #  2     ecut=   100.00 Ry     beta=0.50
     Davidson diagonalization with overlap
     ethr =  2.92E-03,  avg # of iterations =  3.0

     total cpu time spent up to now is       74.9 secs

     total energy              =   -1063.79948303 Ry
     Harris-Foulkes estimate   =   -1064.32681841 Ry
     estimated scf accuracy    <       1.13117532 Ry

     iteration #  3     ecut=   100.00 Ry     beta=0.50
     Davidson diagonalization with overlap
     ethr =  6.15E-04,  avg # of iterations =  5.0

     total cpu time spent up to now is       99.8 secs

     total energy              =   -1064.01865772 Ry
     Harris-Foulkes estimate   =   -1064.05027193 Ry
     estimated scf accuracy    <       0.11468062 Ry

     iteration #  4     ecut=   100.00 Ry     beta=0.50
     Davidson diagonalization with overlap
     ethr =  6.23E-05,  avg # of iterations =  8.3

     total cpu time spent up to now is      134.1 secs

     total energy              =   -1064.03905860 Ry
     Harris-Foulkes estimate   =   -1064.05499246 Ry
     estimated scf accuracy    <       0.04289771 Ry

     iteration #  5     ecut=   100.00 Ry     beta=0.50
     Davidson diagonalization with overlap
     ethr =  2.33E-05,  avg # of iterations =  2.2

     total cpu time spent up to now is      155.2 secs

     total energy              =   -1064.04620304 Ry
     Harris-Foulkes estimate   =   -1064.04771306 Ry
     estimated scf accuracy    <       0.00533153 Ry

     iteration #  6     ecut=   100.00 Ry     beta=0.50
     Davidson diagonalization with overlap
     ethr =  2.90E-06,  avg # of iterations =  7.8

     total cpu time spent up to now is      186.1 secs

     total energy              =   -1064.04746901 Ry
     Harris-Foulkes estimate   =   -1064.04759266 Ry
     estimated scf accuracy    <       0.00043013 Ry

     iteration #  7     ecut=   100.00 Ry     beta=0.50
     Davidson diagonalization with overlap
     ethr =  2.34E-07,  avg # of iterations =  3.0

     total cpu time spent up to now is      210.9 secs

     total energy              =   -1064.04755077 Ry
     Harris-Foulkes estimate   =   -1064.04757283 Ry
     estimated scf accuracy    <       0.00007260 Ry

     iteration #  8     ecut=   100.00 Ry     beta=0.50
     Davidson diagonalization with overlap
     ethr =  3.95E-08,  avg # of iterations =  2.8

     total cpu time spent up to now is      234.2 secs

     total energy              =   -1064.04756661 Ry
     Harris-Foulkes estimate   =   -1064.04757237 Ry
     estimated scf accuracy    <       0.00002104 Ry

     iteration #  9     ecut=   100.00 Ry     beta=0.50
     Davidson diagonalization with overlap
     ethr =  1.14E-08,  avg # of iterations =  2.0

     total cpu time spent up to now is      253.8 secs

     total energy              =   -1064.04756792 Ry
     Harris-Foulkes estimate   =   -1064.04756932 Ry
     estimated scf accuracy    <       0.00000337 Ry

     iteration # 10     ecut=   100.00 Ry     beta=0.50
     Davidson diagonalization with overlap
     ethr =  1.83E-09,  avg # of iterations =  3.0

     total cpu time spent up to now is      283.6 secs

     total energy              =   -1064.04756918 Ry
     Harris-Foulkes estimate   =   -1064.04756933 Ry
     estimated scf accuracy    <       0.00000047 Ry

     iteration # 11     ecut=   100.00 Ry     beta=0.50
     Davidson diagonalization with overlap
     ethr =  2.55E-10,  avg # of iterations =  2.0

     total cpu time spent up to now is      302.8 secs

     total energy              =   -1064.04756920 Ry
     Harris-Foulkes estimate   =   -1064.04756922 Ry
     estimated scf accuracy    <       0.00000008 Ry

     iteration # 12     ecut=   100.00 Ry     beta=0.50
     Davidson diagonalization with overlap
     ethr =  4.60E-11,  avg # of iterations =  3.0

     total cpu time spent up to now is      332.5 secs

     End of self-consistent calculation

          k = 0.0000 0.0000 0.0000 ( 51693 PWs)   bands (ev):

   -21.2413 -20.9939 -20.9462 -20.8910 -20.5068 -20.3068 -20.0268 -19.9576
   -18.9402 -18.8630 -18.8479 -18.6608 -18.5941 -18.4357 -18.3839 -18.2771
   -18.1975 -18.0577 -17.8324 -17.7895 -16.3312 -16.3229 -10.5184 -10.2195
    -9.9785  -9.7640  -8.3272  -7.9284  -7.3614  -7.0475  -6.8161  -6.7152
    -6.6787  -6.4686  -6.3687  -6.3515  -6.2439  -6.2135  -6.1482  -6.0281
    -5.9612  -5.7457  -5.5562  -5.5194  -5.4244  -5.2524  -5.2244  -5.0756
    -4.9769  -4.8400  -4.8034  -4.5963  -4.5563  -4.2921  -4.2658  -4.2262
    -3.7599  -3.7136  -3.6447  -3.4376  -3.3678  -3.2276  -3.2074  -3.1666
    -2.7792  -2.1422  -2.0815  -1.8873  -1.8407  -1.6168  -1.2660  -1.1674
    -1.1087  -1.0658  -0.9771  -0.9593  -0.8985  -0.8658  -0.8152  -0.7277
    -0.6391  -0.5464  -0.5039  -0.4767  -0.4177  -0.2733  -0.0636   0.1919
     0.3219   0.4478   0.5251   0.5326   3.9303   4.2732   4.6119   4.6173
     6.8143   7.5523   7.6658   7.7501   7.8743   8.0905   8.1308   9.3446
     9.7464   9.9222  10.0688  10.1185  10.3827  10.4174

          k = 0.0000 0.0000-0.3027 ( 51630 PWs)   bands (ev):

   -21.2265 -20.9947 -20.9839 -20.8838 -20.4854 -20.3075 -19.9932 -19.9918
   -18.9261 -18.8767 -18.7526 -18.7495 -18.6696 -18.4366 -18.3852 -18.2143
   -18.1725 -18.0413 -17.8312 -17.8284 -16.3307 -16.3227 -10.5216 -10.2149
    -9.9440  -9.8172  -8.2138  -7.9679  -7.3982  -7.1174  -6.7876  -6.7545
    -6.7150  -6.4608  -6.4490  -6.3839  -6.2347  -6.2007  -6.0719  -5.9775
    -5.9669  -5.6390  -5.6345  -5.4680  -5.2723  -5.2656  -5.1971  -5.1176
    -5.0043  -4.9262  -4.8270  -4.5922  -4.4672  -4.4097  -4.2581  -4.2460
    -3.7349  -3.7150  -3.5097  -3.4927  -3.4147  -3.2134  -3.1982  -3.1592
    -2.8238  -2.2845  -2.0558  -1.9500  -1.6559  -1.5932  -1.3130  -1.2549
    -1.1211  -1.0281  -0.9729  -0.9564  -0.8962  -0.8912  -0.8426  -0.6321
    -0.6254  -0.5877  -0.4936  -0.4332  -0.3804  -0.2727  -0.0608   0.0959
     0.3807   0.4501   0.4912   0.5511   3.9288   4.2753   4.5637   4.6700
     7.1013   7.1872   7.5784   7.6682   7.7239   7.8828   9.1629   9.5680
     9.5911   9.6734   9.7854  10.1640  10.3404  10.3435

          k = 0.0000 0.2894 0.0300 ( 51681 PWs)   bands (ev):

   -21.2139 -21.0321 -20.9366 -20.8889 -20.4979 -20.3124 -20.0301 -19.9592
   -18.9486 -18.9237 -18.8420 -18.6708 -18.5293 -18.4433 -18.3854 -18.2891
   -18.1756 -18.0163 -17.8422 -17.8105 -16.3279 -16.3218 -10.5208 -10.2258
    -9.9868  -9.7664  -8.3223  -7.9568  -7.3087  -6.9949  -6.7885  -6.7050
    -6.6440  -6.5359  -6.4893  -6.4067  -6.2254  -6.1975  -6.0698  -6.0101
    -5.9276  -5.7303  -5.5725  -5.5152  -5.3443  -5.2946  -5.2157  -5.1417
    -5.0676  -4.7592  -4.7199  -4.6603  -4.6411  -4.4403  -4.2725  -4.1087
    -3.7878  -3.7482  -3.5504  -3.4629  -3.3877  -3.2737  -3.2040  -3.1664
    -2.7908  -2.2292  -2.0189  -1.8914  -1.7711  -1.6165  -1.2644  -1.1899
    -1.0761  -1.0238  -0.9408  -0.9056  -0.8722  -0.8513  -0.7600  -0.7189
    -0.6774  -0.5649  -0.4925  -0.4836  -0.3882  -0.2683  -0.0739   0.1905
     0.3446   0.4121   0.4489   0.5257   4.0546   4.2414   4.4416   4.6645
     7.2047   7.5862   7.6486   7.6904   7.8318   8.0826   8.3415   8.6359
     8.9769   9.4626  10.2921  10.3747  10.5575  10.6889

          k = 0.0000 0.2894-0.2728 ( 51672 PWs)   bands (ev):

   -21.1996 -21.0290 -20.9722 -20.8876 -20.4766 -20.3128 -19.9962 -19.9945
   -18.9178 -18.9026 -18.8093 -18.7780 -18.6186 -18.4272 -18.3317 -18.2035
   -18.1737 -18.0468 -17.8379 -17.8328 -16.3279 -16.3212 -10.5138 -10.2209
    -9.9550  -9.8358  -8.2069  -7.9686  -7.3624  -7.1040  -6.7568  -6.7294
    -6.6815  -6.5329  -6.4996  -6.4474  -6.2424  -6.1733  -6.0544  -5.9868
    -5.7600  -5.7075  -5.6380  -5.5060  -5.3032  -5.2437  -5.1923  -5.1124
    -4.9911  -4.9458  -4.7911  -4.6570  -4.5696  -4.4296  -4.2881  -4.2012
    -3.7739  -3.6791  -3.5601  -3.4649  -3.4408  -3.2801  -3.1697  -3.1419
    -2.8050  -2.3326  -1.9778  -1.8991  -1.6602  -1.6162  -1.3472  -1.2759
    -1.1582  -0.9612  -0.9336  -0.8725  -0.8517  -0.8299  -0.7904  -0.6531
    -0.6334  -0.5278  -0.4998  -0.4603  -0.4122  -0.2740  -0.0712   0.0901
     0.3453   0.4156   0.4790   0.5431   4.0518   4.2389   4.4345   4.6811
     7.2798   7.5946   7.6299   7.6631   7.7735   7.8175   8.3020   8.7243
     9.5031   9.9015   9.9952  10.2915  10.4268  10.5523

          k = 0.3333 0.0389 0.0617 ( 51693 PWs)   bands (ev):

   -21.2288 -20.9947 -20.9424 -20.9052 -20.4996 -20.3087 -20.0205 -19.9642
   -18.9465 -18.8952 -18.8110 -18.6670 -18.5980 -18.4745 -18.4085 -18.2251
   -18.1685 -18.0597 -17.8343 -17.8038 -16.3291 -16.3231 -10.5139 -10.2221
    -9.9783  -9.7905  -8.2480  -7.9391  -7.4222  -7.0860  -6.8202  -6.6955
    -6.6811  -6.5089  -6.4247  -6.4158  -6.2689  -6.2024  -6.1237  -6.0017
    -5.8027  -5.7152  -5.5103  -5.4782  -5.3467  -5.2114  -5.1619  -5.0503
    -4.9653  -4.8693  -4.7801  -4.7097  -4.4832  -4.3999  -4.2875  -4.1859
    -3.8381  -3.7901  -3.6556  -3.5585  -3.3244  -3.2437  -3.1946  -3.1157
    -2.7787  -2.2373  -2.0354  -1.8935  -1.7513  -1.5478  -1.2186  -1.1738
    -1.1572  -1.0178  -0.9448  -0.9308  -0.8961  -0.8612  -0.8517  -0.7647
    -0.7239  -0.5652  -0.5343  -0.4771  -0.4434  -0.2526  -0.0847   0.1183
     0.3547   0.4575   0.5276   0.5684   3.9138   4.2474   4.4549   4.5887
     7.4290   7.4694   7.7191   7.7965   7.8446   8.3945   8.7608   8.9489
     9.4798   9.5957   9.8132  10.0143  10.1889  10.2344

          k = 0.3333 0.0389-0.2411 ( 51676 PWs)   bands (ev):

   -21.2239 -20.9979 -20.9520 -20.9028 -20.4912 -20.3088 -20.0025 -19.9871
   -18.9234 -18.8848 -18.7813 -18.7368 -18.6532 -18.4085 -18.3866 -18.2359
   -18.1812 -18.0585 -17.8269 -17.8136 -16.3285 -16.3227 -10.5236 -10.2223
    -9.9513  -9.7966  -8.3003  -7.9550  -7.3551  -7.0653  -6.7624  -6.7353
    -6.6338  -6.5483  -6.4292  -6.3505  -6.2772  -6.2450  -6.1375  -6.0638
    -5.8278  -5.6860  -5.5500  -5.5257  -5.3880  -5.1509  -5.0926  -5.0256
    -4.9845  -4.8975  -4.7942  -4.7231  -4.4656  -4.3917  -4.2933  -4.1879
    -3.7905  -3.6836  -3.6448  -3.5096  -3.4595  -3.2814  -3.1761  -3.1282
    -2.7940  -2.2248  -2.0649  -1.8909  -1.7001  -1.6299  -1.1954  -1.1511
    -1.0895  -1.0511  -1.0103  -0.9459  -0.8668  -0.8498  -0.8352  -0.7420
    -0.7110  -0.6001  -0.5331  -0.5033  -0.4065  -0.3008  -0.0644   0.1593
     0.3636   0.4323   0.5196   0.5555   3.9125   4.2498   4.4593   4.5839
     7.4995   7.5581   7.7477   7.7921   7.8192   7.8985   8.9225   9.2749
     9.5558   9.6731   9.7524   9.9266  10.1299  10.2007

          k = 0.3333 0.3283 0.0916 ( 51645 PWs)   bands (ev):

   -21.2025 -21.0314 -20.9332 -20.9018 -20.4916 -20.3138 -20.0239 -19.9662
   -18.9739 -18.8792 -18.8722 -18.6730 -18.5491 -18.4614 -18.4018 -18.2485
   -18.1293 -18.0330 -17.8489 -17.8197 -16.3251 -16.3219 -10.5175 -10.2288
    -9.9861  -9.7913  -8.2396  -7.9758  -7.3652  -7.0429  -6.7996  -6.7545
    -6.6942  -6.5603  -6.4106  -6.3910  -6.1639  -6.1205  -6.0816  -5.9806
    -5.8785  -5.8046  -5.6172  -5.4767  -5.3506  -5.2736  -5.2235  -4.9768
    -4.9507  -4.7969  -4.7168  -4.6891  -4.6209  -4.4744  -4.3032  -4.1127
    -3.8701  -3.7734  -3.6539  -3.4502  -3.3349  -3.2765  -3.2198  -3.1686
    -2.7990  -2.3200  -1.9972  -1.9246  -1.7189  -1.5213  -1.2347  -1.1839
    -1.1462  -1.0310  -0.9205  -0.8894  -0.8473  -0.8180  -0.7506  -0.7253
    -0.6554  -0.6281  -0.5134  -0.4935  -0.4373  -0.2666  -0.1072   0.1193
     0.3846   0.4190   0.5034   0.5198   4.0325   4.2381   4.3978   4.5128
     7.4843   7.6624   7.7080   7.7814   7.8952   8.3772   8.7007   9.0758
     9.2563   9.3016   9.5822   9.8815   9.9135  10.1090

          k = 0.3333 0.3283-0.2111 ( 51619 PWs)   bands (ev):

   -21.1990 -21.0288 -20.9428 -20.9042 -20.4830 -20.3138 -20.0059 -19.9902
   -18.9368 -18.9020 -18.8177 -18.7581 -18.6135 -18.3962 -18.3442 -18.2242
   -18.1878 -18.0519 -17.8315 -17.8237 -16.3262 -16.3201 -10.5165 -10.2276
    -9.9593  -9.8196  -8.2916  -7.9542  -7.3296  -7.0283  -6.8167  -6.7132
    -6.6697  -6.5247  -6.4346  -6.4075  -6.1797  -6.1118  -6.0308  -5.9867
    -5.9558  -5.7933  -5.7041  -5.5636  -5.2805  -5.2025  -5.1856  -5.0566
    -4.9604  -4.8288  -4.7487  -4.7031  -4.5476  -4.4491  -4.2736  -4.1458
    -3.7643  -3.7007  -3.6455  -3.5219  -3.4629  -3.3134  -3.2051  -3.1231
    -2.7971  -2.2526  -1.9876  -1.8801  -1.7551  -1.6364  -1.2401  -1.1902
    -1.0753  -1.0200  -0.9700  -0.9035  -0.8433  -0.7895  -0.7530  -0.7191
    -0.6671  -0.6233  -0.5073  -0.4825  -0.4201  -0.3058  -0.0824   0.1586
     0.3329   0.4414   0.4800   0.5229   4.0319   4.2379   4.4006   4.5126
     7.5253   7.6020   7.7230   7.7543   7.9412   8.3218   8.6935   8.8372
     9.2728   9.4187   9.7109   9.9236  10.2147  10.2956

          k = 0.3333-0.2505 0.0317 ( 51643 PWs)   bands (ev):

   -21.2054 -21.0275 -20.9363 -20.8988 -20.4923 -20.3134 -20.0236 -19.9670
   -18.9539 -18.9099 -18.8661 -18.6791 -18.5441 -18.4694 -18.3774 -18.2506
   -18.1377 -18.0336 -17.8475 -17.8214 -16.3257 -16.3206 -10.5183 -10.2275
    -9.9868  -9.7915  -8.2430  -7.9722  -7.3649  -7.0539  -6.7840  -6.7479
    -6.6302  -6.5533  -6.5117  -6.3945  -6.2036  -6.1398  -6.0601  -5.9578
    -5.8429  -5.7656  -5.6434  -5.5470  -5.3519  -5.2220  -5.1388  -4.9938
    -4.9002  -4.8238  -4.7843  -4.6473  -4.6009  -4.4919  -4.4411  -4.1656
    -3.7829  -3.7379  -3.5846  -3.4657  -3.3579  -3.2767  -3.2071  -3.1862
    -2.8018  -2.3147  -2.0211  -1.9314  -1.6908  -1.5757  -1.2116  -1.1658
    -1.1154  -0.9948  -0.9365  -0.9081  -0.8699  -0.8240  -0.7777  -0.7413
    -0.7008  -0.6056  -0.5034  -0.4918  -0.3929  -0.2618  -0.0877   0.1047
     0.3752   0.4272   0.5026   0.5118   4.0258   4.2755   4.4118   4.4711
     7.5424   7.5667   7.7273   7.7521   7.7795   8.6374   8.7763   8.9525
     9.1608   9.3685   9.5647   9.8416  10.0000  10.2577

          k = 0.3333-0.2505-0.2711 ( 51634 PWs)   bands (ev):

   -21.2014 -21.0258 -20.9452 -20.9015 -20.4835 -20.3132 -20.0067 -19.9896
   -18.9331 -18.9062 -18.8094 -18.7780 -18.5999 -18.4039 -18.3456 -18.2027
   -18.1909 -18.0647 -17.8327 -17.8217 -16.3244 -16.3214 -10.5173 -10.2279
    -9.9602  -9.8173  -8.2926  -7.9553  -7.3292  -7.0171  -6.7820  -6.7110
    -6.6621  -6.5464  -6.4775  -6.4328  -6.1936  -6.1639  -6.0590  -5.9549
    -5.9363  -5.7917  -5.6102  -5.4343  -5.2787  -5.2504  -5.2152  -5.0308
    -4.9456  -4.9335  -4.7737  -4.6626  -4.5903  -4.5242  -4.2471  -4.1352
    -3.8151  -3.6148  -3.5886  -3.5198  -3.4675  -3.2768  -3.2029  -3.1720
    -2.8142  -2.2525  -2.0005  -1.8534  -1.7568  -1.6429  -1.2203  -1.1891
    -1.0889  -0.9930  -0.9743  -0.9276  -0.8531  -0.7787  -0.7483  -0.7155
    -0.6822  -0.6618  -0.5175  -0.4769  -0.4191  -0.2921  -0.0759   0.1753
     0.3339   0.4242   0.4761   0.5347   4.0284   4.2755   4.4095   4.4773
     7.5529   7.5882   7.6966   7.7543   7.9844   8.0550   8.7295   9.1293
     9.3564   9.5519   9.7341   9.9431   9.9720  10.1440

     highest occupied, lowest unoccupied level (ev):     0.5684    3.9125

!    total energy              =   -1064.04756923 Ry
     Harris-Foulkes estimate   =   -1064.04756924 Ry
     estimated scf accuracy    <          8.4E-09 Ry

     total all-electron energy =     -3865.695736 Ry

     The total energy is the sum of the following terms:

     one-electron contribution =    -476.51715570 Ry
     hartree contribution      =     317.89408333 Ry
     xc contribution           =    -208.29070488 Ry
     ewald contribution        =    -436.93226135 Ry
     Dispersion Correction     =      -0.22257389 Ry
     one-center paw contrib.   =    -259.97895675 Ry

     convergence has been achieved in  12 iterations

     Forces acting on atoms (cartesian axes, Ry/au):

     atom    1 type  4   force =    -0.00005022   -0.00105938   -0.00092309
     atom    2 type  4   force =     0.00005022    0.00105938    0.00092309
     atom    3 type  4   force =     0.00015711   -0.00075273    0.00186822
     atom    4 type  4   force =    -0.00015711    0.00075273   -0.00186822
     atom    5 type  4   force =    -0.00079742    0.00036783   -0.00035397
     atom    6 type  4   force =     0.00079742   -0.00036783    0.00035397
     atom    7 type  4   force =    -0.00021759    0.00269557    0.00059690
     atom    8 type  4   force =     0.00021759   -0.00269557   -0.00059690
     atom    9 type  1   force =    -0.00011020    0.00190047   -0.00149647
     atom   10 type  1   force =     0.00011020   -0.00190047    0.00149647
     atom   11 type  1   force =     0.00031312   -0.00246783    0.00252398
     atom   12 type  1   force =    -0.00031312    0.00246783   -0.00252398
     atom   13 type  3   force =     0.00007791    0.00038180   -0.00056733
     atom   14 type  3   force =    -0.00007791   -0.00038180    0.00056733
     atom   15 type  4   force =    -0.00163095   -0.00121928    0.00096127
     atom   16 type  4   force =     0.00163095    0.00121928   -0.00096127
     atom   17 type  4   force =    -0.00043208    0.00054292    0.00086955
     atom   18 type  4   force =     0.00043208   -0.00054292   -0.00086955
     atom   19 type  1   force =     0.00014346    0.00084911    0.00162732
     atom   20 type  1   force =    -0.00014346   -0.00084911   -0.00162732
     atom   21 type  3   force =     0.00009334   -0.00035058   -0.00073858
     atom   22 type  3   force =    -0.00009334    0.00035058    0.00073858
     atom   23 type  4   force =    -0.00016587    0.00073002   -0.00074550
     atom   24 type  4   force =     0.00016587   -0.00073002    0.00074550
     atom   25 type  4   force =    -0.00062726   -0.00279000   -0.00020076
     atom   26 type  4   force =     0.00062726    0.00279000    0.00020076
     atom   27 type  1   force =     0.00178193    0.00165867    0.00272985
     atom   28 type  1   force =    -0.00178193   -0.00165867   -0.00272985
     atom   29 type  3   force =    -0.00020279   -0.00044030   -0.00034809
     atom   30 type  3   force =     0.00020279    0.00044030    0.00034809
     atom   31 type  4   force =    -0.00082487   -0.00193865    0.00205960
     atom   32 type  4   force =     0.00082487    0.00193865   -0.00205960
     atom   33 type  3   force =    -0.00011733    0.00092697   -0.00010182
     atom   34 type  3   force =     0.00011733   -0.00092697    0.00010182
     atom   35 type  3   force =     0.00084725   -0.00014619    0.00013371
     atom   36 type  3   force =    -0.00084725    0.00014619   -0.00013371
     atom   37 type  4   force =     0.00068182   -0.00026649    0.00014086
     atom   38 type  4   force =    -0.00068182    0.00026649   -0.00014086
     atom   39 type  3   force =     0.00001979   -0.00024761    0.00038574
     atom   40 type  3   force =    -0.00001979    0.00024761   -0.00038574
     atom   41 type  3   force =    -0.00005618   -0.00066315    0.00040200
     atom   42 type  3   force =     0.00005618    0.00066315   -0.00040200
     atom   43 type  2   force =     0.00012227   -0.00029372   -0.00070667
     atom   44 type  2   force =    -0.00012227    0.00029372    0.00070667
     atom   45 type  3   force =    -0.00069621   -0.00040965    0.00031202
     atom   46 type  3   force =     0.00069621    0.00040965   -0.00031202
     atom   47 type  3   force =     0.00077079   -0.00081652    0.00040583
     atom   48 type  3   force =    -0.00077079    0.00081652   -0.00040583
     atom   49 type  3   force =     0.00043013   -0.00009494    0.00013522
     atom   50 type  3   force =    -0.00043013    0.00009494   -0.00013522
     atom   51 type  3   force =    -0.00000147    0.00009341   -0.00043469
     atom   52 type  3   force =     0.00000147   -0.00009341    0.00043469

     Total force =     0.012794     Total SCF correction =     0.000246


     Computing stress (Cartesian axis) and pressure

          total   stress  (Ry/bohr**3)                   (kbar)     P=   -1.74
   0.00000490  -0.00000181  -0.00001065          0.72     -0.27     -1.57
  -0.00000181  -0.00001280   0.00000840         -0.27     -1.88      1.24
  -0.00001065   0.00000840  -0.00002757         -1.57      1.24     -4.06


     Writing output data file scf.save
 
     init_run     :     14.06s CPU     14.44s WALL (       1 calls)
     electrons    :    306.33s CPU    317.52s WALL (       1 calls)
     forces       :      7.58s CPU      7.63s WALL (       1 calls)
     stress       :     22.39s CPU     22.41s WALL (       1 calls)

     Called by init_run:
     wfcinit      :      8.86s CPU      9.12s WALL (       1 calls)
     potinit      :      1.88s CPU      1.93s WALL (       1 calls)

     Called by electrons:
     c_bands      :    269.70s CPU    279.49s WALL (      12 calls)
     sum_band     :     31.40s CPU     32.59s WALL (      12 calls)
     v_of_rho     :      0.69s CPU      0.76s WALL (      13 calls)
     newd         :      1.46s CPU      1.50s WALL (      13 calls)
     PAW_pot      :      2.82s CPU      2.82s WALL (      13 calls)
     mix_rho      :      0.14s CPU      0.15s WALL (      12 calls)

     Called by c_bands:
     init_us_2    :      2.05s CPU      2.06s WALL (     270 calls)
     cegterg      :    262.45s CPU    272.19s WALL (     120 calls)

     Called by sum_band:
     sum_band:bec :      0.03s CPU      0.03s WALL (     120 calls)
     addusdens    :      1.40s CPU      1.43s WALL (      12 calls)

     Called by *egterg:
     h_psi        :    157.40s CPU    164.07s WALL (     588 calls)
     s_psi        :     25.14s CPU     25.14s WALL (     588 calls)
     g_psi        :      0.95s CPU      0.95s WALL (     458 calls)
     cdiaghg      :     19.36s CPU     19.36s WALL (     578 calls)

     Called by h_psi:
     h_psi:pot    :    156.33s CPU    162.98s WALL (     588 calls)
     h_psi:calbec :     24.94s CPU     25.02s WALL (     588 calls)
     vloc_psi     :    106.31s CPU    112.87s WALL (     588 calls)
     add_vuspsi   :     25.08s CPU     25.08s WALL (     588 calls)

     General routines
     calbec       :     37.12s CPU     37.24s WALL (     758 calls)
     fft          :      0.46s CPU      0.62s WALL (     193 calls)
     fftw         :    115.25s CPU    122.59s WALL (   86926 calls)
 
     Parallel routines
     fft_scatter  :     25.93s CPU     30.07s WALL (   87119 calls)
 
     PWSCF        :  5m55.03s CPU     6m 7.94s WALL

 
   This run was terminated on:   5: 5:36   4Nov2017            

=------------------------------------------------------------------------------=
   JOB DONE.
=------------------------------------------------------------------------------=
