
     Program PWSCF v.6.1 (svn rev. 13369) starts on 12Nov2017 at 11:45:11 

     This program is part of the open-source Quantum ESPRESSO suite
     for quantum simulation of materials; please cite
         "P. Giannozzi et al., J. Phys.:Condens. Matter 21 395502 (2009);
          URL http://www.quantum-espresso.org", 
     in publications or presentations arising from this work. More details at
     http://www.quantum-espresso.org/quote

     Parallel version (MPI), running on     8 processors
     R & G space division:  proc/nbgrp/npool/nimage =       8
     Waiting for input...
     Reading input from standard input

     Current dimensions of program PWSCF are:
     Max number of different atomic species (ntypx) = 10
     Max number of k-points (npk) =  40000
     Max angular momentum in pseudopotentials (lmaxx) =  3
               file C.pbe-n-kjpaw_psl.0.1.UPF: wavefunction(s)  2P renormalized
               file N.pbe-n-kjpaw_psl.0.1.UPF: wavefunction(s)  2P renormalized
               file H.pbe-kjpaw_psl.0.1.UPF: wavefunction(s)  1S renormalized
               file O.pbe-n-kjpaw_psl.0.1.UPF: wavefunction(s)  2P renormalized

     -------------------------------------
     Parameters for Dispersion Correction:
     -------------------------------------
       atom      VdW radius       C_6     

        C          2.744         60.710
        N          2.640         42.670
        H          1.892          4.857
        O          2.536         24.284

     Subspace diagonalization in iterative solution of the eigenvalue problem:
     a serial algorithm will be used

 
     Parallelization info
     --------------------
     sticks:   dense  smooth     PW     G-vecs:    dense   smooth      PW
     Min        1459    1459    401               109412   109412   15730
     Max        1461    1461    402               109413   109413   15733
     Sum       11681   11681   3209               875301   875301  125845
 


     bravais-lattice index     =            0
     lattice parameter (alat)  =       9.2804  a.u.
     unit-cell volume          =    6478.1567 (a.u.)^3
     number of atoms/cell      =          108
     number of atomic types    =            4
     number of electrons       =       328.00
     number of Kohn-Sham states=          196
     kinetic-energy cutoff     =     100.0000  Ry
     charge density cutoff     =     400.0000  Ry
     convergence threshold     =      1.0E-08
     mixing beta               =       0.5000
     number of iterations used =            8  plain     mixing
     Exchange-correlation      =  SLA  PW   PBX  PBC ( 1  4  3  4 0 0)

     celldm(1)=   9.280445  celldm(2)=   0.000000  celldm(3)=   0.000000
     celldm(4)=   0.000000  celldm(5)=   0.000000  celldm(6)=   0.000000

     crystal axes: (cart. coord. in units of alat)
               a(1) = (   1.000000   0.000000   0.000000 )  
               a(2) = (   0.000000   4.260232   0.000000 )  
               a(3) = (  -0.870444   0.000000   1.902444 )  

     reciprocal axes: (cart. coord. in units 2 pi/alat)
               b(1) = (  1.000000  0.000000  0.457540 )  
               b(2) = (  0.000000  0.234729  0.000000 )  
               b(3) = (  0.000000  0.000000  0.525640 )  


     PseudoPot. # 1 for  C read from file:
     /scratch/ahofstet/pseudo/C.pbe-n-kjpaw_psl.0.1.UPF
     MD5 check sum: 430fe95172b1e11ef3f8ed03bac87931
     Pseudo is Projector augmented-wave + core cor, Zval =  4.0
     Generated using "atomic" code by A. Dal Corso  v.5.0.99 svn rev. 10869
     Shape of augmentation charge: BESSEL
     Using radial grid of 1073 points,  4 beta functions with: 
                l(1) =   0
                l(2) =   0
                l(3) =   1
                l(4) =   1
     Q(r) pseudized with 0 coefficients 


     PseudoPot. # 2 for  N read from file:
     /scratch/ahofstet/pseudo/N.pbe-n-kjpaw_psl.0.1.UPF
     MD5 check sum: f73187c8b701007e77325f868c9291d7
     Pseudo is Projector augmented-wave + core cor, Zval =  5.0
     Generated using "atomic" code by A. Dal Corso  v.5.0.99 svn rev. 10869
     Shape of augmentation charge: PSQ
     Using radial grid of 1085 points,  4 beta functions with: 
                l(1) =   0
                l(2) =   0
                l(3) =   1
                l(4) =   1
     Q(r) pseudized with 0 coefficients 


     PseudoPot. # 3 for  H read from file:
     /scratch/ahofstet/pseudo/H.pbe-kjpaw_psl.0.1.UPF
     MD5 check sum: 94e484f906d9e9773b2f6e52662335b2
     Pseudo is Projector augmented-wave, Zval =  1.0
     Generated using "atomic" code by A. Dal Corso  v.5.0.99 svn rev. 10869
     Shape of augmentation charge: PSQ
     Using radial grid of  929 points,  2 beta functions with: 
                l(1) =   0
                l(2) =   0
     Q(r) pseudized with 0 coefficients 


     PseudoPot. # 4 for  O read from file:
     /scratch/ahofstet/pseudo/O.pbe-n-kjpaw_psl.0.1.UPF
     MD5 check sum: 3f94a2996a3169367d6eb21d9b593f20
     Pseudo is Projector augmented-wave + core cor, Zval =  6.0
     Generated using "atomic" code by A. Dal Corso  v.5.0.99 svn rev. 10869
     Shape of augmentation charge: BESSEL
     Using radial grid of 1095 points,  4 beta functions with: 
                l(1) =   0
                l(2) =   0
                l(3) =   1
                l(4) =   1
     Q(r) pseudized with 0 coefficients 


     atomic species   valence    mass     pseudopotential
        C              4.00    12.01070      C( 1.00)
        N              5.00    14.00670      N( 1.00)
        H              1.00     1.00794      H( 1.00)
        O              6.00    15.99940      O( 1.00)

      2 Sym. Ops., with inversion, found
          (note:  2 additional sym.ops. were found but ignored
           their fractional translations are incommensurate with FFT grid)


   Cartesian axes

     site n.     atom                  positions (alat units)
         1           O   tau(   1) = (  -0.1630309   1.8781310   0.6579193  )
         2           O   tau(   2) = (   0.7278086   4.0082471   0.2933025  )
         3           O   tau(   3) = (   0.2925864   2.3821011   1.2445243  )
         4           O   tau(   4) = (  -0.5982531   0.2519850   1.6091411  )
         5           O   tau(   5) = (   0.4161289   2.7074268   0.3805934  )
         6           O   tau(   6) = (   0.1486489   0.5773107   0.5706283  )
         7           O   tau(   7) = (  -0.2865734   1.5528054   1.5218501  )
         8           O   tau(   8) = (  -0.0190933   3.6829214   1.3318152  )
         9           O   tau(   9) = (  -0.6375273   3.9119222   1.8145014  )
        10           O   tau(  10) = (   0.3318607   1.7818061   1.0391640  )
        11           O   tau(  11) = (   0.7670829   0.3483099   0.0879422  )
        12           O   tau(  12) = (  -0.2023051   2.4784260   0.8632796  )
        13           N   tau(  13) = (   0.2608401   2.2266728   0.6382613  )
        14           N   tau(  14) = (   0.3039377   0.0965567   0.3129604  )
        15           N   tau(  15) = (  -0.1312845   2.0335593   1.2641822  )
        16           N   tau(  16) = (  -0.1743821   4.1636754   1.5894831  )
        17           H   tau(  17) = (   0.3919281   2.3853526   0.5836646  )
        18           H   tau(  18) = (   0.1728497   0.2552366   0.3675572  )
        19           H   tau(  19) = (  -0.2623726   1.8748795   1.3187790  )
        20           H   tau(  20) = (  -0.0432941   4.0049956   1.5348864  )
        21           H   tau(  21) = (   0.3400443   2.1110535   0.7956997  )
        22           H   tau(  22) = (   0.2247335  -0.0190626   0.1555221  )
        23           H   tau(  23) = (  -0.2104887   2.1491787   1.1067438  )
        24           H   tau(  24) = (  -0.0951779   0.0190626   1.7469215  )
        25           H   tau(  25) = (   0.0804992   2.3189765   0.7088272  )
        26           H   tau(  26) = (   0.4842786   0.1888604   0.2423945  )
        27           H   tau(  27) = (   0.0490564   1.9412557   1.1936163  )
        28           H   tau(  28) = (  -0.3547231   4.0713717   1.6600490  )
        29           C   tau(  29) = (   0.2076638   2.0545023   0.3955370  )
        30           C   tau(  30) = (   0.3571140   4.1846184   0.5556847  )
        31           C   tau(  31) = (  -0.0781082   2.2057298   1.5069065  )
        32           C   tau(  32) = (  -0.2275585   0.0756138   1.3467588  )
        33           H   tau(  33) = (   0.3909288   1.9279286   0.3582428  )
        34           H   tau(  34) = (   0.1738490   4.0580447   0.5929790  )
        35           H   tau(  35) = (  -0.2613732   2.3323035   1.5442007  )
        36           H   tau(  36) = (  -0.0442934   0.2021874   1.3094646  )
        37           H   tau(  37) = (   0.1820515   2.1870528   0.2177959  )
        38           H   tau(  38) = (   0.3827263   0.0569368   0.7334259  )
        39           H   tau(  39) = (  -0.0524959   2.0731793   1.6846476  )
        40           H   tau(  40) = (  -0.2531707   4.2032954   1.1690177  )
        41           O   tau(  41) = (   0.7740580   2.5369119   0.1658291  )
        42           O   tau(  42) = (  -0.2092802   0.4067959   0.7853927  )
        43           O   tau(  43) = (  -0.6445024   1.7233202   1.7366145  )
        44           O   tau(  44) = (   0.3388358   3.8534363   1.1170509  )
        45           H   tau(  45) = (   0.9074127   2.5598654   0.0035326  )
        46           H   tau(  46) = (  -0.3426349   0.4297494   0.9476892  )
        47           H   tau(  47) = (  -0.7778571   1.7003667   1.8989109  )
        48           H   tau(  48) = (   0.4721905   3.8304828   0.9547544  )
        49           O   tau(  49) = (  -0.1090339   1.7268405   0.2291631  )
        50           O   tau(  50) = (   0.6738117   3.8569566   0.7220587  )
        51           O   tau(  51) = (   0.2385894   2.5333916   1.6732805  )
        52           O   tau(  52) = (  -0.5442561   0.4032755   1.1803848  )
        53           C   tau(  53) = (  -0.0405212   1.8742401   0.4289429  )
        54           C   tau(  54) = (   0.6052990   4.0043562   0.5222789  )
        55           C   tau(  55) = (   0.1700768   2.3859920   1.4735007  )
        56           C   tau(  56) = (  -0.4757434   0.2558759   1.3801647  )
        57           C   tau(  57) = (   0.5903608   2.7313680   0.2015669  )
        58           C   tau(  58) = (  -0.0255830   0.6012520   0.7496549  )
        59           C   tau(  59) = (  -0.4608052   1.5288641   1.7008766  )
        60           C   tau(  60) = (   0.1551386   3.6589802   1.1527887  )
        61           O   tau(  61) = (   0.0434186   3.6165514   0.2038557  )
        62           O   tau(  62) = (   0.5213592   1.4864353   0.7473660  )
        63           O   tau(  63) = (   0.0861369   0.6436808   1.6985878  )
        64           O   tau(  64) = (  -0.3918036   2.7737968   1.1550775  )
        65           H   tau(  65) = (  -0.0841690   3.7867694   0.2496416  )
        66           H   tau(  66) = (   0.6489468   1.6566533   0.7015802  )
        67           H   tau(  67) = (   0.2137246   0.4734628   1.6528019  )
        68           H   tau(  68) = (  -0.5193912   2.6035788   1.2008634  )
        69           C   tau(  69) = (   0.3788008   3.1827188   0.0800978  )
        70           C   tau(  70) = (   0.1859770   1.0526028   0.8711240  )
        71           C   tau(  71) = (  -0.2492452   1.0775133   1.8223457  )
        72           C   tau(  72) = (  -0.0564214   3.2076294   1.0313196  )
        73           H   tau(  73) = (   0.1777571   3.0889064   0.0198754  )
        74           H   tau(  74) = (   0.3870206   0.9587903   0.9313464  )
        75           H   tau(  75) = (  -0.0482016   1.1713258   1.8825681  )
        76           H   tau(  76) = (  -0.2574651   3.3014418   0.9710972  )
        77           H   tau(  77) = (   0.3640166   3.2135217   0.3009805  )
        78           H   tau(  78) = (   0.2007612   1.0834057   0.6502413  )
        79           H   tau(  79) = (  -0.2344611   1.0467104   1.6014631  )
        80           H   tau(  80) = (  -0.0712056   3.1768264   1.2522022  )
        81           C   tau(  81) = (   0.6058684   2.9836731   0.0210096  )
        82           C   tau(  82) = (  -0.0410906   0.8535571   0.9302122  )
        83           C   tau(  83) = (  -0.4763128   1.2765590   1.8814340  )
        84           C   tau(  84) = (   0.1706461   3.4066751   0.9722314  )
        85           H   tau(  85) = (  -0.2633234   2.9184235   1.7088120  )
        86           H   tau(  86) = (  -0.0423432   0.7883074   1.1448533  )
        87           H   tau(  87) = (   0.3928790   1.3418087   0.1936316  )
        88           H   tau(  88) = (   0.1718988   3.4719247   0.7575902  )
        89           H   tau(  89) = (  -0.0580484   3.0816560   1.9582752  )
        90           H   tau(  90) = (  -0.2476183   0.9515400   0.8953902  )
        91           H   tau(  91) = (   0.1876039   1.1785761  -0.0558316  )
        92           H   tau(  92) = (   0.3771738   3.3086922   1.0070534  )
        93           C   tau(  93) = (   0.2235016   3.6802960   0.0153937  )
        94           C   tau(  94) = (   0.3412762   1.5501800   0.9358280  )
        95           C   tau(  95) = (  -0.0939460   0.5799361   1.8870498  )
        96           C   tau(  96) = (  -0.2117206   2.7100522   0.9666155  )
        97           C   tau(  97) = (  -0.4491373   3.4592245   1.8447593  )
        98           C   tau(  98) = (   0.1434707   1.3291084   1.0089060  )
        99           C   tau(  99) = (   0.5786929   0.8010076   0.0576842  )
       100           C   tau( 100) = (  -0.0139151   2.9311237   0.8935375  )
       101           H   tau( 101) = (  -0.2452594   3.5374063   1.9044527  )
       102           H   tau( 102) = (  -0.0604072   1.4072903   0.9492126  )
       103           H   tau( 103) = (   0.3748150   0.7228258  -0.0020092  )
       104           H   tau( 104) = (   0.1899628   2.8529419   0.9532309  )
       105           H   tau( 105) = (  -0.4382792   3.4470125   1.6211698  )
       106           H   tau( 106) = (   0.1326125   1.3168964   1.2324955  )
       107           H   tau( 107) = (   0.5678348   0.8132197   0.2812737  )
       108           H   tau( 108) = (  -0.0030570   2.9433357   0.6699481  )

     number of k points=     6
                       cart. coord. in units 2pi/alat
        k(    1) = (   0.0000000   0.0000000   0.0000000), wk =   0.2500000
        k(    2) = (   0.0000000   0.0000000  -0.2628199), wk =   0.2500000
        k(    3) = (   0.2500000   0.0000000   0.1143851), wk =   0.5000000
        k(    4) = (   0.2500000   0.0000000  -0.1484348), wk =   0.5000000
        k(    5) = (  -0.5000000   0.0000000  -0.2287701), wk =   0.2500000
        k(    6) = (  -0.5000000   0.0000000  -0.4915900), wk =   0.2500000

     Dense  grid:   875301 G-vectors     FFT dimensions: (  60, 256, 125)

     Estimated max dynamical RAM per process >     814.72MB

     Estimated total allocated dynamical RAM >    6517.74MB

     Check: negative/imaginary core charge=   -0.000002    0.000000

     Initial potential from superposition of free atoms

     starting charge  327.99828, renormalised to  328.00000
     Starting wfc are  276 randomized atomic wfcs
     Checking if some PAW data can be deallocated... 

     total cpu time spent up to now is       42.2 secs

     per-process dynamical memory:   520.8 Mb

     Self-consistent Calculation

     iteration #  1     ecut=   100.00 Ry     beta=0.50
     Davidson diagonalization with overlap
     ethr =  1.00E-02,  avg # of iterations =  4.8

     total cpu time spent up to now is      164.1 secs

     total energy              =   -1689.41101291 Ry
     Harris-Foulkes estimate   =   -1695.34974847 Ry
     estimated scf accuracy    <      10.93125746 Ry

     iteration #  2     ecut=   100.00 Ry     beta=0.50
     Davidson diagonalization with overlap
     ethr =  3.33E-03,  avg # of iterations =  4.2

     total cpu time spent up to now is      240.0 secs

     total energy              =   -1691.28629236 Ry
     Harris-Foulkes estimate   =   -1691.89883014 Ry
     estimated scf accuracy    <       1.35356847 Ry

     iteration #  3     ecut=   100.00 Ry     beta=0.50
     Davidson diagonalization with overlap
     ethr =  4.13E-04,  avg # of iterations =  7.7

     total cpu time spent up to now is      354.9 secs

     total energy              =   -1691.73911350 Ry
     Harris-Foulkes estimate   =   -1691.91634930 Ry
     estimated scf accuracy    <       0.45560202 Ry

     iteration #  4     ecut=   100.00 Ry     beta=0.50
     Davidson diagonalization with overlap
     ethr =  1.39E-04,  avg # of iterations =  3.7

     total cpu time spent up to now is      417.5 secs

     total energy              =   -1691.75260298 Ry
     Harris-Foulkes estimate   =   -1691.79260543 Ry
     estimated scf accuracy    <       0.09666569 Ry

     iteration #  5     ecut=   100.00 Ry     beta=0.50
     Davidson diagonalization with overlap
     ethr =  2.95E-05,  avg # of iterations =  7.3

     total cpu time spent up to now is      543.5 secs

     total energy              =   -1691.79815736 Ry
     Harris-Foulkes estimate   =   -1691.82926141 Ry
     estimated scf accuracy    <       0.09517925 Ry

     iteration #  6     ecut=   100.00 Ry     beta=0.50
     Davidson diagonalization with overlap
     ethr =  2.90E-05,  avg # of iterations =  1.0

     total cpu time spent up to now is      600.0 secs

     total energy              =   -1691.78353284 Ry
     Harris-Foulkes estimate   =   -1691.80307104 Ry
     estimated scf accuracy    <       0.03595360 Ry

     iteration #  7     ecut=   100.00 Ry     beta=0.50
     Davidson diagonalization with overlap
     ethr =  1.10E-05,  avg # of iterations =  6.0

     total cpu time spent up to now is      711.9 secs

     total energy              =   -1691.80158852 Ry
     Harris-Foulkes estimate   =   -1691.80318110 Ry
     estimated scf accuracy    <       0.00712579 Ry

     iteration #  8     ecut=   100.00 Ry     beta=0.50
     Davidson diagonalization with overlap
     ethr =  2.17E-06,  avg # of iterations =  1.8

     total cpu time spent up to now is      769.6 secs

     total energy              =   -1691.79987523 Ry
     Harris-Foulkes estimate   =   -1691.80183514 Ry
     estimated scf accuracy    <       0.00400264 Ry

     iteration #  9     ecut=   100.00 Ry     beta=0.50
     Davidson diagonalization with overlap
     ethr =  1.22E-06,  avg # of iterations =  4.3

     total cpu time spent up to now is      859.7 secs

     total energy              =   -1691.80111214 Ry
     Harris-Foulkes estimate   =   -1691.80113225 Ry
     estimated scf accuracy    <       0.00009699 Ry

     iteration # 10     ecut=   100.00 Ry     beta=0.50
     Davidson diagonalization with overlap
     ethr =  2.96E-08,  avg # of iterations =  2.8

     total cpu time spent up to now is      926.4 secs

     total energy              =   -1691.80110654 Ry
     Harris-Foulkes estimate   =   -1691.80112607 Ry
     estimated scf accuracy    <       0.00003810 Ry

     iteration # 11     ecut=   100.00 Ry     beta=0.50
     Davidson diagonalization with overlap
     ethr =  1.16E-08,  avg # of iterations =  3.3

     total cpu time spent up to now is     1018.5 secs

     total energy              =   -1691.80112071 Ry
     Harris-Foulkes estimate   =   -1691.80112240 Ry
     estimated scf accuracy    <       0.00000452 Ry

     iteration # 12     ecut=   100.00 Ry     beta=0.50
     Davidson diagonalization with overlap
     ethr =  1.38E-09,  avg # of iterations =  1.2

     total cpu time spent up to now is     1075.0 secs

     total energy              =   -1691.80112028 Ry
     Harris-Foulkes estimate   =   -1691.80112103 Ry
     estimated scf accuracy    <       0.00000141 Ry

     iteration # 13     ecut=   100.00 Ry     beta=0.50
     Davidson diagonalization with overlap
     ethr =  4.30E-10,  avg # of iterations =  4.0

     total cpu time spent up to now is     1182.0 secs

     total energy              =   -1691.80112122 Ry
     Harris-Foulkes estimate   =   -1691.80112146 Ry
     estimated scf accuracy    <       0.00000069 Ry

     iteration # 14     ecut=   100.00 Ry     beta=0.50
     Davidson diagonalization with overlap
     ethr =  2.11E-10,  avg # of iterations =  1.0

     total cpu time spent up to now is     1238.6 secs

     total energy              =   -1691.80112110 Ry
     Harris-Foulkes estimate   =   -1691.80112125 Ry
     estimated scf accuracy    <       0.00000025 Ry

     iteration # 15     ecut=   100.00 Ry     beta=0.50
     Davidson diagonalization with overlap
     ethr =  7.73E-11,  avg # of iterations =  4.0

     total cpu time spent up to now is     1342.4 secs

     total energy              =   -1691.80112126 Ry
     Harris-Foulkes estimate   =   -1691.80112129 Ry
     estimated scf accuracy    <       0.00000010 Ry

     iteration # 16     ecut=   100.00 Ry     beta=0.50
     Davidson diagonalization with overlap
     ethr =  2.99E-11,  avg # of iterations =  1.0

     total cpu time spent up to now is     1398.9 secs

     total energy              =   -1691.80112124 Ry
     Harris-Foulkes estimate   =   -1691.80112126 Ry
     estimated scf accuracy    <       0.00000005 Ry

     iteration # 17     ecut=   100.00 Ry     beta=0.50
     Davidson diagonalization with overlap
     ethr =  1.38E-11,  avg # of iterations =  3.2

     total cpu time spent up to now is     1495.0 secs

     End of self-consistent calculation

          k = 0.0000 0.0000 0.0000 (109325 PWs)   bands (ev):

   -21.1668 -21.1657 -21.1486 -21.1476 -20.8540 -20.8524 -20.8467 -20.8455
   -20.4482 -20.4477 -20.4314 -20.4306 -18.7675 -18.7671 -18.7425 -18.7411
   -18.6786 -18.6784 -18.6523 -18.6504 -18.1799 -18.1793 -18.1535 -18.1529
   -17.6345 -17.6343 -17.5856 -17.5854 -13.6605 -13.6604 -13.6464 -13.6458
   -11.9190 -11.9070 -11.8691 -11.8386 -11.7533 -11.7529 -11.7268 -11.7035
    -9.3737  -9.3553  -9.3421  -9.3231  -8.8197  -8.7763  -8.6370  -8.5571
    -8.3839  -8.3710  -8.2442  -8.2397  -7.8523  -7.8203  -7.6725  -7.6661
    -7.4829  -7.4704  -7.4008  -7.3966  -6.6505  -6.6151  -6.5650  -6.5547
    -6.2338  -6.1880  -6.1315  -6.0785  -6.0199  -5.9792  -5.9366  -5.9154
    -5.6374  -5.6187  -5.5750  -5.4954  -5.3576  -5.3133  -5.3079  -5.2088
    -5.1447  -5.1413  -5.1245  -5.0696  -5.0219  -4.9890  -4.9650  -4.9064
    -4.8055  -4.7422  -4.7117  -4.7002  -4.5533  -4.5348  -4.5025  -4.4541
    -4.4358  -4.3645  -4.3400  -4.2879  -4.2876  -4.2463  -4.1052  -4.0320
    -3.8688  -3.8340  -3.8133  -3.7781  -3.5746  -3.5135  -3.3371  -3.3042
    -3.2260  -3.1606  -3.1255  -3.1179  -2.7760  -2.7626  -2.7315  -2.7174
    -2.6935  -2.6444  -2.6194  -2.5928  -2.5442  -2.5280  -2.5066  -2.4761
    -2.1286  -2.0929  -2.0383  -2.0006  -1.8678  -1.8552  -1.7209  -1.7196
    -1.2484  -1.2413  -1.1537  -1.1456  -1.0827  -1.0733  -1.0119  -1.0045
    -0.7301  -0.7291  -0.7268  -0.7268  -0.5286  -0.4986  -0.4934  -0.4331
    -0.3582  -0.3205  -0.3152  -0.2422  -0.2367  -0.2007  -0.1950  -0.0527
     0.0064   0.0571   0.1484   0.1578   5.2259   5.2276   5.2877   5.2901
     5.4125   5.4211   5.5257   5.5310   5.5365   5.5828   5.6240   5.6580
     5.9337   6.1630   6.3522   6.9395   7.1323   7.1548   7.1981   7.4985
     7.5348   7.7216   7.7904   8.0794   8.2486   8.4683   8.5194   8.5803
     8.6141   8.7695   8.9339   9.1231

          k = 0.0000 0.0000-0.2628 (109444 PWs)   bands (ev):

   -21.1620 -21.1620 -21.1457 -21.1457 -20.8628 -20.8628 -20.8522 -20.8522
   -20.4343 -20.4343 -20.4336 -20.4336 -18.7773 -18.7773 -18.7656 -18.7656
   -18.6477 -18.6477 -18.6418 -18.6418 -18.2087 -18.2087 -18.1341 -18.1341
   -17.6448 -17.6448 -17.5732 -17.5732 -13.6534 -13.6534 -13.6532 -13.6532
   -11.9081 -11.9080 -11.8545 -11.8545 -11.7434 -11.7434 -11.7310 -11.7310
    -9.3600  -9.3600  -9.3380  -9.3380  -8.7430  -8.7430  -8.6773  -8.6773
    -8.3203  -8.3203  -8.2947  -8.2947  -7.8390  -7.8390  -7.6413  -7.6413
    -7.4326  -7.4326  -7.4141  -7.4141  -6.7487  -6.7487  -6.4596  -6.4596
    -6.2439  -6.2439  -6.0512  -6.0512  -5.9903  -5.9903  -5.9169  -5.9169
    -5.6202  -5.6202  -5.4638  -5.4638  -5.4548  -5.4548  -5.2944  -5.2944
    -5.1892  -5.1892  -5.1085  -5.1085  -4.9796  -4.9796  -4.8749  -4.8749
    -4.7957  -4.7957  -4.6834  -4.6834  -4.5987  -4.5987  -4.4845  -4.4845
    -4.3817  -4.3817  -4.3223  -4.3223  -4.2918  -4.2918  -4.0348  -4.0348
    -3.8556  -3.8556  -3.7877  -3.7877  -3.4446  -3.4446  -3.3917  -3.3917
    -3.2094  -3.2093  -3.1585  -3.1585  -2.7502  -2.7502  -2.7182  -2.7182
    -2.6365  -2.6365  -2.5894  -2.5894  -2.5280  -2.5280  -2.5163  -2.5163
    -2.0418  -2.0418  -2.0343  -2.0343  -1.8178  -1.8178  -1.8082  -1.8082
    -1.2201  -1.2201  -1.1987  -1.1987  -1.0542  -1.0542  -1.0156  -1.0156
    -0.7314  -0.7314  -0.7201  -0.7201  -0.5061  -0.5061  -0.4668  -0.4668
    -0.3717  -0.3717  -0.3049  -0.3049  -0.2157  -0.2157  -0.0877  -0.0877
     0.0430   0.0430   0.1531   0.1531   5.1987   5.1987   5.2341   5.2341
     5.4248   5.4248   5.5171   5.5171   5.6057   5.6057   5.6380   5.6380
     6.3324   6.3324   6.5298   6.5298   6.7271   6.7271   7.2783   7.2783
     7.5031   7.5031   8.2881   8.2881   8.4470   8.4470   8.6742   8.6742
     9.0287   9.0287   9.1794   9.1794

          k = 0.2500 0.0000 0.1144 (109307 PWs)   bands (ev):

   -21.1454 -21.1449 -21.1327 -21.1323 -20.8429 -20.8425 -20.8377 -20.8373
   -20.4561 -20.4560 -20.4415 -20.4414 -18.7860 -18.7847 -18.7505 -18.7501
   -18.6759 -18.6744 -18.6585 -18.6579 -18.1644 -18.1642 -18.1349 -18.1348
   -17.6562 -17.6562 -17.6195 -17.6194 -13.6393 -13.6372 -13.6325 -13.6303
   -11.9277 -11.9240 -11.8943 -11.8477 -11.7856 -11.7800 -11.7438 -11.7332
    -9.4129  -9.3846  -9.3703  -9.3640  -8.7111  -8.6577  -8.6529  -8.6056
    -8.3502  -8.3245  -8.2977  -8.2895  -7.8011  -7.8010  -7.7139  -7.7127
    -7.5545  -7.5385  -7.3673  -7.3653  -6.7554  -6.7548  -6.6058  -6.5822
    -6.3002  -6.2740  -6.2497  -6.1545  -6.0957  -6.0540  -5.7651  -5.7414
    -5.7308  -5.6922  -5.6561  -5.6236  -5.5634  -5.5422  -5.3489  -5.3241
    -5.2825  -5.1405  -5.1216  -5.0173  -4.9803  -4.9467  -4.9047  -4.8818
    -4.8448  -4.8281  -4.7234  -4.7058  -4.6350  -4.5817  -4.5489  -4.5454
    -4.4639  -4.4450  -4.3392  -4.2955  -4.2662  -4.2328  -4.0311  -4.0291
    -3.8864  -3.8169  -3.7526  -3.7202  -3.4483  -3.3980  -3.3367  -3.2764
    -3.0536  -3.0383  -2.8863  -2.8769  -2.7811  -2.7461  -2.7134  -2.6821
    -2.6335  -2.6028  -2.5644  -2.5620  -2.2596  -2.2501  -2.1031  -2.0909
    -1.9749  -1.9656  -1.9271  -1.9040  -1.7354  -1.7251  -1.5724  -1.5670
    -1.2485  -1.2042  -1.1457  -1.1238  -1.0061  -1.0028  -0.9786  -0.9554
    -0.7561  -0.7514  -0.7421  -0.7268  -0.5429  -0.5246  -0.4785  -0.4437
    -0.3621  -0.3601  -0.3111  -0.3041  -0.2110  -0.2078  -0.1617  -0.1377
     0.0006   0.0279   0.1441   0.1576   5.0411   5.0672   5.0781   5.1089
     5.3464   5.3594   5.4172   5.4825   5.5017   5.5188   5.5585   5.6077
     6.4348   6.5946   6.7651   6.8622   6.9809   7.4347   7.4907   7.5469
     7.6647   8.1527   8.1731   8.3251   8.3302   8.3972   8.4910   8.5409
     8.6933   8.7088   8.7316   8.7598

          k = 0.2500 0.0000-0.1484 (109388 PWs)   bands (ev):

   -21.1422 -21.1422 -21.1307 -21.1306 -20.8501 -20.8497 -20.8424 -20.8420
   -20.4522 -20.4516 -20.4374 -20.4368 -18.7877 -18.7859 -18.7648 -18.7630
   -18.6707 -18.6683 -18.6470 -18.6444 -18.1811 -18.1808 -18.1253 -18.1246
   -17.6647 -17.6645 -17.6089 -17.6087 -13.6401 -13.6373 -13.6316 -13.6301
   -11.9424 -11.9064 -11.8754 -11.8681 -11.7914 -11.7667 -11.7507 -11.7349
    -9.4070  -9.3863  -9.3842  -9.3548  -8.7634  -8.6871  -8.5844  -8.5405
    -8.4169  -8.3770  -8.2716  -8.2605  -7.8207  -7.8012  -7.7134  -7.6774
    -7.5418  -7.5237  -7.3685  -7.3481  -6.8149  -6.7780  -6.5978  -6.5690
    -6.3687  -6.3223  -6.1335  -6.1101  -6.0896  -6.0774  -5.7803  -5.7631
    -5.7234  -5.6902  -5.6270  -5.5983  -5.5614  -5.5278  -5.3950  -5.2942
    -5.2030  -5.1732  -5.1114  -5.0600  -5.0511  -4.9970  -4.9784  -4.9060
    -4.8542  -4.8333  -4.6834  -4.6690  -4.5983  -4.5779  -4.5436  -4.5086
    -4.4862  -4.3962  -4.3658  -4.3103  -4.2307  -4.2268  -4.0353  -4.0315
    -3.8537  -3.8165  -3.7815  -3.7157  -3.4208  -3.3689  -3.3656  -3.3237
    -3.0124  -3.0050  -2.9579  -2.9460  -2.7364  -2.7265  -2.7018  -2.6909
    -2.6451  -2.6196  -2.5844  -2.5141  -2.1680  -2.1663  -2.1588  -2.1489
    -2.0016  -1.9819  -1.8969  -1.8805  -1.6938  -1.6860  -1.6412  -1.6311
    -1.2181  -1.1870  -1.1708  -1.1459  -0.9883  -0.9830  -0.9702  -0.9681
    -0.7704  -0.7697  -0.7600  -0.7521  -0.5405  -0.4844  -0.4328  -0.4257
    -0.3985  -0.3813  -0.3418  -0.2749  -0.2473  -0.2343  -0.1437  -0.1238
     0.0212   0.0286   0.1402   0.1462   5.0755   5.0846   5.0951   5.1055
     5.3300   5.3534   5.4008   5.4205   5.4850   5.5315   5.5908   5.6383
     6.2165   6.3082   6.8873   7.1372   7.2528   7.3973   7.4189   7.4567
     7.7527   8.1380   8.2932   8.3283   8.3569   8.3887   8.4654   8.5469
     8.5765   8.7083   8.8013   8.8802

          k =-0.5000 0.0000-0.2288 (109386 PWs)   bands (ev):

   -21.1229 -21.1226 -21.1170 -21.1167 -20.8310 -20.8303 -20.8303 -20.8295
   -20.4650 -20.4645 -20.4534 -20.4528 -18.8021 -18.8003 -18.7637 -18.7620
   -18.6701 -18.6683 -18.6676 -18.6657 -18.1412 -18.1409 -18.1196 -18.1189
   -17.6749 -17.6745 -17.6612 -17.6610 -13.6191 -13.6166 -13.6152 -13.6149
   -11.9666 -11.9047 -11.8923 -11.8796 -11.8195 -11.8008 -11.7712 -11.7564
    -9.4649  -9.4619  -9.3862  -9.3807  -8.6847  -8.6374  -8.5757  -8.5237
    -8.4066  -8.3800  -8.2965  -8.2557  -7.7455  -7.7221  -7.7156  -7.6931
    -7.6679  -7.6408  -7.3709  -7.3616  -6.8318  -6.7574  -6.6891  -6.6559
    -6.4114  -6.3457  -6.3132  -6.2825  -6.1584  -6.1562  -5.8467  -5.7991
    -5.7746  -5.6907  -5.6745  -5.6419  -5.5567  -5.5479  -5.4967  -5.2613
    -5.2431  -5.1634  -5.1540  -5.1124  -5.0175  -4.9662  -4.9257  -4.9198
    -4.8465  -4.7797  -4.7501  -4.7457  -4.6399  -4.6107  -4.5836  -4.5447
    -4.4925  -4.4587  -4.3978  -4.3438  -4.1571  -4.1415  -4.1264  -4.1181
    -3.8791  -3.8480  -3.7140  -3.6840  -3.4435  -3.4125  -3.3323  -3.3310
    -2.8864  -2.8267  -2.6711  -2.6580  -2.6427  -2.6045  -2.5920  -2.5732
    -2.4962  -2.4909  -2.4468  -2.4428  -2.2414  -2.2278  -2.0208  -2.0151
    -1.9272  -1.9225  -1.8941  -1.8594  -1.3202  -1.2978  -1.2786  -1.2773
    -1.1612  -1.1557  -1.0844  -1.0776  -0.9072  -0.9065  -0.8954  -0.8923
    -0.7836  -0.7684  -0.7561  -0.7522  -0.5693  -0.5318  -0.4951  -0.4790
    -0.4234  -0.4063  -0.3775  -0.2837  -0.2646  -0.2439  -0.2257  -0.1055
     0.0182   0.0336   0.1554   0.1598   4.8947   4.9172   4.9345   4.9561
     5.2783   5.3197   5.3214   5.3446   5.3775   5.4614   5.5670   5.6356
     6.7287   6.7507   7.1981   7.2402   7.3227   7.3510   7.8067   7.8499
     7.8985   7.9999   8.0099   8.0360   8.1238   8.1241   8.1583   8.4336
     8.4583   8.4697   8.4899   8.8475

          k =-0.5000 0.0000-0.4916 (109500 PWs)   bands (ev):

   -21.1210 -21.1209 -21.1155 -21.1155 -20.8349 -20.8349 -20.8336 -20.8336
   -20.4674 -20.4674 -20.4448 -20.4448 -18.7925 -18.7925 -18.7714 -18.7713
   -18.6755 -18.6754 -18.6598 -18.6598 -18.1451 -18.1451 -18.1198 -18.1198
   -17.6832 -17.6832 -17.6499 -17.6499 -13.6179 -13.6179 -13.6149 -13.6149
   -11.9408 -11.9408 -11.8806 -11.8806 -11.8147 -11.8147 -11.7574 -11.7574
    -9.4312  -9.4312  -9.4216  -9.4216  -8.6397  -8.6397  -8.6094  -8.6094
    -8.3093  -8.3093  -8.3041  -8.3041  -7.7313  -7.7313  -7.7128  -7.7128
    -7.6363  -7.6363  -7.3885  -7.3885  -6.8062  -6.8062  -6.6953  -6.6953
    -6.4632  -6.4632  -6.2179  -6.2179  -6.1260  -6.1260  -5.8474  -5.8474
    -5.7465  -5.7465  -5.6359  -5.6359  -5.5460  -5.5460  -5.3977  -5.3977
    -5.1323  -5.1323  -5.0761  -5.0761  -5.0493  -5.0493  -4.9650  -4.9650
    -4.8336  -4.8336  -4.7948  -4.7947  -4.5580  -4.5580  -4.5201  -4.5201
    -4.4634  -4.4634  -4.3503  -4.3503  -4.2156  -4.2156  -4.0979  -4.0979
    -3.8286  -3.8286  -3.7548  -3.7548  -3.3934  -3.3934  -3.3909  -3.3909
    -2.8238  -2.8238  -2.7379  -2.7379  -2.5638  -2.5638  -2.5463  -2.5463
    -2.5127  -2.5127  -2.4992  -2.4992  -2.1237  -2.1237  -2.1124  -2.1124
    -1.8876  -1.8876  -1.8743  -1.8743  -1.3509  -1.3509  -1.2883  -1.2883
    -1.1186  -1.1186  -1.1025  -1.1025  -0.8950  -0.8950  -0.8848  -0.8848
    -0.7794  -0.7794  -0.7649  -0.7649  -0.5484  -0.5484  -0.4759  -0.4759
    -0.4070  -0.4070  -0.3123  -0.3123  -0.2722  -0.2722  -0.1700  -0.1700
     0.0088   0.0088   0.1466   0.1466   4.9254   4.9255   4.9670   4.9670
     5.3014   5.3014   5.3570   5.3570   5.4148   5.4148   5.5788   5.5788
     6.9035   6.9035   6.9478   6.9478   7.7000   7.7000   7.8307   7.8307
     7.9239   7.9239   8.0317   8.0317   8.1313   8.1313   8.2662   8.2662
     8.3810   8.3810   8.4411   8.4411

     highest occupied, lowest unoccupied level (ev):     0.1598    4.8947

!    total energy              =   -1691.80112126 Ry
     Harris-Foulkes estimate   =   -1691.80112126 Ry
     estimated scf accuracy    <          4.8E-09 Ry

     total all-electron energy =     -6246.716358 Ry

     The total energy is the sum of the following terms:

     one-electron contribution =    -952.65393829 Ry
     hartree contribution      =     606.36526116 Ry
     xc contribution           =    -353.20423333 Ry
     ewald contribution        =    -544.20680079 Ry
     Dispersion Correction     =      -0.46094371 Ry
     one-center paw contrib.   =    -447.64046630 Ry

     convergence has been achieved in  17 iterations

     Forces acting on atoms (cartesian axes, Ry/au):

     atom    1 type  4   force =     0.00400927    0.00479564   -0.00938702
     atom    2 type  4   force =    -0.00401024    0.00479552    0.00938832
     atom    3 type  4   force =    -0.00400927   -0.00479564    0.00938702
     atom    4 type  4   force =     0.00401024   -0.00479552   -0.00938832
     atom    5 type  4   force =     0.00402848   -0.00181035    0.00103559
     atom    6 type  4   force =    -0.00402726   -0.00181022   -0.00103669
     atom    7 type  4   force =    -0.00402848    0.00181035   -0.00103559
     atom    8 type  4   force =     0.00402726    0.00181022    0.00103669
     atom    9 type  4   force =     0.00127031   -0.00372359    0.00057735
     atom   10 type  4   force =    -0.00127038   -0.00372289   -0.00057429
     atom   11 type  4   force =    -0.00127031    0.00372359   -0.00057735
     atom   12 type  4   force =     0.00127038    0.00372289    0.00057429
     atom   13 type  2   force =    -0.00279722    0.00260019   -0.00133379
     atom   14 type  2   force =     0.00279712    0.00260014    0.00133418
     atom   15 type  2   force =     0.00279722   -0.00260019    0.00133379
     atom   16 type  2   force =    -0.00279712   -0.00260014   -0.00133418
     atom   17 type  3   force =    -0.00082027    0.00045428   -0.00029357
     atom   18 type  3   force =     0.00082026    0.00045425    0.00029356
     atom   19 type  3   force =     0.00082027   -0.00045428    0.00029357
     atom   20 type  3   force =    -0.00082026   -0.00045425   -0.00029356
     atom   21 type  3   force =    -0.00029522    0.00107794    0.00004458
     atom   22 type  3   force =     0.00029514    0.00107782   -0.00004465
     atom   23 type  3   force =     0.00029522   -0.00107794   -0.00004458
     atom   24 type  3   force =    -0.00029514   -0.00107782    0.00004465
     atom   25 type  3   force =     0.00260821    0.00046898    0.00007183
     atom   26 type  3   force =    -0.00260811    0.00046897   -0.00007185
     atom   27 type  3   force =    -0.00260821   -0.00046898   -0.00007183
     atom   28 type  3   force =     0.00260811   -0.00046897    0.00007185
     atom   29 type  1   force =     0.01910706    0.00069796   -0.00138084
     atom   30 type  1   force =    -0.01910579    0.00069830    0.00137803
     atom   31 type  1   force =    -0.01910706   -0.00069796    0.00138084
     atom   32 type  1   force =     0.01910579   -0.00069830   -0.00137803
     atom   33 type  3   force =    -0.01111635    0.00461669    0.00087796
     atom   34 type  3   force =     0.01111673    0.00461694   -0.00087796
     atom   35 type  3   force =     0.01111635   -0.00461669   -0.00087796
     atom   36 type  3   force =    -0.01111673   -0.00461694    0.00087796
     atom   37 type  3   force =    -0.00137533    0.00258519    0.00054636
     atom   38 type  3   force =     0.00137533    0.00258473   -0.00054696
     atom   39 type  3   force =     0.00137533   -0.00258519   -0.00054636
     atom   40 type  3   force =    -0.00137533   -0.00258473    0.00054696
     atom   41 type  4   force =    -0.00251737   -0.00329213    0.00177049
     atom   42 type  4   force =     0.00251808   -0.00329168   -0.00177288
     atom   43 type  4   force =     0.00251737    0.00329213   -0.00177049
     atom   44 type  4   force =    -0.00251808    0.00329168    0.00177288
     atom   45 type  3   force =    -0.00098860    0.00087317    0.00001705
     atom   46 type  3   force =     0.00098847    0.00087315   -0.00001706
     atom   47 type  3   force =     0.00098860   -0.00087317   -0.00001705
     atom   48 type  3   force =    -0.00098847   -0.00087315    0.00001706
     atom   49 type  4   force =     0.00234726    0.00145062    0.00275285
     atom   50 type  4   force =    -0.00234720    0.00145092   -0.00275191
     atom   51 type  4   force =    -0.00234726   -0.00145062   -0.00275285
     atom   52 type  4   force =     0.00234720   -0.00145092    0.00275191
     atom   53 type  1   force =    -0.01135603   -0.01537970    0.00550019
     atom   54 type  1   force =     0.01135733   -0.01538007   -0.00550461
     atom   55 type  1   force =     0.01135603    0.01537970   -0.00550019
     atom   56 type  1   force =    -0.01135733    0.01538007    0.00550461
     atom   57 type  1   force =    -0.00024143    0.00585461   -0.00211261
     atom   58 type  1   force =     0.00024440    0.00585482    0.00210381
     atom   59 type  1   force =     0.00024143   -0.00585461    0.00211261
     atom   60 type  1   force =    -0.00024440   -0.00585482   -0.00210381
     atom   61 type  4   force =     0.00326121    0.00037735    0.00058131
     atom   62 type  4   force =    -0.00326093    0.00037749   -0.00058162
     atom   63 type  4   force =    -0.00326121   -0.00037735   -0.00058131
     atom   64 type  4   force =     0.00326093   -0.00037749    0.00058162
     atom   65 type  3   force =     0.00193494   -0.00181611   -0.00089897
     atom   66 type  3   force =    -0.00193496   -0.00181625    0.00089887
     atom   67 type  3   force =    -0.00193494    0.00181611    0.00089897
     atom   68 type  3   force =     0.00193496    0.00181625   -0.00089887
     atom   69 type  1   force =    -0.03794812    0.00158236   -0.00547362
     atom   70 type  1   force =     0.03794608    0.00158202    0.00546973
     atom   71 type  1   force =     0.03794812   -0.00158236    0.00547362
     atom   72 type  1   force =    -0.03794608   -0.00158202   -0.00546973
     atom   73 type  3   force =     0.03333695    0.01443779    0.00443598
     atom   74 type  3   force =    -0.03333697    0.01443770   -0.00443601
     atom   75 type  3   force =    -0.03333695   -0.01443779   -0.00443598
     atom   76 type  3   force =     0.03333697   -0.01443770    0.00443601
     atom   77 type  3   force =     0.00081116    0.00040022    0.00099869
     atom   78 type  3   force =    -0.00081115    0.00040021   -0.00099879
     atom   79 type  3   force =    -0.00081116   -0.00040022   -0.00099869
     atom   80 type  3   force =     0.00081115   -0.00040021    0.00099879
     atom   81 type  1   force =     0.03714446   -0.00146101    0.00492942
     atom   82 type  1   force =    -0.03714483   -0.00146041   -0.00492872
     atom   83 type  1   force =    -0.03714446    0.00146101   -0.00492942
     atom   84 type  1   force =     0.03714483    0.00146041    0.00492872
     atom   85 type  3   force =    -0.00112708   -0.00128079   -0.00056935
     atom   86 type  3   force =     0.00112721   -0.00128062    0.00056933
     atom   87 type  3   force =     0.00112708    0.00128079    0.00056935
     atom   88 type  3   force =    -0.00112721    0.00128062   -0.00056933
     atom   89 type  3   force =    -0.03397820   -0.01450068   -0.00224502
     atom   90 type  3   force =     0.03397862   -0.01450075    0.00224517
     atom   91 type  3   force =     0.03397820    0.01450068    0.00224502
     atom   92 type  3   force =    -0.03397862    0.01450075   -0.00224517
     atom   93 type  1   force =    -0.00612165    0.00774238    0.00636872
     atom   94 type  1   force =     0.00612315    0.00774234   -0.00637017
     atom   95 type  1   force =     0.00612165   -0.00774238   -0.00636872
     atom   96 type  1   force =    -0.00612315   -0.00774234    0.00637017
     atom   97 type  1   force =     0.01768281   -0.00419337   -0.00067600
     atom   98 type  1   force =    -0.01768237   -0.00419351    0.00066953
     atom   99 type  1   force =    -0.01768281    0.00419337    0.00067600
     atom  100 type  1   force =     0.01768237    0.00419351   -0.00066953
     atom  101 type  3   force =    -0.01125006   -0.00196231   -0.00432409
     atom  102 type  3   force =     0.01124999   -0.00196232    0.00432405
     atom  103 type  3   force =     0.01125006    0.00196231    0.00432409
     atom  104 type  3   force =    -0.01124999    0.00196232   -0.00432405
     atom  105 type  3   force =    -0.00217144   -0.00189471   -0.00065575
     atom  106 type  3   force =     0.00217149   -0.00189469    0.00065547
     atom  107 type  3   force =     0.00217144    0.00189471    0.00065575
     atom  108 type  3   force =    -0.00217149    0.00189469   -0.00065547

     Total force =     0.172296     Total SCF correction =     0.000144


     Computing stress (Cartesian axis) and pressure

          total   stress  (Ry/bohr**3)                   (kbar)     P=  -11.15
  -0.00008619   0.00000000  -0.00001298        -12.68      0.00     -1.91
   0.00000000  -0.00008543   0.00000000          0.00    -12.57      0.00
  -0.00001298   0.00000000  -0.00005586         -1.91      0.00     -8.22


     Writing output data file scf.save
 
     init_run     :     39.89s CPU     41.55s WALL (       1 calls)
     electrons    :   1393.63s CPU   1452.96s WALL (       1 calls)
     forces       :     22.25s CPU     22.48s WALL (       1 calls)
     stress       :     86.35s CPU     86.67s WALL (       1 calls)

     Called by init_run:
     wfcinit      :     29.60s CPU     31.08s WALL (       1 calls)
     potinit      :      3.69s CPU      3.76s WALL (       1 calls)

     Called by electrons:
     c_bands      :   1254.29s CPU   1304.03s WALL (      17 calls)
     sum_band     :    123.48s CPU    131.39s WALL (      17 calls)
     v_of_rho     :      2.18s CPU      2.42s WALL (      18 calls)
     newd         :      5.44s CPU      6.77s WALL (      18 calls)
     PAW_pot      :      7.62s CPU      7.63s WALL (      18 calls)
     mix_rho      :      0.48s CPU      0.54s WALL (      17 calls)

     Called by c_bands:
     init_us_2    :      6.27s CPU      6.30s WALL (     222 calls)
     cegterg      :   1230.25s CPU   1279.95s WALL (     102 calls)

     Called by sum_band:
     sum_band:bec :      0.07s CPU      0.07s WALL (     102 calls)
     addusdens    :      5.37s CPU      6.63s WALL (      17 calls)

     Called by *egterg:
     h_psi        :    639.04s CPU    679.23s WALL (     476 calls)
     s_psi        :    153.94s CPU    153.98s WALL (     476 calls)
     g_psi        :      3.18s CPU      3.17s WALL (     368 calls)
     cdiaghg      :     79.50s CPU     79.51s WALL (     470 calls)

     Called by h_psi:
     h_psi:pot    :    634.63s CPU    674.75s WALL (     476 calls)
     h_psi:calbec :    147.91s CPU    148.15s WALL (     476 calls)
     vloc_psi     :    332.41s CPU    372.25s WALL (     476 calls)
     add_vuspsi   :    154.30s CPU    154.35s WALL (     476 calls)

     General routines
     calbec       :    213.35s CPU    213.70s WALL (     608 calls)
     fft          :      1.24s CPU      1.66s WALL (     258 calls)
     fftw         :    355.51s CPU    401.33s WALL (  134856 calls)
 
     Parallel routines
     fft_scatter  :     83.73s CPU    126.11s WALL (  135114 calls)
 
     PWSCF        : 25m51.27s CPU    27m30.88s WALL

 
   This run was terminated on:  12:12:42  12Nov2017            

=------------------------------------------------------------------------------=
   JOB DONE.
=------------------------------------------------------------------------------=
