
     Program PWSCF v.6.1 (svn rev. 13369) starts on 13Nov2017 at 12:24: 5 

     This program is part of the open-source Quantum ESPRESSO suite
     for quantum simulation of materials; please cite
         "P. Giannozzi et al., J. Phys.:Condens. Matter 21 395502 (2009);
          URL http://www.quantum-espresso.org", 
     in publications or presentations arising from this work. More details at
     http://www.quantum-espresso.org/quote

     Parallel version (MPI), running on     8 processors
     R & G space division:  proc/nbgrp/npool/nimage =       8
     Waiting for input...
     Reading input from standard input

     Current dimensions of program PWSCF are:
     Max number of different atomic species (ntypx) = 10
     Max number of k-points (npk) =  40000
     Max angular momentum in pseudopotentials (lmaxx) =  3
               file C.pbe-n-kjpaw_psl.0.1.UPF: wavefunction(s)  2P renormalized
               file N.pbe-n-kjpaw_psl.0.1.UPF: wavefunction(s)  2P renormalized
               file H.pbe-kjpaw_psl.0.1.UPF: wavefunction(s)  1S renormalized
               file O.pbe-n-kjpaw_psl.0.1.UPF: wavefunction(s)  2P renormalized

     -------------------------------------
     Parameters for Dispersion Correction:
     -------------------------------------
       atom      VdW radius       C_6     

        C          2.744         60.710
        N          2.640         42.670
        H          1.892          4.857
        O          2.536         24.284

     Subspace diagonalization in iterative solution of the eigenvalue problem:
     a serial algorithm will be used

 
     Parallelization info
     --------------------
     sticks:   dense  smooth     PW     G-vecs:    dense   smooth      PW
     Min         982     982    259                78270    78270   10637
     Max         983     983    260                78273    78273   10640
     Sum        7861    7861   2075               626167   626167   85103
 


     bravais-lattice index     =            0
     lattice parameter (alat)  =      13.4813  a.u.
     unit-cell volume          =    4634.2769 (a.u.)^3
     number of atoms/cell      =           64
     number of atomic types    =            4
     number of electrons       =       176.00
     number of Kohn-Sham states=          105
     kinetic-energy cutoff     =     100.0000  Ry
     charge density cutoff     =     400.0000  Ry
     convergence threshold     =      1.0E-08
     mixing beta               =       0.5000
     number of iterations used =            8  plain     mixing
     Exchange-correlation      =  SLA  PW   PBX  PBC ( 1  4  3  4 0 0)

     celldm(1)=  13.481306  celldm(2)=   0.000000  celldm(3)=   0.000000
     celldm(4)=   0.000000  celldm(5)=   0.000000  celldm(6)=   0.000000

     crystal axes: (cart. coord. in units of alat)
               a(1) = (   1.000000   0.000000   0.000000 )  
               a(2) = (   0.000000   1.358845   0.000000 )  
               a(3) = (   0.000000   0.000000   1.391926 )  

     reciprocal axes: (cart. coord. in units 2 pi/alat)
               b(1) = (  1.000000  0.000000  0.000000 )  
               b(2) = (  0.000000  0.735919  0.000000 )  
               b(3) = (  0.000000  0.000000  0.718429 )  


     PseudoPot. # 1 for  C read from file:
     /scratch/ahofstet/pseudo/C.pbe-n-kjpaw_psl.0.1.UPF
     MD5 check sum: 430fe95172b1e11ef3f8ed03bac87931
     Pseudo is Projector augmented-wave + core cor, Zval =  4.0
     Generated using "atomic" code by A. Dal Corso  v.5.0.99 svn rev. 10869
     Shape of augmentation charge: BESSEL
     Using radial grid of 1073 points,  4 beta functions with: 
                l(1) =   0
                l(2) =   0
                l(3) =   1
                l(4) =   1
     Q(r) pseudized with 0 coefficients 


     PseudoPot. # 2 for  N read from file:
     /scratch/ahofstet/pseudo/N.pbe-n-kjpaw_psl.0.1.UPF
     MD5 check sum: f73187c8b701007e77325f868c9291d7
     Pseudo is Projector augmented-wave + core cor, Zval =  5.0
     Generated using "atomic" code by A. Dal Corso  v.5.0.99 svn rev. 10869
     Shape of augmentation charge: PSQ
     Using radial grid of 1085 points,  4 beta functions with: 
                l(1) =   0
                l(2) =   0
                l(3) =   1
                l(4) =   1
     Q(r) pseudized with 0 coefficients 


     PseudoPot. # 3 for  H read from file:
     /scratch/ahofstet/pseudo/H.pbe-kjpaw_psl.0.1.UPF
     MD5 check sum: 94e484f906d9e9773b2f6e52662335b2
     Pseudo is Projector augmented-wave, Zval =  1.0
     Generated using "atomic" code by A. Dal Corso  v.5.0.99 svn rev. 10869
     Shape of augmentation charge: PSQ
     Using radial grid of  929 points,  2 beta functions with: 
                l(1) =   0
                l(2) =   0
     Q(r) pseudized with 0 coefficients 


     PseudoPot. # 4 for  O read from file:
     /scratch/ahofstet/pseudo/O.pbe-n-kjpaw_psl.0.1.UPF
     MD5 check sum: 3f94a2996a3169367d6eb21d9b593f20
     Pseudo is Projector augmented-wave + core cor, Zval =  6.0
     Generated using "atomic" code by A. Dal Corso  v.5.0.99 svn rev. 10869
     Shape of augmentation charge: BESSEL
     Using radial grid of 1095 points,  4 beta functions with: 
                l(1) =   0
                l(2) =   0
                l(3) =   1
                l(4) =   1
     Q(r) pseudized with 0 coefficients 


     atomic species   valence    mass     pseudopotential
        C              4.00    12.01070      C( 1.00)
        N              5.00    14.00670      N( 1.00)
        H              1.00     1.00794      H( 1.00)
        O              6.00    15.99940      O( 1.00)

      8 Sym. Ops., with inversion, found ( 6 have fractional translation)



   Cartesian axes

     site n.     atom                  positions (alat units)
         1           O   tau(   1) = (   0.1106216   0.6665989   0.4293241  )
         2           O   tau(   2) = (   0.3893784   0.6922460   1.1252871  )
         3           O   tau(   3) = (   0.8893784   1.3460214   0.2666388  )
         4           O   tau(   4) = (   0.6106216   0.0128236   0.9626018  )
         5           O   tau(   5) = (   0.8893784   0.6922460   0.9626018  )
         6           O   tau(   6) = (   0.6106216   0.6665989   0.2666388  )
         7           O   tau(   7) = (   0.1106216   0.0128236   1.1252871  )
         8           O   tau(   8) = (   0.3893784   1.3460214   0.4293241  )
         9           C   tau(   9) = (   0.1426613   0.7290865   0.2718559  )
        10           C   tau(  10) = (   0.3573387   0.6297585   0.9678189  )
        11           C   tau(  11) = (   0.8573387   0.0496640   0.4241071  )
        12           C   tau(  12) = (   0.6426613   1.3091810   1.1200701  )
        13           C   tau(  13) = (   0.8573387   0.6297585   1.1200701  )
        14           C   tau(  14) = (   0.6426613   0.7290865   0.4241071  )
        15           C   tau(  15) = (   0.1426613   1.3091810   0.9678189  )
        16           C   tau(  16) = (   0.3573387   0.0496640   0.2718559  )
        17           H   tau(  17) = (   0.2246936   0.6452986   0.1682916  )
        18           H   tau(  18) = (   0.2753064   0.7135463   0.8642546  )
        19           H   tau(  19) = (   0.7753064   1.3247211   0.5276714  )
        20           H   tau(  20) = (   0.7246936   0.0341238   1.2236344  )
        21           H   tau(  21) = (   0.7753064   0.7135463   1.2236344  )
        22           H   tau(  22) = (   0.7246936   0.6452986   0.5276714  )
        23           H   tau(  23) = (   0.2246936   0.0341238   0.8642546  )
        24           H   tau(  24) = (   0.2753064   1.3247211   0.1682916  )
        25           C   tau(  25) = (   0.0796953   0.9125403   0.2054722  )
        26           C   tau(  26) = (   0.4203047   0.4463046   0.9014352  )
        27           C   tau(  27) = (   0.9203047   0.2331179   0.4904908  )
        28           C   tau(  28) = (   0.5796953   1.1257271   1.1864538  )
        29           C   tau(  29) = (   0.9203047   0.4463046   1.1864538  )
        30           C   tau(  30) = (   0.5796953   0.9125403   0.4904908  )
        31           C   tau(  31) = (   0.0796953   1.1257271   0.9014352  )
        32           C   tau(  32) = (   0.4203047   0.2331179   0.2054722  )
        33           H   tau(  33) = (  -0.0020044   0.9999277   0.3011107  )
        34           H   tau(  34) = (   0.5020044   0.3589173   0.9970737  )
        35           H   tau(  35) = (   1.0020044   0.3205052   0.3948523  )
        36           H   tau(  36) = (   0.4979956   1.0383397   1.0908153  )
        37           H   tau(  37) = (   1.0020044   0.3589173   1.0908153  )
        38           H   tau(  38) = (   0.4979956   0.9999277   0.3948523  )
        39           H   tau(  39) = (  -0.0020044   1.0383397   0.9970737  )
        40           H   tau(  40) = (   0.5020044   0.3205052   0.3011107  )
        41           C   tau(  41) = (   0.1215966   0.9700581   0.0309738  )
        42           C   tau(  42) = (   0.3784034   0.3887869   0.7269368  )
        43           C   tau(  43) = (   0.8784034   0.2906356   0.6649892  )
        44           C   tau(  44) = (   0.6215966   1.0682094   1.3609522  )
        45           C   tau(  45) = (   0.8784034   0.3887869   1.3609522  )
        46           C   tau(  46) = (   0.6215966   0.9700581   0.6649892  )
        47           C   tau(  47) = (   0.1215966   1.0682094   0.7269368  )
        48           C   tau(  48) = (   0.3784034   0.2906356   0.0309738  )
        49           H   tau(  49) = (   0.0761981   1.1063540   1.3697464  )
        50           H   tau(  50) = (   0.4238019   0.2524910   0.6737834  )
        51           H   tau(  51) = (   0.9238019   0.4269315   0.7181425  )
        52           H   tau(  52) = (   0.5761981   0.9319135   0.0221795  )
        53           H   tau(  53) = (   0.9238019   0.2524910   0.0221795  )
        54           H   tau(  54) = (   0.5761981   1.1063540   0.7181425  )
        55           H   tau(  55) = (   0.0761981   0.9319135   0.6737834  )
        56           H   tau(  56) = (   0.4238019   0.4269315   1.3697464  )
        57           H   tau(  57) = (   0.2036391   0.8811968   1.3286420  )
        58           H   tau(  58) = (   0.2963609   0.4776482   0.6326790  )
        59           H   tau(  59) = (   0.7963609   0.2017743   0.7592469  )
        60           H   tau(  60) = (   0.7036391   1.1570707   0.0632839  )
        61           H   tau(  61) = (   0.7963609   0.4776482   0.0632839  )
        62           H   tau(  62) = (   0.7036391   0.8811968   0.7592469  )
        63           H   tau(  63) = (   0.2036391   1.1570707   0.6326790  )
        64           H   tau(  64) = (   0.2963609   0.2017743   1.3286420  )

     number of k points=     8
                       cart. coord. in units 2pi/alat
        k(    1) = (   0.0000000   0.0000000   0.0000000), wk =   0.1666667
        k(    2) = (   0.0000000   0.0000000  -0.3592145), wk =   0.1666667
        k(    3) = (   0.0000000  -0.3679596   0.0000000), wk =   0.1666667
        k(    4) = (   0.0000000  -0.3679596  -0.3592145), wk =   0.1666667
        k(    5) = (   0.3333333   0.0000000   0.0000000), wk =   0.3333333
        k(    6) = (   0.3333333   0.0000000  -0.3592145), wk =   0.3333333
        k(    7) = (   0.3333333  -0.3679596   0.0000000), wk =   0.3333333
        k(    8) = (   0.3333333  -0.3679596  -0.3592145), wk =   0.3333333

     Dense  grid:   626167 G-vectors     FFT dimensions: (  90, 120, 120)

     Estimated max dynamical RAM per process >     366.15MB

     Estimated total allocated dynamical RAM >    2929.19MB

     Check: negative/imaginary core charge=   -0.000002    0.000000

     Initial potential from superposition of free atoms

     starting charge  175.99868, renormalised to  176.00000
     Starting wfc are  160 randomized atomic wfcs
     Checking if some PAW data can be deallocated... 

     total cpu time spent up to now is       17.3 secs

     per-process dynamical memory:   304.6 Mb

     Self-consistent Calculation

     iteration #  1     ecut=   100.00 Ry     beta=0.50
     Davidson diagonalization with overlap
     ethr =  1.00E-02,  avg # of iterations =  3.0

     total cpu time spent up to now is       59.7 secs

     total energy              =    -812.23460583 Ry
     Harris-Foulkes estimate   =    -815.63370866 Ry
     estimated scf accuracy    <       6.56207738 Ry

     iteration #  2     ecut=   100.00 Ry     beta=0.50
     Davidson diagonalization with overlap
     ethr =  3.73E-03,  avg # of iterations =  2.0

     total cpu time spent up to now is       82.5 secs

     total energy              =    -812.29673701 Ry
     Harris-Foulkes estimate   =    -812.93428226 Ry
     estimated scf accuracy    <       1.18807496 Ry

     iteration #  3     ecut=   100.00 Ry     beta=0.50
     Davidson diagonalization with overlap
     ethr =  6.75E-04,  avg # of iterations =  4.0

     total cpu time spent up to now is      128.6 secs

     total energy              =    -813.15621947 Ry
     Harris-Foulkes estimate   =    -813.68681159 Ry
     estimated scf accuracy    <       1.55490887 Ry

     iteration #  4     ecut=   100.00 Ry     beta=0.50
     Davidson diagonalization with overlap
     ethr =  6.75E-04,  avg # of iterations =  1.0

     total cpu time spent up to now is      150.0 secs

     total energy              =    -812.98411486 Ry
     Harris-Foulkes estimate   =    -813.24743802 Ry
     estimated scf accuracy    <       0.46259108 Ry

     iteration #  5     ecut=   100.00 Ry     beta=0.50
     Davidson diagonalization with overlap
     ethr =  2.63E-04,  avg # of iterations =  4.0

     total cpu time spent up to now is      190.6 secs

     total energy              =    -813.27070128 Ry
     Harris-Foulkes estimate   =    -813.32447040 Ry
     estimated scf accuracy    <       0.22224533 Ry

     iteration #  6     ecut=   100.00 Ry     beta=0.50
     Davidson diagonalization with overlap
     ethr =  1.26E-04,  avg # of iterations =  1.0

     total cpu time spent up to now is      212.1 secs

     total energy              =    -813.22405767 Ry
     Harris-Foulkes estimate   =    -813.27694823 Ry
     estimated scf accuracy    <       0.11097332 Ry

     iteration #  7     ecut=   100.00 Ry     beta=0.50
     Davidson diagonalization with overlap
     ethr =  6.31E-05,  avg # of iterations =  3.0

     total cpu time spent up to now is      244.9 secs

     total energy              =    -813.25566710 Ry
     Harris-Foulkes estimate   =    -813.25628170 Ry
     estimated scf accuracy    <       0.00159647 Ry

     iteration #  8     ecut=   100.00 Ry     beta=0.50
     Davidson diagonalization with overlap
     ethr =  9.07E-07,  avg # of iterations =  6.5

     total cpu time spent up to now is      287.1 secs

     total energy              =    -813.25633151 Ry
     Harris-Foulkes estimate   =    -813.25658582 Ry
     estimated scf accuracy    <       0.00061739 Ry

     iteration #  9     ecut=   100.00 Ry     beta=0.50
     Davidson diagonalization with overlap
     ethr =  3.51E-07,  avg # of iterations =  2.2

     total cpu time spent up to now is      309.9 secs

     total energy              =    -813.25639788 Ry
     Harris-Foulkes estimate   =    -813.25640593 Ry
     estimated scf accuracy    <       0.00001651 Ry

     iteration # 10     ecut=   100.00 Ry     beta=0.50
     Davidson diagonalization with overlap
     ethr =  9.38E-09,  avg # of iterations =  4.1

     total cpu time spent up to now is      358.5 secs

     total energy              =    -813.25648227 Ry
     Harris-Foulkes estimate   =    -813.25652470 Ry
     estimated scf accuracy    <       0.00016901 Ry

     iteration # 11     ecut=   100.00 Ry     beta=0.50
     Davidson diagonalization with overlap
     ethr =  9.38E-09,  avg # of iterations =  3.6

     total cpu time spent up to now is      383.2 secs

     total energy              =    -813.25644497 Ry
     Harris-Foulkes estimate   =    -813.25648579 Ry
     estimated scf accuracy    <       0.00008454 Ry

     iteration # 12     ecut=   100.00 Ry     beta=0.50
     Davidson diagonalization with overlap
     ethr =  9.38E-09,  avg # of iterations =  4.0

     total cpu time spent up to now is      425.2 secs

     total energy              =    -813.25647147 Ry
     Harris-Foulkes estimate   =    -813.25647282 Ry
     estimated scf accuracy    <       0.00000346 Ry

     iteration # 13     ecut=   100.00 Ry     beta=0.50
     Davidson diagonalization with overlap
     ethr =  1.97E-09,  avg # of iterations =  1.0

     total cpu time spent up to now is      446.7 secs

     total energy              =    -813.25647100 Ry
     Harris-Foulkes estimate   =    -813.25647164 Ry
     estimated scf accuracy    <       0.00000091 Ry

     iteration # 14     ecut=   100.00 Ry     beta=0.50
     Davidson diagonalization with overlap
     ethr =  5.18E-10,  avg # of iterations =  4.0

     total cpu time spent up to now is      488.6 secs

     total energy              =    -813.25647165 Ry
     Harris-Foulkes estimate   =    -813.25647238 Ry
     estimated scf accuracy    <       0.00000177 Ry

     iteration # 15     ecut=   100.00 Ry     beta=0.50
     Davidson diagonalization with overlap
     ethr =  5.18E-10,  avg # of iterations =  1.0

     total cpu time spent up to now is      510.1 secs

     total energy              =    -813.25647146 Ry
     Harris-Foulkes estimate   =    -813.25647172 Ry
     estimated scf accuracy    <       0.00000051 Ry

     iteration # 16     ecut=   100.00 Ry     beta=0.50
     Davidson diagonalization with overlap
     ethr =  2.92E-10,  avg # of iterations =  3.0

     total cpu time spent up to now is      546.8 secs

     total energy              =    -813.25647186 Ry
     Harris-Foulkes estimate   =    -813.25647189 Ry
     estimated scf accuracy    <       0.00000020 Ry

     iteration # 17     ecut=   100.00 Ry     beta=0.50
     Davidson diagonalization with overlap
     ethr =  1.14E-10,  avg # of iterations =  1.0

     total cpu time spent up to now is      568.4 secs

     total energy              =    -813.25647181 Ry
     Harris-Foulkes estimate   =    -813.25647186 Ry
     estimated scf accuracy    <       0.00000014 Ry

     iteration # 18     ecut=   100.00 Ry     beta=0.50
     Davidson diagonalization with overlap
     ethr =  7.81E-11,  avg # of iterations =  3.0

     total cpu time spent up to now is      592.5 secs

     total energy              =    -813.25647181 Ry
     Harris-Foulkes estimate   =    -813.25647182 Ry
     estimated scf accuracy    <       0.00000002 Ry

     iteration # 19     ecut=   100.00 Ry     beta=0.50
     Davidson diagonalization with overlap
     ethr =  1.33E-11,  avg # of iterations =  4.0

     total cpu time spent up to now is      632.4 secs

     End of self-consistent calculation

          k = 0.0000 0.0000 0.0000 ( 78243 PWs)   bands (ev):

   -20.9805 -20.9744 -20.9727 -20.9681 -20.9234 -20.9231 -20.9209 -20.9197
   -14.6495 -14.6423 -14.6327 -14.5492 -14.5397 -14.5379 -14.5322 -14.5301
   -10.8323 -10.7086 -10.6979 -10.6662 -10.6586 -10.6214 -10.5969 -10.5915
    -8.8945  -8.8392  -8.7998  -8.7984  -8.7799  -8.7132  -8.6066  -8.5501
    -6.7167  -6.6067  -6.5999  -6.5749  -6.5598  -6.5271  -6.4059  -6.3287
    -6.2446  -6.2094  -6.1860  -6.1656  -6.1455  -6.0936  -6.0735  -6.0618
    -5.4434  -5.2046  -5.1580  -5.0756  -5.0460  -5.0417  -4.9552  -4.8916
    -4.8101  -4.8019  -4.6462  -4.6014  -4.5902  -4.4896  -4.4223  -4.4211
    -4.1239  -4.0592  -4.0544  -4.0355  -3.9603  -3.9122  -3.8937  -3.7908
    -2.3533  -2.2711  -2.2644  -2.2188  -1.9230  -1.8710  -1.8397  -1.7415
    -1.1736  -1.0196  -0.9620  -0.9211  -0.7784  -0.7504  -0.7462  -0.6477
     1.9598   1.9773   2.1997   2.2104   2.2892   2.4371   2.4736   2.5855
     4.8262   4.8581   4.9376   4.9486   5.0115   5.2956   5.4183   5.4824
     5.8595

          k = 0.0000 0.0000-0.3592 ( 78308 PWs)   bands (ev):

   -20.9774 -20.9774 -20.9704 -20.9704 -20.9233 -20.9233 -20.9203 -20.9203
   -14.6411 -14.6411 -14.6049 -14.6049 -14.5311 -14.5311 -14.5302 -14.5302
   -10.7778 -10.7778 -10.6641 -10.6641 -10.6427 -10.6427 -10.6006 -10.6006
    -8.8560  -8.8560  -8.7931  -8.7931  -8.6958  -8.6958  -8.6628  -8.6628
    -6.6733  -6.6733  -6.5589  -6.5589  -6.3670  -6.3670  -6.3561  -6.3561
    -6.3344  -6.3344  -6.2000  -6.2000  -6.1719  -6.1719  -6.1365  -6.1365
    -5.1920  -5.1920  -5.1118  -5.1118  -4.9966  -4.9966  -4.9665  -4.9665
    -4.8219  -4.8219  -4.7551  -4.7551  -4.4863  -4.4863  -4.4430  -4.4430
    -4.0670  -4.0670  -4.0080  -4.0080  -3.9288  -3.9288  -3.8763  -3.8763
    -2.2964  -2.2964  -2.2626  -2.2626  -1.8774  -1.8774  -1.8079  -1.8079
    -1.0960  -1.0960  -0.8635  -0.8635  -0.8300  -0.8300  -0.7011  -0.7011
     1.9695   1.9695   2.2326   2.2326   2.3128   2.3128   2.5333   2.5333
     4.8562   4.8562   4.8854   4.8854   5.1766   5.1766   5.4303   5.4303
     5.8443

          k = 0.0000-0.3680 0.0000 ( 78314 PWs)   bands (ev):

   -20.9766 -20.9766 -20.9712 -20.9712 -20.9222 -20.9222 -20.9214 -20.9214
   -14.6375 -14.6375 -14.6072 -14.6072 -14.5395 -14.5395 -14.5231 -14.5231
   -10.7473 -10.7473 -10.7105 -10.7105 -10.6260 -10.6260 -10.6015 -10.6015
    -8.8762  -8.8762  -8.8003  -8.8003  -8.7404  -8.7404  -8.5847  -8.5847
    -6.6601  -6.6601  -6.5455  -6.5455  -6.4416  -6.4416  -6.4117  -6.4117
    -6.2930  -6.2930  -6.1906  -6.1906  -6.1805  -6.1805  -6.0569  -6.0569
    -5.1485  -5.1485  -5.1321  -5.1321  -5.1134  -5.1134  -4.9431  -4.9431
    -4.7934  -4.7934  -4.6919  -4.6919  -4.5569  -4.5569  -4.4059  -4.4059
    -4.0779  -4.0779  -4.0418  -4.0418  -3.9274  -3.9274  -3.8520  -3.8520
    -2.3293  -2.3293  -2.2360  -2.2360  -1.8446  -1.8446  -1.8338  -1.8338
    -1.0593  -1.0593  -0.8972  -0.8972  -0.8381  -0.8381  -0.6929  -0.6929
     2.0546   2.0546   2.0568   2.0568   2.4278   2.4278   2.5277   2.5277
     4.8789   4.8789   4.9337   4.9337   5.2086   5.2086   5.3450   5.3450
     6.0421

          k = 0.0000-0.3680-0.3592 ( 78340 PWs)   bands (ev):

   -20.9739 -20.9739 -20.9739 -20.9739 -20.9218 -20.9218 -20.9218 -20.9218
   -14.6210 -14.6210 -14.6210 -14.6210 -14.5329 -14.5329 -14.5329 -14.5329
   -10.7163 -10.7163 -10.7163 -10.7163 -10.6265 -10.6265 -10.6265 -10.6265
    -8.8242  -8.8242  -8.8242  -8.8242  -8.6829  -8.6829  -8.6829  -8.6829
    -6.5839  -6.5839  -6.5839  -6.5839  -6.3746  -6.3746  -6.3746  -6.3746
    -6.3100  -6.3100  -6.3100  -6.3100  -6.1342  -6.1342  -6.1342  -6.1342
    -5.1219  -5.1219  -5.1219  -5.1219  -4.9361  -4.9361  -4.9361  -4.9361
    -4.8515  -4.8515  -4.8515  -4.8515  -4.4848  -4.4848  -4.4848  -4.4848
    -3.9995  -3.9995  -3.9995  -3.9995  -3.9327  -3.9327  -3.9327  -3.9327
    -2.2781  -2.2781  -2.2781  -2.2781  -1.8421  -1.8421  -1.8421  -1.8421
    -0.9824  -0.9824  -0.9824  -0.9824  -0.7577  -0.7577  -0.7577  -0.7577
     2.0580   2.0580   2.0580   2.0580   2.4670   2.4670   2.4670   2.4670
     4.8904   4.8904   4.8904   4.8904   5.2728   5.2728   5.2728   5.2728
     5.9940

          k = 0.3333 0.0000 0.0000 ( 78291 PWs)   bands (ev):

   -20.9667 -20.9618 -20.9595 -20.9559 -20.9384 -20.9363 -20.9330 -20.9319
   -14.6288 -14.6168 -14.6083 -14.5824 -14.5654 -14.5582 -14.5313 -14.5236
   -10.8021 -10.7247 -10.6971 -10.6796 -10.6719 -10.6415 -10.5879 -10.5851
    -8.8744  -8.8455  -8.7924  -8.7848  -8.7535  -8.6675  -8.6576  -8.5853
    -6.6816  -6.6410  -6.6080  -6.5904  -6.5626  -6.4777  -6.4236  -6.2733
    -6.2593  -6.2059  -6.1886  -6.1797  -6.1484  -6.1058  -6.0758  -6.0657
    -5.4050  -5.3081  -5.0940  -4.9919  -4.9738  -4.9375  -4.8913  -4.8898
    -4.7707  -4.7555  -4.7255  -4.6781  -4.6212  -4.6061  -4.5696  -4.5293
    -4.0970  -4.0736  -4.0108  -3.9932  -3.9698  -3.9337  -3.8620  -3.8071
    -2.2226  -2.1872  -2.1781  -2.0836  -2.0035  -1.9846  -1.9666  -1.8449
    -1.1030  -0.9770  -0.9530  -0.9128  -0.8226  -0.8126  -0.7172  -0.6680
     1.9770   2.0392   2.0849   2.2749   2.2817   2.3300   2.4123   2.4767
     4.8229   4.8604   4.8743   4.8997   5.1806   5.2022   5.3570   5.4234
     6.0902

          k = 0.3333 0.0000-0.3592 ( 78240 PWs)   bands (ev):

   -20.9641 -20.9641 -20.9579 -20.9579 -20.9371 -20.9371 -20.9327 -20.9327
   -14.6202 -14.6202 -14.5947 -14.5947 -14.5527 -14.5527 -14.5403 -14.5403
   -10.7533 -10.7533 -10.6971 -10.6971 -10.6329 -10.6329 -10.6107 -10.6107
    -8.8206  -8.8206  -8.7758  -8.7758  -8.7147  -8.7147  -8.6852  -8.6852
    -6.6437  -6.6437  -6.5799  -6.5799  -6.4161  -6.4161  -6.3839  -6.3839
    -6.2406  -6.2406  -6.1980  -6.1980  -6.1777  -6.1777  -6.1462  -6.1462
    -5.1586  -5.1586  -5.1131  -5.1131  -4.9630  -4.9630  -4.8937  -4.8937
    -4.8167  -4.8167  -4.7273  -4.7273  -4.6177  -4.6177  -4.5666  -4.5666
    -4.0228  -4.0228  -4.0023  -4.0023  -3.9213  -3.9213  -3.8915  -3.8915
    -2.2019  -2.2019  -2.1444  -2.1444  -1.9782  -1.9782  -1.9060  -1.9060
    -1.0241  -1.0241  -0.8899  -0.8899  -0.8234  -0.8234  -0.7458  -0.7458
     2.0240   2.0240   2.1727   2.1727   2.2999   2.2999   2.4261   2.4261
     4.8079   4.8079   4.8736   4.8736   5.2267   5.2267   5.3944   5.3944
     6.0424

          k = 0.3333-0.3680 0.0000 ( 78228 PWs)   bands (ev):

   -20.9633 -20.9633 -20.9587 -20.9587 -20.9363 -20.9363 -20.9335 -20.9335
   -14.6158 -14.6158 -14.5985 -14.5985 -14.5498 -14.5498 -14.5438 -14.5438
   -10.7342 -10.7342 -10.7127 -10.7127 -10.6311 -10.6311 -10.6157 -10.6157
    -8.8521  -8.8521  -8.8141  -8.8141  -8.7012  -8.7012  -8.6235  -8.6235
    -6.6299  -6.6299  -6.5527  -6.5527  -6.4663  -6.4663  -6.4417  -6.4417
    -6.2273  -6.2273  -6.2119  -6.2119  -6.1591  -6.1591  -6.0813  -6.0813
    -5.1771  -5.1771  -5.1616  -5.1616  -4.9809  -4.9809  -4.8467  -4.8467
    -4.8317  -4.8317  -4.6600  -4.6600  -4.6545  -4.6545  -4.5334  -4.5334
    -4.0537  -4.0537  -4.0302  -4.0302  -3.9154  -3.9154  -3.8755  -3.8755
    -2.2135  -2.2135  -2.1310  -2.1310  -1.9664  -1.9664  -1.9243  -1.9243
    -1.0034  -1.0034  -0.8935  -0.8935  -0.8410  -0.8410  -0.7383  -0.7383
     2.0597   2.0597   2.0631   2.0631   2.3858   2.3858   2.4326   2.4326
     4.8616   4.8616   4.8830   4.8830   5.2773   5.2773   5.3297   5.3297
     6.1766

          k = 0.3333-0.3680-0.3592 ( 78252 PWs)   bands (ev):

   -20.9610 -20.9610 -20.9610 -20.9610 -20.9349 -20.9349 -20.9349 -20.9349
   -14.6030 -14.6030 -14.6030 -14.6030 -14.5512 -14.5512 -14.5512 -14.5512
   -10.7047 -10.7047 -10.7047 -10.7047 -10.6423 -10.6423 -10.6423 -10.6423
    -8.7901  -8.7901  -8.7901  -8.7901  -8.7118  -8.7118  -8.7118  -8.7118
    -6.5484  -6.5484  -6.5484  -6.5484  -6.4425  -6.4425  -6.4425  -6.4425
    -6.2766  -6.2766  -6.2766  -6.2766  -6.1276  -6.1276  -6.1276  -6.1276
    -5.0994  -5.0994  -5.0994  -5.0994  -4.9602  -4.9602  -4.9602  -4.9602
    -4.7694  -4.7694  -4.7694  -4.7694  -4.5901  -4.5901  -4.5901  -4.5901
    -3.9846  -3.9846  -3.9846  -3.9846  -3.9429  -3.9429  -3.9429  -3.9429
    -2.1705  -2.1705  -2.1705  -2.1705  -1.9443  -1.9443  -1.9443  -1.9443
    -0.9251  -0.9251  -0.9251  -0.9251  -0.8123  -0.8123  -0.8123  -0.8123
     2.0807   2.0807   2.0807   2.0807   2.3820   2.3820   2.3820   2.3820
     4.8519   4.8519   4.8519   4.8519   5.3104   5.3104   5.3104   5.3104
     6.1718

     highest occupied, lowest unoccupied level (ev):    -0.6477    1.9598

!    total energy              =    -813.25647183 Ry
     Harris-Foulkes estimate   =    -813.25647183 Ry
     estimated scf accuracy    <          1.4E-09 Ry

     total all-electron energy =     -3070.369907 Ry

     The total energy is the sum of the following terms:

     one-electron contribution =    -393.78833517 Ry
     hartree contribution      =     256.03336919 Ry
     xc contribution           =    -179.95165210 Ry
     ewald contribution        =    -259.40947029 Ry
     Dispersion Correction     =      -0.22582644 Ry
     one-center paw contrib.   =    -235.91455702 Ry

     convergence has been achieved in  19 iterations

     Forces acting on atoms (cartesian axes, Ry/au):

     atom    1 type  4   force =    -0.00060919    0.00041265    0.00003331
     atom    2 type  4   force =     0.00060919   -0.00041265    0.00003331
     atom    3 type  4   force =     0.00060919    0.00041265   -0.00003331
     atom    4 type  4   force =    -0.00060919   -0.00041265   -0.00003331
     atom    5 type  4   force =     0.00060919   -0.00041265   -0.00003331
     atom    6 type  4   force =    -0.00060919    0.00041265   -0.00003331
     atom    7 type  4   force =    -0.00060919   -0.00041265    0.00003331
     atom    8 type  4   force =     0.00060919    0.00041265    0.00003331
     atom    9 type  1   force =     0.00036368    0.00023919   -0.00066663
     atom   10 type  1   force =    -0.00036368   -0.00023919   -0.00066663
     atom   11 type  1   force =    -0.00036368    0.00023919    0.00066663
     atom   12 type  1   force =     0.00036368   -0.00023919    0.00066663
     atom   13 type  1   force =    -0.00036368   -0.00023919    0.00066663
     atom   14 type  1   force =     0.00036368    0.00023919    0.00066663
     atom   15 type  1   force =     0.00036368   -0.00023919   -0.00066663
     atom   16 type  1   force =    -0.00036368    0.00023919   -0.00066663
     atom   17 type  3   force =    -0.00005365    0.00076743    0.00024062
     atom   18 type  3   force =     0.00005365   -0.00076743    0.00024062
     atom   19 type  3   force =     0.00005365    0.00076743   -0.00024062
     atom   20 type  3   force =    -0.00005365   -0.00076743   -0.00024062
     atom   21 type  3   force =     0.00005365   -0.00076743   -0.00024062
     atom   22 type  3   force =    -0.00005365    0.00076743   -0.00024062
     atom   23 type  3   force =    -0.00005365   -0.00076743    0.00024062
     atom   24 type  3   force =     0.00005365    0.00076743    0.00024062
     atom   25 type  1   force =    -0.00048264    0.00052478   -0.00046712
     atom   26 type  1   force =     0.00048264   -0.00052478   -0.00046712
     atom   27 type  1   force =     0.00048264    0.00052478    0.00046712
     atom   28 type  1   force =    -0.00048264   -0.00052478    0.00046712
     atom   29 type  1   force =     0.00048264   -0.00052478    0.00046712
     atom   30 type  1   force =    -0.00048264    0.00052478    0.00046712
     atom   31 type  1   force =    -0.00048264   -0.00052478   -0.00046712
     atom   32 type  1   force =     0.00048264    0.00052478   -0.00046712
     atom   33 type  3   force =     0.00009214    0.00002070    0.00007255
     atom   34 type  3   force =    -0.00009214   -0.00002070    0.00007255
     atom   35 type  3   force =    -0.00009214    0.00002070   -0.00007255
     atom   36 type  3   force =     0.00009214   -0.00002070   -0.00007255
     atom   37 type  3   force =    -0.00009214   -0.00002070   -0.00007255
     atom   38 type  3   force =     0.00009214    0.00002070   -0.00007255
     atom   39 type  3   force =     0.00009214   -0.00002070    0.00007255
     atom   40 type  3   force =    -0.00009214    0.00002070    0.00007255
     atom   41 type  1   force =    -0.00051103    0.00099416    0.00039032
     atom   42 type  1   force =     0.00051103   -0.00099416    0.00039032
     atom   43 type  1   force =     0.00051103    0.00099416   -0.00039032
     atom   44 type  1   force =    -0.00051103   -0.00099416   -0.00039032
     atom   45 type  1   force =     0.00051103   -0.00099416   -0.00039032
     atom   46 type  1   force =    -0.00051103    0.00099416   -0.00039032
     atom   47 type  1   force =    -0.00051103   -0.00099416    0.00039032
     atom   48 type  1   force =     0.00051103    0.00099416    0.00039032
     atom   49 type  3   force =     0.00043472   -0.00053283    0.00018545
     atom   50 type  3   force =    -0.00043472    0.00053283    0.00018545
     atom   51 type  3   force =    -0.00043472   -0.00053283   -0.00018545
     atom   52 type  3   force =     0.00043472    0.00053283   -0.00018545
     atom   53 type  3   force =    -0.00043472    0.00053283   -0.00018545
     atom   54 type  3   force =     0.00043472   -0.00053283   -0.00018545
     atom   55 type  3   force =     0.00043472    0.00053283    0.00018545
     atom   56 type  3   force =    -0.00043472   -0.00053283    0.00018545
     atom   57 type  3   force =     0.00067175   -0.00070670   -0.00064611
     atom   58 type  3   force =    -0.00067175    0.00070670   -0.00064611
     atom   59 type  3   force =    -0.00067175   -0.00070670    0.00064611
     atom   60 type  3   force =     0.00067175    0.00070670    0.00064611
     atom   61 type  3   force =    -0.00067175    0.00070670    0.00064611
     atom   62 type  3   force =     0.00067175   -0.00070670    0.00064611
     atom   63 type  3   force =     0.00067175    0.00070670   -0.00064611
     atom   64 type  3   force =    -0.00067175   -0.00070670   -0.00064611

     Total force =     0.006838     Total SCF correction =     0.000081


     Computing stress (Cartesian axis) and pressure

          total   stress  (Ry/bohr**3)                   (kbar)     P=   -6.66
  -0.00004047   0.00000000   0.00000000         -5.95      0.00      0.00
   0.00000000  -0.00005232   0.00000000          0.00     -7.70      0.00
   0.00000000   0.00000000  -0.00004303          0.00      0.00     -6.33


     Writing output data file scf.save
 
     init_run     :     16.16s CPU     16.68s WALL (       1 calls)
     electrons    :    594.07s CPU    615.28s WALL (       1 calls)
     forces       :      7.77s CPU      7.88s WALL (       1 calls)
     stress       :     25.48s CPU     25.67s WALL (       1 calls)

     Called by init_run:
     wfcinit      :     12.20s CPU     12.58s WALL (       1 calls)
     potinit      :      1.42s CPU      1.46s WALL (       1 calls)

     Called by electrons:
     c_bands      :    526.01s CPU    543.60s WALL (      19 calls)
     sum_band     :     58.44s CPU     61.06s WALL (      19 calls)
     v_of_rho     :      1.56s CPU      1.75s WALL (      20 calls)
     newd         :      2.76s CPU      3.51s WALL (      20 calls)
     PAW_pot      :      4.85s CPU      4.86s WALL (      20 calls)
     mix_rho      :      0.37s CPU      0.40s WALL (      19 calls)

     Called by c_bands:
     init_us_2    :      4.39s CPU      4.41s WALL (     328 calls)
     cegterg      :    510.86s CPU    528.42s WALL (     152 calls)

     Called by sum_band:
     sum_band:bec :      0.04s CPU      0.04s WALL (     152 calls)
     addusdens    :      2.91s CPU      3.63s WALL (      19 calls)

     Called by *egterg:
     h_psi        :    307.67s CPU    319.31s WALL (     604 calls)
     s_psi        :     54.46s CPU     54.48s WALL (     604 calls)
     g_psi        :      1.96s CPU      1.96s WALL (     444 calls)
     cdiaghg      :     17.70s CPU     17.71s WALL (     596 calls)

     Called by h_psi:
     h_psi:pot    :    305.48s CPU    317.08s WALL (     604 calls)
     h_psi:calbec :     54.04s CPU     54.16s WALL (     604 calls)
     vloc_psi     :    197.07s CPU    208.54s WALL (     604 calls)
     add_vuspsi   :     54.36s CPU     54.37s WALL (     604 calls)

     General routines
     calbec       :     76.76s CPU     76.92s WALL (     796 calls)
     fft          :      0.89s CPU      1.22s WALL (     284 calls)
     fftw         :    210.80s CPU    223.24s WALL (  111752 calls)
 
     Parallel routines
     fft_scatter  :     52.86s CPU     61.16s WALL (  112036 calls)
 
     PWSCF        : 10m48.56s CPU    11m43.00s WALL

 
   This run was terminated on:  12:35:48  13Nov2017            

=------------------------------------------------------------------------------=
   JOB DONE.
=------------------------------------------------------------------------------=
