
     Program PWSCF v.6.1 (svn rev. 13369) starts on  4Nov2017 at  9:30:53 

     This program is part of the open-source Quantum ESPRESSO suite
     for quantum simulation of materials; please cite
         "P. Giannozzi et al., J. Phys.:Condens. Matter 21 395502 (2009);
          URL http://www.quantum-espresso.org", 
     in publications or presentations arising from this work. More details at
     http://www.quantum-espresso.org/quote

     Parallel version (MPI), running on     8 processors
     R & G space division:  proc/nbgrp/npool/nimage =       8
     Waiting for input...
     Reading input from standard input

     Current dimensions of program PWSCF are:
     Max number of different atomic species (ntypx) = 10
     Max number of k-points (npk) =  40000
     Max angular momentum in pseudopotentials (lmaxx) =  3
               file C.pbe-n-kjpaw_psl.0.1.UPF: wavefunction(s)  2P renormalized
               file N.pbe-n-kjpaw_psl.0.1.UPF: wavefunction(s)  2P renormalized
               file H.pbe-kjpaw_psl.0.1.UPF: wavefunction(s)  1S renormalized
               file O.pbe-n-kjpaw_psl.0.1.UPF: wavefunction(s)  2P renormalized

     -------------------------------------
     Parameters for Dispersion Correction:
     -------------------------------------
       atom      VdW radius       C_6     

        C          2.744         60.710
        N          2.640         42.670
        H          1.892          4.857
        O          2.536         24.284

     Subspace diagonalization in iterative solution of the eigenvalue problem:
     a serial algorithm will be used

 
     Parallelization info
     --------------------
     sticks:   dense  smooth     PW     G-vecs:    dense   smooth      PW
     Min        1319    1319    348               144808   144808   19728
     Max        1320    1320    349               144811   144811   19730
     Sum       10553   10553   2787              1158479  1158479  157829
 


     bravais-lattice index     =            0
     lattice parameter (alat)  =      15.8397  a.u.
     unit-cell volume          =    8574.9055 (a.u.)^3
     number of atoms/cell      =          132
     number of atomic types    =            4
     number of electrons       =       400.00
     number of Kohn-Sham states=          240
     kinetic-energy cutoff     =     100.0000  Ry
     charge density cutoff     =     400.0000  Ry
     convergence threshold     =      1.0E-08
     mixing beta               =       0.5000
     number of iterations used =            8  plain     mixing
     Exchange-correlation      =  SLA  PW   PBX  PBC ( 1  4  3  4 0 0)

     celldm(1)=  15.839684  celldm(2)=   0.000000  celldm(3)=   0.000000
     celldm(4)=   0.000000  celldm(5)=   0.000000  celldm(6)=   0.000000

     crystal axes: (cart. coord. in units of alat)
               a(1) = (   1.000000   0.000000   0.000000 )  
               a(2) = (   0.000000   1.319613   0.000000 )  
               a(3) = (  -0.283606   0.000000   1.635095 )  

     reciprocal axes: (cart. coord. in units 2 pi/alat)
               b(1) = (  1.000000  0.000000  0.173449 )  
               b(2) = (  0.000000  0.757798  0.000000 )  
               b(3) = (  0.000000  0.000000  0.611585 )  


     PseudoPot. # 1 for  C read from file:
     /scratch/ahofstet/pseudo/C.pbe-n-kjpaw_psl.0.1.UPF
     MD5 check sum: 430fe95172b1e11ef3f8ed03bac87931
     Pseudo is Projector augmented-wave + core cor, Zval =  4.0
     Generated using "atomic" code by A. Dal Corso  v.5.0.99 svn rev. 10869
     Shape of augmentation charge: BESSEL
     Using radial grid of 1073 points,  4 beta functions with: 
                l(1) =   0
                l(2) =   0
                l(3) =   1
                l(4) =   1
     Q(r) pseudized with 0 coefficients 


     PseudoPot. # 2 for  N read from file:
     /scratch/ahofstet/pseudo/N.pbe-n-kjpaw_psl.0.1.UPF
     MD5 check sum: f73187c8b701007e77325f868c9291d7
     Pseudo is Projector augmented-wave + core cor, Zval =  5.0
     Generated using "atomic" code by A. Dal Corso  v.5.0.99 svn rev. 10869
     Shape of augmentation charge: PSQ
     Using radial grid of 1085 points,  4 beta functions with: 
                l(1) =   0
                l(2) =   0
                l(3) =   1
                l(4) =   1
     Q(r) pseudized with 0 coefficients 


     PseudoPot. # 3 for  H read from file:
     /scratch/ahofstet/pseudo/H.pbe-kjpaw_psl.0.1.UPF
     MD5 check sum: 94e484f906d9e9773b2f6e52662335b2
     Pseudo is Projector augmented-wave, Zval =  1.0
     Generated using "atomic" code by A. Dal Corso  v.5.0.99 svn rev. 10869
     Shape of augmentation charge: PSQ
     Using radial grid of  929 points,  2 beta functions with: 
                l(1) =   0
                l(2) =   0
     Q(r) pseudized with 0 coefficients 


     PseudoPot. # 4 for  O read from file:
     /scratch/ahofstet/pseudo/O.pbe-n-kjpaw_psl.0.1.UPF
     MD5 check sum: 3f94a2996a3169367d6eb21d9b593f20
     Pseudo is Projector augmented-wave + core cor, Zval =  6.0
     Generated using "atomic" code by A. Dal Corso  v.5.0.99 svn rev. 10869
     Shape of augmentation charge: BESSEL
     Using radial grid of 1095 points,  4 beta functions with: 
                l(1) =   0
                l(2) =   0
                l(3) =   1
                l(4) =   1
     Q(r) pseudized with 0 coefficients 


     atomic species   valence    mass     pseudopotential
        C              4.00    12.01070      C( 1.00)
        N              5.00    14.00670      N( 1.00)
        H              1.00     1.00794      H( 1.00)
        O              6.00    15.99940      O( 1.00)

      2 Sym. Ops., with inversion, found



   Cartesian axes

     site n.     atom                  positions (alat units)
         1           O   tau(   1) = (  -0.0887967   0.0631106   0.6588332  )
         2           O   tau(   2) = (   0.4469247   0.7228682   0.1586970  )
         3           O   tau(   3) = (   0.8051910   1.2565029   0.9762620  )
         4           O   tau(   4) = (   0.2694696   0.5967452   1.4763982  )
         5           O   tau(   5) = (   0.7300006   0.1424889   0.0422733  )
         6           O   tau(   6) = (   0.6281766   0.8023864   0.7751678  )
         7           O   tau(   7) = (  -0.0136063   1.1771246   1.5928218  )
         8           O   tau(   8) = (   0.0882177   0.5172270   0.8599273  )
         9           O   tau(   9) = (   0.0277518   1.2213052   0.1758995  )
        10           O   tau(  10) = (   0.3304335   0.5615298   0.6416983  )
        11           O   tau(  11) = (   0.6886425   0.0983083   1.4591956  )
        12           O   tau(  12) = (   0.3859608   0.7580836   0.9933969  )
        13           O   tau(  13) = (   0.8366426   1.1383114   0.5009679  )
        14           O   tau(  14) = (   0.5215217   0.4784595   0.3165859  )
        15           O   tau(  15) = (  -0.1202483   0.1813020   1.1341273  )
        16           O   tau(  16) = (   0.1948726   0.8411540   1.3185093  )
        17           N   tau(  17) = (   0.8806788   1.1857934   0.1748082  )
        18           N   tau(  18) = (   0.4774992   0.5260085   0.6427637  )
        19           N   tau(  19) = (  -0.1642845   0.1338200   1.4602870  )
        20           N   tau(  20) = (   0.2388951   0.7936050   0.9923315  )
        21           C   tau(  21) = (   0.7706598   1.2902715   0.2704657  )
        22           C   tau(  22) = (   0.5875080   0.6304727   0.5470576  )
        23           C   tau(  23) = (  -0.0542655   0.0293420   1.3646295  )
        24           C   tau(  24) = (   0.1288864   0.6891408   1.0880375  )
        25           N   tau(  25) = (   0.8680966   0.0897336   0.5042357  )
        26           N   tau(  26) = (   0.4900514   0.7494936   0.3132872  )
        27           N   tau(  27) = (  -0.1517023   1.2298798   1.1308594  )
        28           N   tau(  28) = (   0.2263429   0.5701199   1.3218079  )
        29           N   tau(  29) = (   0.8322800   1.2753330   0.4387398  )
        30           N   tau(  30) = (   0.5258818   0.6154888   0.3787870  )
        31           N   tau(  31) = (  -0.1158857   0.0442805   1.1963553  )
        32           N   tau(  32) = (   0.1905126   0.7041247   1.2563081  )
        33           O   tau(  33) = (   0.9211648   0.9939366   0.0067650  )
        34           O   tau(  34) = (   0.4370524   0.3341934   0.8108588  )
        35           O   tau(  35) = (  -0.2047705   0.3256768   1.6283302  )
        36           O   tau(  36) = (   0.2793419   0.9854201   0.8242363  )
        37           C   tau(  37) = (  -0.0504398   0.2149051   0.7332260  )
        38           C   tau(  38) = (   0.4085825   0.8746705   0.0843098  )
        39           C   tau(  39) = (   0.7668341   1.1047084   0.9018692  )
        40           C   tau(  40) = (   0.3078118   0.4449429   1.5507854  )
        41           N   tau(  41) = (   0.8115090   1.0740446   0.0964865  )
        42           N   tau(  42) = (   0.5466862   0.4142880   0.7210917  )
        43           N   tau(  43) = (  -0.0951147   0.2455689   1.5386087  )
        44           N   tau(  44) = (   0.1697081   0.9053255   0.9140035  )
        45           C   tau(  45) = (   0.7833264   0.1418691   0.2021717  )
        46           C   tau(  46) = (   0.5748149   0.8017031   0.6153039  )
        47           C   tau(  47) = (  -0.0669321   1.1777444   1.4329234  )
        48           C   tau(  48) = (   0.1415794   0.5179104   1.0197912  )
        49           O   tau(  49) = (   0.5132533   0.0104552   0.3764159  )
        50           O   tau(  50) = (   0.8449543   0.6702928   0.4412008  )
        51           O   tau(  51) = (   0.2031410   1.3091582   1.2586793  )
        52           O   tau(  52) = (  -0.1285600   0.6493207   1.1938944  )
        53           C   tau(  53) = (   0.5975643   1.2298183   0.2701452  )
        54           C   tau(  54) = (   0.7606025   0.5700256   0.5474241  )
        55           C   tau(  55) = (   0.1188300   0.0897952   1.3649499  )
        56           C   tau(  56) = (  -0.0442082   0.7495879   1.0876710  )
        57           C   tau(  57) = (   0.5578203   0.8603658   1.5651367  )
        58           C   tau(  58) = (   0.5168153   0.2006594   0.8876298  )
        59           C   tau(  59) = (   0.1585740   0.4592477   0.0699584  )
        60           C   tau(  60) = (   0.1995791   1.1189541   0.7474653  )
        61           C   tau(  61) = (   0.3493622   0.0317175   0.3316617  )
        62           C   tau(  62) = (   0.0088245   0.6915463   0.4860433  )
        63           C   tau(  63) = (   0.3670322   1.2878960   1.3034334  )
        64           C   tau(  64) = (   0.7075698   0.6280671   1.1490519  )
        65           C   tau(  65) = (   0.2778169   0.1583544   0.4385470  )
        66           C   tau(  66) = (   0.0804215   0.8182211   0.3792407  )
        67           C   tau(  67) = (   0.4385774   1.1612591   1.1965481  )
        68           C   tau(  68) = (   0.6359728   0.5013924   1.2558545  )
        69           H   tau(  69) = (   0.7055533   0.2183098   0.2746991  )
        70           H   tau(  70) = (   0.6526025   0.8781326   0.5427364  )
        71           H   tau(  71) = (   0.0108410   1.1013037   1.3603961  )
        72           H   tau(  72) = (   0.0637918   0.4414808   1.0923588  )
        73           H   tau(  73) = (   0.9076313   0.1820551   0.2124386  )
        74           H   tau(  74) = (   0.4505264   0.8418821   0.6050139  )
        75           H   tau(  75) = (  -0.1912369   1.1375584   1.4226566  )
        76           H   tau(  76) = (   0.2658679   0.4777314   1.0300812  )
        77           H   tau(  77) = (  -0.0342616   0.1865574   0.8596191  )
        78           H   tau(  78) = (   0.1087687   0.8463293   1.5930162  )
        79           H   tau(  79) = (   0.7506559   1.1330561   0.7754761  )
        80           H   tau(  80) = (   0.6076257   0.4732841   0.0420789  )
        81           H   tau(  81) = (   0.2848237   1.2367884   0.3423468  )
        82           H   tau(  82) = (   0.0733699   0.5770110   0.4753416  )
        83           H   tau(  83) = (   0.4315706   0.0828251   1.2927484  )
        84           H   tau(  84) = (   0.6430244   0.7426025   1.1597535  )
        85           H   tau(  85) = (   0.5937487   1.1041032   0.3085203  )
        86           H   tau(  86) = (   0.7644318   0.4443168   0.5090361  )
        87           H   tau(  87) = (   0.1226456   0.2155102   1.3265749  )
        88           H   tau(  88) = (  -0.0480374   0.8752967   1.1260591  )
        89           H   tau(  89) = (   0.0588097   0.2642924   0.6809409  )
        90           H   tau(  90) = (   0.2993563   0.9240846   0.1366201  )
        91           H   tau(  91) = (   0.6575846   1.0553211   0.9541542  )
        92           H   tau(  92) = (   0.4170380   0.3955288   1.4984750  )
        93           H   tau(  93) = (   0.8042175   0.7732404   0.0205597  )
        94           H   tau(  94) = (   0.5540331   0.1135093   0.7971375  )
        95           H   tau(  95) = (  -0.0878231   0.5463731   1.6145354  )
        96           H   tau(  96) = (   0.1623612   1.2061042   0.8379577  )
        97           H   tau(  97) = (   0.5520008   1.2396016   0.1472564  )
        98           H   tau(  98) = (   0.8061203   0.5797981   0.6703314  )
        99           H   tau(  99) = (   0.1643935   0.0800119   1.4878387  )
       100           H   tau( 100) = (  -0.0897260   0.7398154   0.9647638  )
       101           H   tau( 101) = (   0.3435294   0.0680022   0.2051093  )
       102           H   tau( 102) = (   0.0145919   0.7277821   0.6126110  )
       103           H   tau( 103) = (   0.3728649   1.2516113   1.4299858  )
       104           H   tau( 104) = (   0.7018024   0.5918313   1.0224842  )
       105           H   tau( 105) = (   0.4540908   0.9006246   1.4959968  )
       106           H   tau( 106) = (   0.6205461   0.2409594   0.9567465  )
       107           H   tau( 107) = (   0.2623035   0.4189889   0.1390984  )
       108           H   tau( 108) = (   0.0958482   1.0786540   0.6783486  )
       109           H   tau( 109) = (   0.6484121   0.8088385   1.4861452  )
       110           H   tau( 110) = (   0.4262365   0.1491475   0.9666399  )
       111           H   tau( 111) = (   0.0679822   0.5107750   0.1489499  )
       112           H   tau( 112) = (   0.2901578   1.1704660   0.6684552  )
       113           H   tau( 113) = (   0.3407753   0.2723956   0.4237432  )
       114           H   tau( 114) = (   0.0174448   0.9322548   0.3940271  )
       115           H   tau( 115) = (   0.3756191   1.0472178   1.2113520  )
       116           H   tau( 116) = (   0.6989495   0.3873587   1.2410680  )
       117           H   tau( 117) = (   0.8497283   0.2982512   0.7192258  )
       118           H   tau( 118) = (   0.5084354   0.9579957   0.0982887  )
       119           H   tau( 119) = (  -0.1333340   1.0213622   0.9158693  )
       120           H   tau( 120) = (   0.2079589   0.3616178   1.5368064  )
       121           H   tau( 121) = (   0.5406058   0.1360635   1.6069882  )
       122           H   tau( 122) = (   0.5339355   0.7959383   0.8455867  )
       123           H   tau( 123) = (   0.1757885   1.1835500   0.0281069  )
       124           H   tau( 124) = (   0.1824589   0.5236752   0.7895085  )
       125           H   tau( 125) = (   0.1514350   0.1744385   0.4077927  )
       126           H   tau( 126) = (   0.2067853   0.8343000   0.4100691  )
       127           H   tau( 127) = (   0.5649594   1.1451750   1.2273024  )
       128           H   tau( 128) = (   0.5096091   0.4853135   1.2250260  )
       129           H   tau( 129) = (   0.2850943   0.1232501   0.5647560  )
       130           H   tau( 130) = (   0.0732226   0.7831455   0.2530184  )
       131           H   tau( 131) = (   0.4313000   1.1963634   1.0703392  )
       132           H   tau( 132) = (   0.6431717   0.5364679   1.3820768  )

     number of k points=     8
                       cart. coord. in units 2pi/alat
        k(    1) = (   0.0000000   0.0000000   0.0000000), wk =   0.2500000
        k(    2) = (   0.0000000   0.0000000  -0.3057926), wk =   0.2500000
        k(    3) = (   0.0000000  -0.3788988   0.0000000), wk =   0.2500000
        k(    4) = (   0.0000000  -0.3788988  -0.3057926), wk =   0.2500000
        k(    5) = (  -0.5000000   0.0000000  -0.0867245), wk =   0.2500000
        k(    6) = (  -0.5000000   0.0000000  -0.3925171), wk =   0.2500000
        k(    7) = (  -0.5000000  -0.3788988  -0.0867245), wk =   0.2500000
        k(    8) = (  -0.5000000  -0.3788988  -0.3925171), wk =   0.2500000

     Dense  grid:  1158479 G-vectors     FFT dimensions: ( 108, 135, 180)

     Estimated max dynamical RAM per process >    1430.67MB

     Estimated total allocated dynamical RAM >   11445.36MB

     Check: negative/imaginary core charge=   -0.000002    0.000000

     Initial potential from superposition of free atoms

     starting charge  399.99807, renormalised to  400.00000
     Starting wfc are  336 randomized atomic wfcs
     Checking if some PAW data can be deallocated... 

     total cpu time spent up to now is       81.5 secs

     per-process dynamical memory:   950.1 Mb

     Self-consistent Calculation

     iteration #  1     ecut=   100.00 Ry     beta=0.50
     Davidson diagonalization with overlap
     ethr =  1.00E-02,  avg # of iterations =  5.0

     total cpu time spent up to now is      322.0 secs

     total energy              =   -2039.46728639 Ry
     Harris-Foulkes estimate   =   -2045.44440648 Ry
     estimated scf accuracy    <      11.67337419 Ry

     iteration #  2     ecut=   100.00 Ry     beta=0.50
     Davidson diagonalization with overlap
     ethr =  2.92E-03,  avg # of iterations =  4.2

     total cpu time spent up to now is      464.8 secs

     total energy              =   -2040.46765306 Ry
     Harris-Foulkes estimate   =   -2041.70808439 Ry
     estimated scf accuracy    <       2.53110029 Ry

     iteration #  3     ecut=   100.00 Ry     beta=0.50
     Davidson diagonalization with overlap
     ethr =  6.33E-04,  avg # of iterations =  6.5

     total cpu time spent up to now is      693.8 secs

     total energy              =   -2041.28148641 Ry
     Harris-Foulkes estimate   =   -2042.00383648 Ry
     estimated scf accuracy    <       1.97858373 Ry

     iteration #  4     ecut=   100.00 Ry     beta=0.50
     Davidson diagonalization with overlap
     ethr =  4.95E-04,  avg # of iterations =  2.0

     total cpu time spent up to now is      817.8 secs

     total energy              =   -2041.45836903 Ry
     Harris-Foulkes estimate   =   -2041.58580681 Ry
     estimated scf accuracy    <       0.31311848 Ry

     iteration #  5     ecut=   100.00 Ry     beta=0.50
     Davidson diagonalization with overlap
     ethr =  7.83E-05,  avg # of iterations =  4.6

     total cpu time spent up to now is     1008.7 secs

     total energy              =   -2041.55097020 Ry
     Harris-Foulkes estimate   =   -2041.58031503 Ry
     estimated scf accuracy    <       0.09255289 Ry

     iteration #  6     ecut=   100.00 Ry     beta=0.50
     Davidson diagonalization with overlap
     ethr =  2.31E-05,  avg # of iterations =  8.0

     total cpu time spent up to now is     1156.1 secs

     total energy              =   -2041.55986077 Ry
     Harris-Foulkes estimate   =   -2041.56649809 Ry
     estimated scf accuracy    <       0.01715799 Ry

     iteration #  7     ecut=   100.00 Ry     beta=0.50
     Davidson diagonalization with overlap
     ethr =  4.29E-06,  avg # of iterations =  8.0

     total cpu time spent up to now is     1348.9 secs

     total energy              =   -2041.56226042 Ry
     Harris-Foulkes estimate   =   -2041.56363749 Ry
     estimated scf accuracy    <       0.00286372 Ry

     iteration #  8     ecut=   100.00 Ry     beta=0.50
     Davidson diagonalization with overlap
     ethr =  7.16E-07,  avg # of iterations =  4.1

     total cpu time spent up to now is     1512.2 secs

     total energy              =   -2041.56314813 Ry
     Harris-Foulkes estimate   =   -2041.56319327 Ry
     estimated scf accuracy    <       0.00023870 Ry

     iteration #  9     ecut=   100.00 Ry     beta=0.50
     Davidson diagonalization with overlap
     ethr =  5.97E-08,  avg # of iterations =  4.1

     total cpu time spent up to now is     1683.9 secs

     total energy              =   -2041.56320302 Ry
     Harris-Foulkes estimate   =   -2041.56324273 Ry
     estimated scf accuracy    <       0.00010294 Ry

     iteration # 10     ecut=   100.00 Ry     beta=0.50
     Davidson diagonalization with overlap
     ethr =  2.57E-08,  avg # of iterations =  3.0

     total cpu time spent up to now is     1820.2 secs

     total energy              =   -2041.56321449 Ry
     Harris-Foulkes estimate   =   -2041.56322761 Ry
     estimated scf accuracy    <       0.00003606 Ry

     iteration # 11     ecut=   100.00 Ry     beta=0.50
     Davidson diagonalization with overlap
     ethr =  9.02E-09,  avg # of iterations =  4.0

     total cpu time spent up to now is     1998.7 secs

     total energy              =   -2041.56322611 Ry
     Harris-Foulkes estimate   =   -2041.56323094 Ry
     estimated scf accuracy    <       0.00001277 Ry

     iteration # 12     ecut=   100.00 Ry     beta=0.50
     Davidson diagonalization with overlap
     ethr =  3.19E-09,  avg # of iterations =  2.0

     total cpu time spent up to now is     2119.7 secs

     total energy              =   -2041.56322589 Ry
     Harris-Foulkes estimate   =   -2041.56322715 Ry
     estimated scf accuracy    <       0.00000261 Ry

     iteration # 13     ecut=   100.00 Ry     beta=0.50
     Davidson diagonalization with overlap
     ethr =  6.51E-10,  avg # of iterations =  4.0

     total cpu time spent up to now is     2334.1 secs

     total energy              =   -2041.56322782 Ry
     Harris-Foulkes estimate   =   -2041.56322814 Ry
     estimated scf accuracy    <       0.00000152 Ry

     iteration # 14     ecut=   100.00 Ry     beta=0.50
     Davidson diagonalization with overlap
     ethr =  3.81E-10,  avg # of iterations =  1.8

     total cpu time spent up to now is     2453.0 secs

     total energy              =   -2041.56322761 Ry
     Harris-Foulkes estimate   =   -2041.56322791 Ry
     estimated scf accuracy    <       0.00000075 Ry

     iteration # 15     ecut=   100.00 Ry     beta=0.50
     Davidson diagonalization with overlap
     ethr =  1.87E-10,  avg # of iterations =  4.2

     total cpu time spent up to now is     2598.2 secs

     total energy              =   -2041.56322773 Ry
     Harris-Foulkes estimate   =   -2041.56322774 Ry
     estimated scf accuracy    <       0.00000006 Ry

     iteration # 16     ecut=   100.00 Ry     beta=0.50
     Davidson diagonalization with overlap
     ethr =  1.56E-11,  avg # of iterations =  4.0

     total cpu time spent up to now is     2772.7 secs

     total energy              =   -2041.56322775 Ry
     Harris-Foulkes estimate   =   -2041.56322775 Ry
     estimated scf accuracy    <       0.00000002 Ry

     iteration # 17     ecut=   100.00 Ry     beta=0.50
     Davidson diagonalization with overlap
     ethr =  4.11E-12,  avg # of iterations =  2.4

     total cpu time spent up to now is     2895.5 secs

     End of self-consistent calculation

          k = 0.0000 0.0000 0.0000 (144785 PWs)   bands (ev):

   -24.3691 -24.3676 -24.3548 -24.3541 -23.9219 -23.9202 -23.9122 -23.9115
   -22.0096 -22.0073 -21.9984 -21.9975 -21.5948 -21.5927 -21.5744 -21.5732
   -20.1962 -20.1961 -20.1956 -20.1953 -19.7056 -19.7049 -19.6615 -19.6604
   -18.0320 -18.0294 -17.9874 -17.9861 -17.6518 -17.6500 -17.6221 -17.6202
   -15.2294 -15.2279 -15.2009 -15.1848 -12.9942 -12.9821 -12.9731 -12.9646
   -12.4715 -12.4645 -12.4559 -12.4013 -11.7719 -11.7452 -11.7024 -11.6451
   -11.1499 -11.1096 -11.0229 -11.0064 -10.8252 -10.7416 -10.7231 -10.6396
    -9.8264  -9.8133  -9.8119  -9.7754  -9.1157  -9.1052  -9.1038  -9.0861
    -8.6351  -8.6098  -8.5999  -8.5686  -8.2501  -8.2471  -8.1752  -8.0552
    -7.9745  -7.9539  -7.7035  -7.6880  -7.5223  -7.5091  -7.4229  -7.3631
    -7.2056  -7.2056  -7.1980  -7.1627  -7.0950  -7.0691  -6.7915  -6.7430
    -6.7165  -6.6788  -6.6522  -6.5668  -6.3848  -6.3466  -6.3332  -6.3186
    -6.2689  -6.2190  -6.2184  -6.2075  -5.9653  -5.9168  -5.8818  -5.8274
    -5.7267  -5.6757  -5.6708  -5.6115  -5.5362  -5.4477  -5.4329  -5.4023
    -5.1586  -5.1480  -5.0920  -5.0878  -5.0795  -5.0333  -5.0316  -4.9029
    -4.7949  -4.7773  -4.7565  -4.7271  -4.5669  -4.5475  -4.5118  -4.4711
    -4.2468  -4.2398  -4.2123  -4.2031  -3.9889  -3.9749  -3.9747  -3.9032
    -3.8416  -3.8305  -3.5829  -3.5319  -3.3788  -3.3468  -3.3402  -3.2887
    -3.2122  -3.1503  -3.1498  -3.1322  -2.9486  -2.8678  -2.8458  -2.8229
    -2.6219  -2.5830  -2.5539  -2.5368  -2.4437  -2.4222  -2.4132  -2.3719
    -2.3588  -2.3260  -2.3247  -2.2650  -2.1653  -2.1219  -2.0541  -2.0256
    -1.9624  -1.9623  -1.9474  -1.9421  -1.8429  -1.8140  -1.7704  -1.7407
    -1.2137  -1.2119  -1.1602  -1.1571  -1.0405  -1.0015  -0.9628  -0.9362
    -0.6253  -0.5819  -0.5444  -0.4423  -0.4172  -0.4007  -0.3524  -0.3441
    -0.1818  -0.1651  -0.1295  -0.1256  -0.0189  -0.0156   0.0377   0.0559
     3.1062   3.1385   3.1494   3.1721   3.4636   3.4841   3.5356   3.5421
     5.1373   5.5942   5.8092   5.8286   5.8346   5.9062   6.2377   6.2741
     6.4828   6.4945   6.6538   6.6970   6.7120   6.7873   6.8922   6.9109
     6.9183   7.0365   7.0922   7.2642   7.2939   7.3155   7.3166   7.3717
     7.4440   7.5000   7.5877   7.6089   7.7075   7.7278   7.7677   7.8818

          k = 0.0000 0.0000-0.3058 (144780 PWs)   bands (ev):

   -24.3679 -24.3673 -24.3556 -24.3549 -23.9199 -23.9192 -23.9137 -23.9130
   -22.0062 -22.0062 -22.0003 -22.0003 -21.5930 -21.5923 -21.5752 -21.5745
   -20.1962 -20.1962 -20.1954 -20.1954 -19.7056 -19.7050 -19.6612 -19.6606
   -18.0309 -18.0300 -17.9873 -17.9864 -17.6529 -17.6521 -17.6202 -17.6194
   -15.2251 -15.2247 -15.1967 -15.1963 -12.9837 -12.9836 -12.9736 -12.9734
   -12.4681 -12.4681 -12.4307 -12.4307 -11.7285 -11.7283 -11.7040 -11.7038
   -11.1285 -11.1281 -11.0171 -11.0165 -10.8013 -10.8010 -10.6566 -10.6561
    -9.8253  -9.8252  -9.7949  -9.7948  -9.1131  -9.1130  -9.0911  -9.0911
    -8.6435  -8.6435  -8.5565  -8.5563  -8.2589  -8.2586  -8.1220  -8.1218
    -7.9564  -7.9562  -7.6917  -7.6916  -7.5205  -7.5203  -7.3893  -7.3889
    -7.2321  -7.2320  -7.1539  -7.1537  -7.0449  -7.0446  -6.8383  -6.8379
    -6.7170  -6.7166  -6.5804  -6.5801  -6.3502  -6.3501  -6.3044  -6.3044
    -6.2484  -6.2484  -6.2033  -6.2029  -5.9780  -5.9779  -5.8532  -5.8532
    -5.6939  -5.6938  -5.5594  -5.5593  -5.5061  -5.5061  -5.4864  -5.4863
    -5.1929  -5.1926  -5.0707  -5.0705  -5.0406  -5.0406  -4.9606  -4.9604
    -4.7829  -4.7829  -4.7367  -4.7367  -4.5317  -4.5315  -4.5177  -4.5176
    -4.2299  -4.2298  -4.2236  -4.2235  -3.9865  -3.9864  -3.9294  -3.9294
    -3.8425  -3.8420  -3.5571  -3.5566  -3.3686  -3.3685  -3.3096  -3.3095
    -3.1818  -3.1817  -3.1355  -3.1354  -2.9191  -2.9189  -2.8290  -2.8289
    -2.5859  -2.5859  -2.5576  -2.5576  -2.4345  -2.4343  -2.3812  -2.3810
    -2.3503  -2.3502  -2.3026  -2.3025  -2.1287  -2.1286  -2.0471  -2.0470
    -1.9614  -1.9611  -1.9423  -1.9422  -1.8312  -1.8311  -1.7609  -1.7607
    -1.2145  -1.2143  -1.1579  -1.1577  -1.0274  -1.0274  -0.9364  -0.9363
    -0.6194  -0.6191  -0.4875  -0.4872  -0.4005  -0.4003  -0.3521  -0.3520
    -0.1764  -0.1764  -0.1238  -0.1238  -0.0198  -0.0196   0.0492   0.0492
     3.1218   3.1219   3.1601   3.1602   3.4731   3.4731   3.5415   3.5416
     5.2928   5.2929   5.8256   5.8259   5.9336   5.9337   6.2730   6.2733
     6.5153   6.5158   6.6408   6.6410   6.7843   6.7848   6.8847   6.8852
     7.0239   7.0246   7.1765   7.1767   7.2566   7.2568   7.3536   7.3538
     7.4615   7.4618   7.5638   7.5640   7.7230   7.7234   7.7593   7.7594

          k = 0.0000-0.3789 0.0000 (144758 PWs)   bands (ev):

   -24.3687 -24.3680 -24.3548 -24.3541 -23.9214 -23.9208 -23.9122 -23.9115
   -22.0083 -22.0083 -21.9981 -21.9981 -21.5941 -21.5934 -21.5742 -21.5735
   -20.1959 -20.1959 -20.1957 -20.1957 -19.7056 -19.7050 -19.6612 -19.6606
   -18.0308 -18.0299 -17.9875 -17.9866 -17.6515 -17.6506 -17.6214 -17.6206
   -15.2287 -15.2283 -15.1932 -15.1928 -12.9892 -12.9892 -12.9674 -12.9673
   -12.4724 -12.4724 -12.4247 -12.4247 -11.7738 -11.7735 -11.6576 -11.6573
   -11.1336 -11.1332 -11.0157 -11.0151 -10.7902 -10.7898 -10.6711 -10.6706
    -9.8186  -9.8186  -9.7954  -9.7953  -9.1143  -9.1143  -9.0955  -9.0954
    -8.6125  -8.6125  -8.5947  -8.5946  -8.2450  -8.2447  -8.1142  -8.1138
    -7.9564  -7.9562  -7.6972  -7.6972  -7.5236  -7.5234  -7.3931  -7.3927
    -7.2125  -7.2122  -7.1820  -7.1819  -7.0818  -7.0814  -6.7676  -6.7673
    -6.6947  -6.6943  -6.6098  -6.6095  -6.3491  -6.3490  -6.3371  -6.3371
    -6.2326  -6.2326  -6.2071  -6.2067  -5.9986  -5.9985  -5.8056  -5.8054
    -5.7267  -5.7265  -5.6394  -5.6394  -5.4817  -5.4817  -5.4013  -5.4012
    -5.1438  -5.1437  -5.1271  -5.1269  -5.0587  -5.0585  -4.9571  -4.9570
    -4.7536  -4.7534  -4.7449  -4.7448  -4.5656  -4.5649  -4.5074  -4.5067
    -4.2514  -4.2514  -4.2063  -4.2062  -3.9809  -3.9807  -3.9542  -3.9541
    -3.8170  -3.8166  -3.5850  -3.5845  -3.3446  -3.3446  -3.3064  -3.3064
    -3.1664  -3.1663  -3.1367  -3.1367  -2.9231  -2.9230  -2.8139  -2.8137
    -2.5759  -2.5756  -2.5292  -2.5292  -2.4846  -2.4845  -2.4599  -2.4598
    -2.3039  -2.3038  -2.2950  -2.2948  -2.1280  -2.1279  -2.0398  -2.0396
    -1.9658  -1.9657  -1.9482  -1.9478  -1.8199  -1.8196  -1.7600  -1.7598
    -1.2132  -1.2129  -1.1590  -1.1588  -1.0078  -1.0078  -0.9704  -0.9703
    -0.5927  -0.5926  -0.5073  -0.5073  -0.4057  -0.4057  -0.3488  -0.3487
    -0.1445  -0.1444  -0.1180  -0.1180  -0.0032  -0.0031   0.0085   0.0087
     3.1299   3.1299   3.1628   3.1628   3.4929   3.4929   3.5106   3.5106
     5.3073   5.3075   5.7808   5.7809   6.0764   6.0767   6.1858   6.1860
     6.4465   6.4466   6.5464   6.5465   6.7954   6.7955   6.8984   6.8989
     6.9491   6.9496   7.1619   7.1621   7.3703   7.3703   7.3970   7.3973
     7.5363   7.5363   7.6736   7.6738   7.7040   7.7042   7.8430   7.8431

          k = 0.0000-0.3789-0.3058 (144828 PWs)   bands (ev):

   -24.3679 -24.3672 -24.3556 -24.3550 -23.9199 -23.9192 -23.9137 -23.9130
   -22.0060 -22.0059 -22.0006 -22.0005 -21.5930 -21.5923 -21.5752 -21.5745
   -20.1959 -20.1958 -20.1958 -20.1957 -19.7056 -19.7050 -19.6612 -19.6606
   -18.0306 -18.0296 -17.9877 -17.9867 -17.6529 -17.6521 -17.6202 -17.6194
   -15.2241 -15.2237 -15.1977 -15.1972 -12.9829 -12.9828 -12.9741 -12.9739
   -12.4605 -12.4605 -12.4398 -12.4398 -11.7284 -11.7281 -11.7024 -11.7021
   -11.1290 -11.1285 -11.0203 -11.0196 -10.7931 -10.7926 -10.6616 -10.6610
    -9.8314  -9.8313  -9.7887  -9.7886  -9.1124  -9.1123  -9.0970  -9.0969
    -8.6347  -8.6346  -8.5650  -8.5648  -8.2416  -8.2413  -8.1314  -8.1311
    -7.9509  -7.9507  -7.6928  -7.6928  -7.5250  -7.5248  -7.3946  -7.3941
    -7.2364  -7.2363  -7.1621  -7.1619  -7.0356  -7.0353  -6.8388  -6.8385
    -6.7050  -6.7046  -6.5933  -6.5930  -6.3284  -6.3283  -6.3236  -6.3235
    -6.2243  -6.2242  -6.2100  -6.2094  -5.9854  -5.9852  -5.8864  -5.8864
    -5.6698  -5.6695  -5.5506  -5.5505  -5.5024  -5.5024  -5.4977  -5.4974
    -5.1903  -5.1901  -5.0591  -5.0589  -5.0301  -5.0301  -4.9821  -4.9819
    -4.7633  -4.7629  -4.7360  -4.7357  -4.5556  -4.5548  -4.5200  -4.5192
    -4.2370  -4.2368  -4.2183  -4.2182  -3.9796  -3.9793  -3.9572  -3.9570
    -3.8158  -3.8155  -3.5893  -3.5888  -3.3381  -3.3379  -3.3114  -3.3114
    -3.1673  -3.1672  -3.1333  -3.1332  -2.9232  -2.9230  -2.8165  -2.8163
    -2.5690  -2.5690  -2.5402  -2.5399  -2.4729  -2.4727  -2.4620  -2.4617
    -2.3023  -2.3022  -2.2998  -2.2995  -2.1194  -2.1193  -2.0479  -2.0477
    -1.9641  -1.9640  -1.9483  -1.9478  -1.8060  -1.8058  -1.7790  -1.7787
    -1.2131  -1.2128  -1.1586  -1.1584  -1.0141  -1.0140  -0.9598  -0.9597
    -0.5638  -0.5635  -0.5424  -0.5420  -0.3989  -0.3987  -0.3550  -0.3549
    -0.1329  -0.1328  -0.1315  -0.1314  -0.0010  -0.0009   0.0107   0.0110
     3.1419   3.1422   3.1496   3.1499   3.4888   3.4889   3.5170   3.5170
     5.4203   5.4205   5.5345   5.5351   6.0688   6.0692   6.2872   6.2873
     6.4929   6.4932   6.6645   6.6647   6.8849   6.8852   6.9146   6.9152
     6.9838   6.9842   7.0679   7.0681   7.2737   7.2744   7.3126   7.3128
     7.4706   7.4711   7.5370   7.5373   7.6931   7.6935   7.8987   7.8988

          k =-0.5000 0.0000-0.0867 (144900 PWs)   bands (ev):

   -24.3687 -24.3680 -24.3548 -24.3541 -23.9215 -23.9208 -23.9122 -23.9115
   -22.0084 -22.0084 -21.9978 -21.9978 -21.5943 -21.5936 -21.5743 -21.5736
   -20.2017 -20.2016 -20.1925 -20.1924 -19.7008 -19.7002 -19.6646 -19.6640
   -18.0292 -18.0282 -17.9855 -17.9846 -17.6513 -17.6505 -17.6220 -17.6212
   -15.2274 -15.2269 -15.1925 -15.1921 -12.9989 -12.9989 -12.9907 -12.9906
   -12.4545 -12.4544 -12.4117 -12.4117 -11.7485 -11.7482 -11.7050 -11.7048
   -11.1191 -11.1186 -11.0659 -11.0654 -10.7730 -10.7727 -10.6325 -10.6319
    -9.8295  -9.8295  -9.8022  -9.8020  -9.0229  -9.0229  -9.0101  -9.0101
    -8.6192  -8.6191  -8.5704  -8.5703  -8.2842  -8.2839  -8.1349  -8.1347
    -8.0425  -8.0423  -7.9149  -7.9146  -7.4684  -7.4682  -7.4323  -7.4321
    -7.2243  -7.2243  -7.1573  -7.1572  -7.0591  -7.0588  -6.7328  -6.7325
    -6.7159  -6.7156  -6.6024  -6.6023  -6.3730  -6.3728  -6.2876  -6.2872
    -6.1689  -6.1688  -6.1284  -6.1283  -5.9300  -5.9300  -5.8090  -5.8087
    -5.7090  -5.7090  -5.6060  -5.6056  -5.5751  -5.5750  -5.4691  -5.4690
    -5.2353  -5.2353  -5.1422  -5.1421  -5.1055  -5.1053  -4.9528  -4.9526
    -4.6532  -4.6529  -4.6076  -4.6071  -4.5219  -4.5217  -4.4739  -4.4738
    -4.2536  -4.2535  -4.2206  -4.2204  -3.9922  -3.9920  -3.9494  -3.9493
    -3.8392  -3.8388  -3.5371  -3.5365  -3.4357  -3.4357  -3.3162  -3.3162
    -3.2217  -3.2217  -3.1834  -3.1833  -2.8930  -2.8929  -2.8580  -2.8580
    -2.6587  -2.6585  -2.5151  -2.5151  -2.4335  -2.4334  -2.4243  -2.4243
    -2.3628  -2.3626  -2.2545  -2.2545  -2.2162  -2.2162  -2.1155  -2.1154
    -1.9551  -1.9549  -1.8315  -1.8313  -1.8052  -1.8052  -1.7273  -1.7272
    -1.1955  -1.1953  -1.1340  -1.1339  -1.0466  -1.0466  -0.9122  -0.9122
    -0.6103  -0.6101  -0.5620  -0.5620  -0.4657  -0.4656  -0.3596  -0.3595
    -0.1313  -0.1313  -0.0578  -0.0578  -0.0220  -0.0219   0.0781   0.0781
     3.1229   3.1229   3.1614   3.1614   3.4940   3.4941   3.5376   3.5377
     5.5487   5.5487   5.8642   5.8645   6.0556   6.0558   6.1595   6.1597
     6.2953   6.2957   6.4794   6.4795   6.6378   6.6382   6.8335   6.8336
     6.8887   6.8891   7.0260   7.0267   7.2227   7.2228   7.2380   7.2383
     7.4458   7.4460   7.5601   7.5605   7.7303   7.7305   7.8076   7.8078

          k =-0.5000 0.0000-0.3925 (144760 PWs)   bands (ev):

   -24.3679 -24.3672 -24.3560 -24.3546 -23.9203 -23.9188 -23.9137 -23.9130
   -22.0064 -22.0057 -22.0015 -21.9991 -21.5939 -21.5917 -21.5757 -21.5744
   -20.2019 -20.2013 -20.1929 -20.1920 -19.7010 -19.7000 -19.6646 -19.6640
   -18.0291 -18.0278 -17.9860 -17.9843 -17.6535 -17.6524 -17.6205 -17.6191
   -15.2276 -15.2180 -15.1978 -15.1954 -13.0094 -13.0000 -12.9863 -12.9827
   -12.4626 -12.4447 -12.4170 -12.4108 -11.7643 -11.7507 -11.7114 -11.6751
   -11.1200 -11.0996 -11.0955 -11.0556 -10.7950 -10.7358 -10.6976 -10.5754
    -9.8402  -9.8322  -9.8229  -9.7795  -9.0284  -9.0238  -9.0115  -9.0030
    -8.6092  -8.6022  -8.6017  -8.5617  -8.2768  -8.2563  -8.2128  -8.0855
    -8.0551  -8.0401  -7.9126  -7.9094  -7.4753  -7.4636  -7.4423  -7.4246
    -7.2444  -7.2080  -7.2063  -7.1082  -7.0448  -6.9733  -6.8340  -6.7782
    -6.7767  -6.6473  -6.6226  -6.6055  -6.3555  -6.3110  -6.2965  -6.2660
    -6.1942  -6.1394  -6.1373  -6.1085  -6.0189  -5.8810  -5.7921  -5.7702
    -5.7270  -5.6971  -5.6660  -5.5935  -5.5830  -5.5424  -5.4954  -5.4525
    -5.2772  -5.2046  -5.1564  -5.1455  -5.1126  -5.0623  -5.0051  -4.9280
    -4.6703  -4.6531  -4.5992  -4.5714  -4.5459  -4.5084  -4.4996  -4.4578
    -4.2906  -4.2492  -4.2162  -4.1862  -3.9946  -3.9925  -3.9739  -3.9397
    -3.8545  -3.8130  -3.5505  -3.5244  -3.4421  -3.4275  -3.3278  -3.3038
    -3.2182  -3.2163  -3.1935  -3.1787  -2.8960  -2.8936  -2.8653  -2.8440
    -2.7096  -2.5975  -2.5228  -2.5135  -2.4643  -2.4438  -2.4297  -2.4265
    -2.3398  -2.2972  -2.2814  -2.2496  -2.2252  -2.2001  -2.1983  -2.0513
    -1.9896  -1.9100  -1.8934  -1.8690  -1.7679  -1.7552  -1.7352  -1.7338
    -1.2082  -1.1820  -1.1353  -1.1313  -1.0187  -0.9994  -0.9917  -0.9286
    -0.5957  -0.5834  -0.5731  -0.5714  -0.4690  -0.4400  -0.3903  -0.3497
    -0.1362  -0.1281  -0.0678  -0.0477  -0.0282  -0.0180   0.0775   0.0798
     3.1114   3.1353   3.1475   3.1760   3.4907   3.5011   3.5340   3.5345
     5.5458   5.5863   5.7958   5.8567   5.9750   6.0545   6.1489   6.1556
     6.3741   6.4797   6.5092   6.5364   6.5904   6.7178   6.7440   6.8330
     6.8701   6.9185   6.9855   7.0599   7.0787   7.1365   7.1510   7.2113
     7.3025   7.4252   7.5628   7.6393   7.6657   7.8853   7.9170   7.9522

          k =-0.5000-0.3789-0.0867 (144780 PWs)   bands (ev):

   -24.3686 -24.3679 -24.3548 -24.3541 -23.9214 -23.9207 -23.9122 -23.9115
   -22.0082 -22.0082 -21.9980 -21.9980 -21.5943 -21.5935 -21.5744 -21.5737
   -20.2016 -20.2015 -20.1925 -20.1924 -19.7008 -19.7002 -19.6646 -19.6640
   -18.0288 -18.0279 -17.9859 -17.9849 -17.6513 -17.6505 -17.6221 -17.6212
   -15.2265 -15.2261 -15.1934 -15.1929 -12.9980 -12.9979 -12.9917 -12.9915
   -12.4469 -12.4468 -12.4198 -12.4197 -11.7520 -11.7516 -11.7001 -11.6999
   -11.1155 -11.1150 -11.0739 -11.0733 -10.7636 -10.7632 -10.6389 -10.6383
    -9.8234  -9.8233  -9.8065  -9.8063  -9.0326  -9.0325  -9.0087  -9.0087
    -8.6150  -8.6150  -8.5780  -8.5780  -8.2618  -8.2615  -8.1210  -8.1207
    -8.0577  -8.0573  -7.9125  -7.9123  -7.4758  -7.4756  -7.4426  -7.4423
    -7.2169  -7.2167  -7.1753  -7.1751  -7.0497  -7.0494  -6.7381  -6.7377
    -6.6959  -6.6955  -6.6305  -6.6301  -6.3446  -6.3446  -6.3043  -6.3037
    -6.1529  -6.1528  -6.1445  -6.1443  -5.9168  -5.9166  -5.8192  -5.8190
    -5.7377  -5.7377  -5.5952  -5.5951  -5.5436  -5.5432  -5.4594  -5.4594
    -5.2030  -5.2027  -5.1677  -5.1675  -5.1228  -5.1224  -4.9605  -4.9602
    -4.6206  -4.6202  -4.6158  -4.6156  -4.5572  -4.5567  -4.4611  -4.4605
    -4.2506  -4.2503  -4.2386  -4.2385  -4.0201  -4.0198  -3.9484  -3.9482
    -3.7979  -3.7976  -3.5760  -3.5756  -3.3571  -3.3570  -3.3557  -3.3556
    -3.2098  -3.2098  -3.1998  -3.1996  -2.8746  -2.8744  -2.8507  -2.8505
    -2.6092  -2.6090  -2.5801  -2.5801  -2.4676  -2.4673  -2.4490  -2.4487
    -2.3001  -2.3000  -2.2712  -2.2711  -2.1906  -2.1905  -2.1768  -2.1766
    -1.8919  -1.8918  -1.8513  -1.8510  -1.8048  -1.8046  -1.7335  -1.7334
    -1.1969  -1.1968  -1.1353  -1.1352  -1.0386  -1.0386  -0.9236  -0.9236
    -0.6109  -0.6106  -0.5766  -0.5764  -0.4265  -0.4262  -0.3891  -0.3889
    -0.0790  -0.0788  -0.0721  -0.0718   0.0106   0.0106   0.0213   0.0214
     3.1417   3.1421   3.1562   3.1565   3.5003   3.5004   3.5202   3.5202
     5.5959   5.5960   5.7113   5.7117   6.2339   6.2342   6.2605   6.2608
     6.2738   6.2742   6.3445   6.3447   6.6719   6.6721   6.8021   6.8024
     6.8292   6.8295   6.9118   6.9120   7.2366   7.2371   7.3316   7.3317
     7.5194   7.5201   7.5657   7.5660   7.7726   7.7729   7.8291   7.8293

          k =-0.5000-0.3789-0.3925 (144888 PWs)   bands (ev):

   -24.3679 -24.3672 -24.3556 -24.3549 -23.9199 -23.9193 -23.9137 -23.9130
   -22.0060 -22.0059 -22.0004 -22.0004 -21.5932 -21.5924 -21.5754 -21.5747
   -20.2016 -20.2015 -20.1925 -20.1924 -19.7008 -19.7002 -19.6646 -19.6640
   -18.0286 -18.0276 -17.9860 -17.9850 -17.6535 -17.6527 -17.6201 -17.6193
   -15.2239 -15.2235 -15.1959 -15.1955 -13.0049 -13.0049 -12.9845 -12.9845
   -12.4402 -12.4402 -12.4285 -12.4285 -11.7419 -11.7418 -11.7081 -11.7079
   -11.1146 -11.1142 -11.0759 -11.0753 -10.7727 -10.7723 -10.6232 -10.6225
    -9.8422  -9.8421  -9.7960  -9.7959  -9.0339  -9.0339  -9.0071  -9.0071
    -8.6161  -8.6161  -8.5746  -8.5745  -8.2602  -8.2598  -8.1282  -8.1279
    -8.0542  -8.0538  -7.9095  -7.9093  -7.4795  -7.4794  -7.4401  -7.4398
    -7.2392  -7.2390  -7.1484  -7.1482  -7.0122  -7.0119  -6.7983  -6.7979
    -6.7384  -6.7381  -6.5948  -6.5946  -6.3363  -6.3361  -6.2770  -6.2765
    -6.1541  -6.1540  -6.1326  -6.1325  -5.9427  -5.9426  -5.7862  -5.7861
    -5.7442  -5.7442  -5.6059  -5.6057  -5.5333  -5.5331  -5.4946  -5.4943
    -5.2300  -5.2299  -5.1525  -5.1524  -5.0778  -5.0777  -4.9815  -4.9811
    -4.6288  -4.6287  -4.5986  -4.5983  -4.5677  -4.5675  -4.4574  -4.4569
    -4.2734  -4.2734  -4.2042  -4.2041  -4.0515  -4.0515  -3.9282  -3.9281
    -3.7990  -3.7986  -3.5695  -3.5691  -3.3676  -3.3676  -3.3486  -3.3486
    -3.2239  -3.2238  -3.1884  -3.1883  -2.8836  -2.8835  -2.8400  -2.8399
    -2.6097  -2.6096  -2.5760  -2.5760  -2.4835  -2.4835  -2.4341  -2.4340
    -2.3209  -2.3207  -2.2355  -2.2354  -2.2124  -2.2123  -2.1640  -2.1640
    -1.9186  -1.9185  -1.8681  -1.8679  -1.7628  -1.7626  -1.7416  -1.7415
    -1.1968  -1.1966  -1.1305  -1.1304  -1.0084  -1.0084  -0.9657  -0.9657
    -0.5917  -0.5913  -0.5903  -0.5902  -0.4303  -0.4302  -0.3820  -0.3818
    -0.0795  -0.0793  -0.0691  -0.0688   0.0065   0.0066   0.0220   0.0221
     3.1308   3.1310   3.1674   3.1676   3.5014   3.5015   3.5187   3.5187
     5.6301   5.6302   5.7164   5.7167   6.0403   6.0407   6.1594   6.1596
     6.2991   6.2994   6.6172   6.6173   6.6950   6.6951   6.8086   6.8093
     6.9413   6.9414   7.0128   7.0132   7.0767   7.0768   7.1602   7.1608
     7.4907   7.4907   7.5838   7.5838   7.7611   7.7612   7.8722   7.8725

     highest occupied, lowest unoccupied level (ev):     0.0798    3.1062

!    total energy              =   -2041.56322775 Ry
     Harris-Foulkes estimate   =   -2041.56322775 Ry
     estimated scf accuracy    <          8.2E-09 Ry

     total all-electron energy =     -7572.064026 Ry

     The total energy is the sum of the following terms:

     one-electron contribution =   -1452.07692509 Ry
     hartree contribution      =     872.02794863 Ry
     xc contribution           =    -425.19174442 Ry
     ewald contribution        =    -488.65798782 Ry
     Dispersion Correction     =      -0.50763312 Ry
     one-center paw contrib.   =    -547.15688593 Ry

     convergence has been achieved in  17 iterations

     Forces acting on atoms (cartesian axes, Ry/au):

     atom    1 type  4   force =    -0.00010384   -0.00024536   -0.00004244
     atom    2 type  4   force =     0.00009681   -0.00024085    0.00003346
     atom    3 type  4   force =     0.00010384    0.00024536    0.00004244
     atom    4 type  4   force =    -0.00009681    0.00024085   -0.00003346
     atom    5 type  4   force =     0.00050565   -0.00019041    0.00058681
     atom    6 type  4   force =    -0.00107979   -0.00022903    0.00000539
     atom    7 type  4   force =    -0.00050565    0.00019041   -0.00058681
     atom    8 type  4   force =     0.00107979    0.00022903   -0.00000539
     atom    9 type  4   force =    -0.00110335   -0.00109864   -0.00060408
     atom   10 type  4   force =     0.00098929   -0.00110511    0.00061823
     atom   11 type  4   force =     0.00110335    0.00109864    0.00060408
     atom   12 type  4   force =    -0.00098929    0.00110511   -0.00061823
     atom   13 type  4   force =     0.00058824    0.00059794    0.00012784
     atom   14 type  4   force =    -0.00059707    0.00053603   -0.00017862
     atom   15 type  4   force =    -0.00058824   -0.00059794   -0.00012784
     atom   16 type  4   force =     0.00059707   -0.00053603    0.00017862
     atom   17 type  2   force =     0.00109422    0.00006276   -0.00079023
     atom   18 type  2   force =    -0.00102527    0.00020092    0.00066944
     atom   19 type  2   force =    -0.00109422   -0.00006276    0.00079023
     atom   20 type  2   force =     0.00102527   -0.00020092   -0.00066944
     atom   21 type  1   force =    -0.00168052   -0.00101245    0.00018877
     atom   22 type  1   force =     0.00161011   -0.00102478   -0.00014473
     atom   23 type  1   force =     0.00168052    0.00101245   -0.00018877
     atom   24 type  1   force =    -0.00161011    0.00102478    0.00014473
     atom   25 type  2   force =    -0.00029504   -0.00025192   -0.00010292
     atom   26 type  2   force =     0.00028116   -0.00021702    0.00006058
     atom   27 type  2   force =     0.00029504    0.00025192    0.00010292
     atom   28 type  2   force =    -0.00028116    0.00021702   -0.00006058
     atom   29 type  2   force =    -0.00016330   -0.00079800   -0.00011640
     atom   30 type  2   force =     0.00020137   -0.00077258    0.00023483
     atom   31 type  2   force =     0.00016330    0.00079800    0.00011640
     atom   32 type  2   force =    -0.00020137    0.00077258   -0.00023483
     atom   33 type  4   force =    -0.00057531    0.00001421   -0.00008758
     atom   34 type  4   force =     0.00058512    0.00001989    0.00010090
     atom   35 type  4   force =     0.00057531   -0.00001421    0.00008758
     atom   36 type  4   force =    -0.00058512   -0.00001989   -0.00010090
     atom   37 type  1   force =     0.00021643   -0.00019329   -0.00055737
     atom   38 type  1   force =    -0.00021532   -0.00017086    0.00058713
     atom   39 type  1   force =    -0.00021643    0.00019329    0.00055737
     atom   40 type  1   force =     0.00021532    0.00017086   -0.00058713
     atom   41 type  2   force =     0.00045634    0.00059597    0.00045805
     atom   42 type  2   force =    -0.00042971    0.00044543   -0.00035458
     atom   43 type  2   force =    -0.00045634   -0.00059597   -0.00045805
     atom   44 type  2   force =     0.00042971   -0.00044543    0.00035458
     atom   45 type  1   force =     0.00014382    0.00023103    0.00019241
     atom   46 type  1   force =     0.00024706    0.00035372   -0.00051887
     atom   47 type  1   force =    -0.00014382   -0.00023103   -0.00019241
     atom   48 type  1   force =    -0.00024706   -0.00035372    0.00051887
     atom   49 type  4   force =    -0.00053060    0.00174025    0.00117312
     atom   50 type  4   force =     0.00053721    0.00173041   -0.00116793
     atom   51 type  4   force =     0.00053060   -0.00174025   -0.00117312
     atom   52 type  4   force =    -0.00053721   -0.00173041    0.00116793
     atom   53 type  1   force =     0.00254404   -0.00034612   -0.00114895
     atom   54 type  1   force =    -0.00255297   -0.00028572    0.00111977
     atom   55 type  1   force =    -0.00254404    0.00034612    0.00114895
     atom   56 type  1   force =     0.00255297    0.00028572   -0.00111977
     atom   57 type  1   force =    -0.00036859    0.00013293   -0.00012863
     atom   58 type  1   force =     0.00041699    0.00016044    0.00006113
     atom   59 type  1   force =     0.00036859   -0.00013293    0.00012863
     atom   60 type  1   force =    -0.00041699   -0.00016044   -0.00006113
     atom   61 type  1   force =     0.00011426   -0.00103340    0.00041158
     atom   62 type  1   force =    -0.00012655   -0.00104673   -0.00043945
     atom   63 type  1   force =    -0.00011426    0.00103340   -0.00041158
     atom   64 type  1   force =     0.00012655    0.00104673    0.00043945
     atom   65 type  1   force =    -0.00031390   -0.00007141    0.00009474
     atom   66 type  1   force =     0.00031091   -0.00009052   -0.00013593
     atom   67 type  1   force =     0.00031390    0.00007141   -0.00009474
     atom   68 type  1   force =    -0.00031091    0.00009052    0.00013593
     atom   69 type  3   force =    -0.00010879    0.00016272   -0.00093767
     atom   70 type  3   force =    -0.00005838    0.00002621    0.00103549
     atom   71 type  3   force =     0.00010879   -0.00016272    0.00093767
     atom   72 type  3   force =     0.00005838   -0.00002621   -0.00103549
     atom   73 type  3   force =    -0.00046573    0.00061516    0.00024542
     atom   74 type  3   force =     0.00031052    0.00064731   -0.00022625
     atom   75 type  3   force =     0.00046573   -0.00061516   -0.00024542
     atom   76 type  3   force =    -0.00031052   -0.00064731    0.00022625
     atom   77 type  3   force =     0.00035942   -0.00016972   -0.00043574
     atom   78 type  3   force =    -0.00036154   -0.00017620    0.00041731
     atom   79 type  3   force =    -0.00035942    0.00016972    0.00043574
     atom   80 type  3   force =     0.00036154    0.00017620   -0.00041731
     atom   81 type  3   force =    -0.00040956    0.00092141    0.00057552
     atom   82 type  3   force =     0.00041594    0.00091537   -0.00056670
     atom   83 type  3   force =     0.00040956   -0.00092141   -0.00057552
     atom   84 type  3   force =    -0.00041594   -0.00091537    0.00056670
     atom   85 type  3   force =     0.00032629    0.00036600    0.00036944
     atom   86 type  3   force =    -0.00031986    0.00034965   -0.00037373
     atom   87 type  3   force =    -0.00032629   -0.00036600   -0.00036944
     atom   88 type  3   force =     0.00031986   -0.00034965    0.00037373
     atom   89 type  3   force =    -0.00029704   -0.00047567   -0.00024485
     atom   90 type  3   force =     0.00029790   -0.00048055    0.00024222
     atom   91 type  3   force =     0.00029704    0.00047567    0.00024485
     atom   92 type  3   force =    -0.00029790    0.00048055   -0.00024222
     atom   93 type  3   force =    -0.00027635   -0.00003368    0.00022228
     atom   94 type  3   force =     0.00027275   -0.00003054   -0.00020808
     atom   95 type  3   force =     0.00027635    0.00003368   -0.00022228
     atom   96 type  3   force =    -0.00027275    0.00003054    0.00020808
     atom   97 type  3   force =    -0.00021803   -0.00012553    0.00014617
     atom   98 type  3   force =     0.00021551   -0.00013166   -0.00015826
     atom   99 type  3   force =     0.00021803    0.00012553   -0.00014617
     atom  100 type  3   force =    -0.00021551    0.00013166    0.00015826
     atom  101 type  3   force =    -0.00083915    0.00009809   -0.00062435
     atom  102 type  3   force =     0.00084155    0.00010370    0.00063978
     atom  103 type  3   force =     0.00083915   -0.00009809    0.00062435
     atom  104 type  3   force =    -0.00084155   -0.00010370   -0.00063978
     atom  105 type  3   force =     0.00025508    0.00047708   -0.00009802
     atom  106 type  3   force =    -0.00027556    0.00047058    0.00009445
     atom  107 type  3   force =    -0.00025508   -0.00047708    0.00009802
     atom  108 type  3   force =     0.00027556   -0.00047058   -0.00009445
     atom  109 type  3   force =     0.00042731    0.00055297    0.00013812
     atom  110 type  3   force =    -0.00045226    0.00054403   -0.00011492
     atom  111 type  3   force =    -0.00042731   -0.00055297   -0.00013812
     atom  112 type  3   force =     0.00045226   -0.00054403    0.00011492
     atom  113 type  3   force =    -0.00013998   -0.00052049   -0.00037043
     atom  114 type  3   force =     0.00014505   -0.00052414    0.00037971
     atom  115 type  3   force =     0.00013998    0.00052049    0.00037043
     atom  116 type  3   force =    -0.00014505    0.00052414   -0.00037971
     atom  117 type  3   force =     0.00052707   -0.00030526    0.00021546
     atom  118 type  3   force =    -0.00052568   -0.00030277   -0.00021316
     atom  119 type  3   force =    -0.00052707    0.00030526   -0.00021546
     atom  120 type  3   force =     0.00052568    0.00030277    0.00021316
     atom  121 type  3   force =     0.00022906   -0.00023709    0.00024302
     atom  122 type  3   force =     0.00029832   -0.00021331   -0.00057076
     atom  123 type  3   force =    -0.00022906    0.00023709   -0.00024302
     atom  124 type  3   force =    -0.00029832    0.00021331    0.00057076
     atom  125 type  3   force =    -0.00054858    0.00033206    0.00069591
     atom  126 type  3   force =     0.00055588    0.00033935   -0.00069395
     atom  127 type  3   force =     0.00054858   -0.00033206   -0.00069591
     atom  128 type  3   force =    -0.00055588   -0.00033935    0.00069395
     atom  129 type  3   force =    -0.00052489   -0.00029792   -0.00004342
     atom  130 type  3   force =     0.00052515   -0.00029432    0.00004452
     atom  131 type  3   force =     0.00052489    0.00029792    0.00004342
     atom  132 type  3   force =    -0.00052515    0.00029432   -0.00004452

     Total force =     0.011846     Total SCF correction =     0.000160


     Computing stress (Cartesian axis) and pressure

          total   stress  (Ry/bohr**3)                   (kbar)     P=   -4.22
  -0.00002723  -0.00000010  -0.00000166         -4.00     -0.01     -0.24
  -0.00000010  -0.00003246   0.00000007         -0.01     -4.77      0.01
  -0.00000166   0.00000007  -0.00002648         -0.24      0.01     -3.90


     Writing output data file scf.save
 
     init_run     :     76.85s CPU     80.80s WALL (       1 calls)
     electrons    :   2662.99s CPU   2814.18s WALL (       1 calls)
     forces       :     37.19s CPU     37.53s WALL (       1 calls)
     stress       :    269.53s CPU    270.14s WALL (       1 calls)

     Called by init_run:
     wfcinit      :     60.62s CPU     64.28s WALL (       1 calls)
     potinit      :      5.63s CPU      5.69s WALL (       1 calls)

     Called by electrons:
     c_bands      :   2376.70s CPU   2502.97s WALL (      17 calls)
     sum_band     :    265.60s CPU    288.15s WALL (      17 calls)
     v_of_rho     :      3.20s CPU      3.56s WALL (      18 calls)
     newd         :      8.27s CPU     10.20s WALL (      18 calls)
     PAW_pot      :      8.31s CPU      8.31s WALL (      18 calls)
     mix_rho      :      0.82s CPU      0.88s WALL (      17 calls)

     Called by c_bands:
     init_us_2    :     14.42s CPU     14.47s WALL (     296 calls)
     cegterg      :   2313.38s CPU   2439.55s WALL (     136 calls)

     Called by sum_band:
     sum_band:bec :      0.12s CPU      0.12s WALL (     136 calls)
     addusdens    :      8.56s CPU     10.36s WALL (      17 calls)

     Called by *egterg:
     h_psi        :   1330.47s CPU   1437.52s WALL (     720 calls)
     s_psi        :    220.09s CPU    220.13s WALL (     720 calls)
     g_psi        :      6.50s CPU      6.51s WALL (     576 calls)
     cdiaghg      :    118.16s CPU    118.25s WALL (     712 calls)

     Called by h_psi:
     h_psi:pot    :   1321.51s CPU   1428.41s WALL (     720 calls)
     h_psi:calbec :    244.08s CPU    244.58s WALL (     720 calls)
     vloc_psi     :    856.64s CPU    963.01s WALL (     720 calls)
     add_vuspsi   :    220.78s CPU    220.82s WALL (     720 calls)

     General routines
     calbec       :    377.19s CPU    377.99s WALL (     896 calls)
     fft          :      8.86s CPU      9.57s WALL (     258 calls)
     fftw         :    931.00s CPU   1057.15s WALL (  210978 calls)
 
     Parallel routines
     fft_scatter  :    191.74s CPU    317.03s WALL (  211236 calls)
 
     PWSCF        : 51m 2.78s CPU    54m36.60s WALL

 
   This run was terminated on:  10:25:30   4Nov2017            

=------------------------------------------------------------------------------=
   JOB DONE.
=------------------------------------------------------------------------------=
