
     Program PWSCF v.6.1 (svn rev. 13369) starts on 18Dec2017 at  5:41:18 

     This program is part of the open-source Quantum ESPRESSO suite
     for quantum simulation of materials; please cite
         "P. Giannozzi et al., J. Phys.:Condens. Matter 21 395502 (2009);
          URL http://www.quantum-espresso.org", 
     in publications or presentations arising from this work. More details at
     http://www.quantum-espresso.org/quote

     Parallel version (MPI), running on     8 processors
     R & G space division:  proc/nbgrp/npool/nimage =       8
     Waiting for input...
     Reading input from standard input

     Current dimensions of program PWSCF are:
     Max number of different atomic species (ntypx) = 10
     Max number of k-points (npk) =  40000
     Max angular momentum in pseudopotentials (lmaxx) =  3
               file C.pbe-n-kjpaw_psl.0.1.UPF: wavefunction(s)  2P renormalized
               file N.pbe-n-kjpaw_psl.0.1.UPF: wavefunction(s)  2P renormalized
               file H.pbe-kjpaw_psl.0.1.UPF: wavefunction(s)  1S renormalized
               file O.pbe-n-kjpaw_psl.0.1.UPF: wavefunction(s)  2P renormalized

     -------------------------------------
     Parameters for Dispersion Correction:
     -------------------------------------
       atom      VdW radius       C_6     

        C          2.744         60.710
        N          2.640         42.670
        H          1.892          4.857
        O          2.536         24.284

     Subspace diagonalization in iterative solution of the eigenvalue problem:
     a serial algorithm will be used

 
     Parallelization info
     --------------------
     sticks:   dense  smooth     PW     G-vecs:    dense   smooth      PW
     Min        1262    1262    333               119114   119114   16222
     Max        1263    1263    335               119118   119118   16223
     Sum       10099   10099   2667               952923   952923  129779
 


     bravais-lattice index     =            0
     lattice parameter (alat)  =      15.7864  a.u.
     unit-cell volume          =    7053.7994 (a.u.)^3
     number of atoms/cell      =          112
     number of atomic types    =            4
     number of electrons       =       344.00
     number of Kohn-Sham states=          206
     kinetic-energy cutoff     =     100.0000  Ry
     charge density cutoff     =     400.0000  Ry
     convergence threshold     =      1.0E-08
     mixing beta               =       0.5000
     number of iterations used =            8  plain     mixing
     Exchange-correlation      =  SLA  PW   PBX  PBC ( 1  4  3  4 0 0)

     celldm(1)=  15.786394  celldm(2)=   0.000000  celldm(3)=   0.000000
     celldm(4)=   0.000000  celldm(5)=   0.000000  celldm(6)=   0.000000

     crystal axes: (cart. coord. in units of alat)
               a(1) = (   1.000000   0.000000   0.000000 )  
               a(2) = (   0.000000   1.272355   0.000000 )  
               a(3) = (  -0.042316   0.000000   1.409178 )  

     reciprocal axes: (cart. coord. in units 2 pi/alat)
               b(1) = (  1.000000  0.000000  0.030029 )  
               b(2) = (  0.000000  0.785944  0.000000 )  
               b(3) = (  0.000000  0.000000  0.709633 )  


     PseudoPot. # 1 for  C read from file:
     /scratch/ahofstet/pseudo/C.pbe-n-kjpaw_psl.0.1.UPF
     MD5 check sum: 430fe95172b1e11ef3f8ed03bac87931
     Pseudo is Projector augmented-wave + core cor, Zval =  4.0
     Generated using "atomic" code by A. Dal Corso  v.5.0.99 svn rev. 10869
     Shape of augmentation charge: BESSEL
     Using radial grid of 1073 points,  4 beta functions with: 
                l(1) =   0
                l(2) =   0
                l(3) =   1
                l(4) =   1
     Q(r) pseudized with 0 coefficients 


     PseudoPot. # 2 for  N read from file:
     /scratch/ahofstet/pseudo/N.pbe-n-kjpaw_psl.0.1.UPF
     MD5 check sum: f73187c8b701007e77325f868c9291d7
     Pseudo is Projector augmented-wave + core cor, Zval =  5.0
     Generated using "atomic" code by A. Dal Corso  v.5.0.99 svn rev. 10869
     Shape of augmentation charge: PSQ
     Using radial grid of 1085 points,  4 beta functions with: 
                l(1) =   0
                l(2) =   0
                l(3) =   1
                l(4) =   1
     Q(r) pseudized with 0 coefficients 


     PseudoPot. # 3 for  H read from file:
     /scratch/ahofstet/pseudo/H.pbe-kjpaw_psl.0.1.UPF
     MD5 check sum: 94e484f906d9e9773b2f6e52662335b2
     Pseudo is Projector augmented-wave, Zval =  1.0
     Generated using "atomic" code by A. Dal Corso  v.5.0.99 svn rev. 10869
     Shape of augmentation charge: PSQ
     Using radial grid of  929 points,  2 beta functions with: 
                l(1) =   0
                l(2) =   0
     Q(r) pseudized with 0 coefficients 


     PseudoPot. # 4 for  O read from file:
     /scratch/ahofstet/pseudo/O.pbe-n-kjpaw_psl.0.1.UPF
     MD5 check sum: 3f94a2996a3169367d6eb21d9b593f20
     Pseudo is Projector augmented-wave + core cor, Zval =  6.0
     Generated using "atomic" code by A. Dal Corso  v.5.0.99 svn rev. 10869
     Shape of augmentation charge: BESSEL
     Using radial grid of 1095 points,  4 beta functions with: 
                l(1) =   0
                l(2) =   0
                l(3) =   1
                l(4) =   1
     Q(r) pseudized with 0 coefficients 


     atomic species   valence    mass     pseudopotential
        C              4.00    12.01070      C( 1.00)
        N              5.00    14.00670      N( 1.00)
        H              1.00     1.00794      H( 1.00)
        O              6.00    15.99940      O( 1.00)

      4 Sym. Ops., with inversion, found ( 2 have fractional translation)



   Cartesian axes

     site n.     atom                  positions (alat units)
         1           O   tau(   1) = (   0.2325351   0.2417890   0.2200965  )
         2           O   tau(   2) = (   0.2113772   0.3943886   0.9246856  )
         3           O   tau(   3) = (   0.7251491   1.0305661   1.1890818  )
         4           O   tau(   4) = (   0.7463070   0.8779665   0.4844927  )
         5           O   tau(   5) = (   0.4161601   0.4930541   0.3021704  )
         6           O   tau(   6) = (   0.3950022   0.1431234   1.0067596  )
         7           O   tau(   7) = (   0.5415242   0.7793010   1.1070079  )
         8           O   tau(   8) = (   0.5626821   1.1292317   0.4024187  )
         9           O   tau(   9) = (   0.1214097   0.3896851   0.0086442  )
        10           O   tau(  10) = (   0.1002518   0.2464925   0.7132334  )
        11           O   tau(  11) = (   0.8362745   0.8826700   1.4005341  )
        12           O   tau(  12) = (   0.8574324   1.0258626   0.6959449  )
        13           C   tau(  13) = (   0.1040913   0.2828110   0.3262533  )
        14           C   tau(  14) = (   0.0829334   0.3533665   1.0308424  )
        15           C   tau(  15) = (   0.8535930   0.9895441   1.0829250  )
        16           C   tau(  16) = (   0.8747508   0.9189885   0.3783359  )
        17           H   tau(  17) = (   0.1325532   0.3913244   0.3958180  )
        18           H   tau(  18) = (   0.1113953   0.2448531   1.1004072  )
        19           H   tau(  19) = (   0.8251310   0.8810307   1.0133603  )
        20           H   tau(  20) = (   0.8462889   1.0275020   0.3087711  )
        21           H   tau(  21) = (   0.0906367   0.1830484   0.4100882  )
        22           H   tau(  22) = (   0.0694788   0.4531292   1.1146773  )
        23           H   tau(  23) = (   0.8670475   1.0893067   0.9990901  )
        24           H   tau(  24) = (   0.8882054   0.8192259   0.2945010  )
        25           C   tau(  25) = (   0.9866677   0.4382390   0.1033679  )
        26           C   tau(  26) = (   0.9655098   0.1979386   0.8079571  )
        27           C   tau(  27) = (  -0.0289835   0.8341161   1.3058104  )
        28           C   tau(  28) = (  -0.0078256   1.0744165   0.6012212  )
        29           H   tau(  29) = (   0.8860405   0.4535560   0.0209089  )
        30           H   tau(  30) = (   0.8648826   0.1826216   0.7254981  )
        31           H   tau(  31) = (   0.0716437   0.8187991   1.3882694  )
        32           H   tau(  32) = (   0.0928016   1.0897335   0.6836802  )
        33           H   tau(  33) = (   0.0104008   0.5536477   0.1632907  )
        34           H   tau(  34) = (  -0.0107571   0.0825298   0.8678798  )
        35           H   tau(  35) = (   0.9472834   0.7187074   1.2458876  )
        36           H   tau(  36) = (   0.9684413   1.1898253   0.5412985  )
        37           C   tau(  37) = (   0.9500986   0.3160658   0.2341066  )
        38           C   tau(  38) = (   0.9289407   0.3201117   0.9386958  )
        39           C   tau(  39) = (   0.0075856   0.9562893   1.1750717  )
        40           C   tau(  40) = (   0.0287435   0.9522434   0.4704825  )
        41           O   tau(  41) = (   0.8069481   0.1698588   0.0337468  )
        42           O   tau(  42) = (   0.7857902   0.4663188   0.7383359  )
        43           O   tau(  43) = (   0.1507362   1.1024963   1.3754315  )
        44           O   tau(  44) = (   0.1718941   0.8060363   0.6708424  )
        45           O   tau(  45) = (   0.3009120   0.6504769   0.1136361  )
        46           O   tau(  46) = (   0.2797541   1.2580558   0.8182253  )
        47           O   tau(  47) = (   0.6567723   0.6218782   1.2955421  )
        48           O   tau(  48) = (   0.6779301   0.0142993   0.5909530  )
        49           N   tau(  49) = (   0.8883407   0.1585335   0.1558902  )
        50           N   tau(  50) = (   0.8671829   0.4776440   0.8604793  )
        51           N   tau(  51) = (   0.0693435   1.1138216   1.2532881  )
        52           N   tau(  52) = (   0.0905014   0.7947111   0.5486990  )
        53           C   tau(  53) = (   0.2606931   0.3588040   0.1003053  )
        54           C   tau(  54) = (   0.2395352   0.2773735   0.8048944  )
        55           C   tau(  55) = (   0.6969912   0.9135511   1.3088730  )
        56           C   tau(  56) = (   0.7181491   0.9949816   0.6042838  )
        57           C   tau(  57) = (   0.3248253   0.5194483   0.1725145  )
        58           C   tau(  58) = (   0.3036674   0.1167292   0.8771036  )
        59           C   tau(  59) = (   0.6328589   0.7529068   1.2366638  )
        60           C   tau(  60) = (   0.6540168   1.1556259   0.5320747  )
        61           O   tau(  61) = (   0.9151305   0.0318494   0.2267075  )
        62           O   tau(  62) = (   0.8939726   0.6043282   0.9312966  )
        63           O   tau(  63) = (   0.0425538   1.2405057   1.1824708  )
        64           O   tau(  64) = (   0.0637117   0.6680269   0.4778817  )
        65           C   tau(  65) = (   0.8144930   0.3705862   0.3438676  )
        66           C   tau(  66) = (   0.7933351   0.2655914   1.0484568  )
        67           C   tau(  67) = (   0.1431912   0.9017689   1.0653107  )
        68           C   tau(  68) = (   0.1643491   1.0067637   0.3607215  )
        69           H   tau(  69) = (   0.8503608   0.4811280   0.4050073  )
        70           H   tau(  70) = (   0.8292030   0.1550495   1.1095965  )
        71           H   tau(  71) = (   0.1073234   0.7912270   1.0041710  )
        72           H   tau(  72) = (   0.1284813   1.1173056   0.2995818  )
        73           H   tau(  73) = (   0.7884061   0.2795560   0.4351561  )
        74           H   tau(  74) = (   0.7672482   0.3566215   1.1397452  )
        75           H   tau(  75) = (   0.1692781   0.9927991   0.9740222  )
        76           H   tau(  76) = (   0.1904360   0.9157336   0.2694331  )
        77           H   tau(  77) = (   0.7054893   0.3937728   0.2741428  )
        78           H   tau(  78) = (   0.6843314   0.2424048   0.9787320  )
        79           H   tau(  79) = (   0.2521950   0.8785823   1.1350355  )
        80           H   tau(  80) = (   0.2733529   1.0299503   0.4304463  )
        81           C   tau(  81) = (   0.3437510   0.2902272   1.3967141  )
        82           C   tau(  82) = (   0.3649088   0.3459504   0.6921249  )
        83           C   tau(  83) = (   0.6139333   0.9821279   0.0124642  )
        84           C   tau(  84) = (   0.5927754   0.9264047   0.7170534  )
        85           H   tau(  85) = (   0.2972522   0.1770757   1.3485912  )
        86           H   tau(  86) = (   0.3184101   0.4591018   0.6440020  )
        87           H   tau(  87) = (   0.6604320   1.0952794   0.0605871  )
        88           H   tau(  88) = (   0.6392741   0.8132533   0.7651763  )
        89           H   tau(  89) = (   0.4980957   0.2680904   0.0524669  )
        90           H   tau(  90) = (   0.4769378   0.3680871   0.7570561  )
        91           H   tau(  91) = (   0.4595886   1.0042646   1.3567114  )
        92           H   tau(  92) = (   0.4807465   0.9042680   0.6521222  )
        93           H   tau(  93) = (   0.3670004   0.3739740   1.2983677  )
        94           H   tau(  94) = (   0.3881583   0.2622036   0.5937785  )
        95           H   tau(  95) = (   0.5906838   0.8983811   0.1108106  )
        96           H   tau(  96) = (   0.5695259   1.0101515   0.8153998  )
        97           C   tau(  97) = (   0.4899382   0.6348131   0.3705714  )
        98           C   tau(  98) = (   0.4687803   0.0013644   1.0751606  )
        99           C   tau(  99) = (   0.4677460   0.6375420   1.0386069  )
       100           C   tau( 100) = (   0.4889039   1.2709907   0.3340177  )
       101           H   tau( 101) = (   0.5702821   0.6902227   0.2828396  )
       102           H   tau( 102) = (   0.5491242   1.2183100   0.9874287  )
       103           H   tau( 103) = (   0.3874022   0.5821324   1.1263387  )
       104           H   tau( 104) = (   0.4085600   0.0540451   0.4217496  )
       105           H   tau( 105) = (   0.5572119   0.5936433   0.4749529  )
       106           H   tau( 106) = (   0.5360540   0.0425342   1.1795421  )
       107           H   tau( 107) = (   0.4004723   0.6787118   0.9342254  )
       108           H   tau( 108) = (   0.4216302   1.2298209   0.2296362  )
       109           H   tau( 109) = (   0.3973384   0.7211640   0.4051844  )
       110           H   tau( 110) = (   0.3761805   1.1873686   1.1097735  )
       111           H   tau( 111) = (   0.5603458   0.5511911   1.0039939  )
       112           H   tau( 112) = (   0.5815037   0.0849865   0.2994048  )

     number of k points=     8
                       cart. coord. in units 2pi/alat
        k(    1) = (   0.0000000   0.0000000   0.0000000), wk =   0.2500000
        k(    2) = (   0.0000000   0.0000000  -0.3548167), wk =   0.2500000
        k(    3) = (   0.0000000  -0.3929721   0.0000000), wk =   0.2500000
        k(    4) = (   0.0000000  -0.3929721  -0.3548167), wk =   0.2500000
        k(    5) = (  -0.5000000   0.0000000  -0.0150143), wk =   0.2500000
        k(    6) = (  -0.5000000   0.0000000  -0.3698310), wk =   0.2500000
        k(    7) = (  -0.5000000  -0.3929721  -0.0150143), wk =   0.2500000
        k(    8) = (  -0.5000000  -0.3929721  -0.3698310), wk =   0.2500000

     Dense  grid:   952923 G-vectors     FFT dimensions: ( 108, 128, 144)

     Estimated max dynamical RAM per process >    1021.10MB

     Estimated total allocated dynamical RAM >    8168.78MB

     Check: negative/imaginary core charge=   -0.000002    0.000000

     Initial potential from superposition of free atoms

     starting charge  343.99811, renormalised to  344.00000
     Starting wfc are  292 randomized atomic wfcs
     Checking if some PAW data can be deallocated... 

     total cpu time spent up to now is       63.1 secs

     per-process dynamical memory:   683.7 Mb

     Self-consistent Calculation

     iteration #  1     ecut=   100.00 Ry     beta=0.50
     Davidson diagonalization with overlap
     ethr =  1.00E-02,  avg # of iterations =  4.1

     total cpu time spent up to now is      258.2 secs

     total energy              =   -1761.68764186 Ry
     Harris-Foulkes estimate   =   -1767.37993587 Ry
     estimated scf accuracy    <      10.89145057 Ry

     iteration #  2     ecut=   100.00 Ry     beta=0.50
     Davidson diagonalization with overlap
     ethr =  3.17E-03,  avg # of iterations =  2.0

     total cpu time spent up to now is      361.8 secs

     total energy              =   -1762.82684308 Ry
     Harris-Foulkes estimate   =   -1763.59365467 Ry
     estimated scf accuracy    <       1.64837346 Ry

     iteration #  3     ecut=   100.00 Ry     beta=0.50
     Davidson diagonalization with overlap
     ethr =  4.79E-04,  avg # of iterations =  6.9

     total cpu time spent up to now is      568.7 secs

     total energy              =   -1763.70977839 Ry
     Harris-Foulkes estimate   =   -1764.09655857 Ry
     estimated scf accuracy    <       1.00495419 Ry

     iteration #  4     ecut=   100.00 Ry     beta=0.50
     Davidson diagonalization with overlap
     ethr =  2.92E-04,  avg # of iterations =  1.1

     total cpu time spent up to now is      659.8 secs

     total energy              =   -1763.63085091 Ry
     Harris-Foulkes estimate   =   -1763.78526930 Ry
     estimated scf accuracy    <       0.25869098 Ry

     iteration #  5     ecut=   100.00 Ry     beta=0.50
     Davidson diagonalization with overlap
     ethr =  7.52E-05,  avg # of iterations =  4.8

     total cpu time spent up to now is      870.6 secs

     total energy              =   -1763.80972715 Ry
     Harris-Foulkes estimate   =   -1763.94134397 Ry
     estimated scf accuracy    <       0.42577997 Ry

     iteration #  6     ecut=   100.00 Ry     beta=0.50
     Davidson diagonalization with overlap
     ethr =  7.52E-05,  avg # of iterations =  1.0

     total cpu time spent up to now is      961.4 secs

     total energy              =   -1763.77641874 Ry
     Harris-Foulkes estimate   =   -1763.82461982 Ry
     estimated scf accuracy    <       0.18529500 Ry

     iteration #  7     ecut=   100.00 Ry     beta=0.50
     Davidson diagonalization with overlap
     ethr =  5.39E-05,  avg # of iterations =  3.0

     total cpu time spent up to now is     1074.5 secs

     total energy              =   -1763.80090593 Ry
     Harris-Foulkes estimate   =   -1763.81147816 Ry
     estimated scf accuracy    <       0.01916164 Ry

     iteration #  8     ecut=   100.00 Ry     beta=0.50
     Davidson diagonalization with overlap
     ethr =  5.57E-06,  avg # of iterations =  7.2

     total cpu time spent up to now is     1269.9 secs

     total energy              =   -1763.80935263 Ry
     Harris-Foulkes estimate   =   -1763.81036514 Ry
     estimated scf accuracy    <       0.00256903 Ry

     iteration #  9     ecut=   100.00 Ry     beta=0.50
     Davidson diagonalization with overlap
     ethr =  7.47E-07,  avg # of iterations =  1.2

     total cpu time spent up to now is     1360.5 secs

     total energy              =   -1763.80917090 Ry
     Harris-Foulkes estimate   =   -1763.80949690 Ry
     estimated scf accuracy    <       0.00059222 Ry

     iteration # 10     ecut=   100.00 Ry     beta=0.50
     Davidson diagonalization with overlap
     ethr =  1.72E-07,  avg # of iterations =  4.0

     total cpu time spent up to now is     1546.5 secs

     total energy              =   -1763.80969566 Ry
     Harris-Foulkes estimate   =   -1763.80985030 Ry
     estimated scf accuracy    <       0.00053437 Ry

     iteration # 11     ecut=   100.00 Ry     beta=0.50
     Davidson diagonalization with overlap
     ethr =  1.55E-07,  avg # of iterations =  1.0

     total cpu time spent up to now is     1637.4 secs

     total energy              =   -1763.80956706 Ry
     Harris-Foulkes estimate   =   -1763.80970586 Ry
     estimated scf accuracy    <       0.00025654 Ry

     iteration # 12     ecut=   100.00 Ry     beta=0.50
     Davidson diagonalization with overlap
     ethr =  7.46E-08,  avg # of iterations =  4.0

     total cpu time spent up to now is     1792.1 secs

     total energy              =   -1763.80969806 Ry
     Harris-Foulkes estimate   =   -1763.80970214 Ry
     estimated scf accuracy    <       0.00005330 Ry

     iteration # 13     ecut=   100.00 Ry     beta=0.50
     Davidson diagonalization with overlap
     ethr =  1.55E-08,  avg # of iterations =  1.0

     total cpu time spent up to now is     1883.1 secs

     total energy              =   -1763.80967947 Ry
     Harris-Foulkes estimate   =   -1763.80969904 Ry
     estimated scf accuracy    <       0.00004515 Ry

     iteration # 14     ecut=   100.00 Ry     beta=0.50
     Davidson diagonalization with overlap
     ethr =  1.31E-08,  avg # of iterations =  3.4

     total cpu time spent up to now is     1985.1 secs

     total energy              =   -1763.80968250 Ry
     Harris-Foulkes estimate   =   -1763.80968425 Ry
     estimated scf accuracy    <       0.00000526 Ry

     iteration # 15     ecut=   100.00 Ry     beta=0.50
     Davidson diagonalization with overlap
     ethr =  1.53E-09,  avg # of iterations =  4.0

     total cpu time spent up to now is     2162.5 secs

     total energy              =   -1763.80968631 Ry
     Harris-Foulkes estimate   =   -1763.80968649 Ry
     estimated scf accuracy    <       0.00000045 Ry

     iteration # 16     ecut=   100.00 Ry     beta=0.50
     Davidson diagonalization with overlap
     ethr =  1.32E-10,  avg # of iterations =  1.4

     total cpu time spent up to now is     2253.8 secs

     total energy              =   -1763.80968625 Ry
     Harris-Foulkes estimate   =   -1763.80968634 Ry
     estimated scf accuracy    <       0.00000016 Ry

     iteration # 17     ecut=   100.00 Ry     beta=0.50
     Davidson diagonalization with overlap
     ethr =  4.57E-11,  avg # of iterations =  4.0

     total cpu time spent up to now is     2445.0 secs

     total energy              =   -1763.80968633 Ry
     Harris-Foulkes estimate   =   -1763.80968647 Ry
     estimated scf accuracy    <       0.00000035 Ry

     iteration # 18     ecut=   100.00 Ry     beta=0.50
     Davidson diagonalization with overlap
     ethr =  4.57E-11,  avg # of iterations =  4.6

     total cpu time spent up to now is     2553.5 secs

     total energy              =   -1763.80968633 Ry
     Harris-Foulkes estimate   =   -1763.80968635 Ry
     estimated scf accuracy    <       0.00000006 Ry

     iteration # 19     ecut=   100.00 Ry     beta=0.50
     Davidson diagonalization with overlap
     ethr =  1.75E-11,  avg # of iterations =  4.0

     total cpu time spent up to now is     2709.5 secs

     End of self-consistent calculation

          k = 0.0000 0.0000 0.0000 (119119 PWs)   bands (ev):

   -24.7907 -24.7900 -24.7831 -24.7828 -21.8395 -21.8354 -21.8325 -21.8322
   -20.9836 -20.9811 -20.9779 -20.9748 -20.4064 -20.4058 -20.3988 -20.3987
   -19.5675 -19.5674 -19.5624 -19.5549 -19.1512 -19.1490 -19.1440 -19.1370
   -15.1810 -15.1602 -15.1544 -15.1500 -13.1870 -13.1812 -13.1598 -13.1353
   -12.0328 -11.9881 -11.9641 -11.9578 -11.1611 -11.0951 -11.0359 -11.0269
   -11.0192 -11.0113 -10.9669 -10.9435 -10.7666 -10.7518 -10.7407 -10.7154
    -9.5853  -9.5814  -9.4701  -9.4151  -8.4147  -8.4141  -8.3989  -8.3361
    -7.9424  -7.9208  -7.7814  -7.7633  -7.4482  -7.3922  -7.2994  -7.2652
    -7.1586  -7.0624  -7.0391  -6.9922  -6.9004  -6.8689  -6.8454  -6.8370
    -6.6287  -6.5634  -6.4937  -6.4848  -6.2695  -6.2017  -6.0916  -6.0743
    -5.8965  -5.8917  -5.8451  -5.7135  -5.5961  -5.5363  -5.5292  -5.5238
    -5.1845  -5.1112  -5.0894  -5.0851  -5.0047  -4.9710  -4.9589  -4.9213
    -4.6150  -4.5853  -4.5319  -4.5159  -4.4849  -4.4486  -4.2795  -4.2730
    -4.1730  -4.0866  -3.9959  -3.9420  -3.8457  -3.7314  -3.7044  -3.6850
    -3.5364  -3.4691  -3.4474  -3.4026  -3.3985  -3.3563  -3.3145  -3.2701
    -3.2487  -3.2337  -3.1797  -3.1764  -3.1713  -3.1651  -3.1348  -3.1289
    -3.0603  -3.0509  -3.0180  -3.0159  -2.6898  -2.6230  -2.5855  -2.5675
    -2.0738  -2.0651  -2.0135  -2.0026  -1.8519  -1.8028  -1.7888  -1.6883
    -1.6828  -1.6214  -1.5994  -1.5894  -1.3698  -1.3403  -1.3131  -1.2985
    -1.2639  -1.1850  -1.1427  -1.1399  -1.0412  -0.9841  -0.9795  -0.9161
    -0.7671  -0.7370  -0.7279  -0.6863  -0.3758  -0.2583  -0.1812  -0.1539
    -0.0233   0.0749   0.0779   0.1097   2.8797   3.0494   3.0811   3.0976
     4.6004   4.6876   4.7745   4.8201   5.9932   6.4552   6.6685   6.7861
     6.7997   6.8902   7.1172   7.1858   7.3125   7.3617   7.3706   7.3779
     7.4287   7.4327   7.5676   7.6444   7.7524   7.7602   7.7926   7.8759
     7.9351   8.0111   8.0134   8.0600   8.1293   8.2017

          k = 0.0000 0.0000-0.3548 (119070 PWs)   bands (ev):

   -24.7904 -24.7904 -24.7829 -24.7829 -21.8377 -21.8377 -21.8321 -21.8321
   -20.9808 -20.9808 -20.9780 -20.9780 -20.4061 -20.4061 -20.3987 -20.3987
   -19.5678 -19.5678 -19.5582 -19.5582 -19.1480 -19.1480 -19.1427 -19.1427
   -15.1714 -15.1714 -15.1514 -15.1514 -13.1751 -13.1751 -13.1571 -13.1571
   -12.0105 -12.0105 -11.9596 -11.9596 -11.1315 -11.1315 -11.0275 -11.0275
   -10.9959 -10.9959 -10.9765 -10.9765 -10.7602 -10.7602 -10.7268 -10.7268
    -9.5833  -9.5833  -9.4416  -9.4416  -8.4128  -8.4128  -8.3709  -8.3709
    -7.9333  -7.9333  -7.7688  -7.7688  -7.4211  -7.4211  -7.2799  -7.2799
    -7.1169  -7.1169  -7.0113  -7.0113  -6.8719  -6.8719  -6.8594  -6.8594
    -6.5990  -6.5990  -6.4800  -6.4800  -6.2079  -6.2079  -6.1397  -6.1397
    -5.8896  -5.8896  -5.7854  -5.7854  -5.5664  -5.5664  -5.5247  -5.5247
    -5.1186  -5.1186  -5.0507  -5.0507  -4.9789  -4.9789  -4.9573  -4.9573
    -4.5904  -4.5904  -4.5495  -4.5495  -4.4722  -4.4722  -4.2756  -4.2756
    -4.0740  -4.0740  -4.0123  -4.0123  -3.7880  -3.7880  -3.6952  -3.6952
    -3.4909  -3.4909  -3.4581  -3.4581  -3.3924  -3.3924  -3.2543  -3.2543
    -3.2367  -3.2367  -3.2002  -3.2002  -3.1804  -3.1804  -3.1381  -3.1381
    -3.0699  -3.0699  -3.0172  -3.0172  -2.6661  -2.6661  -2.5695  -2.5695
    -2.0726  -2.0726  -1.9968  -1.9968  -1.8226  -1.8226  -1.7478  -1.7478
    -1.6386  -1.6386  -1.5766  -1.5766  -1.3479  -1.3479  -1.3061  -1.3061
    -1.2401  -1.2401  -1.1325  -1.1325  -1.0165  -1.0165  -0.9463  -0.9463
    -0.7492  -0.7492  -0.7050  -0.7050  -0.3281  -0.3281  -0.1675  -0.1675
     0.0194   0.0194   0.1068   0.1068   2.9494   2.9494   3.1034   3.1034
     4.6449   4.6449   4.7957   4.7957   6.2031   6.2031   6.6195   6.6195
     6.9419   6.9419   7.0452   7.0452   7.2773   7.2773   7.4900   7.4900
     7.5783   7.5783   7.6183   7.6183   7.8066   7.8066   7.8451   7.8451
     7.8742   7.8742   8.0974   8.0974   8.2019   8.2020

          k = 0.0000-0.3930 0.0000 (119072 PWs)   bands (ev):

   -24.7904 -24.7904 -24.7829 -24.7829 -21.8377 -21.8377 -21.8321 -21.8321
   -20.9824 -20.9824 -20.9763 -20.9763 -20.4062 -20.4062 -20.3986 -20.3986
   -19.5678 -19.5678 -19.5584 -19.5584 -19.1503 -19.1503 -19.1403 -19.1403
   -15.1678 -15.1678 -15.1551 -15.1551 -13.1841 -13.1841 -13.1477 -13.1477
   -12.0032 -12.0032 -11.9686 -11.9686 -11.0916 -11.0916 -11.0381 -11.0381
   -11.0233 -11.0233 -10.9740 -10.9740 -10.7513 -10.7513 -10.7453 -10.7453
    -9.5313  -9.5313  -9.4983  -9.4983  -8.3865  -8.3865  -8.3671  -8.3671
    -7.8783  -7.8783  -7.8471  -7.8471  -7.3684  -7.3684  -7.3424  -7.3424
    -7.0953  -7.0953  -7.0247  -7.0247  -6.8934  -6.8934  -6.8414  -6.8414
    -6.5531  -6.5531  -6.5258  -6.5258  -6.2384  -6.2384  -6.0908  -6.0908
    -5.8736  -5.8736  -5.7755  -5.7755  -5.5798  -5.5798  -5.5155  -5.5155
    -5.1420  -5.1420  -5.0413  -5.0413  -5.0199  -5.0199  -4.9680  -4.9680
    -4.6041  -4.6041  -4.5257  -4.5257  -4.4344  -4.4344  -4.3248  -4.3248
    -4.1050  -4.1050  -3.9800  -3.9800  -3.7769  -3.7769  -3.7012  -3.7012
    -3.4977  -3.4977  -3.4287  -3.4287  -3.3725  -3.3725  -3.2848  -3.2848
    -3.2479  -3.2479  -3.1831  -3.1831  -3.1583  -3.1583  -3.1366  -3.1366
    -3.0633  -3.0633  -3.0077  -3.0077  -2.6412  -2.6412  -2.5967  -2.5967
    -2.0494  -2.0494  -2.0286  -2.0286  -1.8184  -1.8184  -1.7111  -1.7111
    -1.6802  -1.6802  -1.6109  -1.6109  -1.3510  -1.3510  -1.3050  -1.3050
    -1.2280  -1.2280  -1.1620  -1.1620  -0.9972  -0.9972  -0.9049  -0.9049
    -0.7694  -0.7694  -0.7252  -0.7252  -0.2994  -0.2994  -0.1807  -0.1807
     0.0261   0.0261   0.1032   0.1032   2.9574   2.9574   3.0973   3.0973
     4.6332   4.6332   4.8052   4.8052   6.1289   6.1289   6.8008   6.8008
     6.9705   6.9705   7.1144   7.1144   7.2214   7.2214   7.3077   7.3077
     7.4848   7.4848   7.5588   7.5588   7.6638   7.6638   7.7515   7.7515
     8.0394   8.0394   8.2199   8.2200   8.3243   8.3243

          k = 0.0000-0.3930-0.3548 (119116 PWs)   bands (ev):

   -24.7904 -24.7904 -24.7829 -24.7829 -21.8375 -21.8375 -21.8323 -21.8323
   -20.9798 -20.9798 -20.9789 -20.9789 -20.4062 -20.4062 -20.3987 -20.3987
   -19.5674 -19.5674 -19.5587 -19.5587 -19.1468 -19.1468 -19.1439 -19.1439
   -15.1622 -15.1622 -15.1608 -15.1608 -13.1679 -13.1679 -13.1645 -13.1645
   -11.9945 -11.9945 -11.9761 -11.9761 -11.0647 -11.0647 -11.0620 -11.0620
   -11.0207 -11.0207 -10.9808 -10.9808 -10.7513 -10.7513 -10.7455 -10.7455
    -9.5233  -9.5233  -9.5055  -9.5055  -8.3814  -8.3814  -8.3718  -8.3718
    -7.8816  -7.8816  -7.8447  -7.8447  -7.3682  -7.3682  -7.3400  -7.3400
    -7.0944  -7.0944  -7.0234  -7.0234  -6.8777  -6.8777  -6.8656  -6.8656
    -6.5506  -6.5506  -6.5254  -6.5254  -6.1787  -6.1787  -6.1743  -6.1743
    -5.8801  -5.8801  -5.7770  -5.7770  -5.5563  -5.5563  -5.5244  -5.5244
    -5.0997  -5.0997  -5.0586  -5.0586  -5.0145  -5.0145  -4.9547  -4.9547
    -4.5889  -4.5889  -4.5550  -4.5550  -4.4365  -4.4365  -4.3129  -4.3129
    -4.0374  -4.0374  -4.0314  -4.0314  -3.7535  -3.7535  -3.7442  -3.7442
    -3.5151  -3.5151  -3.4429  -3.4429  -3.3284  -3.3284  -3.2933  -3.2933
    -3.2409  -3.2409  -3.2021  -3.2021  -3.1778  -3.1778  -3.1537  -3.1537
    -3.0517  -3.0517  -3.0208  -3.0208  -2.6389  -2.6389  -2.6040  -2.6040
    -2.0391  -2.0391  -2.0271  -2.0271  -1.8078  -1.8078  -1.7171  -1.7171
    -1.6643  -1.6643  -1.6092  -1.6092  -1.3456  -1.3456  -1.3124  -1.3124
    -1.2145  -1.2145  -1.1774  -1.1774  -0.9724  -0.9724  -0.9223  -0.9223
    -0.7477  -0.7477  -0.7419  -0.7419  -0.3016  -0.3016  -0.1933  -0.1933
     0.0597   0.0597   0.0779   0.0779   2.9672   2.9672   3.0866   3.0866
     4.6433   4.6433   4.7939   4.7939   6.2989   6.2989   6.3839   6.3839
     7.1039   7.1039   7.1047   7.1047   7.2685   7.2685   7.3946   7.3946
     7.5385   7.5385   7.5491   7.5491   7.6677   7.6677   7.8223   7.8223
     8.0341   8.0341   8.1512   8.1512   8.3620   8.3622

          k =-0.5000 0.0000-0.0150 (119154 PWs)   bands (ev):

   -24.7907 -24.7900 -24.7831 -24.7828 -21.8383 -21.8343 -21.8334 -21.8331
   -20.9844 -20.9809 -20.9783 -20.9750 -20.4065 -20.4059 -20.3988 -20.3987
   -19.5688 -19.5615 -19.5612 -19.5608 -19.1541 -19.1457 -19.1406 -19.1402
   -15.1778 -15.1572 -15.1517 -15.1491 -13.2194 -13.1893 -13.1613 -13.1609
   -12.0046 -11.9488 -11.9483 -11.9342 -11.1534 -11.0935 -11.0201 -11.0198
   -11.0196 -11.0191 -10.9667 -10.9331 -10.7836 -10.7567 -10.7421 -10.7277
    -9.6155  -9.5895  -9.5003  -9.4423  -8.4475  -8.4129  -8.3352  -8.3317
    -7.9833  -7.9809  -7.7610  -7.7233  -7.4148  -7.3729  -7.3332  -7.3157
    -7.1048  -7.0205  -7.0090  -6.9787  -6.8736  -6.8688  -6.8523  -6.8179
    -6.6401  -6.5741  -6.5235  -6.4991  -6.2482  -6.1906  -6.1183  -6.0408
    -5.9546  -5.9485  -5.8959  -5.8951  -5.5872  -5.5039  -5.4938  -5.4761
    -5.2049  -5.1068  -5.0257  -5.0199  -4.9938  -4.9205  -4.9119  -4.9008
    -4.6168  -4.5780  -4.5572  -4.4991  -4.4458  -4.4220  -4.3928  -4.2786
    -4.1043  -4.0943  -3.9325  -3.8970  -3.8419  -3.7598  -3.7412  -3.7379
    -3.5512  -3.4647  -3.4540  -3.4534  -3.3819  -3.3505  -3.3172  -3.2986
    -3.2914  -3.2564  -3.2484  -3.1851  -3.1743  -3.1621  -3.1219  -3.1154
    -3.0478  -3.0330  -3.0239  -3.0006  -2.6171  -2.6052  -2.5561  -2.5529
    -2.1045  -2.0757  -2.0700  -2.0116  -1.8537  -1.7996  -1.7483  -1.6970
    -1.6724  -1.6435  -1.6200  -1.6114  -1.3436  -1.3333  -1.3024  -1.2827
    -1.2524  -1.1774  -1.1500  -1.1302  -1.0400  -0.9749  -0.9373  -0.8996
    -0.7789  -0.7502  -0.7339  -0.6961  -0.3347  -0.2251  -0.2000  -0.1837
    -0.0397   0.0632   0.0724   0.0996   2.8831   3.0514   3.0696   3.0945
     4.6593   4.7176   4.7228   4.7440   6.0391   6.4425   6.5886   6.6418
     6.6862   6.8011   6.8655   6.9758   7.1448   7.3657   7.4121   7.4641
     7.4712   7.5784   7.6406   7.6603   7.9137   7.9478   7.9590   7.9955
     8.0918   8.1000   8.1643   8.2145   8.2551   8.3149

          k =-0.5000 0.0000-0.3698 (119116 PWs)   bands (ev):

   -24.7904 -24.7904 -24.7829 -24.7829 -21.8366 -21.8366 -21.8329 -21.8329
   -20.9814 -20.9814 -20.9779 -20.9779 -20.4062 -20.4062 -20.3988 -20.3988
   -19.5657 -19.5657 -19.5604 -19.5604 -19.1481 -19.1481 -19.1422 -19.1422
   -15.1686 -15.1686 -15.1495 -15.1495 -13.1940 -13.1940 -13.1723 -13.1723
   -11.9755 -11.9755 -11.9412 -11.9412 -11.1251 -11.1251 -11.0256 -11.0256
   -10.9946 -10.9946 -10.9679 -10.9679 -10.7700 -10.7700 -10.7349 -10.7349
    -9.6030  -9.6030  -9.4722  -9.4722  -8.4289  -8.4289  -8.3315  -8.3315
    -7.9853  -7.9853  -7.7384  -7.7384  -7.4069  -7.4069  -7.3113  -7.3113
    -7.0648  -7.0648  -6.9931  -6.9931  -6.8718  -6.8718  -6.8420  -6.8420
    -6.6136  -6.6136  -6.4979  -6.4979  -6.2012  -6.2012  -6.1276  -6.1276
    -5.9283  -5.9283  -5.9104  -5.9104  -5.5287  -5.5287  -5.5034  -5.5034
    -5.1059  -5.1059  -5.0132  -5.0132  -4.9942  -4.9942  -4.8968  -4.8968
    -4.6020  -4.6020  -4.5183  -4.5183  -4.4452  -4.4452  -4.3164  -4.3164
    -4.0316  -4.0316  -3.9890  -3.9890  -3.7983  -3.7983  -3.7320  -3.7320
    -3.4991  -3.4991  -3.4261  -3.4261  -3.3879  -3.3879  -3.3412  -3.3412
    -3.3082  -3.3082  -3.2111  -3.2111  -3.1754  -3.1754  -3.1391  -3.1391
    -3.0405  -3.0405  -2.9928  -2.9928  -2.6132  -2.6132  -2.5574  -2.5574
    -2.0901  -2.0901  -2.0313  -2.0313  -1.8180  -1.8180  -1.7251  -1.7251
    -1.6479  -1.6479  -1.6036  -1.6036  -1.3290  -1.3290  -1.3001  -1.3001
    -1.2276  -1.2276  -1.1259  -1.1259  -1.0105  -1.0105  -0.9187  -0.9187
    -0.7597  -0.7597  -0.7162  -0.7162  -0.2858  -0.2858  -0.1954  -0.1954
     0.0078   0.0078   0.0951   0.0951   2.9486   2.9486   3.1000   3.1000
     4.6977   4.6977   4.7242   4.7242   6.1810   6.1810   6.5970   6.5970
     6.7502   6.7502   7.0000   7.0000   7.1839   7.1839   7.4678   7.4678
     7.5772   7.5772   7.7195   7.7195   7.8490   7.8490   7.9580   7.9580
     8.0640   8.0640   8.1704   8.1704   8.2849   8.2849

          k =-0.5000-0.3930-0.0150 (119176 PWs)   bands (ev):

   -24.7904 -24.7904 -24.7829 -24.7829 -21.8362 -21.8362 -21.8334 -21.8334
   -20.9827 -20.9827 -20.9766 -20.9766 -20.4063 -20.4063 -20.3987 -20.3987
   -19.5656 -19.5656 -19.5606 -19.5606 -19.1504 -19.1504 -19.1398 -19.1398
   -15.1649 -15.1649 -15.1532 -15.1532 -13.2074 -13.2074 -13.1579 -13.1579
   -11.9810 -11.9810 -11.9380 -11.9380 -11.0842 -11.0842 -11.0291 -11.0291
   -11.0286 -11.0286 -10.9651 -10.9651 -10.7639 -10.7639 -10.7522 -10.7522
    -9.5651  -9.5651  -9.5136  -9.5136  -8.3859  -8.3859  -8.3593  -8.3593
    -7.8910  -7.8910  -7.8417  -7.8417  -7.3862  -7.3862  -7.3451  -7.3451
    -7.0410  -7.0410  -6.9964  -6.9964  -6.8962  -6.8962  -6.8301  -6.8301
    -6.5656  -6.5656  -6.5459  -6.5459  -6.2178  -6.2178  -6.0808  -6.0808
    -5.9497  -5.9497  -5.8845  -5.8845  -5.5411  -5.5411  -5.4921  -5.4921
    -5.1130  -5.1130  -5.0368  -5.0368  -4.9669  -4.9669  -4.9562  -4.9562
    -4.5795  -4.5795  -4.5402  -4.5402  -4.4353  -4.4353  -4.3126  -4.3126
    -4.1091  -4.1091  -3.9131  -3.9131  -3.8068  -3.8068  -3.7128  -3.7128
    -3.5416  -3.5416  -3.3895  -3.3895  -3.3691  -3.3691  -3.3091  -3.3091
    -3.2849  -3.2849  -3.2301  -3.2301  -3.1677  -3.1677  -3.1474  -3.1474
    -3.0415  -3.0415  -3.0050  -3.0050  -2.6096  -2.6096  -2.5541  -2.5541
    -2.0788  -2.0788  -2.0520  -2.0520  -1.8183  -1.8183  -1.7132  -1.7132
    -1.6708  -1.6708  -1.6207  -1.6207  -1.3331  -1.3331  -1.2912  -1.2912
    -1.2253  -1.2253  -1.1639  -1.1639  -0.9736  -0.9736  -0.8978  -0.8978
    -0.7711  -0.7711  -0.7261  -0.7261  -0.3085  -0.3085  -0.1708  -0.1708
     0.0171   0.0171   0.0891   0.0891   2.9599   2.9599   3.0885   3.0885
     4.6668   4.6668   4.7487   4.7487   6.2133   6.2133   6.6141   6.6141
     6.7874   6.7874   7.0552   7.0552   7.1918   7.1918   7.3038   7.3038
     7.3557   7.3557   7.8071   7.8071   7.9074   7.9074   7.9616   7.9616
     8.0314   8.0314   8.1828   8.1828   8.3306   8.3628

          k =-0.5000-0.3930-0.3698 (119100 PWs)   bands (ev):

   -24.7904 -24.7904 -24.7829 -24.7829 -21.8358 -21.8358 -21.8338 -21.8338
   -20.9800 -20.9800 -20.9793 -20.9793 -20.4063 -20.4063 -20.3987 -20.3987
   -19.5646 -19.5646 -19.5614 -19.5614 -19.1475 -19.1475 -19.1428 -19.1428
   -15.1593 -15.1593 -15.1589 -15.1589 -13.1957 -13.1957 -13.1706 -13.1706
   -11.9683 -11.9683 -11.9494 -11.9494 -11.0606 -11.0606 -11.0553 -11.0553
   -11.0165 -11.0165 -10.9749 -10.9749 -10.7601 -10.7601 -10.7563 -10.7563
    -9.5565  -9.5565  -9.5232  -9.5232  -8.3853  -8.3853  -8.3570  -8.3570
    -7.8823  -7.8823  -7.8512  -7.8512  -7.3977  -7.3977  -7.3326  -7.3326
    -7.0402  -7.0402  -6.9955  -6.9955  -6.8862  -6.8862  -6.8494  -6.8494
    -6.5660  -6.5660  -6.5408  -6.5408  -6.1819  -6.1819  -6.1412  -6.1412
    -5.9347  -5.9347  -5.9029  -5.9029  -5.5212  -5.5212  -5.4954  -5.4954
    -5.0813  -5.0813  -5.0483  -5.0483  -4.9690  -4.9690  -4.9401  -4.9401
    -4.5678  -4.5678  -4.5573  -4.5573  -4.4087  -4.4087  -4.3404  -4.3404
    -4.0329  -4.0329  -3.9867  -3.9867  -3.7631  -3.7631  -3.7570  -3.7570
    -3.4970  -3.4970  -3.4529  -3.4529  -3.3579  -3.3579  -3.3574  -3.3574
    -3.2860  -3.2860  -3.2376  -3.2376  -3.1422  -3.1422  -3.1341  -3.1341
    -3.0326  -3.0326  -3.0323  -3.0323  -2.6085  -2.6085  -2.5617  -2.5617
    -2.0771  -2.0771  -2.0420  -2.0420  -1.8087  -1.8087  -1.7120  -1.7120
    -1.6669  -1.6669  -1.6135  -1.6135  -1.3332  -1.3332  -1.2888  -1.2888
    -1.2199  -1.2199  -1.1713  -1.1713  -0.9536  -0.9536  -0.9123  -0.9123
    -0.7515  -0.7515  -0.7425  -0.7425  -0.3097  -0.3097  -0.1796  -0.1796
     0.0423   0.0423   0.0676   0.0676   2.9674   2.9674   3.0803   3.0803
     4.6854   4.6854   4.7312   4.7312   6.3326   6.3326   6.4132   6.4132
     6.7254   6.7254   6.9581   6.9581   7.3309   7.3309   7.3930   7.3930
     7.5270   7.5270   7.6619   7.6619   7.9659   7.9659   8.0135   8.0135
     8.0682   8.0682   8.1053   8.1053   8.3184   8.3500

     highest occupied, lowest unoccupied level (ev):     0.1097    2.8797

!    total energy              =   -1763.80968637 Ry
     Harris-Foulkes estimate   =   -1763.80968637 Ry
     estimated scf accuracy    <          1.9E-09 Ry

     total all-electron energy =     -6549.781329 Ry

     The total energy is the sum of the following terms:

     one-electron contribution =   -1152.09185171 Ry
     hartree contribution      =     706.69710760 Ry
     xc contribution           =    -368.82986925 Ry
     ewald contribution        =    -474.72545683 Ry
     Dispersion Correction     =      -0.47234623 Ry
     one-center paw contrib.   =    -474.38726995 Ry

     convergence has been achieved in  19 iterations

     Forces acting on atoms (cartesian axes, Ry/au):

     atom    1 type  4   force =    -0.00021690    0.00005970    0.00031124
     atom    2 type  4   force =    -0.00021690   -0.00005970    0.00031124
     atom    3 type  4   force =     0.00021690   -0.00005970   -0.00031124
     atom    4 type  4   force =     0.00021690    0.00005970   -0.00031124
     atom    5 type  4   force =     0.00073386    0.00052503   -0.00036083
     atom    6 type  4   force =     0.00073386   -0.00052503   -0.00036083
     atom    7 type  4   force =    -0.00073386   -0.00052503    0.00036083
     atom    8 type  4   force =    -0.00073386    0.00052503    0.00036083
     atom    9 type  4   force =    -0.00061991    0.00045426    0.00065854
     atom   10 type  4   force =    -0.00061991   -0.00045426    0.00065854
     atom   11 type  4   force =     0.00061991   -0.00045426   -0.00065854
     atom   12 type  4   force =     0.00061991    0.00045426   -0.00065854
     atom   13 type  1   force =    -0.00027046   -0.00047101   -0.00061853
     atom   14 type  1   force =    -0.00027046    0.00047101   -0.00061853
     atom   15 type  1   force =     0.00027046    0.00047101    0.00061853
     atom   16 type  1   force =     0.00027046   -0.00047101    0.00061853
     atom   17 type  3   force =     0.00018189   -0.00015412   -0.00025887
     atom   18 type  3   force =     0.00018189    0.00015412   -0.00025887
     atom   19 type  3   force =    -0.00018189    0.00015412    0.00025887
     atom   20 type  3   force =    -0.00018189   -0.00015412    0.00025887
     atom   21 type  3   force =     0.00021103    0.00026705   -0.00056409
     atom   22 type  3   force =     0.00021103   -0.00026705   -0.00056409
     atom   23 type  3   force =    -0.00021103   -0.00026705    0.00056409
     atom   24 type  3   force =    -0.00021103    0.00026705    0.00056409
     atom   25 type  1   force =    -0.00012860   -0.00076531   -0.00003288
     atom   26 type  1   force =    -0.00012860    0.00076531   -0.00003288
     atom   27 type  1   force =     0.00012860    0.00076531    0.00003288
     atom   28 type  1   force =     0.00012860   -0.00076531    0.00003288
     atom   29 type  3   force =     0.00036537    0.00014875    0.00077572
     atom   30 type  3   force =     0.00036537   -0.00014875    0.00077572
     atom   31 type  3   force =    -0.00036537   -0.00014875   -0.00077572
     atom   32 type  3   force =    -0.00036537    0.00014875   -0.00077572
     atom   33 type  3   force =     0.00053185   -0.00033619   -0.00002699
     atom   34 type  3   force =     0.00053185    0.00033619   -0.00002699
     atom   35 type  3   force =    -0.00053185    0.00033619    0.00002699
     atom   36 type  3   force =    -0.00053185   -0.00033619    0.00002699
     atom   37 type  1   force =    -0.00047616    0.00033949    0.00101548
     atom   38 type  1   force =    -0.00047616   -0.00033949    0.00101548
     atom   39 type  1   force =     0.00047616   -0.00033949   -0.00101548
     atom   40 type  1   force =     0.00047616    0.00033949   -0.00101548
     atom   41 type  4   force =    -0.00020783    0.00003246    0.00085715
     atom   42 type  4   force =    -0.00020783   -0.00003246    0.00085715
     atom   43 type  4   force =     0.00020783   -0.00003246   -0.00085715
     atom   44 type  4   force =     0.00020783    0.00003246   -0.00085715
     atom   45 type  4   force =     0.00104311   -0.00069106    0.00028797
     atom   46 type  4   force =     0.00104311    0.00069106    0.00028797
     atom   47 type  4   force =    -0.00104311    0.00069106   -0.00028797
     atom   48 type  4   force =    -0.00104311   -0.00069106   -0.00028797
     atom   49 type  2   force =    -0.00069291   -0.00045444    0.00050356
     atom   50 type  2   force =    -0.00069291    0.00045444    0.00050356
     atom   51 type  2   force =     0.00069291    0.00045444   -0.00050356
     atom   52 type  2   force =     0.00069291   -0.00045444   -0.00050356
     atom   53 type  1   force =    -0.00082352   -0.00033982    0.00015910
     atom   54 type  1   force =    -0.00082352    0.00033982    0.00015910
     atom   55 type  1   force =     0.00082352    0.00033982   -0.00015910
     atom   56 type  1   force =     0.00082352   -0.00033982   -0.00015910
     atom   57 type  1   force =    -0.00022454    0.00037584    0.00055670
     atom   58 type  1   force =    -0.00022454   -0.00037584    0.00055670
     atom   59 type  1   force =     0.00022454   -0.00037584   -0.00055670
     atom   60 type  1   force =     0.00022454    0.00037584   -0.00055670
     atom   61 type  4   force =    -0.00076688    0.00094130   -0.00029936
     atom   62 type  4   force =    -0.00076688   -0.00094130   -0.00029936
     atom   63 type  4   force =     0.00076688   -0.00094130    0.00029936
     atom   64 type  4   force =     0.00076688    0.00094130    0.00029936
     atom   65 type  1   force =     0.00019679   -0.00000122   -0.00015265
     atom   66 type  1   force =     0.00019679    0.00000122   -0.00015265
     atom   67 type  1   force =    -0.00019679    0.00000122    0.00015265
     atom   68 type  1   force =    -0.00019679   -0.00000122    0.00015265
     atom   69 type  3   force =     0.00049289   -0.00017837   -0.00007466
     atom   70 type  3   force =     0.00049289    0.00017837   -0.00007466
     atom   71 type  3   force =    -0.00049289    0.00017837    0.00007466
     atom   72 type  3   force =    -0.00049289   -0.00017837    0.00007466
     atom   73 type  3   force =     0.00056295   -0.00021335   -0.00019628
     atom   74 type  3   force =     0.00056295    0.00021335   -0.00019628
     atom   75 type  3   force =    -0.00056295    0.00021335    0.00019628
     atom   76 type  3   force =    -0.00056295   -0.00021335    0.00019628
     atom   77 type  3   force =     0.00058500   -0.00013065   -0.00047407
     atom   78 type  3   force =     0.00058500    0.00013065   -0.00047407
     atom   79 type  3   force =    -0.00058500    0.00013065    0.00047407
     atom   80 type  3   force =    -0.00058500   -0.00013065    0.00047407
     atom   81 type  1   force =    -0.00077443    0.00028398    0.00084000
     atom   82 type  1   force =    -0.00077443   -0.00028398    0.00084000
     atom   83 type  1   force =     0.00077443   -0.00028398   -0.00084000
     atom   84 type  1   force =     0.00077443    0.00028398   -0.00084000
     atom   85 type  3   force =    -0.00021586    0.00071509    0.00007118
     atom   86 type  3   force =    -0.00021586   -0.00071509    0.00007118
     atom   87 type  3   force =     0.00021586   -0.00071509   -0.00007118
     atom   88 type  3   force =     0.00021586    0.00071509   -0.00007118
     atom   89 type  3   force =    -0.00048838    0.00002237   -0.00073826
     atom   90 type  3   force =    -0.00048838   -0.00002237   -0.00073826
     atom   91 type  3   force =     0.00048838   -0.00002237    0.00073826
     atom   92 type  3   force =     0.00048838    0.00002237    0.00073826
     atom   93 type  3   force =     0.00027606   -0.00029544    0.00048828
     atom   94 type  3   force =     0.00027606    0.00029544    0.00048828
     atom   95 type  3   force =    -0.00027606    0.00029544   -0.00048828
     atom   96 type  3   force =    -0.00027606   -0.00029544   -0.00048828
     atom   97 type  1   force =     0.00023729   -0.00023804    0.00004271
     atom   98 type  1   force =     0.00023729    0.00023804    0.00004271
     atom   99 type  1   force =    -0.00023729    0.00023804   -0.00004271
     atom  100 type  1   force =    -0.00023729   -0.00023804   -0.00004271
     atom  101 type  3   force =     0.00025463   -0.00003870    0.00046122
     atom  102 type  3   force =     0.00025463    0.00003870    0.00046122
     atom  103 type  3   force =    -0.00025463    0.00003870   -0.00046122
     atom  104 type  3   force =    -0.00025463   -0.00003870   -0.00046122
     atom  105 type  3   force =     0.00005702   -0.00020912   -0.00030134
     atom  106 type  3   force =     0.00005702    0.00020912   -0.00030134
     atom  107 type  3   force =    -0.00005702    0.00020912    0.00030134
     atom  108 type  3   force =    -0.00005702   -0.00020912    0.00030134
     atom  109 type  3   force =     0.00031483    0.00006470    0.00028388
     atom  110 type  3   force =     0.00031483   -0.00006470    0.00028388
     atom  111 type  3   force =    -0.00031483   -0.00006470   -0.00028388
     atom  112 type  3   force =    -0.00031483    0.00006470   -0.00028388

     Total force =     0.008465     Total SCF correction =     0.000088


     Computing stress (Cartesian axis) and pressure

          total   stress  (Ry/bohr**3)                   (kbar)     P=   -5.88
  -0.00004111   0.00000000   0.00000777         -6.05      0.00      1.14
   0.00000000  -0.00003474   0.00000000          0.00     -5.11      0.00
   0.00000777   0.00000000  -0.00004407          1.14      0.00     -6.48


     Writing output data file scf.save
 
     init_run     :     60.24s CPU     62.43s WALL (       1 calls)
     electrons    :   2549.05s CPU   2646.50s WALL (       1 calls)
     forces       :     32.00s CPU     32.25s WALL (       1 calls)
     stress       :    138.93s CPU    139.34s WALL (       1 calls)

     Called by init_run:
     wfcinit      :     48.74s CPU     50.80s WALL (       1 calls)
     potinit      :      4.09s CPU      4.12s WALL (       1 calls)

     Called by electrons:
     c_bands      :   2309.28s CPU   2392.30s WALL (      19 calls)
     sum_band     :    220.45s CPU    232.91s WALL (      19 calls)
     v_of_rho     :      2.64s CPU      2.89s WALL (      20 calls)
     newd         :      7.08s CPU      8.76s WALL (      20 calls)
     PAW_pot      :      8.87s CPU      8.87s WALL (      20 calls)
     mix_rho      :      0.66s CPU      0.74s WALL (      19 calls)

     Called by c_bands:
     init_us_2    :     11.32s CPU     11.46s WALL (     328 calls)
     cegterg      :   2266.08s CPU   2348.75s WALL (     152 calls)

     Called by sum_band:
     sum_band:bec :      0.12s CPU      0.12s WALL (     152 calls)
     addusdens    :      7.11s CPU      8.74s WALL (      19 calls)

     Called by *egterg:
     h_psi        :   1166.46s CPU   1231.12s WALL (     662 calls)
     s_psi        :    286.88s CPU    286.97s WALL (     662 calls)
     g_psi        :      5.68s CPU      5.68s WALL (     502 calls)
     cdiaghg      :    125.62s CPU    125.67s WALL (     654 calls)

     Called by h_psi:
     h_psi:pot    :   1157.94s CPU   1222.41s WALL (     662 calls)
     h_psi:calbec :    277.30s CPU    277.90s WALL (     662 calls)
     vloc_psi     :    593.24s CPU    657.00s WALL (     662 calls)
     add_vuspsi   :    287.39s CPU    287.50s WALL (     662 calls)

     General routines
     calbec       :    397.22s CPU    398.03s WALL (     854 calls)
     fft          :      1.69s CPU      2.08s WALL (     284 calls)
     fftw         :    626.12s CPU    699.00s WALL (  212526 calls)
 
     Parallel routines
     fft_scatter  :    132.13s CPU    199.29s WALL (  212810 calls)
 
     PWSCF        : 46m34.08s CPU    49m 6.78s WALL

 
   This run was terminated on:   6:30:25  18Dec2017            

=------------------------------------------------------------------------------=
   JOB DONE.
=------------------------------------------------------------------------------=
