
     Program PWSCF v.6.1 (svn rev. 13369) starts on 17Dec2017 at 10:12:21 

     This program is part of the open-source Quantum ESPRESSO suite
     for quantum simulation of materials; please cite
         "P. Giannozzi et al., J. Phys.:Condens. Matter 21 395502 (2009);
          URL http://www.quantum-espresso.org", 
     in publications or presentations arising from this work. More details at
     http://www.quantum-espresso.org/quote

     Parallel version (MPI), running on     8 processors
     R & G space division:  proc/nbgrp/npool/nimage =       8
     Waiting for input...
     Reading input from standard input

     Current dimensions of program PWSCF are:
     Max number of different atomic species (ntypx) = 10
     Max number of k-points (npk) =  40000
     Max angular momentum in pseudopotentials (lmaxx) =  3
               file C.pbe-n-kjpaw_psl.0.1.UPF: wavefunction(s)  2P renormalized
               file N.pbe-n-kjpaw_psl.0.1.UPF: wavefunction(s)  2P renormalized
               file H.pbe-kjpaw_psl.0.1.UPF: wavefunction(s)  1S renormalized
               file O.pbe-n-kjpaw_psl.0.1.UPF: wavefunction(s)  2P renormalized

     -------------------------------------
     Parameters for Dispersion Correction:
     -------------------------------------
       atom      VdW radius       C_6     

        C          2.744         60.710
        N          2.640         42.670
        H          1.892          4.857
        O          2.536         24.284

     Subspace diagonalization in iterative solution of the eigenvalue problem:
     a serial algorithm will be used

 
     Parallelization info
     --------------------
     sticks:   dense  smooth     PW     G-vecs:    dense   smooth      PW
     Min         815     815    216                94597    94597   12937
     Max         816     816    217                94598    94598   12940
     Sum        6523    6523   1729               756779   756779  103505
 


     bravais-lattice index     =            0
     lattice parameter (alat)  =      16.0283  a.u.
     unit-cell volume          =    5602.3349 (a.u.)^3
     number of atoms/cell      =           88
     number of atomic types    =            4
     number of electrons       =       280.00
     number of Kohn-Sham states=          168
     kinetic-energy cutoff     =     100.0000  Ry
     charge density cutoff     =     400.0000  Ry
     convergence threshold     =      1.0E-08
     mixing beta               =       0.5000
     number of iterations used =            8  plain     mixing
     Exchange-correlation      =  SLA  PW   PBX  PBC ( 1  4  3  4 0 0)

     celldm(1)=  16.028279  celldm(2)=   0.000000  celldm(3)=   0.000000
     celldm(4)=   0.000000  celldm(5)=   0.000000  celldm(6)=   0.000000

     crystal axes: (cart. coord. in units of alat)
               a(1) = (   1.000000   0.000000   0.000000 )  
               a(2) = (   0.000000   0.797130   0.000000 )  
               a(3) = (  -0.462860   0.000000   1.706786 )  

     reciprocal axes: (cart. coord. in units 2 pi/alat)
               b(1) = (  1.000000  0.000000  0.271188 )  
               b(2) = (  0.000000  1.254500  0.000000 )  
               b(3) = (  0.000000  0.000000  0.585897 )  


     PseudoPot. # 1 for  C read from file:
     /scratch/ahofstet/pseudo/C.pbe-n-kjpaw_psl.0.1.UPF
     MD5 check sum: 430fe95172b1e11ef3f8ed03bac87931
     Pseudo is Projector augmented-wave + core cor, Zval =  4.0
     Generated using "atomic" code by A. Dal Corso  v.5.0.99 svn rev. 10869
     Shape of augmentation charge: BESSEL
     Using radial grid of 1073 points,  4 beta functions with: 
                l(1) =   0
                l(2) =   0
                l(3) =   1
                l(4) =   1
     Q(r) pseudized with 0 coefficients 


     PseudoPot. # 2 for  N read from file:
     /scratch/ahofstet/pseudo/N.pbe-n-kjpaw_psl.0.1.UPF
     MD5 check sum: f73187c8b701007e77325f868c9291d7
     Pseudo is Projector augmented-wave + core cor, Zval =  5.0
     Generated using "atomic" code by A. Dal Corso  v.5.0.99 svn rev. 10869
     Shape of augmentation charge: PSQ
     Using radial grid of 1085 points,  4 beta functions with: 
                l(1) =   0
                l(2) =   0
                l(3) =   1
                l(4) =   1
     Q(r) pseudized with 0 coefficients 


     PseudoPot. # 3 for  H read from file:
     /scratch/ahofstet/pseudo/H.pbe-kjpaw_psl.0.1.UPF
     MD5 check sum: 94e484f906d9e9773b2f6e52662335b2
     Pseudo is Projector augmented-wave, Zval =  1.0
     Generated using "atomic" code by A. Dal Corso  v.5.0.99 svn rev. 10869
     Shape of augmentation charge: PSQ
     Using radial grid of  929 points,  2 beta functions with: 
                l(1) =   0
                l(2) =   0
     Q(r) pseudized with 0 coefficients 


     PseudoPot. # 4 for  O read from file:
     /scratch/ahofstet/pseudo/O.pbe-n-kjpaw_psl.0.1.UPF
     MD5 check sum: 3f94a2996a3169367d6eb21d9b593f20
     Pseudo is Projector augmented-wave + core cor, Zval =  6.0
     Generated using "atomic" code by A. Dal Corso  v.5.0.99 svn rev. 10869
     Shape of augmentation charge: BESSEL
     Using radial grid of 1095 points,  4 beta functions with: 
                l(1) =   0
                l(2) =   0
                l(3) =   1
                l(4) =   1
     Q(r) pseudized with 0 coefficients 


     atomic species   valence    mass     pseudopotential
        C              4.00    12.01070      C( 1.00)
        N              5.00    14.00670      N( 1.00)
        H              1.00     1.00794      H( 1.00)
        O              6.00    15.99940      O( 1.00)

      2 Sym. Ops., with inversion, found
          (note:  2 additional sym.ops. were found but ignored
           their fractional translations are incommensurate with FFT grid)


   Cartesian axes

     site n.     atom                  positions (alat units)
         1           O   tau(   1) = (  -0.0010153   0.0859407   0.8551365  )
         2           O   tau(   2) = (   0.3067255   0.4845059   1.7050424  )
         3           O   tau(   3) = (   0.5381554   0.7111896   0.8516494  )
         4           O   tau(   4) = (   0.2304146   0.3126245   0.0017435  )
         5           O   tau(   5) = (   0.2516924   0.0871701   1.0090718  )
         6           O   tau(   6) = (   0.0540178   0.4857352   1.5511070  )
         7           O   tau(   7) = (   0.2854477   0.7099602   0.6977141  )
         8           O   tau(   8) = (   0.4831223   0.3113951   0.1556789  )
         9           H   tau(   9) = (   0.1694163   0.0864935   0.9187900  )
        10           H   tau(  10) = (   0.1362938   0.4850587   1.6413888  )
        11           H   tau(  11) = (   0.3677238   0.7106368   0.7879959  )
        12           H   tau(  12) = (   0.4008463   0.3120717   0.0653971  )
        13           O   tau(  13) = (   0.5133121   0.0816091   1.1798711  )
        14           O   tau(  14) = (  -0.2076020   0.4801743   1.3803077  )
        15           O   tau(  15) = (   0.0238280   0.7155212   0.5269147  )
        16           O   tau(  16) = (   0.7447421   0.3169561   0.3264782  )
        17           H   tau(  17) = (   0.4509987   0.0704702   1.0825485  )
        18           H   tau(  18) = (  -0.1452886   0.4690353   1.4776304  )
        19           H   tau(  19) = (   0.0861414   0.7266602   0.6242374  )
        20           H   tau(  20) = (   0.6824287   0.3280950   0.2291555  )
        21           C   tau(  21) = (   0.4152084   0.0878389   1.3054159  )
        22           C   tau(  22) = (  -0.1094983   0.4864041   1.2547629  )
        23           C   tau(  23) = (   0.1219317   0.7092914   0.4013700  )
        24           C   tau(  24) = (   0.6466384   0.3107262   0.4520230  )
        25           C   tau(  25) = (   0.4840187   0.0939773   1.4545252  )
        26           C   tau(  26) = (  -0.1783085   0.4925425   1.1056536  )
        27           C   tau(  27) = (   0.0531214   0.7031530   0.2522607  )
        28           C   tau(  28) = (   0.7154486   0.3045879   0.6011323  )
        29           H   tau(  29) = (   0.6120710   0.0972811   1.4637688  )
        30           H   tau(  30) = (  -0.3063608   0.4958463   1.0964101  )
        31           H   tau(  31) = (  -0.0749309   0.6998492   0.2430171  )
        32           H   tau(  32) = (   0.8435009   0.3012841   0.6103758  )
        33           C   tau(  33) = (   0.3893242   0.0974241   1.5898766  )
        34           C   tau(  34) = (  -0.0836141   0.4959892   0.9703023  )
        35           C   tau(  35) = (   0.1478159   0.6997063   0.1169093  )
        36           C   tau(  36) = (   0.6207542   0.3011411   0.7364836  )
        37           H   tau(  37) = (   0.4460339   0.1018557   1.7052379  )
        38           H   tau(  38) = (  -0.1403238   0.5004208   0.8549410  )
        39           H   tau(  39) = (   0.0911062   0.6952747   0.0015480  )
        40           H   tau(  40) = (   0.6774639   0.2967095   0.8518449  )
        41           C   tau(  41) = (   0.2264220   0.0954573   1.5799589  )
        42           C   tau(  42) = (   0.0792882   0.4940225   0.9802199  )
        43           C   tau(  43) = (   0.3107181   0.7016730   0.1268270  )
        44           C   tau(  44) = (   0.4578519   0.3031078   0.7265659  )
        45           H   tau(  45) = (   0.1539995   0.0988640   1.6861799  )
        46           H   tau(  46) = (   0.1517107   0.4974292   0.8739989  )
        47           H   tau(  47) = (   0.3831406   0.6982663   0.0206060  )
        48           H   tau(  48) = (   0.3854294   0.2997011   0.8327870  )
        49           C   tau(  49) = (   0.1519849   0.0920758   1.4315513  )
        50           C   tau(  50) = (   0.1537253   0.4906410   1.1286275  )
        51           C   tau(  51) = (   0.3851552   0.7050545   0.2752346  )
        52           C   tau(  52) = (   0.3834149   0.3064893   0.5781584  )
        53           C   tau(  53) = (   0.2470199   0.0885366   1.2907656  )
        54           C   tau(  54) = (   0.0586902   0.4871018   1.2694133  )
        55           C   tau(  55) = (   0.2901202   0.7085937   0.4160203  )
        56           C   tau(  56) = (   0.4784499   0.3100286   0.4373726  )
        57           C   tau(  57) = (   0.1673348   0.0877729   1.1432844  )
        58           C   tau(  58) = (   0.1383753   0.4863381   1.4168944  )
        59           C   tau(  59) = (   0.3698053   0.7093574   0.5635014  )
        60           C   tau(  60) = (   0.3987648   0.3107922   0.2898915  )
        61           C   tau(  61) = (   0.0011019   0.0876078   1.1349730  )
        62           C   tau(  62) = (   0.3046083   0.4861730   1.4252059  )
        63           C   tau(  63) = (   0.5360382   0.7095225   0.5718129  )
        64           C   tau(  64) = (   0.2325318   0.3109573   0.2815800  )
        65           C   tau(  65) = (  -0.0892134   0.0900837   1.2761884  )
        66           C   tau(  66) = (   0.3949235   0.4886489   1.2839904  )
        67           C   tau(  67) = (   0.6263535   0.7070466   0.4305974  )
        68           C   tau(  68) = (   0.1422166   0.3084814   0.4227955  )
        69           H   tau(  69) = (  -0.2175319   0.0902750   1.2649514  )
        70           H   tau(  70) = (   0.5232420   0.4888402   1.2952274  )
        71           H   tau(  71) = (   0.7546720   0.7068553   0.4418345  )
        72           H   tau(  72) = (   0.0138981   0.3082901   0.4115584  )
        73           C   tau(  73) = (  -0.0161206   0.0932125   1.4195870  )
        74           C   tau(  74) = (   0.3218308   0.4917777   1.1405918  )
        75           C   tau(  75) = (   0.5532607   0.7039178   0.2871989  )
        76           C   tau(  76) = (   0.2153093   0.3053527   0.5661941  )
        77           H   tau(  77) = (  -0.0846332   0.0985346   1.5283385  )
        78           H   tau(  78) = (   0.3903434   0.4970998   1.0318404  )
        79           H   tau(  79) = (   0.6217733   0.6985957   0.1784474  )
        80           H   tau(  80) = (   0.1467967   0.3000306   0.6749455  )
        81           C   tau(  81) = (  -0.0744254   0.0844315   0.9840548  )
        82           C   tau(  82) = (   0.3801355   0.4829966   1.5761241  )
        83           C   tau(  83) = (   0.6115655   0.7126989   0.7227311  )
        84           C   tau(  84) = (   0.1570046   0.3141337   0.1306618  )
        85           H   tau(  85) = (  -0.2050844   0.0788630   0.9837009  )
        86           H   tau(  86) = (   0.5107945   0.4774282   1.5764779  )
        87           H   tau(  87) = (   0.7422245   0.7182673   0.7230850  )
        88           H   tau(  88) = (   0.0263456   0.3197022   0.1303079  )

     number of k points=     8
                       cart. coord. in units 2pi/alat
        k(    1) = (   0.0000000   0.0000000   0.0000000), wk =   0.1666667
        k(    2) = (   0.0000000   0.0000000  -0.2929483), wk =   0.1666667
        k(    3) = (   0.0000000   0.4181667   0.0000000), wk =   0.3333333
        k(    4) = (   0.0000000   0.4181667  -0.2929483), wk =   0.3333333
        k(    5) = (  -0.5000000   0.0000000  -0.1355940), wk =   0.1666667
        k(    6) = (  -0.5000000   0.0000000  -0.4285423), wk =   0.1666667
        k(    7) = (  -0.5000000   0.4181667  -0.1355940), wk =   0.3333333
        k(    8) = (  -0.5000000   0.4181667  -0.4285423), wk =   0.3333333

     Dense  grid:   756779 G-vectors     FFT dimensions: ( 108,  81, 192)

     Estimated max dynamical RAM per process >     679.44MB

     Estimated total allocated dynamical RAM >    5435.49MB

     Check: negative/imaginary core charge=   -0.000002    0.000000

     Initial potential from superposition of free atoms

     starting charge  279.99785, renormalised to  280.00000
     Starting wfc are  256 randomized atomic wfcs
     Checking if some PAW data can be deallocated... 

     total cpu time spent up to now is       39.5 secs

     per-process dynamical memory:   505.7 Mb

     Self-consistent Calculation

     iteration #  1     ecut=   100.00 Ry     beta=0.50
     Davidson diagonalization with overlap
     ethr =  1.00E-02,  avg # of iterations =  7.1

     total cpu time spent up to now is      141.6 secs

     total energy              =   -1347.84580235 Ry
     Harris-Foulkes estimate   =   -1352.54852325 Ry
     estimated scf accuracy    <       8.91970759 Ry

     iteration #  2     ecut=   100.00 Ry     beta=0.50
     Davidson diagonalization with overlap
     ethr =  3.19E-03,  avg # of iterations =  2.0

     total cpu time spent up to now is      191.5 secs

     total energy              =   -1348.07223142 Ry
     Harris-Foulkes estimate   =   -1348.72070221 Ry
     estimated scf accuracy    <       1.26993185 Ry

     iteration #  3     ecut=   100.00 Ry     beta=0.50
     Davidson diagonalization with overlap
     ethr =  4.54E-04,  avg # of iterations =  5.0

     total cpu time spent up to now is      298.4 secs

     total energy              =   -1349.12756072 Ry
     Harris-Foulkes estimate   =   -1349.73758483 Ry
     estimated scf accuracy    <       1.72290394 Ry

     iteration #  4     ecut=   100.00 Ry     beta=0.50
     Davidson diagonalization with overlap
     ethr =  4.54E-04,  avg # of iterations =  2.1

     total cpu time spent up to now is      347.1 secs

     total energy              =   -1348.96584215 Ry
     Harris-Foulkes estimate   =   -1349.23351149 Ry
     estimated scf accuracy    <       0.50010954 Ry

     iteration #  5     ecut=   100.00 Ry     beta=0.50
     Davidson diagonalization with overlap
     ethr =  1.79E-04,  avg # of iterations =  7.2

     total cpu time spent up to now is      449.1 secs

     total energy              =   -1349.26098106 Ry
     Harris-Foulkes estimate   =   -1349.32415775 Ry
     estimated scf accuracy    <       0.24499254 Ry

     iteration #  6     ecut=   100.00 Ry     beta=0.50
     Davidson diagonalization with overlap
     ethr =  8.75E-05,  avg # of iterations =  1.2

     total cpu time spent up to now is      496.9 secs

     total energy              =   -1349.21911259 Ry
     Harris-Foulkes estimate   =   -1349.27503868 Ry
     estimated scf accuracy    <       0.11018519 Ry

     iteration #  7     ecut=   100.00 Ry     beta=0.50
     Davidson diagonalization with overlap
     ethr =  3.94E-05,  avg # of iterations =  6.0

     total cpu time spent up to now is      578.5 secs

     total energy              =   -1349.25569183 Ry
     Harris-Foulkes estimate   =   -1349.25794857 Ry
     estimated scf accuracy    <       0.00730062 Ry

     iteration #  8     ecut=   100.00 Ry     beta=0.50
     Davidson diagonalization with overlap
     ethr =  2.61E-06,  avg # of iterations =  6.6

     total cpu time spent up to now is      643.0 secs

     total energy              =   -1349.25592132 Ry
     Harris-Foulkes estimate   =   -1349.25685739 Ry
     estimated scf accuracy    <       0.00234837 Ry

     iteration #  9     ecut=   100.00 Ry     beta=0.50
     Davidson diagonalization with overlap
     ethr =  8.39E-07,  avg # of iterations =  5.1

     total cpu time spent up to now is      716.4 secs

     total energy              =   -1349.25663686 Ry
     Harris-Foulkes estimate   =   -1349.25680000 Ry
     estimated scf accuracy    <       0.00054738 Ry

     iteration # 10     ecut=   100.00 Ry     beta=0.50
     Davidson diagonalization with overlap
     ethr =  1.95E-07,  avg # of iterations =  2.8

     total cpu time spent up to now is      767.5 secs

     total energy              =   -1349.25668862 Ry
     Harris-Foulkes estimate   =   -1349.25674190 Ry
     estimated scf accuracy    <       0.00012524 Ry

     iteration # 11     ecut=   100.00 Ry     beta=0.50
     Davidson diagonalization with overlap
     ethr =  4.47E-08,  avg # of iterations =  3.8

     total cpu time spent up to now is      841.4 secs

     total energy              =   -1349.25673915 Ry
     Harris-Foulkes estimate   =   -1349.25674282 Ry
     estimated scf accuracy    <       0.00001237 Ry

     iteration # 12     ecut=   100.00 Ry     beta=0.50
     Davidson diagonalization with overlap
     ethr =  4.42E-09,  avg # of iterations =  3.9

     total cpu time spent up to now is      910.5 secs

     total energy              =   -1349.25674216 Ry
     Harris-Foulkes estimate   =   -1349.25674406 Ry
     estimated scf accuracy    <       0.00000449 Ry

     iteration # 13     ecut=   100.00 Ry     beta=0.50
     Davidson diagonalization with overlap
     ethr =  1.60E-09,  avg # of iterations =  3.2

     total cpu time spent up to now is      965.7 secs

     total energy              =   -1349.25674300 Ry
     Harris-Foulkes estimate   =   -1349.25674311 Ry
     estimated scf accuracy    <       0.00000036 Ry

     iteration # 14     ecut=   100.00 Ry     beta=0.50
     Davidson diagonalization with overlap
     ethr =  1.30E-10,  avg # of iterations =  4.0

     total cpu time spent up to now is     1069.4 secs

     total energy              =   -1349.25674332 Ry
     Harris-Foulkes estimate   =   -1349.25674357 Ry
     estimated scf accuracy    <       0.00000076 Ry

     iteration # 15     ecut=   100.00 Ry     beta=0.50
     Davidson diagonalization with overlap
     ethr =  1.30E-10,  avg # of iterations =  1.1

     total cpu time spent up to now is     1116.2 secs

     total energy              =   -1349.25674324 Ry
     Harris-Foulkes estimate   =   -1349.25674336 Ry
     estimated scf accuracy    <       0.00000024 Ry

     iteration # 16     ecut=   100.00 Ry     beta=0.50
     Davidson diagonalization with overlap
     ethr =  8.40E-11,  avg # of iterations =  4.0

     total cpu time spent up to now is     1201.7 secs

     total energy              =   -1349.25674336 Ry
     Harris-Foulkes estimate   =   -1349.25674341 Ry
     estimated scf accuracy    <       0.00000013 Ry

     iteration # 17     ecut=   100.00 Ry     beta=0.50
     Davidson diagonalization with overlap
     ethr =  4.51E-11,  avg # of iterations =  1.0

     total cpu time spent up to now is     1248.4 secs

     total energy              =   -1349.25674335 Ry
     Harris-Foulkes estimate   =   -1349.25674337 Ry
     estimated scf accuracy    <       0.00000003 Ry

     iteration # 18     ecut=   100.00 Ry     beta=0.50
     Davidson diagonalization with overlap
     ethr =  1.05E-11,  avg # of iterations =  4.0

     total cpu time spent up to now is     1337.4 secs

     total energy              =   -1349.25674337 Ry
     Harris-Foulkes estimate   =   -1349.25674338 Ry
     estimated scf accuracy    <       0.00000001 Ry

     iteration # 19     ecut=   100.00 Ry     beta=0.50
     Davidson diagonalization with overlap
     ethr =  5.16E-12,  avg # of iterations =  1.0

     total cpu time spent up to now is     1384.0 secs

     End of self-consistent calculation

          k = 0.0000 0.0000 0.0000 ( 94613 PWs)   bands (ev):

   -20.2670 -20.2595 -20.1852 -20.1779 -19.5676 -19.5671 -19.5535 -19.5524
   -18.9521 -18.9505 -18.9356 -18.9343 -14.9144 -14.9042 -14.7420 -14.7099
   -13.6782 -13.6631 -13.5287 -13.5075 -12.1202 -12.0993 -12.0993 -12.0217
   -12.0000 -11.9413 -11.9239 -11.8834 -10.9077 -10.8938 -10.8718 -10.8413
    -9.5975  -9.5192  -9.4725  -9.4039  -8.6505  -8.6325  -8.6174  -8.6125
    -8.2709  -8.1269  -8.1143  -7.9920  -7.9870  -7.9514  -7.9384  -7.8282
    -6.7089  -6.7059  -6.5727  -6.5633  -6.4871  -6.3986  -6.3640  -6.3547
    -5.7168  -5.5113  -5.4086  -5.2734  -5.2535  -5.1680  -5.0905  -5.0566
    -5.0153  -5.0105  -5.0094  -4.9680  -4.5898  -4.5865  -4.1822  -4.1410
    -4.1376  -4.1340  -4.0335  -4.0101  -4.0081  -3.9753  -3.9573  -3.8412
    -3.7632  -3.6988  -3.6931  -3.6375  -3.3359  -3.3342  -3.1917  -3.1364
    -3.0959  -3.0686  -3.0146  -2.9801  -2.9075  -2.8554  -2.8012  -2.7871
    -2.4877  -2.4812  -2.3222  -2.3155  -2.1005  -2.0757  -2.0749  -1.9992
    -1.9862  -1.9806  -1.9468  -1.9355  -1.8695  -1.8455  -1.8441  -1.7638
    -1.5989  -1.5721  -1.5521  -1.4936  -1.1171  -1.1145  -1.0744  -1.0586
    -0.7415  -0.7100  -0.6155  -0.5957   0.4196   0.4426   0.5134   0.6008
     0.6012   0.6357   0.7432   0.7452   0.7473   0.7593   0.7866   0.8527
     1.9304   1.9512   1.9544   1.9587   3.9909   3.9982   4.3906   4.4358
     5.0431   5.0531   5.4340   5.4560   5.9563   6.0127   6.4071   6.5179
     6.8175   6.8329   7.0264   7.1559   7.1944   7.2907   7.7067   7.9176
     8.1456   8.2062   8.2410   8.2653   8.2875   8.3630   8.6060   8.7125

          k = 0.0000 0.0000-0.2929 ( 94614 PWs)   bands (ev):

   -20.2634 -20.2634 -20.1814 -20.1814 -19.5674 -19.5674 -19.5530 -19.5530
   -18.9513 -18.9513 -18.9349 -18.9349 -14.9093 -14.9093 -14.7262 -14.7262
   -13.6710 -13.6710 -13.5173 -13.5173 -12.1100 -12.1100 -12.0586 -12.0586
   -11.9792 -11.9792 -11.8987 -11.8987 -10.9034 -10.9034 -10.8529 -10.8529
    -9.5411  -9.5411  -9.4565  -9.4565  -8.6434  -8.6434  -8.6150  -8.6150
    -8.1899  -8.1899  -8.0279  -8.0279  -7.9493  -7.9492  -7.9477  -7.9477
    -6.6322  -6.6322  -6.6219  -6.6219  -6.4542  -6.4542  -6.3803  -6.3803
    -5.4735  -5.4735  -5.4427  -5.4427  -5.1989  -5.1989  -5.0654  -5.0654
    -5.0368  -5.0368  -4.9887  -4.9887  -4.6138  -4.6138  -4.2607  -4.2607
    -4.0879  -4.0879  -4.0416  -4.0416  -3.9454  -3.9454  -3.7987  -3.7987
    -3.7904  -3.7904  -3.6645  -3.6645  -3.3449  -3.3449  -3.1291  -3.1291
    -3.0986  -3.0986  -2.9371  -2.9371  -2.9142  -2.9142  -2.8195  -2.8195
    -2.5260  -2.5260  -2.2941  -2.2941  -2.1186  -2.1185  -2.0490  -2.0490
    -1.9840  -1.9840  -1.9082  -1.9082  -1.8360  -1.8360  -1.8054  -1.8054
    -1.5923  -1.5923  -1.5025  -1.5025  -1.1288  -1.1288  -1.0742  -1.0742
    -0.7357  -0.7357  -0.6001  -0.6001   0.4486   0.4486   0.5417   0.5417
     0.6216   0.6216   0.7400   0.7400   0.7659   0.7659   0.8113   0.8113
     1.9356   1.9357   1.9638   1.9638   3.9931   3.9931   4.4127   4.4127
     5.0485   5.0485   5.4434   5.4434   5.9830   5.9830   6.4606   6.4606
     6.8182   6.8182   7.0929   7.0929   7.2436   7.2436   7.8098   7.8098
     8.1287   8.1288   8.3146   8.3146   8.3295   8.3295   8.6650   8.6651

          k = 0.0000 0.4182 0.0000 ( 94609 PWs)   bands (ev):

   -20.2648 -20.2610 -20.1833 -20.1797 -19.5674 -19.5671 -19.5532 -19.5526
   -18.9516 -18.9508 -18.9352 -18.9346 -14.8747 -14.8559 -14.7880 -14.7593
   -13.6426 -13.6263 -13.5677 -13.5484 -12.1203 -12.1053 -12.0670 -12.0262
   -11.9876 -11.9480 -11.9421 -11.9078 -10.9002 -10.8820 -10.8806 -10.8546
    -9.5783  -9.5387  -9.4576  -9.4235  -8.6470  -8.6314  -8.6278  -8.6166
    -8.2417  -8.1701  -8.0832  -8.0197  -8.0000  -7.9620  -7.8970  -7.8466
    -6.7075  -6.7057  -6.5707  -6.5657  -6.4760  -6.4371  -6.3509  -6.3501
    -5.6835  -5.5927  -5.3571  -5.2857  -5.2129  -5.1418  -5.1298  -5.0846
    -5.0266  -5.0227  -4.9915  -4.9755  -4.3000  -4.2896  -4.1707  -4.1400
    -4.1373  -4.1260  -4.0184  -4.0085  -4.0049  -3.9737  -3.9645  -3.8825
    -3.7803  -3.7512  -3.6858  -3.6613  -3.2469  -3.2014  -3.1697  -3.1593
    -3.0896  -3.0808  -2.9760  -2.9540  -2.9106  -2.8721  -2.8699  -2.8520
    -2.4189  -2.4030  -2.3341  -2.3244  -2.1194  -2.1019  -2.0336  -2.0209
    -1.9995  -1.9963  -1.9455  -1.9436  -1.9290  -1.8730  -1.8662  -1.7545
    -1.7452  -1.6426  -1.5486  -1.5452  -1.1108  -1.1023  -1.0861  -1.0759
    -0.7813  -0.7409  -0.7402  -0.7049   0.4234   0.4597   0.4788   0.5477
     0.5693   0.5768   0.6618   0.6932   0.6966   0.7463   0.7797   0.8028
     1.9075   1.9172   1.9262   1.9283   4.0102   4.0232   4.2056   4.2402
     5.1706   5.1883   5.3444   5.3579   5.9846   6.0321   6.2131   6.3127
     6.7695   6.8104   6.9008   6.9414   7.5182   7.5693   7.7484   7.8852
     8.0633   8.0954   8.2202   8.2795   8.4306   8.5683   8.7482   8.8173

          k = 0.0000 0.4182-0.2929 ( 94612 PWs)   bands (ev):

   -20.2630 -20.2630 -20.1815 -20.1815 -19.5673 -19.5673 -19.5529 -19.5529
   -18.9512 -18.9512 -18.9349 -18.9349 -14.8654 -14.8654 -14.7738 -14.7738
   -13.6350 -13.6350 -13.5569 -13.5569 -12.0942 -12.0942 -12.0653 -12.0653
   -11.9748 -11.9748 -11.9198 -11.9198 -10.8946 -10.8946 -10.8631 -10.8631
    -9.5254  -9.5254  -9.4745  -9.4745  -8.6389  -8.6389  -8.6245  -8.6245
    -8.1718  -8.1717  -8.0502  -8.0502  -7.9575  -7.9575  -7.9415  -7.9415
    -6.6320  -6.6320  -6.6210  -6.6210  -6.4478  -6.4478  -6.3919  -6.3919
    -5.4690  -5.4690  -5.4488  -5.4488  -5.1842  -5.1842  -5.0833  -5.0833
    -5.0386  -5.0386  -4.9969  -4.9969  -4.3257  -4.3257  -4.2351  -4.2351
    -4.1126  -4.1126  -4.0355  -4.0355  -3.9487  -3.9487  -3.8019  -3.8019
    -3.7771  -3.7771  -3.7211  -3.7211  -3.2290  -3.2290  -3.1212  -3.1212
    -3.1020  -3.1020  -2.9535  -2.9535  -2.9099  -2.9099  -2.8573  -2.8573
    -2.4379  -2.4379  -2.3287  -2.3287  -2.1232  -2.1232  -2.0583  -2.0583
    -1.9752  -1.9752  -1.9220  -1.9220  -1.8829  -1.8829  -1.8126  -1.8126
    -1.6925  -1.6925  -1.5360  -1.5360  -1.1284  -1.1284  -1.0828  -1.0828
    -0.7649  -0.7649  -0.7176  -0.7176   0.4487   0.4487   0.5228   0.5228
     0.5587   0.5587   0.6793   0.6793   0.7365   0.7365   0.7765   0.7765
     1.9099   1.9099   1.9322   1.9322   4.0153   4.0153   4.2226   4.2226
     5.1795   5.1795   5.3504   5.3504   6.0062   6.0062   6.2606   6.2606
     6.7842   6.7842   6.9193   6.9193   7.5578   7.5578   7.8291   7.8291
     8.0501   8.0501   8.2634   8.2634   8.5170   8.5170   8.7733   8.7734

          k =-0.5000 0.0000-0.1356 ( 94596 PWs)   bands (ev):

   -20.2642 -20.2577 -20.1855 -20.1787 -19.5751 -19.5673 -19.5569 -19.5505
   -18.9481 -18.9462 -18.9366 -18.9358 -14.9117 -14.9094 -14.7367 -14.7143
   -13.6845 -13.6670 -13.5364 -13.5164 -12.1297 -12.1180 -12.1083 -12.0422
   -11.9398 -11.9371 -11.9004 -11.8631 -10.8671 -10.8539 -10.8134 -10.8106
    -9.5796  -9.5161  -9.4773  -9.4555  -8.7880  -8.7589  -8.7493  -8.7206
    -8.2620  -8.1478  -8.1002  -7.9955  -7.9711  -7.9392  -7.9032  -7.8661
    -6.6511  -6.6423  -6.5795  -6.5740  -6.5127  -6.4529  -6.4203  -6.4074
    -5.7115  -5.4979  -5.4597  -5.3278  -5.2873  -5.0433  -5.0344  -4.9948
    -4.6659  -4.6104  -4.6069  -4.5721  -4.5617  -4.5602  -4.4956  -4.2701
    -4.1520  -4.0893  -4.0811  -4.0645  -3.9832  -3.9636  -3.8660  -3.7787
    -3.7486  -3.7421  -3.6918  -3.5344  -3.3917  -3.3762  -3.1697  -3.1601
    -3.1291  -3.1221  -2.9245  -2.8597  -2.8132  -2.8095  -2.8063  -2.7996
    -2.6549  -2.6514  -2.6082  -2.5929  -2.4910  -2.4566  -2.3201  -2.3108
    -2.1254  -2.0730  -2.0127  -1.9982  -1.9030  -1.8897  -1.8218  -1.6349
    -1.6015  -1.6015  -1.5533  -1.5122  -0.8507  -0.8098  -0.7983  -0.7409
    -0.7069  -0.6591  -0.6348  -0.5930   0.4227   0.4290   0.5184   0.6053
     0.6103   0.6403   0.7586   0.7683   0.7799   0.8211   0.8610   0.8675
     1.9121   1.9175   2.0139   2.0222   3.9681   3.9968   4.3562   4.4328
     5.0651   5.0785   5.2384   5.2491   5.9245   5.9846   6.4207   6.5261
     6.6540   6.7073   7.0556   7.2190   7.3391   7.5303   7.5751   7.5991
     8.1114   8.3128   8.4302   8.4737   8.5514   8.5789   8.7485   8.7868

          k =-0.5000 0.0000-0.4285 ( 94572 PWs)   bands (ev):

   -20.2611 -20.2611 -20.1819 -20.1819 -19.5719 -19.5719 -19.5530 -19.5530
   -18.9472 -18.9472 -18.9362 -18.9362 -14.9106 -14.9106 -14.7254 -14.7254
   -13.6769 -13.6769 -13.5253 -13.5253 -12.1192 -12.1192 -12.0770 -12.0770
   -11.9482 -11.9482 -11.8757 -11.8757 -10.8619 -10.8619 -10.8095 -10.8095
    -9.5805  -9.5805  -9.4332  -9.4332  -8.7825  -8.7824  -8.7247  -8.7247
    -8.1631  -8.1631  -8.0369  -8.0369  -7.9834  -7.9834  -7.9250  -7.9250
    -6.6961  -6.6961  -6.5230  -6.5230  -6.4510  -6.4510  -6.4463  -6.4463
    -5.4933  -5.4933  -5.4495  -5.4495  -5.1726  -5.1726  -5.0795  -5.0795
    -4.6205  -4.6205  -4.5950  -4.5950  -4.5808  -4.5808  -4.3607  -4.3607
    -4.1919  -4.1919  -4.0254  -4.0253  -3.9889  -3.9889  -3.8132  -3.8132
    -3.6891  -3.6891  -3.6298  -3.6298  -3.3669  -3.3669  -3.1940  -3.1940
    -3.0877  -3.0877  -2.9030  -2.9030  -2.8230  -2.8230  -2.8016  -2.8016
    -2.6695  -2.6695  -2.5930  -2.5930  -2.4686  -2.4686  -2.3040  -2.3040
    -2.0803  -2.0803  -2.0614  -2.0614  -1.8603  -1.8603  -1.7238  -1.7238
    -1.6115  -1.6115  -1.5396  -1.5396  -0.8220  -0.8220  -0.7794  -0.7794
    -0.6967  -0.6967  -0.5996  -0.5996   0.4296   0.4296   0.5601   0.5601
     0.6299   0.6299   0.7682   0.7682   0.8188   0.8188   0.8395   0.8395
     1.9158   1.9158   2.0175   2.0175   3.9834   3.9834   4.3945   4.3945
     5.0704   5.0704   5.2431   5.2431   5.9527   5.9527   6.4754   6.4754
     6.6651   6.6651   7.1408   7.1408   7.4571   7.4571   7.5494   7.5494
     8.2109   8.2109   8.3568   8.3568   8.6812   8.6812   8.7842   8.7865

          k =-0.5000 0.4182-0.1356 ( 94566 PWs)   bands (ev):

   -20.2623 -20.2591 -20.1837 -20.1803 -19.5730 -19.5692 -19.5552 -19.5520
   -18.9474 -18.9465 -18.9364 -18.9360 -14.8724 -14.8598 -14.7837 -14.7635
   -13.6497 -13.6308 -13.5756 -13.5554 -12.1332 -12.1234 -12.0774 -12.0439
   -11.9449 -11.9236 -11.9211 -11.8860 -10.8549 -10.8429 -10.8285 -10.8207
    -9.5590  -9.5094  -9.4986  -9.4665  -8.7819  -8.7626  -8.7518  -8.7325
    -8.2327  -8.1593  -8.1110  -8.0377  -7.9425  -7.9178  -7.9120  -7.8823
    -6.6451  -6.6385  -6.5679  -6.5657  -6.5255  -6.5011  -6.4029  -6.4023
    -5.6804  -5.5924  -5.4019  -5.3502  -5.2277  -5.1270  -4.9936  -4.9888
    -4.6373  -4.6192  -4.5952  -4.5798  -4.4707  -4.3752  -4.2893  -4.2635
    -4.1028  -4.0925  -4.0665  -4.0256  -3.9977  -3.9290  -3.9100  -3.8725
    -3.7774  -3.7379  -3.6296  -3.5563  -3.2802  -3.2171  -3.1659  -3.1504
    -3.1355  -3.1284  -2.9134  -2.9063  -2.8952  -2.8690  -2.8072  -2.8022
    -2.6474  -2.6380  -2.6238  -2.6112  -2.4135  -2.3840  -2.3207  -2.3094
    -2.1157  -2.0973  -2.0213  -1.9996  -1.9823  -1.9453  -1.8609  -1.7683
    -1.6629  -1.6290  -1.5697  -1.5455  -0.8444  -0.8367  -0.7791  -0.7599
    -0.7530  -0.7175  -0.7124  -0.6963   0.4420   0.4591   0.5053   0.5522
     0.5760   0.5865   0.6840   0.7067   0.7125   0.7833   0.8387   0.8597
     1.9144   1.9205   1.9677   1.9716   3.9810   4.0151   4.1711   4.2341
     5.1347   5.1554   5.1837   5.1895   5.9313   5.9969   6.2018   6.3249
     6.6299   6.7076   6.8779   6.9136   7.7142   7.8109   7.8142   8.0347
     8.3342   8.3534   8.4243   8.4321   8.5266   8.6040   8.7643   8.7669

          k =-0.5000 0.4182-0.4285 ( 94566 PWs)   bands (ev):

   -20.2607 -20.2607 -20.1820 -20.1820 -19.5713 -19.5712 -19.5535 -19.5534
   -18.9470 -18.9470 -18.9362 -18.9362 -14.8663 -14.8663 -14.7735 -14.7735
   -13.6424 -13.6424 -13.5634 -13.5634 -12.1061 -12.1061 -12.0831 -12.0831
   -11.9447 -11.9447 -11.8936 -11.8936 -10.8508 -10.8508 -10.8217 -10.8217
    -9.5703  -9.5703  -9.4462  -9.4462  -8.7795  -8.7795  -8.7339  -8.7339
    -8.1459  -8.1459  -8.0512  -8.0512  -7.9832  -7.9832  -7.9327  -7.9327
    -6.6874  -6.6874  -6.5412  -6.5412  -6.4510  -6.4510  -6.4424  -6.4424
    -5.4921  -5.4921  -5.4533  -5.4533  -5.1630  -5.1630  -5.0880  -5.0880
    -4.6236  -4.6236  -4.5948  -4.5948  -4.3534  -4.3534  -4.2759  -4.2759
    -4.2285  -4.2285  -4.0203  -4.0203  -3.9993  -3.9993  -3.7828  -3.7828
    -3.7131  -3.7131  -3.6580  -3.6580  -3.2416  -3.2416  -3.1748  -3.1748
    -3.0937  -3.0937  -2.9107  -2.9107  -2.8825  -2.8825  -2.8117  -2.8117
    -2.6645  -2.6645  -2.6015  -2.6015  -2.3956  -2.3956  -2.3094  -2.3094
    -2.0998  -2.0998  -2.0725  -2.0725  -1.9151  -1.9151  -1.7656  -1.7656
    -1.6665  -1.6665  -1.5961  -1.5961  -0.8279  -0.8279  -0.7789  -0.7789
    -0.7500  -0.7500  -0.6922  -0.6922   0.4518   0.4518   0.5385   0.5385
     0.5766   0.5766   0.7011   0.7011   0.7458   0.7458   0.8450   0.8450
     1.9174   1.9174   1.9700   1.9700   3.9987   3.9987   4.2028   4.2028
     5.1431   5.1431   5.1872   5.1872   5.9618   5.9618   6.2624   6.2624
     6.6576   6.6576   6.8942   6.8942   7.7414   7.7414   7.9458   7.9458
     8.3756   8.3756   8.4474   8.4474   8.5428   8.5429   8.7562   8.7564

     highest occupied, lowest unoccupied level (ev):     2.0222    3.9681

!    total energy              =   -1349.25674337 Ry
     Harris-Foulkes estimate   =   -1349.25674337 Ry
     estimated scf accuracy    <          4.6E-09 Ry

     total all-electron energy =     -5197.039776 Ry

     The total energy is the sum of the following terms:

     one-electron contribution =    -680.90411210 Ry
     hartree contribution      =     452.49758744 Ry
     xc contribution           =    -293.54228401 Ry
     ewald contribution        =    -419.95382076 Ry
     Dispersion Correction     =      -0.44122372 Ry
     one-center paw contrib.   =    -406.91289023 Ry

     convergence has been achieved in  19 iterations

     Forces acting on atoms (cartesian axes, Ry/au):

     atom    1 type  4   force =    -0.00023601   -0.00005071   -0.00006560
     atom    2 type  4   force =     0.00023582   -0.00005256    0.00006544
     atom    3 type  4   force =     0.00023601    0.00005071    0.00006560
     atom    4 type  4   force =    -0.00023582    0.00005256   -0.00006544
     atom    5 type  4   force =    -0.00044361   -0.00017307   -0.00228911
     atom    6 type  4   force =     0.00044613   -0.00017528    0.00228735
     atom    7 type  4   force =     0.00044361    0.00017307    0.00228911
     atom    8 type  4   force =    -0.00044613    0.00017528   -0.00228735
     atom    9 type  3   force =     0.00029367   -0.00039585    0.00108397
     atom   10 type  3   force =    -0.00029393   -0.00039626   -0.00108409
     atom   11 type  3   force =    -0.00029367    0.00039585   -0.00108397
     atom   12 type  3   force =     0.00029393    0.00039626    0.00108409
     atom   13 type  4   force =    -0.00221287   -0.00000542   -0.00175790
     atom   14 type  4   force =     0.00221195   -0.00000017    0.00176020
     atom   15 type  4   force =     0.00221287    0.00000542    0.00175790
     atom   16 type  4   force =    -0.00221195    0.00000017   -0.00176020
     atom   17 type  3   force =     0.00137702    0.00002851   -0.00005390
     atom   18 type  3   force =    -0.00137718    0.00002898    0.00005386
     atom   19 type  3   force =    -0.00137702   -0.00002851    0.00005390
     atom   20 type  3   force =     0.00137718   -0.00002898   -0.00005386
     atom   21 type  1   force =     0.00066579    0.00040478    0.00370585
     atom   22 type  1   force =    -0.00066588    0.00041170   -0.00370486
     atom   23 type  1   force =    -0.00066579   -0.00040478   -0.00370585
     atom   24 type  1   force =     0.00066588   -0.00041170    0.00370486
     atom   25 type  1   force =    -0.00139451    0.00000559   -0.00165781
     atom   26 type  1   force =     0.00139435    0.00001049    0.00165767
     atom   27 type  1   force =     0.00139451   -0.00000559    0.00165781
     atom   28 type  1   force =    -0.00139435   -0.00001049   -0.00165767
     atom   29 type  3   force =    -0.00029890   -0.00013295    0.00053491
     atom   30 type  3   force =     0.00029897   -0.00013317   -0.00053458
     atom   31 type  3   force =     0.00029890    0.00013295   -0.00053491
     atom   32 type  3   force =    -0.00029897    0.00013317    0.00053458
     atom   33 type  1   force =     0.00108371    0.00012392    0.00135033
     atom   34 type  1   force =    -0.00108338    0.00013317   -0.00134971
     atom   35 type  1   force =    -0.00108371   -0.00012392   -0.00135033
     atom   36 type  1   force =     0.00108338   -0.00013317    0.00134971
     atom   37 type  3   force =    -0.00026672    0.00015433   -0.00046381
     atom   38 type  3   force =     0.00026681    0.00015461    0.00046390
     atom   39 type  3   force =     0.00026672   -0.00015433    0.00046381
     atom   40 type  3   force =    -0.00026681   -0.00015461   -0.00046390
     atom   41 type  1   force =    -0.00062699    0.00012430    0.00085813
     atom   42 type  1   force =     0.00062779    0.00013899   -0.00085618
     atom   43 type  1   force =     0.00062699   -0.00012430   -0.00085813
     atom   44 type  1   force =    -0.00062779   -0.00013899    0.00085618
     atom   45 type  3   force =     0.00083601    0.00039336   -0.00127074
     atom   46 type  3   force =    -0.00083584    0.00039342    0.00127114
     atom   47 type  3   force =    -0.00083601   -0.00039336    0.00127074
     atom   48 type  3   force =     0.00083584   -0.00039342   -0.00127114
     atom   49 type  1   force =    -0.00115460   -0.00033664   -0.00068190
     atom   50 type  1   force =     0.00115381   -0.00034915    0.00068236
     atom   51 type  1   force =     0.00115460    0.00033664    0.00068190
     atom   52 type  1   force =    -0.00115381    0.00034915   -0.00068236
     atom   53 type  1   force =    -0.00157102    0.00016640    0.00169797
     atom   54 type  1   force =     0.00157325    0.00016686   -0.00169729
     atom   55 type  1   force =     0.00157102   -0.00016640   -0.00169797
     atom   56 type  1   force =    -0.00157325   -0.00016686    0.00169729
     atom   57 type  1   force =     0.00085782    0.00025313   -0.00141314
     atom   58 type  1   force =    -0.00085730    0.00026036    0.00141472
     atom   59 type  1   force =    -0.00085782   -0.00025313    0.00141314
     atom   60 type  1   force =     0.00085730   -0.00026036   -0.00141472
     atom   61 type  1   force =     0.00102117    0.00015813   -0.00075388
     atom   62 type  1   force =    -0.00102131    0.00016750    0.00075348
     atom   63 type  1   force =    -0.00102117   -0.00015813    0.00075388
     atom   64 type  1   force =     0.00102131   -0.00016750   -0.00075348
     atom   65 type  1   force =    -0.00303432   -0.00031889   -0.00102154
     atom   66 type  1   force =     0.00303483   -0.00033075    0.00102394
     atom   67 type  1   force =     0.00303432    0.00031889    0.00102154
     atom   68 type  1   force =    -0.00303483    0.00033075   -0.00102394
     atom   69 type  3   force =     0.00319491    0.00019125    0.00081092
     atom   70 type  3   force =    -0.00319472    0.00019146   -0.00081031
     atom   71 type  3   force =    -0.00319491   -0.00019125   -0.00081092
     atom   72 type  3   force =     0.00319472   -0.00019146    0.00081031
     atom   73 type  1   force =    -0.00046668   -0.00023878    0.00235784
     atom   74 type  1   force =     0.00046548   -0.00024253   -0.00235674
     atom   75 type  1   force =     0.00046668    0.00023878   -0.00235784
     atom   76 type  1   force =    -0.00046548    0.00024253    0.00235674
     atom   77 type  3   force =     0.00024749   -0.00007825   -0.00063490
     atom   78 type  3   force =    -0.00024731   -0.00007809    0.00063449
     atom   79 type  3   force =    -0.00024749    0.00007825    0.00063490
     atom   80 type  3   force =     0.00024731    0.00007809   -0.00063449
     atom   81 type  1   force =    -0.00161502   -0.00062078    0.00131362
     atom   82 type  1   force =     0.00161666   -0.00061968   -0.00131361
     atom   83 type  1   force =     0.00161502    0.00062078   -0.00131362
     atom   84 type  1   force =    -0.00161666    0.00061968    0.00131361
     atom   85 type  3   force =     0.00141294    0.00044144   -0.00019460
     atom   86 type  3   force =    -0.00141232    0.00044154    0.00019474
     atom   87 type  3   force =    -0.00141294   -0.00044144    0.00019460
     atom   88 type  3   force =     0.00141232   -0.00044154   -0.00019474

     Total force =     0.018915     Total SCF correction =     0.000175


     Computing stress (Cartesian axis) and pressure

          total   stress  (Ry/bohr**3)                   (kbar)     P=   -5.13
  -0.00003549   0.00000000  -0.00001192         -5.22      0.00     -1.75
   0.00000000  -0.00004389  -0.00000000          0.00     -6.46     -0.00
  -0.00001192  -0.00000000  -0.00002534         -1.75     -0.00     -3.73


     Writing output data file scf.save
 
     init_run     :     37.32s CPU     38.89s WALL (       1 calls)
     electrons    :   1282.38s CPU   1344.62s WALL (       1 calls)
     forces       :     17.92s CPU     18.10s WALL (       1 calls)
     stress       :    104.46s CPU    104.79s WALL (       1 calls)

     Called by init_run:
     wfcinit      :     26.58s CPU     28.02s WALL (       1 calls)
     potinit      :      3.80s CPU      3.83s WALL (       1 calls)

     Called by electrons:
     c_bands      :   1139.44s CPU   1191.96s WALL (      19 calls)
     sum_band     :    127.43s CPU    135.63s WALL (      19 calls)
     v_of_rho     :      2.39s CPU      2.61s WALL (      20 calls)
     newd         :      4.94s CPU      6.21s WALL (      20 calls)
     PAW_pot      :      7.38s CPU      7.39s WALL (      20 calls)
     mix_rho      :      0.63s CPU      0.69s WALL (      19 calls)

     Called by c_bands:
     init_us_2    :     10.33s CPU     10.38s WALL (     328 calls)
     cegterg      :   1103.25s CPU   1155.66s WALL (     152 calls)

     Called by sum_band:
     sum_band:bec :      0.10s CPU      0.10s WALL (     152 calls)
     addusdens    :      5.35s CPU      6.58s WALL (      19 calls)

     Called by *egterg:
     h_psi        :    660.91s CPU    701.08s WALL (     730 calls)
     s_psi        :    111.17s CPU    111.19s WALL (     730 calls)
     g_psi        :      4.72s CPU      4.72s WALL (     570 calls)
     cdiaghg      :     66.60s CPU     66.67s WALL (     722 calls)

     Called by h_psi:
     h_psi:pot    :    655.02s CPU    695.08s WALL (     730 calls)
     h_psi:calbec :    106.88s CPU    107.22s WALL (     730 calls)
     vloc_psi     :    437.07s CPU    476.74s WALL (     730 calls)
     add_vuspsi   :    111.07s CPU    111.12s WALL (     730 calls)

     General routines
     calbec       :    153.34s CPU    153.81s WALL (     922 calls)
     fft          :      1.77s CPU      2.13s WALL (     284 calls)
     fftw         :    471.26s CPU    513.94s WALL (  174422 calls)
 
     Parallel routines
     fft_scatter  :     91.58s CPU    125.20s WALL (  174706 calls)
 
     PWSCF        : 24m11.16s CPU    25m52.23s WALL

 
   This run was terminated on:  10:38:13  17Dec2017            

=------------------------------------------------------------------------------=
   JOB DONE.
=------------------------------------------------------------------------------=
