
     Program PWSCF v.6.1 (svn rev. 13369) starts on  3Nov2017 at 20:19:48 

     This program is part of the open-source Quantum ESPRESSO suite
     for quantum simulation of materials; please cite
         "P. Giannozzi et al., J. Phys.:Condens. Matter 21 395502 (2009);
          URL http://www.quantum-espresso.org", 
     in publications or presentations arising from this work. More details at
     http://www.quantum-espresso.org/quote

     Parallel version (MPI), running on     8 processors
     R & G space division:  proc/nbgrp/npool/nimage =       8
     Waiting for input...
     Reading input from standard input

     Current dimensions of program PWSCF are:
     Max number of different atomic species (ntypx) = 10
     Max number of k-points (npk) =  40000
     Max angular momentum in pseudopotentials (lmaxx) =  3
               file C.pbe-n-kjpaw_psl.0.1.UPF: wavefunction(s)  2P renormalized
               file N.pbe-n-kjpaw_psl.0.1.UPF: wavefunction(s)  2P renormalized
               file H.pbe-kjpaw_psl.0.1.UPF: wavefunction(s)  1S renormalized
               file O.pbe-n-kjpaw_psl.0.1.UPF: wavefunction(s)  2P renormalized

     -------------------------------------
     Parameters for Dispersion Correction:
     -------------------------------------
       atom      VdW radius       C_6     

        C          2.744         60.710
        N          2.640         42.670
        H          1.892          4.857
        O          2.536         24.284

     Subspace diagonalization in iterative solution of the eigenvalue problem:
     a serial algorithm will be used

 
     Parallelization info
     --------------------
     sticks:   dense  smooth     PW     G-vecs:    dense   smooth      PW
     Min         761     761    201                46025    46025    6266
     Max         762     762    202                46028    46028    6270
     Sum        6091    6091   1613               368213   368213   50145
 


     bravais-lattice index     =            0
     lattice parameter (alat)  =      14.5509  a.u.
     unit-cell volume          =    2725.3668 (a.u.)^3
     number of atoms/cell      =           44
     number of atomic types    =            4
     number of electrons       =       120.00
     number of Kohn-Sham states=           72
     kinetic-energy cutoff     =     100.0000  Ry
     charge density cutoff     =     400.0000  Ry
     convergence threshold     =      1.0E-08
     mixing beta               =       0.5000
     number of iterations used =            8  plain     mixing
     Exchange-correlation      =  SLA  PW   PBX  PBC ( 1  4  3  4 0 0)

     celldm(1)=  14.550891  celldm(2)=   0.000000  celldm(3)=   0.000000
     celldm(4)=   0.000000  celldm(5)=   0.000000  celldm(6)=   0.000000

     crystal axes: (cart. coord. in units of alat)
               a(1) = (   1.000000   0.000000   0.000000 )  
               a(2) = (   0.000000   0.903896   0.000000 )  
               a(3) = (  -0.336984   0.000000   0.978673 )  

     reciprocal axes: (cart. coord. in units 2 pi/alat)
               b(1) = (  1.000000  0.000000  0.344328 )  
               b(2) = (  0.000000  1.106322  0.000000 )  
               b(3) = (  0.000000  0.000000  1.021792 )  


     PseudoPot. # 1 for  C read from file:
     /scratch/ahofstet/pseudo/C.pbe-n-kjpaw_psl.0.1.UPF
     MD5 check sum: 430fe95172b1e11ef3f8ed03bac87931
     Pseudo is Projector augmented-wave + core cor, Zval =  4.0
     Generated using "atomic" code by A. Dal Corso  v.5.0.99 svn rev. 10869
     Shape of augmentation charge: BESSEL
     Using radial grid of 1073 points,  4 beta functions with: 
                l(1) =   0
                l(2) =   0
                l(3) =   1
                l(4) =   1
     Q(r) pseudized with 0 coefficients 


     PseudoPot. # 2 for  N read from file:
     /scratch/ahofstet/pseudo/N.pbe-n-kjpaw_psl.0.1.UPF
     MD5 check sum: f73187c8b701007e77325f868c9291d7
     Pseudo is Projector augmented-wave + core cor, Zval =  5.0
     Generated using "atomic" code by A. Dal Corso  v.5.0.99 svn rev. 10869
     Shape of augmentation charge: PSQ
     Using radial grid of 1085 points,  4 beta functions with: 
                l(1) =   0
                l(2) =   0
                l(3) =   1
                l(4) =   1
     Q(r) pseudized with 0 coefficients 


     PseudoPot. # 3 for  H read from file:
     /scratch/ahofstet/pseudo/H.pbe-kjpaw_psl.0.1.UPF
     MD5 check sum: 94e484f906d9e9773b2f6e52662335b2
     Pseudo is Projector augmented-wave, Zval =  1.0
     Generated using "atomic" code by A. Dal Corso  v.5.0.99 svn rev. 10869
     Shape of augmentation charge: PSQ
     Using radial grid of  929 points,  2 beta functions with: 
                l(1) =   0
                l(2) =   0
     Q(r) pseudized with 0 coefficients 


     PseudoPot. # 4 for  O read from file:
     /scratch/ahofstet/pseudo/O.pbe-n-kjpaw_psl.0.1.UPF
     MD5 check sum: 3f94a2996a3169367d6eb21d9b593f20
     Pseudo is Projector augmented-wave + core cor, Zval =  6.0
     Generated using "atomic" code by A. Dal Corso  v.5.0.99 svn rev. 10869
     Shape of augmentation charge: BESSEL
     Using radial grid of 1095 points,  4 beta functions with: 
                l(1) =   0
                l(2) =   0
                l(3) =   1
                l(4) =   1
     Q(r) pseudized with 0 coefficients 


     atomic species   valence    mass     pseudopotential
        C              4.00    12.01070      C( 1.00)
        N              5.00    14.00670      N( 1.00)
        H              1.00     1.00794      H( 1.00)
        O              6.00    15.99940      O( 1.00)

      2 Sym. Ops., with inversion, found



   Cartesian axes

     site n.     atom                  positions (alat units)
         1           C   tau(   1) = (   0.0927921   0.6294686   0.5195240  )
         2           C   tau(   2) = (  -0.0991423   0.1774034   0.9492484  )
         3           C   tau(   3) = (   0.5702237   0.2744275   0.4591492  )
         4           C   tau(   4) = (   0.7621581   0.7264927   0.0294247  )
         5           O   tau(   5) = (   0.1339315  -0.0978414   0.5747277  )
         6           O   tau(   6) = (  -0.1399311   0.3538163   0.8934074  )
         7           O   tau(   7) = (   0.5290843   1.0017375   0.4039454  )
         8           O   tau(   8) = (   0.8029469   0.5500798   0.0852658  )
         9           C   tau(   9) = (   0.0800907   0.0311601   0.4689437  )
        10           C   tau(  10) = (   0.2505370   0.4824172   0.0212968  )
        11           C   tau(  11) = (   0.5829251   0.8727360   0.5097294  )
        12           C   tau(  12) = (   0.4124788   0.4214789   0.9573763  )
        13           O   tau(  13) = (   0.0045439   0.0061066   0.3317023  )
        14           O   tau(  14) = (   0.3251220   0.4563081   0.1588850  )
        15           O   tau(  15) = (   0.6584719   0.8977895   0.6469709  )
        16           O   tau(  16) = (   0.3378938   0.4475880   0.8197881  )
        17           C   tau(  17) = (   0.1224853   0.2075853   0.5414397  )
        18           C   tau(  18) = (   0.2083003   0.6589440  -0.0510870  )
        19           C   tau(  19) = (   0.5405305   0.6963108   0.4372334  )
        20           C   tau(  20) = (   0.4547155   0.2449521   1.0297601  )
        21           H   tau(  21) = (  -0.0472966   0.6170839   0.4967440  )
        22           H   tau(  22) = (   0.0408780   0.1655253   0.9724775  )
        23           H   tau(  23) = (   0.7103125   0.2868122   0.4819292  )
        24           H   tau(  24) = (   0.6221378   0.7383708   0.0061956  )
        25           H   tau(  25) = (   0.1641357   0.5976883   0.4002989  )
        26           H   tau(  26) = (   0.1663463   0.1463740   0.0899334  )
        27           H   tau(  27) = (   0.4988801   0.3062078   0.5783743  )
        28           H   tau(  28) = (   0.4966695   0.7575221   0.8887397  )
        29           H   tau(  29) = (   0.1360655   0.5471927   0.6265829  )
        30           H   tau(  30) = (  -0.1420473   0.0945004   0.8424988  )
        31           H   tau(  31) = (   0.5269503   0.3567034   0.3520902  )
        32           H   tau(  32) = (   0.8050631   0.8093957   0.1361743  )
        33           H   tau(  33) = (   0.2163893   0.2031235   0.6477491  )
        34           H   tau(  34) = (  -0.2226212   0.6534532   0.8213651  )
        35           H   tau(  35) = (   0.4466265   0.7007726   0.3309240  )
        36           H   tau(  36) = (   0.8856370   0.2504429   0.1573080  )
        37           H   tau(  37) = (   0.0015701   0.2660874   0.5906240  )
        38           H   tau(  38) = (   0.3287968   0.7180227  -0.1007266  )
        39           H   tau(  39) = (   0.6614457   0.6378087   0.3880491  )
        40           H   tau(  40) = (   0.3342190   0.1858734   1.0793997  )
        41           H   tau(  41) = (   0.1722207   0.2901989   0.4358227  )
        42           H   tau(  42) = (   0.1583716   0.7418399   0.0542596  )
        43           H   tau(  43) = (   0.4907951   0.6136972   0.5428504  )
        44           H   tau(  44) = (   0.5046443   0.1620562   0.9244135  )

     number of k points=    14
                       cart. coord. in units 2pi/alat
        k(    1) = (   0.0000000   0.0000000   0.0000000), wk =   0.0740741
        k(    2) = (   0.0000000   0.0000000   0.3405972), wk =   0.1481481
        k(    3) = (   0.0000000   0.3687739   0.0000000), wk =   0.1481481
        k(    4) = (   0.0000000   0.3687739   0.3405972), wk =   0.1481481
        k(    5) = (   0.3333333   0.0000000   0.1147759), wk =   0.1481481
        k(    6) = (   0.3333333   0.0000000   0.4553731), wk =   0.1481481
        k(    7) = (   0.3333333   0.0000000  -0.2258213), wk =   0.1481481
        k(    8) = (   0.3333333   0.3687739   0.1147759), wk =   0.1481481
        k(    9) = (   0.3333333   0.3687739   0.4553731), wk =   0.1481481
        k(   10) = (   0.3333333   0.3687739  -0.2258213), wk =   0.1481481
        k(   11) = (   0.0000000   0.3687739  -0.3405972), wk =   0.1481481
        k(   12) = (  -0.3333333   0.3687739  -0.1147759), wk =   0.1481481
        k(   13) = (  -0.3333333   0.3687739  -0.4553731), wk =   0.1481481
        k(   14) = (  -0.3333333   0.3687739   0.2258213), wk =   0.1481481

     Dense  grid:   368213 G-vectors     FFT dimensions: (  96,  90,  96)

     Estimated max dynamical RAM per process >     194.02MB

     Estimated total allocated dynamical RAM >    1552.17MB

     Check: negative/imaginary core charge=   -0.000002    0.000000

     Initial potential from superposition of free atoms

     starting charge  119.99926, renormalised to  120.00000
     Starting wfc are  104 randomized atomic wfcs
     Checking if some PAW data can be deallocated... 

     total cpu time spent up to now is       13.4 secs

     per-process dynamical memory:   216.5 Mb

     Self-consistent Calculation

     iteration #  1     ecut=   100.00 Ry     beta=0.50
     Davidson diagonalization with overlap
     ethr =  1.00E-02,  avg # of iterations =  3.6

     total cpu time spent up to now is       38.2 secs

     total energy              =    -582.34768644 Ry
     Harris-Foulkes estimate   =    -584.69040435 Ry
     estimated scf accuracy    <       4.48423433 Ry

     iteration #  2     ecut=   100.00 Ry     beta=0.50
     Davidson diagonalization with overlap
     ethr =  3.74E-03,  avg # of iterations =  2.0

     total cpu time spent up to now is       52.6 secs

     total energy              =    -582.71747017 Ry
     Harris-Foulkes estimate   =    -583.00856333 Ry
     estimated scf accuracy    <       0.60137101 Ry

     iteration #  3     ecut=   100.00 Ry     beta=0.50
     Davidson diagonalization with overlap
     ethr =  5.01E-04,  avg # of iterations =  6.1

     total cpu time spent up to now is       79.0 secs

     total energy              =    -583.14574530 Ry
     Harris-Foulkes estimate   =    -583.34987867 Ry
     estimated scf accuracy    <       0.56350319 Ry

     iteration #  4     ecut=   100.00 Ry     beta=0.50
     Davidson diagonalization with overlap
     ethr =  4.70E-04,  avg # of iterations =  1.0

     total cpu time spent up to now is       92.1 secs

     total energy              =    -583.06021834 Ry
     Harris-Foulkes estimate   =    -583.17791107 Ry
     estimated scf accuracy    <       0.17954817 Ry

     iteration #  5     ecut=   100.00 Ry     beta=0.50
     Davidson diagonalization with overlap
     ethr =  1.50E-04,  avg # of iterations =  4.9

     total cpu time spent up to now is      117.8 secs

     total energy              =    -583.19335461 Ry
     Harris-Foulkes estimate   =    -583.27504183 Ry
     estimated scf accuracy    <       0.28654147 Ry

     iteration #  6     ecut=   100.00 Ry     beta=0.50
     Davidson diagonalization with overlap
     ethr =  1.50E-04,  avg # of iterations =  1.0

     total cpu time spent up to now is      130.9 secs

     total energy              =    -583.11986575 Ry
     Harris-Foulkes estimate   =    -583.19867932 Ry
     estimated scf accuracy    <       0.14469549 Ry

     iteration #  7     ecut=   100.00 Ry     beta=0.50
     Davidson diagonalization with overlap
     ethr =  1.21E-04,  avg # of iterations =  3.1

     total cpu time spent up to now is      150.5 secs

     total energy              =    -583.17816331 Ry
     Harris-Foulkes estimate   =    -583.18826424 Ry
     estimated scf accuracy    <       0.01859533 Ry

     iteration #  8     ecut=   100.00 Ry     beta=0.50
     Davidson diagonalization with overlap
     ethr =  1.55E-05,  avg # of iterations =  2.2

     total cpu time spent up to now is      165.0 secs

     total energy              =    -583.17910837 Ry
     Harris-Foulkes estimate   =    -583.18013114 Ry
     estimated scf accuracy    <       0.00163560 Ry

     iteration #  9     ecut=   100.00 Ry     beta=0.50
     Davidson diagonalization with overlap
     ethr =  1.36E-06,  avg # of iterations =  4.6

     total cpu time spent up to now is      191.5 secs

     total energy              =    -583.18248045 Ry
     Harris-Foulkes estimate   =    -583.18385524 Ry
     estimated scf accuracy    <       0.00433318 Ry

     iteration # 10     ecut=   100.00 Ry     beta=0.50
     Davidson diagonalization with overlap
     ethr =  1.36E-06,  avg # of iterations =  4.1

     total cpu time spent up to now is      206.4 secs

     total energy              =    -583.18185359 Ry
     Harris-Foulkes estimate   =    -583.18259784 Ry
     estimated scf accuracy    <       0.00169437 Ry

     iteration # 11     ecut=   100.00 Ry     beta=0.50
     Davidson diagonalization with overlap
     ethr =  1.36E-06,  avg # of iterations =  3.5

     total cpu time spent up to now is      225.6 secs

     total energy              =    -583.18245256 Ry
     Harris-Foulkes estimate   =    -583.18245615 Ry
     estimated scf accuracy    <       0.00001817 Ry

     iteration # 12     ecut=   100.00 Ry     beta=0.50
     Davidson diagonalization with overlap
     ethr =  1.51E-08,  avg # of iterations =  3.4

     total cpu time spent up to now is      245.7 secs

     total energy              =    -583.18245538 Ry
     Harris-Foulkes estimate   =    -583.18245958 Ry
     estimated scf accuracy    <       0.00001044 Ry

     iteration # 13     ecut=   100.00 Ry     beta=0.50
     Davidson diagonalization with overlap
     ethr =  8.70E-09,  avg # of iterations =  1.0

     total cpu time spent up to now is      258.8 secs

     total energy              =    -583.18245424 Ry
     Harris-Foulkes estimate   =    -583.18245578 Ry
     estimated scf accuracy    <       0.00000298 Ry

     iteration # 14     ecut=   100.00 Ry     beta=0.50
     Davidson diagonalization with overlap
     ethr =  2.48E-09,  avg # of iterations =  4.0

     total cpu time spent up to now is      280.7 secs

     total energy              =    -583.18245625 Ry
     Harris-Foulkes estimate   =    -583.18245650 Ry
     estimated scf accuracy    <       0.00000087 Ry

     iteration # 15     ecut=   100.00 Ry     beta=0.50
     Davidson diagonalization with overlap
     ethr =  7.24E-10,  avg # of iterations =  1.0

     total cpu time spent up to now is      293.8 secs

     total energy              =    -583.18245602 Ry
     Harris-Foulkes estimate   =    -583.18245627 Ry
     estimated scf accuracy    <       0.00000042 Ry

     iteration # 16     ecut=   100.00 Ry     beta=0.50
     Davidson diagonalization with overlap
     ethr =  3.48E-10,  avg # of iterations =  3.0

     total cpu time spent up to now is      314.6 secs

     total energy              =    -583.18245621 Ry
     Harris-Foulkes estimate   =    -583.18245627 Ry
     estimated scf accuracy    <       0.00000012 Ry

     iteration # 17     ecut=   100.00 Ry     beta=0.50
     Davidson diagonalization with overlap
     ethr =  1.02E-10,  avg # of iterations =  2.0

     total cpu time spent up to now is      328.6 secs

     total energy              =    -583.18245621 Ry
     Harris-Foulkes estimate   =    -583.18245622 Ry
     estimated scf accuracy    <       0.00000002 Ry

     iteration # 18     ecut=   100.00 Ry     beta=0.50
     Davidson diagonalization with overlap
     ethr =  1.48E-11,  avg # of iterations =  4.0

     total cpu time spent up to now is      352.9 secs

     total energy              =    -583.18245623 Ry
     Harris-Foulkes estimate   =    -583.18245624 Ry
     estimated scf accuracy    <       0.00000002 Ry

     iteration # 19     ecut=   100.00 Ry     beta=0.50
     Davidson diagonalization with overlap
     ethr =  1.48E-11,  avg # of iterations =  1.1

     total cpu time spent up to now is      366.0 secs

     End of self-consistent calculation

          k = 0.0000 0.0000 0.0000 ( 45989 PWs)   bands (ev):

   -22.0428 -22.0164 -21.9972 -21.9859 -19.7810 -19.7737 -19.7591 -19.7579
   -13.3554 -13.2344 -13.2313 -13.1553 -11.9306 -11.7772 -11.7103 -11.6071
    -8.1839  -8.1384  -8.1379  -8.0370  -6.8517  -6.5368  -6.5306  -6.4885
    -6.4832  -6.4691  -6.2308  -6.1011  -5.9608  -5.8506  -5.8143  -5.7985
    -5.0984  -5.0079  -4.8049  -4.7385  -4.5671  -4.2284  -4.1784  -4.0913
    -4.0860  -4.0535  -3.9923  -3.8301  -3.7561  -3.4520  -3.4196  -3.0665
    -2.9821  -2.9807  -2.6895  -2.6042  -1.9318  -1.8114  -1.6715  -1.5948
    -1.1608  -1.0892  -0.6935  -0.6676   4.4312   4.5082   4.6197   4.9466
     5.0461   6.3715   6.6694   6.6703   7.1236   7.3627   7.3649   7.4311

          k = 0.0000 0.0000 0.3406 ( 45984 PWs)   bands (ev):

   -22.0377 -22.0215 -21.9973 -21.9859 -19.7760 -19.7697 -19.7649 -19.7610
   -13.3330 -13.2798 -13.1990 -13.1681 -11.8944 -11.8211 -11.6779 -11.6296
    -8.1913  -8.1824  -8.0857  -8.0494  -6.7827  -6.6294  -6.5415  -6.5336
    -6.4188  -6.3888  -6.1345  -6.0677  -6.0005  -5.9154  -5.9016  -5.8758
    -5.0402  -4.8737  -4.6843  -4.6531  -4.4912  -4.3555  -4.2984  -4.1807
    -4.1512  -4.0519  -4.0316  -3.9720  -3.6852  -3.5279  -3.2640  -3.0781
    -2.9480  -2.8791  -2.8057  -2.6919  -1.9282  -1.8946  -1.5716  -1.5517
    -1.0221  -0.9922  -0.8004  -0.7690   4.4333   4.4626   4.7006   4.8516
     5.4258   6.1647   6.6321   6.7920   7.0694   7.4142   7.4505   7.8253

          k = 0.0000 0.3688 0.0000 ( 46026 PWs)   bands (ev):

   -22.0374 -22.0214 -21.9964 -21.9853 -19.7793 -19.7756 -19.7597 -19.7588
   -13.4325 -13.3827 -13.2991 -13.2639 -11.6241 -11.5601 -11.4570 -11.4035
    -8.4697  -8.4270  -8.2520  -8.2305  -6.8086  -6.8007  -6.6890  -6.6234
    -6.4915  -6.3418  -6.2422  -6.1981  -6.0349  -5.9643  -5.9395  -5.8479
    -5.2535  -5.0456  -4.7413  -4.6835  -4.4529  -4.3193  -4.1971  -4.1436
    -3.7180  -3.7129  -3.6626  -3.6125  -3.4792  -3.3629  -3.2027  -3.0281
    -3.0109  -2.9858  -2.6867  -2.6398  -1.8487  -1.7599  -1.7026  -1.6551
    -1.0611  -1.0114  -0.7220  -0.7168   4.3276   4.3669   4.6359   4.7877
     5.1758   5.6591   6.5206   6.7215   7.0547   7.1772   7.2745   7.4876

          k = 0.0000 0.3688 0.3406 ( 46044 PWs)   bands (ev):

   -22.0354 -22.0228 -21.9968 -21.9855 -19.7748 -19.7715 -19.7651 -19.7622
   -13.4165 -13.3919 -13.2931 -13.2759 -11.6113 -11.5794 -11.4420 -11.4163
    -8.4396  -8.4101  -8.2817  -8.2626  -6.7857  -6.7410  -6.6994  -6.6046
    -6.5873  -6.4284  -6.1470  -6.0862  -6.0326  -5.9818  -5.9290  -5.8674
    -5.1653  -5.0902  -4.6444  -4.6027  -4.5019  -4.4282  -4.3287  -4.2899
    -3.7380  -3.7127  -3.6899  -3.6466  -3.4234  -3.3483  -3.1270  -2.9984
    -2.9313  -2.9177  -2.7939  -2.7301  -1.8441  -1.8182  -1.6418  -1.6320
    -0.9548  -0.9362  -0.7964  -0.7776   4.3430   4.3592   4.6623   4.7363
     5.5029   5.9053   6.1805   6.4460   7.0981   7.1900   7.4887   7.6833

          k = 0.3333 0.0000 0.1148 ( 45981 PWs)   bands (ev):

   -22.0309 -22.0105 -22.0066 -21.9947 -19.7765 -19.7691 -19.7657 -19.7601
   -13.3280 -13.2704 -13.2080 -13.1730 -11.8831 -11.7930 -11.7097 -11.6445
    -8.1764  -8.1531  -8.1143  -8.0633  -6.7340  -6.5699  -6.5307  -6.5215
    -6.4364  -6.3404  -6.2363  -6.1075  -6.0001  -5.9453  -5.9201  -5.9069
    -4.9842  -4.7891  -4.7308  -4.6229  -4.4998  -4.3794  -4.3107  -4.1725
    -4.1638  -4.0360  -4.0291  -3.9728  -3.6787  -3.5027  -3.3485  -3.1518
    -2.9217  -2.8681  -2.7696  -2.6875  -1.8898  -1.8321  -1.6374  -1.5997
    -1.0387  -0.9668  -0.8013  -0.7612   4.4525   4.5215   4.6411   4.8375
     5.4832   6.2466   6.9292   6.9698   7.0686   7.1755   7.4385   7.5991

          k = 0.3333 0.0000 0.4554 ( 46045 PWs)   bands (ev):

   -22.0260 -22.0149 -22.0089 -21.9928 -19.7733 -19.7723 -19.7678 -19.7582
   -13.3094 -13.2684 -13.2364 -13.1675 -11.8538 -11.7839 -11.7543 -11.6393
    -8.1912  -8.1712  -8.0751  -8.0734  -6.6840  -6.5920  -6.5899  -6.5122
    -6.4299  -6.2401  -6.1483  -6.0419  -6.0335  -5.9867  -5.9713  -5.9455
    -4.9689  -4.7799  -4.7576  -4.6518  -4.5921  -4.3852  -4.2756  -4.2245
    -4.1368  -4.0636  -4.0615  -3.9610  -3.6061  -3.5344  -3.2770  -3.1372
    -3.0295  -2.8713  -2.7355  -2.7047  -1.8960  -1.8863  -1.5759  -1.5428
    -1.0253  -0.9822  -0.7919  -0.7754   4.4372   4.5312   4.6878   4.7655
     5.8737   6.2494   6.5627   6.7975   7.1520   7.3025   7.4884   7.8324

          k = 0.3333 0.0000-0.2258 ( 46034 PWs)   bands (ev):

   -22.0310 -22.0099 -22.0072 -21.9946 -19.7791 -19.7755 -19.7630 -19.7540
   -13.3106 -13.2812 -13.2054 -13.1834 -11.8568 -11.8150 -11.6961 -11.6669
    -8.1839  -8.1757  -8.0912  -8.0526  -6.7528  -6.5871  -6.5420  -6.4334
    -6.4162  -6.3387  -6.2251  -6.0740  -6.0110  -5.9524  -5.8618  -5.8110
    -5.0624  -4.9421  -4.9079  -4.7727  -4.5320  -4.4461  -4.1932  -4.1400
    -4.0699  -4.0579  -3.9604  -3.8601  -3.6368  -3.5096  -3.2802  -3.1765
    -3.0813  -2.9746  -2.6527  -2.6146  -1.9122  -1.8688  -1.5739  -1.5559
    -1.1411  -1.1041  -0.6897  -0.6732   4.4960   4.5103   4.5719   4.8541
     5.6783   6.3191   6.6157   6.6292   7.2178   7.2746   7.3715   7.7797

          k = 0.3333 0.3688 0.1148 ( 46021 PWs)   bands (ev):

   -22.0273 -22.0129 -22.0061 -21.9946 -19.7752 -19.7722 -19.7639 -19.7620
   -13.4039 -13.3640 -13.3229 -13.2898 -11.5915 -11.5466 -11.4767 -11.4360
    -8.4209  -8.3826  -8.3138  -8.2830  -6.7803  -6.7663  -6.6871  -6.6439
    -6.4917  -6.2552  -6.1686  -6.1170  -6.0924  -6.0085  -5.9576  -5.9284
    -5.1534  -4.9997  -4.7827  -4.7389  -4.4391  -4.3685  -4.2998  -4.2401
    -3.7385  -3.7023  -3.6631  -3.6386  -3.4123  -3.2661  -3.2542  -3.0844
    -2.9436  -2.9039  -2.7746  -2.7233  -1.8179  -1.7726  -1.6764  -1.6551
    -0.9640  -0.9200  -0.7969  -0.7719   4.3715   4.4129   4.5842   4.6837
     5.5372   5.8693   6.5153   6.6102   7.1230   7.3008   7.3383   7.4789

          k = 0.3333 0.3688 0.4554 ( 46026 PWs)   bands (ev):

   -22.0255 -22.0148 -22.0063 -21.9942 -19.7743 -19.7729 -19.7656 -19.7607
   -13.3956 -13.3671 -13.3291 -13.2880 -11.5846 -11.5509 -11.4857 -11.4342
    -8.4190  -8.3913  -8.3209  -8.2759  -6.7936  -6.7354  -6.6425  -6.6179
    -6.4711  -6.3237  -6.1566  -6.1015  -6.0547  -5.9994  -5.9841  -5.9611
    -5.0857  -5.0009  -4.7702  -4.6575  -4.5659  -4.4554  -4.3620  -4.2769
    -3.7418  -3.7346  -3.6769  -3.6474  -3.3473  -3.2800  -3.1599  -3.0548
    -3.0141  -2.9084  -2.7435  -2.7332  -1.8284  -1.7999  -1.6547  -1.6152
    -0.9582  -0.9331  -0.7848  -0.7750   4.3788   4.4172   4.6046   4.6510
     5.8110   5.9839   6.3531   6.5913   7.1602   7.1853   7.3311   7.5391

          k = 0.3333 0.3688-0.2258 ( 46050 PWs)   bands (ev):

   -22.0275 -22.0140 -22.0050 -21.9943 -19.7785 -19.7770 -19.7611 -19.7569
   -13.4033 -13.3751 -13.3144 -13.2869 -11.5780 -11.5646 -11.4661 -11.4468
    -8.4573  -8.4206  -8.2826  -8.2393  -6.8238  -6.7813  -6.5590  -6.4900
    -6.4539  -6.3154  -6.2383  -6.1821  -6.1183  -6.0230  -5.9491  -5.9401
    -5.0812  -5.0207  -4.7349  -4.7236  -4.6510  -4.4626  -4.2962  -4.1499
    -3.7564  -3.7280  -3.6636  -3.6255  -3.3426  -3.2917  -3.1579  -3.0969
    -3.0549  -2.9991  -2.6609  -2.6399  -1.8435  -1.7848  -1.6601  -1.6201
    -1.0455  -1.0225  -0.7168  -0.7086   4.3908   4.4071   4.5614   4.6902
     5.6554   5.8646   6.5244   6.7804   6.9964   7.2262   7.3395   7.5517

          k = 0.0000 0.3688-0.3406 ( 46044 PWs)   bands (ev):

   -22.0353 -22.0229 -21.9968 -21.9855 -19.7748 -19.7718 -19.7641 -19.7631
   -13.4183 -13.3894 -13.2953 -13.2744 -11.6111 -11.5795 -11.4430 -11.4155
    -8.4397  -8.4094  -8.2835  -8.2614  -6.7866  -6.7401  -6.7031  -6.6042
    -6.5820  -6.4307  -6.1407  -6.0922  -6.0325  -5.9824  -5.9280  -5.8678
    -5.1653  -5.0907  -4.6474  -4.5981  -4.5026  -4.4255  -4.3283  -4.2933
    -3.7435  -3.7127  -3.6855  -3.6455  -3.4216  -3.3503  -3.1261  -3.0002
    -2.9297  -2.9188  -2.7925  -2.7313  -1.8439  -1.8197  -1.6402  -1.6320
    -0.9555  -0.9368  -0.7951  -0.7773   4.3392   4.3629   4.6635   4.7343
     5.5036   5.9065   6.1777   6.4470   7.0954   7.1927   7.4922   7.6794

          k =-0.3333 0.3688-0.1148 ( 46021 PWs)   bands (ev):

   -22.0271 -22.0135 -22.0055 -21.9947 -19.7756 -19.7713 -19.7652 -19.7613
   -13.4033 -13.3664 -13.3198 -13.2910 -11.5915 -11.5470 -11.4756 -11.4368
    -8.4220  -8.3813  -8.3128  -8.2841  -6.7804  -6.7669  -6.6848  -6.6472
    -6.4888  -6.2604  -6.1650  -6.1154  -6.0886  -6.0078  -5.9595  -5.9328
    -5.1548  -4.9971  -4.7884  -4.7328  -4.4364  -4.3691  -4.3034  -4.2396
    -3.7441  -3.6961  -3.6564  -3.6459  -3.4117  -3.2656  -3.2567  -3.0815
    -2.9454  -2.9040  -2.7733  -2.7242  -1.8152  -1.7756  -1.6761  -1.6550
    -0.9650  -0.9206  -0.7950  -0.7721   4.3691   4.4167   4.5818   4.6853
     5.5335   5.8712   6.5123   6.6192   7.1303   7.2939   7.3285   7.4791

          k =-0.3333 0.3688-0.4554 ( 46026 PWs)   bands (ev):

   -22.0257 -22.0144 -22.0066 -21.9941 -19.7739 -19.7733 -19.7655 -19.7607
   -13.3956 -13.3678 -13.3270 -13.2893 -11.5847 -11.5510 -11.4855 -11.4342
    -8.4173  -8.3932  -8.3199  -8.2768  -6.7930  -6.7368  -6.6411  -6.6169
    -6.4693  -6.3296  -6.1601  -6.1022  -6.0475  -6.0045  -5.9818  -5.9577
    -5.0870  -4.9997  -4.7720  -4.6577  -4.5677  -4.4589  -4.3568  -4.2756
    -3.7455  -3.7280  -3.6760  -3.6507  -3.3453  -3.2843  -3.1583  -3.0548
    -3.0150  -2.9073  -2.7432  -2.7339  -1.8312  -1.7987  -1.6548  -1.6135
    -0.9571  -0.9325  -0.7854  -0.7761   4.3788   4.4168   4.6093   4.6460
     5.8079   5.9854   6.3610   6.5892   7.1584   7.1871   7.3294   7.5293

          k =-0.3333 0.3688 0.2258 ( 46050 PWs)   bands (ev):

   -22.0274 -22.0144 -22.0046 -21.9944 -19.7787 -19.7766 -19.7615 -19.7566
   -13.3985 -13.3828 -13.3077 -13.2908 -11.5784 -11.5647 -11.4615 -11.4509
    -8.4583  -8.4197  -8.2820  -8.2396  -6.8229  -6.7817  -6.5563  -6.4960
    -6.4522  -6.3148  -6.2420  -6.1770  -6.1169  -6.0236  -5.9496  -5.9418
    -5.0819  -5.0195  -4.7409  -4.7179  -4.6485  -4.4648  -4.2972  -4.1487
    -3.7580  -3.7256  -3.6611  -3.6292  -3.3438  -3.2912  -3.1595  -3.0924
    -3.0572  -2.9985  -2.6608  -2.6400  -1.8421  -1.7840  -1.6633  -1.6195
    -1.0456  -1.0225  -0.7169  -0.7084   4.3954   4.4028   4.5602   4.6921
     5.6521   5.8642   6.5355   6.7756   7.0020   7.2206   7.3336   7.5425

     highest occupied, lowest unoccupied level (ev):    -0.6676    4.3276

!    total energy              =    -583.18245623 Ry
     Harris-Foulkes estimate   =    -583.18245623 Ry
     estimated scf accuracy    <          9.4E-09 Ry

     total all-electron energy =     -2147.126709 Ry

     The total energy is the sum of the following terms:

     one-electron contribution =    -326.06045588 Ry
     hartree contribution      =     206.22909444 Ry
     xc contribution           =    -126.06079848 Ry
     ewald contribution        =    -181.16695409 Ry
     Dispersion Correction     =      -0.17110604 Ry
     one-center paw contrib.   =    -155.95223619 Ry

     convergence has been achieved in  19 iterations

     Forces acting on atoms (cartesian axes, Ry/au):

     atom    1 type  1   force =     0.00283062    0.01071798    0.00177220
     atom    2 type  1   force =    -0.00278422    0.01045917   -0.00175528
     atom    3 type  1   force =    -0.00283062   -0.01071798   -0.00177220
     atom    4 type  1   force =     0.00278422   -0.01045917    0.00175528
     atom    5 type  4   force =    -0.00301778   -0.00639970   -0.00044986
     atom    6 type  4   force =     0.00296392   -0.00639137    0.00080028
     atom    7 type  4   force =     0.00301778    0.00639970    0.00044986
     atom    8 type  4   force =    -0.00296392    0.00639137   -0.00080028
     atom    9 type  1   force =     0.00416536    0.00208879    0.00522449
     atom   10 type  1   force =    -0.00428529    0.00199509   -0.00512687
     atom   11 type  1   force =    -0.00416536   -0.00208879   -0.00522449
     atom   12 type  1   force =     0.00428529   -0.00199509    0.00512687
     atom   13 type  4   force =     0.00015004   -0.00230905   -0.00171045
     atom   14 type  4   force =    -0.00022258   -0.00080097    0.00128528
     atom   15 type  4   force =    -0.00015004    0.00230905    0.00171045
     atom   16 type  4   force =     0.00022258    0.00080097   -0.00128528
     atom   17 type  1   force =    -0.00220710   -0.00223394   -0.00799916
     atom   18 type  1   force =     0.00228522   -0.00208609    0.00800372
     atom   19 type  1   force =     0.00220710    0.00223394    0.00799916
     atom   20 type  1   force =    -0.00228522    0.00208609   -0.00800372
     atom   21 type  3   force =    -0.00091516    0.00049556   -0.00016775
     atom   22 type  3   force =     0.00124469   -0.00039930    0.00025785
     atom   23 type  3   force =     0.00091516   -0.00049556    0.00016775
     atom   24 type  3   force =    -0.00124469    0.00039930   -0.00025785
     atom   25 type  3   force =    -0.00098253    0.00102460   -0.00095909
     atom   26 type  3   force =     0.00110144    0.00062618    0.00062251
     atom   27 type  3   force =     0.00098253   -0.00102460    0.00095909
     atom   28 type  3   force =    -0.00110144   -0.00062618   -0.00062251
     atom   29 type  3   force =    -0.00063920    0.00127729   -0.00024567
     atom   30 type  3   force =     0.00052956    0.00171716    0.00022634
     atom   31 type  3   force =     0.00063920   -0.00127729    0.00024567
     atom   32 type  3   force =    -0.00052956   -0.00171716   -0.00022634
     atom   33 type  3   force =     0.00029011    0.00008814    0.00119715
     atom   34 type  3   force =    -0.00038098    0.00106856   -0.00129803
     atom   35 type  3   force =    -0.00029011   -0.00008814   -0.00119715
     atom   36 type  3   force =     0.00038098   -0.00106856    0.00129803
     atom   37 type  3   force =     0.00131463   -0.00071993   -0.00019517
     atom   38 type  3   force =    -0.00130740   -0.00158054    0.00044342
     atom   39 type  3   force =    -0.00131463    0.00071993    0.00019517
     atom   40 type  3   force =     0.00130740    0.00158054   -0.00044342
     atom   41 type  3   force =    -0.00168432   -0.00342443    0.00289965
     atom   42 type  3   force =     0.00164248   -0.00398247   -0.00295125
     atom   43 type  3   force =     0.00168432    0.00342443   -0.00289965
     atom   44 type  3   force =    -0.00164248    0.00398247    0.00295125

     Total force =     0.036801     Total SCF correction =     0.000125


     Computing stress (Cartesian axis) and pressure

          total   stress  (Ry/bohr**3)                   (kbar)     P=   -3.92
  -0.00003234  -0.00000173   0.00003723         -4.76     -0.25      5.48
  -0.00000173  -0.00003350   0.00000059         -0.25     -4.93      0.09
   0.00003723   0.00000059  -0.00001405          5.48      0.09     -2.07


     Writing output data file scf.save
 
     init_run     :     12.23s CPU     12.68s WALL (       1 calls)
     electrons    :    337.56s CPU    352.81s WALL (       1 calls)
     forces       :      5.99s CPU      6.03s WALL (       1 calls)
     stress       :     16.49s CPU     16.50s WALL (       1 calls)

     Called by init_run:
     wfcinit      :      6.91s CPU      7.20s WALL (       1 calls)
     potinit      :      1.84s CPU      1.90s WALL (       1 calls)

     Called by electrons:
     c_bands      :    289.99s CPU    303.10s WALL (      19 calls)
     sum_band     :     39.85s CPU     41.74s WALL (      19 calls)
     v_of_rho     :      1.06s CPU      1.17s WALL (      20 calls)
     newd         :      2.07s CPU      2.15s WALL (      20 calls)
     PAW_pot      :      4.15s CPU      4.16s WALL (      20 calls)
     mix_rho      :      0.27s CPU      0.28s WALL (      19 calls)

     Called by c_bands:
     init_us_2    :      4.19s CPU      4.20s WALL (     574 calls)
     cegterg      :    278.37s CPU    291.39s WALL (     266 calls)

     Called by sum_band:
     sum_band:bec :      0.03s CPU      0.03s WALL (     266 calls)
     addusdens    :      2.21s CPU      2.27s WALL (      19 calls)

     Called by *egterg:
     h_psi        :    200.10s CPU    210.12s WALL (    1059 calls)
     s_psi        :     18.49s CPU     18.49s WALL (    1059 calls)
     g_psi        :      1.72s CPU      1.72s WALL (     779 calls)
     cdiaghg      :     13.03s CPU     13.04s WALL (    1045 calls)

     Called by h_psi:
     h_psi:pot    :    198.32s CPU    208.33s WALL (    1059 calls)
     h_psi:calbec :     17.00s CPU     17.09s WALL (    1059 calls)
     vloc_psi     :    163.01s CPU    172.91s WALL (    1059 calls)
     add_vuspsi   :     18.32s CPU     18.32s WALL (    1059 calls)

     General routines
     calbec       :     24.74s CPU     24.86s WALL (    1395 calls)
     fft          :      0.67s CPU      0.86s WALL (     284 calls)
     fftw         :    175.50s CPU    186.64s WALL (  130422 calls)
 
     Parallel routines
     fft_scatter  :     37.93s CPU     44.04s WALL (  130706 calls)
 
     PWSCF        :  6m16.18s CPU     6m33.06s WALL

 
   This run was terminated on:  20:26:21   3Nov2017            

=------------------------------------------------------------------------------=
   JOB DONE.
=------------------------------------------------------------------------------=
