
     Program PWSCF v.6.1 (svn rev. 13369) starts on  3Nov2017 at 21:15:21 

     This program is part of the open-source Quantum ESPRESSO suite
     for quantum simulation of materials; please cite
         "P. Giannozzi et al., J. Phys.:Condens. Matter 21 395502 (2009);
          URL http://www.quantum-espresso.org", 
     in publications or presentations arising from this work. More details at
     http://www.quantum-espresso.org/quote

     Parallel version (MPI), running on     8 processors
     R & G space division:  proc/nbgrp/npool/nimage =       8
     Waiting for input...
     Reading input from standard input

     Current dimensions of program PWSCF are:
     Max number of different atomic species (ntypx) = 10
     Max number of k-points (npk) =  40000
     Max angular momentum in pseudopotentials (lmaxx) =  3
               file C.pbe-n-kjpaw_psl.0.1.UPF: wavefunction(s)  2P renormalized
               file N.pbe-n-kjpaw_psl.0.1.UPF: wavefunction(s)  2P renormalized
               file H.pbe-kjpaw_psl.0.1.UPF: wavefunction(s)  1S renormalized
               file O.pbe-n-kjpaw_psl.0.1.UPF: wavefunction(s)  2P renormalized

     -------------------------------------
     Parameters for Dispersion Correction:
     -------------------------------------
       atom      VdW radius       C_6     

        C          2.744         60.710
        N          2.640         42.670
        H          1.892          4.857
        O          2.536         24.284

     Subspace diagonalization in iterative solution of the eigenvalue problem:
     a serial algorithm will be used

 
     Parallelization info
     --------------------
     sticks:   dense  smooth     PW     G-vecs:    dense   smooth      PW
     Min         568     568    154                45197    45197    6349
     Max         569     569    155                45202    45202    6352
     Sum        4547    4547   1235               361593   361593   50805
 


     bravais-lattice index     =            0
     lattice parameter (alat)  =      19.0730  a.u.
     unit-cell volume          =    2676.9904 (a.u.)^3
     number of atoms/cell      =           40
     number of atomic types    =            4
     number of electrons       =       128.00
     number of Kohn-Sham states=           76
     kinetic-energy cutoff     =     100.0000  Ry
     charge density cutoff     =     400.0000  Ry
     convergence threshold     =      1.0E-08
     mixing beta               =       0.5000
     number of iterations used =            8  plain     mixing
     Exchange-correlation      =  SLA  PW   PBX  PBC ( 1  4  3  4 0 0)

     celldm(1)=  19.073006  celldm(2)=   0.000000  celldm(3)=   0.000000
     celldm(4)=   0.000000  celldm(5)=   0.000000  celldm(6)=   0.000000

     crystal axes: (cart. coord. in units of alat)
               a(1) = (   1.000000   0.000000   0.000000 )  
               a(2) = (   0.000000   0.393540   0.000000 )  
               a(3) = (   0.190924   0.000000   0.980393 )  

     reciprocal axes: (cart. coord. in units 2 pi/alat)
               b(1) = (  1.000000  0.000000 -0.194743 )  
               b(2) = (  0.000000  2.541037  0.000000 )  
               b(3) = (  0.000000  0.000000  1.019999 )  


     PseudoPot. # 1 for  C read from file:
     /scratch/ahofstet/pseudo/C.pbe-n-kjpaw_psl.0.1.UPF
     MD5 check sum: 430fe95172b1e11ef3f8ed03bac87931
     Pseudo is Projector augmented-wave + core cor, Zval =  4.0
     Generated using "atomic" code by A. Dal Corso  v.5.0.99 svn rev. 10869
     Shape of augmentation charge: BESSEL
     Using radial grid of 1073 points,  4 beta functions with: 
                l(1) =   0
                l(2) =   0
                l(3) =   1
                l(4) =   1
     Q(r) pseudized with 0 coefficients 


     PseudoPot. # 2 for  N read from file:
     /scratch/ahofstet/pseudo/N.pbe-n-kjpaw_psl.0.1.UPF
     MD5 check sum: f73187c8b701007e77325f868c9291d7
     Pseudo is Projector augmented-wave + core cor, Zval =  5.0
     Generated using "atomic" code by A. Dal Corso  v.5.0.99 svn rev. 10869
     Shape of augmentation charge: PSQ
     Using radial grid of 1085 points,  4 beta functions with: 
                l(1) =   0
                l(2) =   0
                l(3) =   1
                l(4) =   1
     Q(r) pseudized with 0 coefficients 


     PseudoPot. # 3 for  H read from file:
     /scratch/ahofstet/pseudo/H.pbe-kjpaw_psl.0.1.UPF
     MD5 check sum: 94e484f906d9e9773b2f6e52662335b2
     Pseudo is Projector augmented-wave, Zval =  1.0
     Generated using "atomic" code by A. Dal Corso  v.5.0.99 svn rev. 10869
     Shape of augmentation charge: PSQ
     Using radial grid of  929 points,  2 beta functions with: 
                l(1) =   0
                l(2) =   0
     Q(r) pseudized with 0 coefficients 


     PseudoPot. # 4 for  O read from file:
     /scratch/ahofstet/pseudo/O.pbe-n-kjpaw_psl.0.1.UPF
     MD5 check sum: 3f94a2996a3169367d6eb21d9b593f20
     Pseudo is Projector augmented-wave + core cor, Zval =  6.0
     Generated using "atomic" code by A. Dal Corso  v.5.0.99 svn rev. 10869
     Shape of augmentation charge: BESSEL
     Using radial grid of 1095 points,  4 beta functions with: 
                l(1) =   0
                l(2) =   0
                l(3) =   1
                l(4) =   1
     Q(r) pseudized with 0 coefficients 


     atomic species   valence    mass     pseudopotential
        C              4.00    12.01070      C( 1.00)
        N              5.00    14.00670      N( 1.00)
        H              1.00     1.00794      H( 1.00)
        O              6.00    15.99940      O( 1.00)

      2 Sym. Ops., with inversion, found
          (note:  2 additional sym.ops. were found but ignored
           their fractional translations are incommensurate with FFT grid)


   Cartesian axes

     site n.     atom                  positions (alat units)
         1           C   tau(   1) = (   0.8747562   0.3394326   0.3537185  )
         2           C   tau(   2) = (   0.2207060   0.1426626   0.1364782  )
         3           C   tau(   3) = (   0.3161682   0.0541075   0.6266750  )
         4           C   tau(   4) = (   0.9702183   0.2508775   0.8439153  )
         5           C   tau(   5) = (   0.6801182   0.0400753   0.3455955  )
         6           C   tau(   6) = (   0.4153439   0.2368453   0.1446013  )
         7           C   tau(   7) = (   0.5108061   0.3534648   0.6347980  )
         8           C   tau(   8) = (   0.7755804   0.1566947   0.8357922  )
         9           C   tau(   9) = (   0.7653103   0.1098856   0.2692304  )
        10           C   tau(  10) = (   0.3301519   0.3066557   0.2209664  )
        11           C   tau(  11) = (   0.4256141   0.2836544   0.7111631  )
        12           C   tau(  12) = (   0.8607725   0.0868844   0.7594271  )
        13           N   tau(  13) = (   0.8899117   0.4412716   0.2736219  )
        14           N   tau(  14) = (   0.2055504   0.2445016   0.2165748  )
        15           N   tau(  15) = (   0.3010126  -0.0477315   0.7067716  )
        16           N   tau(  16) = (   0.9853739   0.1490385   0.7638187  )
        17           N   tau(  17) = (   0.9665320   0.2555310   0.3964566  )
        18           N   tau(  18) = (   0.1289302   0.0587609   0.0937402  )
        19           N   tau(  19) = (   0.2243924   0.1380091   0.5839369  )
        20           N   tau(  20) = (   1.0619942   0.3347792   0.8866533  )
        21           O   tau(  21) = (   0.7450833   0.3294247   0.4011300  )
        22           O   tau(  22) = (   0.3503789   0.1326547   0.0890668  )
        23           O   tau(  23) = (   0.4458411   0.0641153   0.5792635  )
        24           O   tau(  24) = (   0.8405455   0.2608854   0.8913267  )
        25           H   tau(  25) = (   0.5755313   0.0492927   0.3683524  )
        26           H   tau(  26) = (   0.5199309   0.2460628   0.1218444  )
        27           H   tau(  27) = (   0.6153931   0.3442473   0.6120411  )
        28           H   tau(  28) = (   0.6709935   0.1474773   0.8585491  )
        29           H   tau(  29) = (   0.7484213   0.1924871   0.2031045  )
        30           H   tau(  30) = (   0.3470409   0.3892572   0.2870922  )
        31           H   tau(  31) = (   0.4425030   0.2010529   0.7772890  )
        32           H   tau(  32) = (   0.8438835   0.0042829   0.6933013  )
        33           H   tau(  33) = (   1.0566841   0.2749905   0.3518084  )
        34           H   tau(  34) = (   0.0387781   0.0782204   0.1383884  )
        35           H   tau(  35) = (   0.1342403   0.1185496   0.6285851  )
        36           H   tau(  36) = (   1.1521463   0.3153197   0.8420051  )
        37           H   tau(  37) = (   0.9445978   0.1547153   0.3700171  )
        38           H   tau(  38) = (   0.1508644  -0.0420548   0.1201796  )
        39           H   tau(  39) = (   0.2463266   0.2388248   0.6103764  )
        40           H   tau(  40) = (   0.8491356   0.4355948  -0.1201796  )

     number of k points=    12
                       cart. coord. in units 2pi/alat
        k(    1) = (   0.0000000   0.0000000   0.0000000), wk =   0.1000000
        k(    2) = (   0.0000000   0.0000000  -0.5099993), wk =   0.1000000
        k(    3) = (   0.0000000   0.5082075   0.0000000), wk =   0.2000000
        k(    4) = (   0.0000000   0.5082075  -0.5099993), wk =   0.2000000
        k(    5) = (   0.0000000   1.0164149   0.0000000), wk =   0.2000000
        k(    6) = (   0.0000000   1.0164149  -0.5099993), wk =   0.2000000
        k(    7) = (  -0.5000000   0.0000000   0.0973713), wk =   0.1000000
        k(    8) = (  -0.5000000   0.0000000  -0.4126280), wk =   0.1000000
        k(    9) = (  -0.5000000   0.5082075   0.0973713), wk =   0.2000000
        k(   10) = (  -0.5000000   0.5082075  -0.4126280), wk =   0.2000000
        k(   11) = (  -0.5000000   1.0164149   0.0973713), wk =   0.2000000
        k(   12) = (  -0.5000000   1.0164149  -0.4126280), wk =   0.2000000

     Dense  grid:   361593 G-vectors     FFT dimensions: ( 125,  48, 125)

     Estimated max dynamical RAM per process >     186.75MB

     Estimated total allocated dynamical RAM >    1494.01MB

     Check: negative/imaginary core charge=   -0.000002    0.000000

     Initial potential from superposition of free atoms

     starting charge  127.99928, renormalised to  128.00000
     Starting wfc are  112 randomized atomic wfcs
     Checking if some PAW data can be deallocated... 

     total cpu time spent up to now is       11.9 secs

     per-process dynamical memory:   205.6 Mb

     Self-consistent Calculation

     iteration #  1     ecut=   100.00 Ry     beta=0.50
     Davidson diagonalization with overlap
     ethr =  1.00E-02,  avg # of iterations =  3.5

     total cpu time spent up to now is       33.0 secs

     total energy              =    -631.52385628 Ry
     Harris-Foulkes estimate   =    -633.78537003 Ry
     estimated scf accuracy    <       4.22210215 Ry

     iteration #  2     ecut=   100.00 Ry     beta=0.50
     Davidson diagonalization with overlap
     ethr =  3.30E-03,  avg # of iterations =  2.9

     total cpu time spent up to now is       46.2 secs

     total energy              =    -632.07005960 Ry
     Harris-Foulkes estimate   =    -632.31472341 Ry
     estimated scf accuracy    <       0.51931111 Ry

     iteration #  3     ecut=   100.00 Ry     beta=0.50
     Davidson diagonalization with overlap
     ethr =  4.06E-04,  avg # of iterations =  5.7

     total cpu time spent up to now is       67.6 secs

     total energy              =    -632.27626812 Ry
     Harris-Foulkes estimate   =    -632.40849998 Ry
     estimated scf accuracy    <       0.33243432 Ry

     iteration #  4     ecut=   100.00 Ry     beta=0.50
     Davidson diagonalization with overlap
     ethr =  2.60E-04,  avg # of iterations =  4.5

     total cpu time spent up to now is       80.5 secs

     total energy              =    -632.31557328 Ry
     Harris-Foulkes estimate   =    -632.33089158 Ry
     estimated scf accuracy    <       0.04040083 Ry

     iteration #  5     ecut=   100.00 Ry     beta=0.50
     Davidson diagonalization with overlap
     ethr =  3.16E-05,  avg # of iterations =  5.2

     total cpu time spent up to now is      102.1 secs

     total energy              =    -632.33354516 Ry
     Harris-Foulkes estimate   =    -632.34032035 Ry
     estimated scf accuracy    <       0.01855919 Ry

     iteration #  6     ecut=   100.00 Ry     beta=0.50
     Davidson diagonalization with overlap
     ethr =  1.45E-05,  avg # of iterations =  1.4

     total cpu time spent up to now is      113.1 secs

     total energy              =    -632.33345103 Ry
     Harris-Foulkes estimate   =    -632.33484077 Ry
     estimated scf accuracy    <       0.00312560 Ry

     iteration #  7     ecut=   100.00 Ry     beta=0.50
     Davidson diagonalization with overlap
     ethr =  2.44E-06,  avg # of iterations =  4.8

     total cpu time spent up to now is      135.7 secs

     total energy              =    -632.33544349 Ry
     Harris-Foulkes estimate   =    -632.33623425 Ry
     estimated scf accuracy    <       0.00167443 Ry

     iteration #  8     ecut=   100.00 Ry     beta=0.50
     Davidson diagonalization with overlap
     ethr =  1.31E-06,  avg # of iterations =  1.1

     total cpu time spent up to now is      146.6 secs

     total energy              =    -632.33553290 Ry
     Harris-Foulkes estimate   =    -632.33560646 Ry
     estimated scf accuracy    <       0.00023946 Ry

     iteration #  9     ecut=   100.00 Ry     beta=0.50
     Davidson diagonalization with overlap
     ethr =  1.87E-07,  avg # of iterations =  4.2

     total cpu time spent up to now is      167.6 secs

     total energy              =    -632.33574439 Ry
     Harris-Foulkes estimate   =    -632.33578463 Ry
     estimated scf accuracy    <       0.00009875 Ry

     iteration # 10     ecut=   100.00 Ry     beta=0.50
     Davidson diagonalization with overlap
     ethr =  7.71E-08,  avg # of iterations =  1.0

     total cpu time spent up to now is      178.4 secs

     total energy              =    -632.33574108 Ry
     Harris-Foulkes estimate   =    -632.33575056 Ry
     estimated scf accuracy    <       0.00002321 Ry

     iteration # 11     ecut=   100.00 Ry     beta=0.50
     Davidson diagonalization with overlap
     ethr =  1.81E-08,  avg # of iterations =  3.3

     total cpu time spent up to now is      197.9 secs

     total energy              =    -632.33575638 Ry
     Harris-Foulkes estimate   =    -632.33575901 Ry
     estimated scf accuracy    <       0.00000720 Ry

     iteration # 12     ecut=   100.00 Ry     beta=0.50
     Davidson diagonalization with overlap
     ethr =  5.63E-09,  avg # of iterations =  1.0

     total cpu time spent up to now is      208.7 secs

     total energy              =    -632.33575570 Ry
     Harris-Foulkes estimate   =    -632.33575671 Ry
     estimated scf accuracy    <       0.00000218 Ry

     iteration # 13     ecut=   100.00 Ry     beta=0.50
     Davidson diagonalization with overlap
     ethr =  1.70E-09,  avg # of iterations =  3.0

     total cpu time spent up to now is      226.8 secs

     total energy              =    -632.33575683 Ry
     Harris-Foulkes estimate   =    -632.33575696 Ry
     estimated scf accuracy    <       0.00000033 Ry

     iteration # 14     ecut=   100.00 Ry     beta=0.50
     Davidson diagonalization with overlap
     ethr =  2.62E-10,  avg # of iterations =  1.0

     total cpu time spent up to now is      237.7 secs

     total energy              =    -632.33575680 Ry
     Harris-Foulkes estimate   =    -632.33575685 Ry
     estimated scf accuracy    <       0.00000008 Ry

     iteration # 15     ecut=   100.00 Ry     beta=0.50
     Davidson diagonalization with overlap
     ethr =  6.30E-11,  avg # of iterations =  4.0

     total cpu time spent up to now is      258.3 secs

     total energy              =    -632.33575687 Ry
     Harris-Foulkes estimate   =    -632.33575690 Ry
     estimated scf accuracy    <       0.00000008 Ry

     iteration # 16     ecut=   100.00 Ry     beta=0.50
     Davidson diagonalization with overlap
     ethr =  6.05E-11,  avg # of iterations =  1.0

     total cpu time spent up to now is      269.2 secs

     total energy              =    -632.33575686 Ry
     Harris-Foulkes estimate   =    -632.33575687 Ry
     estimated scf accuracy    <       0.00000003 Ry

     iteration # 17     ecut=   100.00 Ry     beta=0.50
     Davidson diagonalization with overlap
     ethr =  2.63E-11,  avg # of iterations =  3.0

     total cpu time spent up to now is      284.4 secs

     End of self-consistent calculation

          k = 0.0000 0.0000 0.0000 ( 45195 PWs)   bands (ev):

   -22.0171 -22.0088 -21.9976 -21.9945 -17.5215 -17.4895 -17.3748 -17.3574
   -15.7322 -15.6983 -15.6280 -15.6278 -11.8730 -11.8177 -11.8079 -11.7522
    -9.6056  -9.5526  -9.4981  -9.4591  -8.4358  -8.4191  -8.2891  -8.2570
    -7.0846  -6.9508  -6.7824  -6.6872  -5.9961  -5.8448  -5.8235  -5.7951
    -5.4319  -5.4101  -5.1770  -5.1770  -4.9190  -4.8893  -4.7798  -4.7745
    -3.9800  -3.9286  -3.9016  -3.8467  -3.2480  -3.1636  -3.1290  -3.0278
    -1.9440  -1.8827  -1.8397  -1.8094  -1.6902  -1.5440  -1.4667  -1.4078
    -0.9938  -0.7974  -0.7614  -0.6591   0.7272   0.7561   0.7929   0.9106
     5.5643   5.6262   5.6826   5.7076   6.2928   6.8207   7.1336   7.1963
     7.3335   7.4442   7.4865   7.5822

          k = 0.0000 0.0000-0.5100 ( 45152 PWs)   bands (ev):

   -22.0134 -22.0134 -21.9956 -21.9955 -17.5066 -17.5066 -17.3650 -17.3650
   -15.7160 -15.7160 -15.6271 -15.6271 -11.8553 -11.8553 -11.7701 -11.7701
    -9.5839  -9.5839  -9.4737  -9.4737  -8.4289  -8.4289  -8.2720  -8.2720
    -7.0324  -7.0324  -6.7169  -6.7169  -5.9361  -5.9361  -5.7987  -5.7987
    -5.4247  -5.4247  -5.1716  -5.1716  -4.9025  -4.9024  -4.7795  -4.7795
    -3.9668  -3.9668  -3.8626  -3.8626  -3.2244  -3.2244  -3.0586  -3.0586
    -1.9223  -1.9223  -1.7934  -1.7934  -1.6225  -1.6225  -1.4665  -1.4665
    -0.8853  -0.8853  -0.7067  -0.7067   0.7375   0.7375   0.8530   0.8530
     5.5899   5.5899   5.6750   5.6750   6.7653   6.7653   7.0806   7.0806
     7.2449   7.2449   7.3237   7.3237

          k = 0.0000 0.5082 0.0000 ( 45224 PWs)   bands (ev):

   -21.9811 -21.9744 -21.9624 -21.9599 -17.4017 -17.3725 -17.2619 -17.2467
   -15.9494 -15.9234 -15.8499 -15.8431 -11.9668 -11.9260 -11.9121 -11.8773
    -9.5176  -9.4594  -9.3942  -9.3636  -8.4026  -8.3502  -8.2716  -8.2113
    -7.1421  -7.0470  -6.9023  -6.7371  -5.9997  -5.9407  -5.9103  -5.8932
    -5.4800  -5.4496  -5.3450  -5.3064  -5.0900  -4.9782  -4.8647  -4.7374
    -3.8764  -3.7209  -3.6245  -3.6018  -3.3200  -3.2278  -3.0901  -3.0410
    -1.9809  -1.8664  -1.8153  -1.6739  -1.3960  -1.2945  -1.2420  -1.1209
    -0.8146  -0.6712  -0.6118  -0.5878   1.0019   1.0629   1.0846   1.1507
     5.4361   5.5128   5.5259   5.5500   6.5193   6.6966   6.7351   6.8497
     6.8748   7.2138   7.6463   7.7718

          k = 0.0000 0.5082-0.5100 ( 45196 PWs)   bands (ev):

   -21.9780 -21.9780 -21.9608 -21.9608 -17.3881 -17.3881 -17.2534 -17.2534
   -15.9369 -15.9369 -15.8460 -15.8460 -11.9524 -11.9524 -11.8887 -11.8887
    -9.4931  -9.4931  -9.3741  -9.3741  -8.3819  -8.3819  -8.2365  -8.2365
    -7.1080  -7.1080  -6.8077  -6.8077  -5.9552  -5.9552  -5.9140  -5.9140
    -5.4492  -5.4492  -5.3506  -5.3506  -5.0397  -5.0397  -4.7905  -4.7905
    -3.8021  -3.8021  -3.6069  -3.6069  -3.2816  -3.2816  -3.0587  -3.0586
    -1.9269  -1.9269  -1.7470  -1.7470  -1.3326  -1.3326  -1.1963  -1.1963
    -0.7011  -0.7011  -0.6329  -0.6329   1.0359   1.0359   1.1128   1.1128
     5.4601   5.4601   5.5483   5.5483   6.7297   6.7297   6.8746   6.8746
     6.9323   6.9323   7.3721   7.3721

          k = 0.0000 1.0164 0.0000 ( 45232 PWs)   bands (ev):

   -21.9204 -21.9178 -21.9034 -21.9025 -17.0789 -17.0585 -16.9753 -16.9661
   -16.4088 -16.3893 -16.3236 -16.3123 -12.0972 -12.0835 -12.0689 -12.0601
    -9.3321  -9.2999  -9.2028  -9.1911  -8.2161  -8.1689  -8.1232  -8.0396
    -7.4857  -7.4792  -7.3882  -7.2939  -6.2357  -6.2181  -6.1420  -6.1276
    -5.1614  -5.1393  -5.1224  -4.9990  -4.7947  -4.7855  -4.7134  -4.6363
    -4.1490  -4.1242  -4.0128  -4.0101  -3.1837  -3.1513  -2.8849  -2.8845
    -1.8326  -1.7428  -1.6910  -1.5829  -0.8861  -0.8833  -0.8531  -0.7685
    -0.4938  -0.4642  -0.3993  -0.3235   1.5910   1.6313   1.6961   1.6989
     5.2713   5.2946   5.3656   5.5048   5.8630   5.8902   5.9650   6.1377
     7.2078   7.4933   7.8007   7.8415

          k = 0.0000 1.0164-0.5100 ( 45252 PWs)   bands (ev):

   -21.9191 -21.9191 -21.9029 -21.9029 -17.0692 -17.0692 -16.9702 -16.9702
   -16.3996 -16.3996 -16.3174 -16.3174 -12.0914 -12.0914 -12.0634 -12.0634
    -9.3183  -9.3183  -9.1942  -9.1942  -8.1993  -8.1993  -8.0754  -8.0754
    -7.4822  -7.4821  -7.3432  -7.3432  -6.2193  -6.2193  -6.1415  -6.1415
    -5.1476  -5.1476  -5.0716  -5.0716  -4.7913  -4.7913  -4.6645  -4.6645
    -4.1279  -4.1279  -4.0189  -4.0189  -3.1663  -3.1663  -2.8862  -2.8862
    -1.7674  -1.7674  -1.6700  -1.6700  -0.8758  -0.8758  -0.8105  -0.8105
    -0.4378  -0.4378  -0.4004  -0.4004   1.6286   1.6286   1.6799   1.6799
     5.2796   5.2796   5.4403   5.4403   5.8737   5.8737   6.0712   6.0712
     7.4412   7.4413   7.6382   7.6382

          k =-0.5000 0.0000 0.0974 ( 45126 PWs)   bands (ev):

   -22.0127 -22.0127 -21.9989 -21.9936 -17.5094 -17.5019 -17.3701 -17.3618
   -15.7345 -15.6985 -15.6278 -15.6252 -11.8873 -11.8559 -11.7735 -11.7320
    -9.6294  -9.5487  -9.5177  -9.4153  -8.4328  -8.3542  -8.3476  -8.2779
    -7.1577  -6.9635  -6.7589  -6.5770  -6.0670  -5.8191  -5.8040  -5.7947
    -5.3788  -5.3026  -5.2661  -5.2541  -4.8961  -4.8477  -4.8402  -4.8019
    -4.0318  -3.9548  -3.8556  -3.8295  -3.2496  -3.1690  -3.1168  -3.0196
    -1.8831  -1.8791  -1.8440  -1.7708  -1.7089  -1.5695  -1.5141  -1.3983
    -0.9117  -0.8900  -0.7390  -0.6813   0.6690   0.7145   0.8202   0.9961
     5.5749   5.5981   5.6861   5.6975   6.3841   6.7603   6.9496   7.1430
     7.3440   7.3506   7.4863   7.8617

          k =-0.5000 0.0000-0.4126 ( 45176 PWs)   bands (ev):

   -22.0128 -22.0128 -21.9962 -21.9961 -17.5057 -17.5057 -17.3660 -17.3660
   -15.7174 -15.7174 -15.6255 -15.6255 -11.8743 -11.8743 -11.7501 -11.7501
    -9.6045  -9.6045  -9.4512  -9.4512  -8.4091  -8.4091  -8.2970  -8.2970
    -7.0827  -7.0827  -6.6479  -6.6479  -5.9558  -5.9558  -5.7884  -5.7884
    -5.3449  -5.3449  -5.2580  -5.2580  -4.8686  -4.8685  -4.8197  -4.8197
    -4.0003  -4.0003  -3.8355  -3.8355  -3.2237  -3.2237  -3.0547  -3.0547
    -1.9130  -1.9130  -1.7690  -1.7690  -1.6305  -1.6305  -1.4536  -1.4536
    -0.9489  -0.9489  -0.6763  -0.6763   0.6795   0.6795   0.9180   0.9180
     5.5511   5.5511   5.6939   5.6939   6.6938   6.6938   7.0898   7.0899
     7.2510   7.2510   7.4073   7.4073

          k =-0.5000 0.5082 0.0974 ( 45218 PWs)   bands (ev):

   -21.9776 -21.9776 -21.9634 -21.9591 -17.3916 -17.3834 -17.2586 -17.2493
   -15.9520 -15.9233 -15.8480 -15.8422 -11.9860 -11.9455 -11.8977 -11.8535
    -9.5162  -9.4477  -9.4300  -9.3295  -8.4107  -8.3118  -8.2915  -8.2323
    -7.2463  -7.0150  -6.8653  -6.6952  -6.0001  -5.9512  -5.9070  -5.8872
    -5.4404  -5.3795  -5.3440  -5.3343  -5.1139  -5.0268  -4.8528  -4.7958
    -3.8605  -3.7219  -3.6119  -3.6061  -3.3245  -3.2252  -3.0921  -3.0363
    -1.9287  -1.8966  -1.7930  -1.7056  -1.3799  -1.2851  -1.2806  -1.1078
    -0.7381  -0.6729  -0.6536  -0.6328   0.9726   1.0282   1.0582   1.2514
     5.4471   5.4674   5.5068   5.5899   6.5946   6.6937   6.7784   6.8241
     6.9083   7.0153   7.6594   7.8572

          k =-0.5000 0.5082-0.4126 ( 45182 PWs)   bands (ev):

   -21.9776 -21.9776 -21.9612 -21.9612 -17.3876 -17.3876 -17.2539 -17.2539
   -15.9383 -15.9383 -15.8444 -15.8444 -11.9705 -11.9705 -11.8708 -11.8708
    -9.4970  -9.4970  -9.3649  -9.3649  -8.3762  -8.3762  -8.2472  -8.2472
    -7.1595  -7.1595  -6.7504  -6.7504  -5.9577  -5.9577  -5.9137  -5.9137
    -5.4056  -5.4056  -5.3473  -5.3473  -5.0826  -5.0826  -4.8123  -4.8123
    -3.7933  -3.7933  -3.6064  -3.6064  -3.2793  -3.2793  -3.0598  -3.0598
    -1.9178  -1.9178  -1.7507  -1.7507  -1.3171  -1.3171  -1.1888  -1.1888
    -0.7552  -0.7552  -0.6062  -0.6062   0.9802   0.9802   1.1745   1.1745
     5.4398   5.4398   5.5529   5.5529   6.7362   6.7363   6.8403   6.8403
     6.9645   6.9645   7.4132   7.4133

          k =-0.5000 1.0164 0.0974 ( 45250 PWs)   bands (ev):

   -21.9191 -21.9190 -21.9038 -21.9022 -17.0744 -17.0644 -16.9769 -16.9634
   -16.4097 -16.3901 -16.3209 -16.3125 -12.1187 -12.0863 -12.0697 -12.0378
    -9.3188  -9.2999  -9.2133  -9.1731  -8.2344  -8.1291  -8.1116  -8.0849
    -7.5939  -7.3813  -7.3771  -7.3123  -6.2362  -6.1956  -6.1913  -6.1098
    -5.1564  -5.1062  -5.0509  -5.0202  -4.8704  -4.8186  -4.6702  -4.6324
    -4.1330  -4.1294  -4.0219  -4.0088  -3.1871  -3.1498  -2.8900  -2.8806
    -1.7918  -1.7472  -1.7036  -1.6429  -0.9340  -0.8735  -0.7986  -0.7343
    -0.4836  -0.4816  -0.4077  -0.3235   1.5980   1.6033   1.6471   1.7582
     5.3025   5.3132   5.4014   5.4218   5.9183   5.9201   5.9484   6.0919
     7.2891   7.5079   7.8050   8.0574

          k =-0.5000 1.0164-0.4126 ( 45262 PWs)   bands (ev):

   -21.9191 -21.9190 -21.9030 -21.9030 -17.0697 -17.0697 -16.9699 -16.9699
   -16.4003 -16.4003 -16.3162 -16.3162 -12.1073 -12.1073 -12.0490 -12.0490
    -9.3104  -9.3104  -9.1921  -9.1921  -8.1930  -8.1930  -8.0882  -8.0882
    -7.5148  -7.5148  -7.3173  -7.3173  -6.2246  -6.2246  -6.1425  -6.1425
    -5.1351  -5.1351  -5.0264  -5.0264  -4.8563  -4.8563  -4.6435  -4.6435
    -4.1276  -4.1276  -4.0171  -4.0171  -3.1673  -3.1673  -2.8871  -2.8871
    -1.7726  -1.7726  -1.6773  -1.6773  -0.8977  -0.8977  -0.7683  -0.7683
    -0.4526  -0.4526  -0.3943  -0.3943   1.6049   1.6049   1.6986   1.6986
     5.3143   5.3143   5.4066   5.4066   5.9044   5.9044   6.0541   6.0541
     7.4348   7.4348   7.7146   7.7146

     highest occupied, lowest unoccupied level (ev):     1.7582    5.2713

!    total energy              =    -632.33575687 Ry
     Harris-Foulkes estimate   =    -632.33575687 Ry
     estimated scf accuracy    <          3.3E-10 Ry

     total all-electron energy =     -2411.282883 Ry

     The total energy is the sum of the following terms:

     one-electron contribution =    -397.24819927 Ry
     hartree contribution      =     246.94939885 Ry
     xc contribution           =    -134.60388006 Ry
     ewald contribution        =    -163.13810287 Ry
     Dispersion Correction     =      -0.16712231 Ry
     one-center paw contrib.   =    -184.12785121 Ry

     convergence has been achieved in  17 iterations

     Forces acting on atoms (cartesian axes, Ry/au):

     atom    1 type  1   force =    -0.03468133    0.01839131    0.00452957
     atom    2 type  1   force =     0.03468197    0.01839139   -0.00452916
     atom    3 type  1   force =     0.03468133   -0.01839131   -0.00452957
     atom    4 type  1   force =    -0.03468197   -0.01839139    0.00452916
     atom    5 type  1   force =    -0.02138326    0.02023877   -0.02318642
     atom    6 type  1   force =     0.02138331    0.02023881    0.02318782
     atom    7 type  1   force =     0.02138326   -0.02023877    0.02318642
     atom    8 type  1   force =    -0.02138331   -0.02023881   -0.02318782
     atom    9 type  1   force =    -0.01086928   -0.04555379   -0.02955822
     atom   10 type  1   force =     0.01086849   -0.04555375    0.02956173
     atom   11 type  1   force =     0.01086928    0.04555379    0.02955822
     atom   12 type  1   force =    -0.01086849    0.04555375   -0.02956173
     atom   13 type  2   force =    -0.02710011   -0.01056131   -0.01878200
     atom   14 type  2   force =     0.02709993   -0.01056144    0.01878225
     atom   15 type  2   force =     0.02710011    0.01056131    0.01878200
     atom   16 type  2   force =    -0.02709993    0.01056144   -0.01878225
     atom   17 type  2   force =     0.03567716   -0.02396028    0.01800615
     atom   18 type  2   force =    -0.03567736   -0.02396037   -0.01800723
     atom   19 type  2   force =    -0.03567716    0.02396028   -0.01800615
     atom   20 type  2   force =     0.03567736    0.02396037    0.01800723
     atom   21 type  4   force =     0.04362920    0.00004604    0.02332871
     atom   22 type  4   force =    -0.04362908    0.00004542   -0.02332892
     atom   23 type  4   force =    -0.04362920   -0.00004604   -0.02332871
     atom   24 type  4   force =     0.04362908   -0.00004542    0.02332892
     atom   25 type  3   force =     0.00274013    0.00151086    0.00045914
     atom   26 type  3   force =    -0.00273999    0.00151080   -0.00045911
     atom   27 type  3   force =    -0.00274013   -0.00151086   -0.00045914
     atom   28 type  3   force =     0.00273999   -0.00151080    0.00045911
     atom   29 type  3   force =    -0.00374144    0.00162143    0.00014868
     atom   30 type  3   force =     0.00374128    0.00162160   -0.00014849
     atom   31 type  3   force =     0.00374144   -0.00162143   -0.00014868
     atom   32 type  3   force =    -0.00374128   -0.00162160    0.00014849
     atom   33 type  3   force =    -0.00233384   -0.00073643    0.00227165
     atom   34 type  3   force =     0.00233390   -0.00073648   -0.00227161
     atom   35 type  3   force =     0.00233384    0.00073643   -0.00227165
     atom   36 type  3   force =    -0.00233390    0.00073648    0.00227161
     atom   37 type  3   force =     0.01587303    0.04186356    0.02088149
     atom   38 type  3   force =    -0.01587308    0.04186360   -0.02088161
     atom   39 type  3   force =    -0.01587303   -0.04186356   -0.02088149
     atom   40 type  3   force =     0.01587308   -0.04186360    0.02088161

     Total force =     0.239409     Total SCF correction =     0.000049


     Computing stress (Cartesian axis) and pressure

          total   stress  (Ry/bohr**3)                   (kbar)     P=   38.69
   0.00008496  -0.00000000   0.00020157         12.50     -0.00     29.65
  -0.00000000   0.00056635   0.00000000         -0.00     83.31      0.00
   0.00020157   0.00000000   0.00013771         29.65      0.00     20.26


     Writing output data file scf.save
 
     init_run     :     10.94s CPU     11.27s WALL (       1 calls)
     electrons    :    262.82s CPU    272.68s WALL (       1 calls)
     forces       :      5.75s CPU      5.79s WALL (       1 calls)
     stress       :     16.85s CPU     16.87s WALL (       1 calls)

     Called by init_run:
     wfcinit      :      5.75s CPU      5.99s WALL (       1 calls)
     potinit      :      1.78s CPU      1.82s WALL (       1 calls)

     Called by electrons:
     c_bands      :    227.23s CPU    235.53s WALL (      17 calls)
     sum_band     :     29.38s CPU     30.71s WALL (      17 calls)
     v_of_rho     :      0.91s CPU      0.99s WALL (      18 calls)
     newd         :      1.89s CPU      1.91s WALL (      18 calls)
     PAW_pot      :      3.11s CPU      3.11s WALL (      18 calls)
     mix_rho      :      0.24s CPU      0.26s WALL (      17 calls)

     Called by c_bands:
     init_us_2    :      3.53s CPU      3.53s WALL (     444 calls)
     cegterg      :    217.04s CPU    225.33s WALL (     204 calls)

     Called by sum_band:
     sum_band:bec :      0.03s CPU      0.03s WALL (     204 calls)
     addusdens    :      2.04s CPU      2.05s WALL (      17 calls)

     Called by *egterg:
     h_psi        :    142.57s CPU    150.84s WALL (     825 calls)
     s_psi        :     16.82s CPU     16.82s WALL (     825 calls)
     g_psi        :      1.44s CPU      1.43s WALL (     609 calls)
     cdiaghg      :     11.91s CPU     11.91s WALL (     813 calls)

     Called by h_psi:
     h_psi:pot    :    140.85s CPU    149.09s WALL (     825 calls)
     h_psi:calbec :     15.36s CPU     15.46s WALL (     825 calls)
     vloc_psi     :    108.87s CPU    117.00s WALL (     825 calls)
     add_vuspsi   :     16.62s CPU     16.63s WALL (     825 calls)

     General routines
     calbec       :     21.80s CPU     21.94s WALL (    1089 calls)
     fft          :      0.54s CPU      0.68s WALL (     258 calls)
     fftw         :    114.29s CPU    123.16s WALL (  108452 calls)
 
     Parallel routines
     fft_scatter  :     30.95s CPU     35.91s WALL (  108710 calls)
 
     PWSCF        :  4m59.96s CPU     5m11.72s WALL

 
   This run was terminated on:  21:20:33   3Nov2017            

=------------------------------------------------------------------------------=
   JOB DONE.
=------------------------------------------------------------------------------=
