
     Program PWSCF v.6.1 (svn rev. 13369) starts on 20Dec2017 at  7: 2: 1 

     This program is part of the open-source Quantum ESPRESSO suite
     for quantum simulation of materials; please cite
         "P. Giannozzi et al., J. Phys.:Condens. Matter 21 395502 (2009);
          URL http://www.quantum-espresso.org", 
     in publications or presentations arising from this work. More details at
     http://www.quantum-espresso.org/quote

     Parallel version (MPI), running on     8 processors
     R & G space division:  proc/nbgrp/npool/nimage =       8
     Waiting for input...
     Reading input from standard input

     Current dimensions of program PWSCF are:
     Max number of different atomic species (ntypx) = 10
     Max number of k-points (npk) =  40000
     Max angular momentum in pseudopotentials (lmaxx) =  3
               file C.pbe-n-kjpaw_psl.0.1.UPF: wavefunction(s)  2P renormalized
               file N.pbe-n-kjpaw_psl.0.1.UPF: wavefunction(s)  2P renormalized
               file H.pbe-kjpaw_psl.0.1.UPF: wavefunction(s)  1S renormalized
               file O.pbe-n-kjpaw_psl.0.1.UPF: wavefunction(s)  2P renormalized

     -------------------------------------
     Parameters for Dispersion Correction:
     -------------------------------------
       atom      VdW radius       C_6     

        C          2.744         60.710
        N          2.640         42.670
        H          1.892          4.857
        O          2.536         24.284

     Subspace diagonalization in iterative solution of the eigenvalue problem:
     a serial algorithm will be used

 
     Parallelization info
     --------------------
     sticks:   dense  smooth     PW     G-vecs:    dense   smooth      PW
     Min        1435    1435    376               150311   150311   20144
     Max        1436    1436    377               150314   150314   20147
     Sum       11485   11485   3013              1202501  1202501  161163
 


     bravais-lattice index     =            0
     lattice parameter (alat)  =      11.7673  a.u.
     unit-cell volume          =    8900.1584 (a.u.)^3
     number of atoms/cell      =          152
     number of atomic types    =            4
     number of electrons       =       472.00
     number of Kohn-Sham states=          283
     kinetic-energy cutoff     =     100.0000  Ry
     charge density cutoff     =     400.0000  Ry
     convergence threshold     =      1.0E-08
     mixing beta               =       0.5000
     number of iterations used =            8  plain     mixing
     Exchange-correlation      =  SLA  PW   PBX  PBC ( 1  4  3  4 0 0)

     celldm(1)=  11.767325  celldm(2)=   0.000000  celldm(3)=   0.000000
     celldm(4)=   0.000000  celldm(5)=   0.000000  celldm(6)=   0.000000

     crystal axes: (cart. coord. in units of alat)
               a(1) = (   1.000000   0.000000   0.000000 )  
               a(2) = (   0.000000   2.605107   0.000000 )  
               a(3) = (  -0.139264   0.000000   2.096713 )  

     reciprocal axes: (cart. coord. in units 2 pi/alat)
               b(1) = (  1.000000  0.000000  0.066420 )  
               b(2) = (  0.000000  0.383861  0.000000 )  
               b(3) = (  0.000000  0.000000  0.476937 )  


     PseudoPot. # 1 for  C read from file:
     /scratch/ahofstet/pseudo/C.pbe-n-kjpaw_psl.0.1.UPF
     MD5 check sum: 430fe95172b1e11ef3f8ed03bac87931
     Pseudo is Projector augmented-wave + core cor, Zval =  4.0
     Generated using "atomic" code by A. Dal Corso  v.5.0.99 svn rev. 10869
     Shape of augmentation charge: BESSEL
     Using radial grid of 1073 points,  4 beta functions with: 
                l(1) =   0
                l(2) =   0
                l(3) =   1
                l(4) =   1
     Q(r) pseudized with 0 coefficients 


     PseudoPot. # 2 for  N read from file:
     /scratch/ahofstet/pseudo/N.pbe-n-kjpaw_psl.0.1.UPF
     MD5 check sum: f73187c8b701007e77325f868c9291d7
     Pseudo is Projector augmented-wave + core cor, Zval =  5.0
     Generated using "atomic" code by A. Dal Corso  v.5.0.99 svn rev. 10869
     Shape of augmentation charge: PSQ
     Using radial grid of 1085 points,  4 beta functions with: 
                l(1) =   0
                l(2) =   0
                l(3) =   1
                l(4) =   1
     Q(r) pseudized with 0 coefficients 


     PseudoPot. # 3 for  H read from file:
     /scratch/ahofstet/pseudo/H.pbe-kjpaw_psl.0.1.UPF
     MD5 check sum: 94e484f906d9e9773b2f6e52662335b2
     Pseudo is Projector augmented-wave, Zval =  1.0
     Generated using "atomic" code by A. Dal Corso  v.5.0.99 svn rev. 10869
     Shape of augmentation charge: PSQ
     Using radial grid of  929 points,  2 beta functions with: 
                l(1) =   0
                l(2) =   0
     Q(r) pseudized with 0 coefficients 


     PseudoPot. # 4 for  O read from file:
     /scratch/ahofstet/pseudo/O.pbe-n-kjpaw_psl.0.1.UPF
     MD5 check sum: 3f94a2996a3169367d6eb21d9b593f20
     Pseudo is Projector augmented-wave + core cor, Zval =  6.0
     Generated using "atomic" code by A. Dal Corso  v.5.0.99 svn rev. 10869
     Shape of augmentation charge: BESSEL
     Using radial grid of 1095 points,  4 beta functions with: 
                l(1) =   0
                l(2) =   0
                l(3) =   1
                l(4) =   1
     Q(r) pseudized with 0 coefficients 


     atomic species   valence    mass     pseudopotential
        C              4.00    12.01070      C( 1.00)
        N              5.00    14.00670      N( 1.00)
        H              1.00     1.00794      H( 1.00)
        O              6.00    15.99940      O( 1.00)

      2 Sym. Ops., with inversion, found



   Cartesian axes

     site n.     atom                  positions (alat units)
         1           C   tau(   1) = (   0.0303032   0.1549982   0.4255893  )
         2           C   tau(   2) = (   0.4000532   1.4575590   0.6230728  )
         3           C   tau(   3) = (   0.8304332   2.4501086   1.6711237  )
         4           C   tau(   4) = (   0.4606833   1.1475478   1.4736403  )
         5           N   tau(   5) = (   0.9590036   2.5828582   0.2946821  )
         6           N   tau(   6) = (   0.4713481   1.2802710   0.7539213  )
         7           N   tau(   7) = (  -0.0982671   0.0222486   1.8020309  )
         8           N   tau(   8) = (   0.3893884   1.3248358   1.3427918  )
         9           C   tau(   9) = (   0.7807593   2.5911021   0.1696935  )
        10           C   tau(  10) = (   0.6496342   1.2884808   0.8788202  )
        11           C   tau(  11) = (   0.0799771   0.0140047   1.9270196  )
        12           C   tau(  12) = (   0.2111023   1.3166260   1.2178928  )
        13           O   tau(  13) = (   0.7326510   2.4496537   0.0376292  )
        14           O   tau(  14) = (   0.6977989   1.1469267   1.0107996  )
        15           O   tau(  15) = (   0.1280854   0.1554531   2.0590838  )
        16           O   tau(  16) = (   0.1629376   1.4581801   1.0859135  )
        17           N   tau(  17) = (   0.6447161   0.1626383   0.1973336  )
        18           N   tau(  18) = (   0.7856593   1.4651264   0.8512410  )
        19           N   tau(  19) = (   0.2160204   2.4424685   1.8993795  )
        20           N   tau(  20) = (   0.0750771   1.1399804   1.2454721  )
        21           C   tau(  21) = (   0.6574874   0.3093389   0.3617036  )
        22           C   tau(  22) = (   0.7728387   1.6119123   0.6869631  )
        23           C   tau(  23) = (   0.2032491   2.2957679   1.7350095  )
        24           C   tau(  24) = (   0.0878978   0.9931945   1.4097500  )
        25           O   tau(  25) = (   0.4969605   0.4026915   0.4286513  )
        26           O   tau(  26) = (   0.9333676   1.7053324   0.6200369  )
        27           O   tau(  27) = (   0.3637760   2.2024153   1.6680618  )
        28           O   tau(  28) = (  -0.0726311   0.8997744   1.4766762  )
        29           C   tau(  29) = (   0.8850040   0.3550018   0.4372730  )
        30           C   tau(  30) = (   0.5453381   1.6575861   0.6114243  )
        31           C   tau(  31) = (  -0.0242676   2.2501050   1.6594401  )
        32           C   tau(  32) = (   0.3153983   0.9475207   1.4852887  )
        33           C   tau(  33) = (  -0.0309193   0.5443958   0.3064626  )
        34           C   tau(  34) = (   0.4612453   1.8469741   0.7422459  )
        35           C   tau(  35) = (   0.8916558   2.0607110   1.7902504  )
        36           C   tau(  36) = (   0.3994912   0.7581327   1.3544672  )
        37           C   tau(  37) = (   0.9213729   0.3568604   0.6905554  )
        38           C   tau(  38) = (   0.5090202   1.6594536   0.3581383  )
        39           C   tau(  39) = (  -0.0606364   2.2482464   1.4061576  )
        40           C   tau(  40) = (   0.3517162   0.9456532   1.7385747  )
        41           C   tau(  41) = (   0.0870010   0.5219802   0.7627179  )
        42           C   tau(  42) = (   0.3433808   1.8245410   0.2859304  )
        43           C   tau(  43) = (   0.7737355   2.0831266   1.3339951  )
        44           C   tau(  44) = (   0.5173556   0.7805658   1.8107826  )
        45           C   tau(  45) = (   0.7230035   0.3752557   0.8313861  )
        46           C   tau(  46) = (   0.7073951   1.6778637   0.2172630  )
        47           C   tau(  47) = (   0.1377329   2.2298511   1.2653269  )
        48           C   tau(  48) = (   0.1533414   0.9272430   1.8794501  )
        49           O   tau(  49) = (   0.6477492   0.5481482   0.8906185  )
        50           O   tau(  50) = (   0.7826267   1.8507421   0.1580228  )
        51           O   tau(  51) = (   0.2129872   2.0569586   1.2060946  )
        52           O   tau(  52) = (   0.0781098   0.7543646   1.9386903  )
        53           N   tau(  53) = (   0.6321181   0.1851474   0.8964858  )
        54           N   tau(  54) = (   0.7982576   1.4877574   0.1521208  )
        55           N   tau(  55) = (   0.2286184   2.4199594   1.2002273  )
        56           N   tau(  56) = (   0.0624789   1.1173494   1.9445922  )
        57           O   tau(  57) = (   0.6041984   2.4282378   0.9429923  )
        58           O   tau(  58) = (   0.8261162   1.1257435   0.1054298  )
        59           O   tau(  59) = (   0.2565380   0.1768690   1.1537207  )
        60           O   tau(  60) = (   0.0346202   1.4793633   1.9912833  )
        61           C   tau(  61) = (   0.7057671   2.5801287   0.8629423  )
        62           C   tau(  62) = (   0.7245857   1.2776397   0.1856067  )
        63           C   tau(  63) = (   0.1549694   0.0249781   1.2337708  )
        64           C   tau(  64) = (   0.1361508   1.3274671   1.9111064  )
        65           N   tau(  65) = (   0.8887353   2.5544933   0.7473030  )
        66           N   tau(  66) = (   0.5416659   1.2519890   0.3013157  )
        67           N   tau(  67) = (  -0.0279989   0.0506135   1.3494101  )
        68           N   tau(  68) = (   0.3190706   1.3531177   1.7953974  )
        69           C   tau(  69) = (   0.0205527   0.1276803   0.6740534  )
        70           C   tau(  70) = (   0.4098498   1.4302752   0.3746076  )
        71           C   tau(  71) = (   0.8401838   2.4774265   1.4226596  )
        72           C   tau(  72) = (   0.4508866   1.1748316   1.7221054  )
        73           C   tau(  73) = (  -0.0153668   2.3400303   0.7230418  )
        74           C   tau(  74) = (   0.4457093   1.0375485   0.3254916  )
        75           C   tau(  75) = (   0.8761033   0.2650765   1.3736713  )
        76           C   tau(  76) = (   0.4150272   1.5675583   1.7712214  )
        77           C   tau(  77) = (   0.9699976   2.2406527   0.4990157  )
        78           C   tau(  78) = (   0.4603356   0.9380966   0.5494721  )
        79           C   tau(  79) = (  -0.1092611   0.3644541   1.5976973  )
        80           C   tau(  80) = (   0.4004008   1.6670102   1.5472410  )
        81           C   tau(  81) = (   0.0715411   2.3790106   0.3201799  )
        82           C   tau(  82) = (   0.3588191   1.0764220   0.7283591  )
        83           C   tau(  83) = (   0.7891954   0.2260962   1.7765331  )
        84           C   tau(  84) = (   0.5019173   1.5286848   1.3683540  )
        85           O   tau(  85) = (   0.7520925   2.1932765   0.4539673  )
        86           O   tau(  86) = (   0.6782382   0.8906745   0.5944973  )
        87           O   tau(  87) = (   0.1086440   0.4118303   1.6427458  )
        88           O   tau(  88) = (   0.1824982   1.7144322   1.5022158  )
        89           H   tau(  89) = (   0.7503329   2.0879243   0.3354762  )
        90           H   tau(  90) = (   0.6800045   0.7853651   0.7130196  )
        91           H   tau(  91) = (   0.1104036   0.5171825   1.7612369  )
        92           H   tau(  92) = (   0.1807320   1.8197417   1.3836935  )
        93           H   tau(  93) = (   0.4996458   0.1542560   0.1125850  )
        94           H   tau(  94) = (   0.9307582   1.4567633   0.9359628  )
        95           H   tau(  95) = (   0.3610907   2.4508507   1.9841280  )
        96           H   tau(  96) = (  -0.0700217   1.1483435   1.1607503  )
        97           H   tau(  97) = (   0.1938129   0.2057161   0.3779211  )
        98           H   tau(  98) = (   0.2365344   1.5082525   0.6707286  )
        99           H   tau(  99) = (   0.6669235   2.3993907   1.7187919  )
       100           H   tau( 100) = (   0.6242021   1.0968543   1.4259845  )
       101           H   tau( 101) = (   0.1438714   0.5575103   0.3306864  )
       102           H   tau( 102) = (   0.2864564   1.8600921   0.7180081  )
       103           H   tau( 103) = (   0.7168651   2.0475964   1.7660267  )
       104           H   tau( 104) = (   0.5742801   0.7450147   1.3787049  )
       105           H   tau( 105) = (   0.8884677   0.6946611   0.3509001  )
       106           H   tau( 106) = (   0.5418561   1.9972415   0.6978023  )
       107           H   tau( 107) = (  -0.0277313   1.9104457   1.7458130  )
       108           H   tau( 108) = (   0.3188804   0.6078653   1.3989107  )
       109           H   tau( 109) = (   0.9445445   0.5142247   0.1343253  )
       110           H   tau( 110) = (   0.4857654   1.8168172   0.9143848  )
       111           H   tau( 111) = (  -0.0838080   2.0908820   1.9623878  )
       112           H   tau( 112) = (   0.3749711   0.7882896   1.1823282  )
       113           H   tau( 113) = (   0.4943996   0.1924793   0.9905566  )
       114           H   tau( 114) = (   0.9359349   1.4951060   0.0579911  )
       115           H   tau( 115) = (   0.3663369   2.4126275   1.1061565  )
       116           H   tau( 116) = (  -0.0751985   1.1100007   2.0387220  )
       117           H   tau( 117) = (   0.1783535   0.1141638   0.7507637  )
       118           H   tau( 118) = (   0.2520548   1.4167720   0.2978734  )
       119           H   tau( 119) = (   0.6823830   2.4909430   1.3459494  )
       120           H   tau( 120) = (   0.6086817   1.1883348   1.7988397  )
       121           H   tau( 121) = (   0.2350621   0.5031317   0.6704244  )
       122           H   tau( 122) = (   0.1953297   1.8057290   0.3782452  )
       123           H   tau( 123) = (   0.6256744   2.1019751   1.4262886  )
       124           H   tau( 124) = (   0.6654067   0.7993778   1.7184679  )
       125           H   tau( 125) = (   0.1253014   0.4986121   0.9332925  )
       126           H   tau( 126) = (   0.3050605   1.8010813   0.1153685  )
       127           H   tau( 127) = (   0.7354351   2.1064947   1.1634205  )
       128           H   tau( 128) = (   0.5556760   0.8040255   1.9813446  )
       129           H   tau( 129) = (   0.0246565   0.6849287   0.7391129  )
       130           H   tau( 130) = (   0.4057166   1.9875070   0.3094308  )
       131           H   tau( 131) = (   0.8360800   1.9201781   1.3576002  )
       132           H   tau( 132) = (   0.4550199   0.6175998   1.7872823  )
       133           H   tau( 133) = (   0.2409572   2.4130905   0.3561395  )
       134           H   tau( 134) = (   0.1894025   1.1105083   0.6924093  )
       135           H   tau( 135) = (   0.6197792   0.1920163   1.7405735  )
       136           H   tau( 136) = (   0.6713339   1.4945985   1.4043037  )
       137           H   tau( 137) = (   0.0634927   2.2906657   0.1679120  )
       138           H   tau( 138) = (   0.3668704   0.9880304   0.8805990  )
       139           H   tau( 139) = (   0.7972437   0.3144411   1.9288011  )
       140           H   tau( 140) = (   0.4938661   1.6170764   1.2161140  )
       141           H   tau( 141) = (   0.1550560   2.3525506   0.7670951  )
       142           H   tau( 142) = (   0.2752836   1.0501349   0.2814587  )
       143           H   tau( 143) = (   0.7056804   0.2525562   1.3296179  )
       144           H   tau( 144) = (   0.5854529   1.5549719   1.8152543  )
       145           H   tau( 145) = (   0.9045426   2.2316936   0.8361860  )
       146           H   tau( 146) = (   0.5257594   0.9292332   0.2122944  )
       147           H   tau( 147) = (  -0.0438062   0.3734132   1.2605271  )
       148           H   tau( 148) = (   0.3349771   1.6758736   1.8844186  )
       149           H   tau( 149) = (   0.0650779   2.0912792   0.5089714  )
       150           H   tau( 150) = (   0.3652297   0.7887407   0.5394833  )
       151           H   tau( 151) = (   0.7956586   0.5138276   1.5877416  )
       152           H   tau( 152) = (   0.4955067   1.8163661   1.5572298  )

     number of k points=     8
                       cart. coord. in units 2pi/alat
        k(    1) = (   0.0000000   0.0000000   0.0000000), wk =   0.1666667
        k(    2) = (   0.0000000   0.0000000  -0.2384685), wk =   0.1666667
        k(    3) = (   0.0000000  -0.1919307   0.0000000), wk =   0.1666667
        k(    4) = (   0.0000000  -0.1919307  -0.2384685), wk =   0.1666667
        k(    5) = (   0.3333333   0.0000000   0.0221400), wk =   0.3333333
        k(    6) = (   0.3333333   0.0000000  -0.2163285), wk =   0.3333333
        k(    7) = (   0.3333333  -0.1919307   0.0221400), wk =   0.3333333
        k(    8) = (   0.3333333  -0.1919307  -0.2163285), wk =   0.3333333

     Dense  grid:  1202501 G-vectors     FFT dimensions: (  75, 200, 160)

     Estimated max dynamical RAM per process >    1748.05MB

     Estimated total allocated dynamical RAM >   13984.38MB

     Check: negative/imaginary core charge=   -0.000002    0.000000

     Initial potential from superposition of free atoms

     starting charge  471.99708, renormalised to  472.00000
     Starting wfc are  416 randomized atomic wfcs
     Checking if some PAW data can be deallocated... 

     total cpu time spent up to now is      132.8 secs

     per-process dynamical memory:  1128.4 Mb

     Self-consistent Calculation

     iteration #  1     ecut=   100.00 Ry     beta=0.50
     Davidson diagonalization with overlap
     ethr =  1.00E-02,  avg # of iterations =  3.5

     total cpu time spent up to now is      564.1 secs

     total energy              =   -2317.28498864 Ry
     Harris-Foulkes estimate   =   -2325.28537206 Ry
     estimated scf accuracy    <      15.23208670 Ry

     iteration #  2     ecut=   100.00 Ry     beta=0.50
     Davidson diagonalization with overlap
     ethr =  3.23E-03,  avg # of iterations =  2.4

     total cpu time spent up to now is      783.2 secs

     total energy              =   -2318.83159988 Ry
     Harris-Foulkes estimate   =   -2319.81066447 Ry
     estimated scf accuracy    <       2.09625698 Ry

     iteration #  3     ecut=   100.00 Ry     beta=0.50
     Davidson diagonalization with overlap
     ethr =  4.44E-04,  avg # of iterations =  5.9

     total cpu time spent up to now is     1277.7 secs

     total energy              =   -2320.05366252 Ry
     Harris-Foulkes estimate   =   -2320.67824100 Ry
     estimated scf accuracy    <       1.62644715 Ry

     iteration #  4     ecut=   100.00 Ry     beta=0.50
     Davidson diagonalization with overlap
     ethr =  3.45E-04,  avg # of iterations =  2.0

     total cpu time spent up to now is     1478.8 secs

     total energy              =   -2319.99132199 Ry
     Harris-Foulkes estimate   =   -2320.19789450 Ry
     estimated scf accuracy    <       0.36600360 Ry

     iteration #  5     ecut=   100.00 Ry     beta=0.50
     Davidson diagonalization with overlap
     ethr =  7.75E-05,  avg # of iterations =  6.0

     total cpu time spent up to now is     1973.5 secs

     total energy              =   -2320.23265461 Ry
     Harris-Foulkes estimate   =   -2320.37092936 Ry
     estimated scf accuracy    <       0.41824679 Ry

     iteration #  6     ecut=   100.00 Ry     beta=0.50
     Davidson diagonalization with overlap
     ethr =  7.75E-05,  avg # of iterations =  1.0

     total cpu time spent up to now is     2169.9 secs

     total energy              =   -2320.16188240 Ry
     Harris-Foulkes estimate   =   -2320.24644185 Ry
     estimated scf accuracy    <       0.15942696 Ry

     iteration #  7     ecut=   100.00 Ry     beta=0.50
     Davidson diagonalization with overlap
     ethr =  3.38E-05,  avg # of iterations =  8.0

     total cpu time spent up to now is     2608.8 secs

     total energy              =   -2320.24221688 Ry
     Harris-Foulkes estimate   =   -2320.25283675 Ry
     estimated scf accuracy    <       0.03581792 Ry

     iteration #  8     ecut=   100.00 Ry     beta=0.50
     Davidson diagonalization with overlap
     ethr =  7.59E-06,  avg # of iterations =  1.6

     total cpu time spent up to now is     2806.1 secs

     total energy              =   -2320.23480387 Ry
     Harris-Foulkes estimate   =   -2320.24328289 Ry
     estimated scf accuracy    <       0.01627970 Ry

     iteration #  9     ecut=   100.00 Ry     beta=0.50
     Davidson diagonalization with overlap
     ethr =  3.45E-06,  avg # of iterations =  6.6

     total cpu time spent up to now is     3207.5 secs

     total energy              =   -2320.24198625 Ry
     Harris-Foulkes estimate   =   -2320.24296969 Ry
     estimated scf accuracy    <       0.00293000 Ry

     iteration # 10     ecut=   100.00 Ry     beta=0.50
     Davidson diagonalization with overlap
     ethr =  6.21E-07,  avg # of iterations =  1.0

     total cpu time spent up to now is     3402.8 secs

     total energy              =   -2320.24149231 Ry
     Harris-Foulkes estimate   =   -2320.24210623 Ry
     estimated scf accuracy    <       0.00104776 Ry

     iteration # 11     ecut=   100.00 Ry     beta=0.50
     Davidson diagonalization with overlap
     ethr =  2.22E-07,  avg # of iterations =  4.0

     total cpu time spent up to now is     3773.7 secs

     total energy              =   -2320.24213579 Ry
     Harris-Foulkes estimate   =   -2320.24226950 Ry
     estimated scf accuracy    <       0.00047490 Ry

     iteration # 12     ecut=   100.00 Ry     beta=0.50
     Davidson diagonalization with overlap
     ethr =  1.01E-07,  avg # of iterations =  1.0

     total cpu time spent up to now is     3969.2 secs

     total energy              =   -2320.24205148 Ry
     Harris-Foulkes estimate   =   -2320.24214658 Ry
     estimated scf accuracy    <       0.00022544 Ry

     iteration # 13     ecut=   100.00 Ry     beta=0.50
     Davidson diagonalization with overlap
     ethr =  4.78E-08,  avg # of iterations =  3.4

     total cpu time spent up to now is     4274.4 secs

     total energy              =   -2320.24212979 Ry
     Harris-Foulkes estimate   =   -2320.24212945 Ry
     estimated scf accuracy    <       0.00000458 Ry

     iteration # 14     ecut=   100.00 Ry     beta=0.50
     Davidson diagonalization with overlap
     ethr =  9.71E-10,  avg # of iterations =  3.8

     total cpu time spent up to now is     4604.7 secs

     total energy              =   -2320.24212775 Ry
     Harris-Foulkes estimate   =   -2320.24213121 Ry
     estimated scf accuracy    <       0.00000726 Ry

     iteration # 15     ecut=   100.00 Ry     beta=0.50
     Davidson diagonalization with overlap
     ethr =  9.71E-10,  avg # of iterations =  4.0

     total cpu time spent up to now is     4822.9 secs

     total energy              =   -2320.24212794 Ry
     Harris-Foulkes estimate   =   -2320.24212833 Ry
     estimated scf accuracy    <       0.00000102 Ry

     iteration # 16     ecut=   100.00 Ry     beta=0.50
     Davidson diagonalization with overlap
     ethr =  2.17E-10,  avg # of iterations =  4.0

     total cpu time spent up to now is     5236.2 secs

     total energy              =   -2320.24212894 Ry
     Harris-Foulkes estimate   =   -2320.24212904 Ry
     estimated scf accuracy    <       0.00000037 Ry

     iteration # 17     ecut=   100.00 Ry     beta=0.50
     Davidson diagonalization with overlap
     ethr =  7.74E-11,  avg # of iterations =  1.0

     total cpu time spent up to now is     5430.8 secs

     total energy              =   -2320.24212884 Ry
     Harris-Foulkes estimate   =   -2320.24212895 Ry
     estimated scf accuracy    <       0.00000018 Ry

     iteration # 18     ecut=   100.00 Ry     beta=0.50
     Davidson diagonalization with overlap
     ethr =  3.83E-11,  avg # of iterations =  4.0

     total cpu time spent up to now is     5798.7 secs

     total energy              =   -2320.24212893 Ry
     Harris-Foulkes estimate   =   -2320.24212895 Ry
     estimated scf accuracy    <       0.00000007 Ry

     iteration # 19     ecut=   100.00 Ry     beta=0.50
     Davidson diagonalization with overlap
     ethr =  1.42E-11,  avg # of iterations =  1.0

     total cpu time spent up to now is     5993.6 secs

     total energy              =   -2320.24212892 Ry
     Harris-Foulkes estimate   =   -2320.24212893 Ry
     estimated scf accuracy    <       0.00000003 Ry

     iteration # 20     ecut=   100.00 Ry     beta=0.50
     Davidson diagonalization with overlap
     ethr =  5.56E-12,  avg # of iterations =  4.0

     total cpu time spent up to now is     6359.4 secs

     End of self-consistent calculation

          k = 0.0000 0.0000 0.0000 (150435 PWs)   bands (ev):

   -19.9775 -19.9712 -19.8368 -19.8296 -19.7830 -19.7825 -19.6128 -19.6118
   -19.3131 -19.3028 -19.2938 -19.2857 -19.1361 -19.1312 -19.1310 -19.1256
   -18.1689 -18.1659 -18.1649 -18.1639 -17.3482 -17.3263 -17.3064 -17.2889
   -16.8292 -16.8262 -16.7205 -16.7176 -16.1079 -16.0850 -16.0209 -15.9998
   -15.8274 -15.8258 -15.8195 -15.8179 -14.6499 -14.6455 -14.6384 -14.6346
   -12.1487 -12.1264 -12.1050 -12.0856 -11.8338 -11.8265 -11.8096 -11.8057
   -11.3308 -11.3260 -11.2302 -11.2212 -10.7570 -10.7504 -10.6808 -10.6755
    -9.8902  -9.8723  -9.8483  -9.8387  -9.5526  -9.5242  -9.4777  -9.4524
    -9.3297  -9.2773  -9.2212  -9.1704  -9.0793  -9.0745  -8.9481  -8.9350
    -7.9758  -7.9514  -7.9303  -7.8988  -7.8592  -7.8344  -7.7301  -7.6926
    -7.4831  -7.4293  -7.4101  -7.4052  -6.7691  -6.7173  -6.6107  -6.5887
    -6.1596  -6.1433  -5.9940  -5.9247  -5.8749  -5.8652  -5.8246  -5.8036
    -5.7531  -5.7332  -5.6141  -5.6053  -5.5240  -5.4683  -5.3963  -5.3846
    -5.0439  -4.9157  -4.7966  -4.7582  -4.7345  -4.6922  -4.5676  -4.5590
    -4.5240  -4.5239  -4.4258  -4.4155  -4.3751  -4.3522  -4.3100  -4.2359
    -4.2305  -4.1978  -4.1749  -4.1631  -4.1593  -4.1406  -4.1138  -4.1119
    -4.0649  -3.9864  -3.9395  -3.9155  -3.8614  -3.7687  -3.6212  -3.6135
    -3.6027  -3.5374  -3.4649  -3.4291  -3.4109  -3.3836  -3.3756  -3.3582
    -3.3140  -3.2854  -3.2769  -3.1926  -3.1421  -3.1318  -3.1284  -3.0593
    -3.0282  -2.9230  -2.9145  -2.8821  -2.6449  -2.6442  -2.6404  -2.6191
    -2.5981  -2.5176  -2.5031  -2.4468  -2.3960  -2.3511  -2.3319  -2.2456
    -2.2367  -2.1429  -2.1025  -2.0749  -2.0352  -1.9852  -1.9782  -1.8958
    -1.8538  -1.7990  -1.7759  -1.7635  -1.7474  -1.6786  -1.6770  -1.6222
    -1.4835  -1.4721  -1.4458  -1.4441  -1.0448  -0.9609  -0.8760  -0.8667
    -0.8571  -0.8150  -0.7993  -0.7650  -0.6695  -0.6375  -0.6263  -0.5964
    -0.1994  -0.1952  -0.1753  -0.1547  -0.0438   0.0151   0.0357   0.0457
     0.1128   0.1975   0.2412   0.2415   0.2692   0.2765   0.3561   0.3644
     0.5162   0.5309   0.6194   0.6655   0.6811   0.7230   0.7391   0.7705
     0.8452   0.8786   0.8991   0.9238   1.0840   1.0900   1.2155   1.2538
     1.4356   1.4908   1.5360   1.5809   5.1335   5.1457   5.1863   5.2080
     5.4440   5.4569   5.4967   5.5057   6.6338   6.7272   6.8122   7.0029
     7.0182   7.0290   7.2171   7.3087   7.3491   7.4668   7.4691   7.6941
     7.7973   7.8381   7.9708   8.0031   8.0706   8.2042   8.3276   8.5693
     8.5999   8.6442   8.6588   8.7147   8.7174   8.7419   8.7886   8.8344
     8.8825   9.0464   9.0799   9.1448   9.1807   9.2806   9.2937   9.2949
     9.5129   9.5242   9.5809

          k = 0.0000 0.0000-0.2385 (150330 PWs)   bands (ev):

   -19.9698 -19.9680 -19.8601 -19.8597 -19.7544 -19.7539 -19.6205 -19.6196
   -19.3116 -19.3113 -19.2858 -19.2849 -19.1372 -19.1359 -19.1264 -19.1254
   -18.1675 -18.1673 -18.1644 -18.1643 -17.3296 -17.3295 -17.3077 -17.3077
   -16.8025 -16.8019 -16.7454 -16.7449 -16.0820 -16.0813 -16.0226 -16.0216
   -15.8269 -15.8258 -15.8195 -15.8185 -14.6487 -14.6482 -14.6359 -14.6355
   -12.1310 -12.1303 -12.1024 -12.1015 -11.8235 -11.8232 -11.8145 -11.8143
   -11.2859 -11.2859 -11.2754 -11.2748 -10.7251 -10.7240 -10.7050 -10.7036
    -9.9078  -9.9076  -9.8203  -9.8202  -9.5310  -9.5306  -9.4466  -9.4460
    -9.2966  -9.2954  -9.2160  -9.2152  -9.0243  -9.0243  -9.0073  -9.0067
    -7.9638  -7.9632  -7.9001  -7.8992  -7.8506  -7.8504  -7.7159  -7.7158
    -7.4641  -7.4637  -7.4103  -7.4103  -6.7039  -6.7034  -6.6600  -6.6597
    -6.0834  -6.0829  -5.9012  -5.9008  -5.8695  -5.8693  -5.8289  -5.8278
    -5.7796  -5.7790  -5.6418  -5.6411  -5.5494  -5.5494  -5.4044  -5.4038
    -4.9182  -4.9180  -4.7857  -4.7850  -4.6609  -4.6607  -4.5670  -4.5662
    -4.5220  -4.5217  -4.4495  -4.4493  -4.3583  -4.3583  -4.2929  -4.2925
    -4.2591  -4.2589  -4.2074  -4.2073  -4.1437  -4.1433  -4.0960  -4.0957
    -4.0303  -4.0303  -3.8099  -3.8096  -3.7591  -3.7589  -3.6750  -3.6746
    -3.6368  -3.6364  -3.5217  -3.5215  -3.4152  -3.4152  -3.3925  -3.3921
    -3.3031  -3.3029  -3.1643  -3.1643  -3.0972  -3.0971  -3.0637  -3.0636
    -2.9929  -2.9929  -2.9312  -2.9308  -2.6471  -2.6469  -2.5992  -2.5992
    -2.5087  -2.5084  -2.4517  -2.4516  -2.4050  -2.4045  -2.2751  -2.2748
    -2.1924  -2.1916  -2.1103  -2.1102  -2.0094  -2.0094  -1.9167  -1.9166
    -1.8569  -1.8563  -1.8078  -1.8078  -1.7079  -1.7078  -1.6244  -1.6242
    -1.4761  -1.4760  -1.4537  -1.4536  -1.0088  -1.0087  -0.8542  -0.8539
    -0.8214  -0.8214  -0.7888  -0.7885  -0.6698  -0.6695  -0.6305  -0.6304
    -0.2214  -0.2204  -0.1800  -0.1797  -0.0197  -0.0197   0.0590   0.0594
     0.1835   0.1836   0.2228   0.2231   0.3209   0.3214   0.3526   0.3532
     0.5172   0.5174   0.6483   0.6483   0.6915   0.6916   0.7518   0.7518
     0.8623   0.8624   0.9217   0.9218   1.0929   1.0935   1.2226   1.2238
     1.4511   1.4518   1.5665   1.5678   5.1551   5.1557   5.1803   5.1805
     5.4643   5.4654   5.4868   5.4882   6.6682   6.6683   6.9193   6.9206
     7.1239   7.1257   7.2799   7.2804   7.3519   7.3519   7.5119   7.5126
     7.6998   7.7007   7.9693   7.9700   8.1825   8.1832   8.5676   8.5685
     8.5697   8.5699   8.7038   8.7041   8.8260   8.8265   8.9228   8.9230
     9.0133   9.0138   9.1298   9.1305   9.2145   9.2148   9.2390   9.2391
     9.4018   9.4022   9.6074

          k = 0.0000-0.1919 0.0000 (150290 PWs)   bands (ev):

   -19.9752 -19.9735 -19.8338 -19.8328 -19.7828 -19.7826 -19.6128 -19.6119
   -19.3039 -19.3032 -19.2947 -19.2939 -19.1343 -19.1329 -19.1287 -19.1275
   -18.1679 -18.1671 -18.1647 -18.1638 -17.3374 -17.3372 -17.2978 -17.2977
   -16.8279 -16.8273 -16.7192 -16.7188 -16.0969 -16.0960 -16.0109 -16.0099
   -15.8271 -15.8260 -15.8192 -15.8182 -14.6479 -14.6474 -14.6367 -14.6362
   -12.1382 -12.1370 -12.0959 -12.0947 -11.8303 -11.8300 -11.8078 -11.8074
   -11.3286 -11.3282 -11.2259 -11.2255 -10.7545 -10.7532 -10.6789 -10.6776
    -9.8826  -9.8826  -9.8424  -9.8421  -9.5379  -9.5375  -9.4641  -9.4635
    -9.3057  -9.3044  -9.1989  -9.1978  -9.0772  -9.0766  -8.9406  -8.9400
    -7.9685  -7.9678  -7.9260  -7.9251  -7.7852  -7.7846  -7.7565  -7.7559
    -7.4526  -7.4518  -7.4150  -7.4145  -6.7460  -6.7454  -6.5970  -6.5963
    -6.1603  -6.1602  -5.9304  -5.9299  -5.8649  -5.8643  -5.8388  -5.8383
    -5.7525  -5.7523  -5.6035  -5.6035  -5.4634  -5.4633  -5.4152  -5.4150
    -4.9841  -4.9838  -4.7774  -4.7769  -4.7232  -4.7231  -4.5711  -4.5707
    -4.5331  -4.5330  -4.4052  -4.4051  -4.3655  -4.3653  -4.2674  -4.2670
    -4.2278  -4.2272  -4.1734  -4.1730  -4.1293  -4.1290  -4.1133  -4.1131
    -4.0313  -4.0313  -3.9303  -3.9299  -3.7372  -3.7370  -3.6718  -3.6714
    -3.5971  -3.5971  -3.4495  -3.4493  -3.4090  -3.4089  -3.3247  -3.3245
    -3.3047  -3.3046  -3.2579  -3.2578  -3.1340  -3.1335  -3.0770  -3.0769
    -3.0060  -3.0051  -2.8922  -2.8921  -2.6264  -2.6261  -2.6240  -2.6235
    -2.5768  -2.5768  -2.4393  -2.4391  -2.3998  -2.3996  -2.2851  -2.2845
    -2.2083  -2.2077  -2.0532  -2.0530  -2.0259  -2.0258  -1.9202  -1.9200
    -1.8583  -1.8581  -1.7676  -1.7672  -1.6973  -1.6968  -1.6585  -1.6584
    -1.4773  -1.4773  -1.4489  -1.4487  -0.9567  -0.9565  -0.9195  -0.9190
    -0.8073  -0.8070  -0.7878  -0.7875  -0.6973  -0.6969  -0.5829  -0.5826
    -0.1978  -0.1969  -0.1674  -0.1674  -0.0291  -0.0291   0.0446   0.0451
     0.1645   0.1648   0.2420   0.2422   0.2697   0.2703   0.3610   0.3614
     0.5538   0.5539   0.6029   0.6030   0.7254   0.7257   0.7659   0.7660
     0.8414   0.8417   0.9058   0.9058   1.0888   1.0893   1.2362   1.2375
     1.4627   1.4634   1.5595   1.5608   5.1399   5.1405   5.1971   5.1973
     5.4483   5.4495   5.4998   5.5013   6.6778   6.6781   6.9091   6.9103
     7.0131   7.0143   7.2335   7.2338   7.4510   7.4517   7.5592   7.5594
     7.8070   7.8072   8.0116   8.0121   8.2478   8.2488   8.3259   8.3263
     8.6033   8.6037   8.6438   8.6438   8.7539   8.7540   8.8436   8.8441
     8.9819   8.9821   9.1474   9.1478   9.1501   9.1504   9.3092   9.3098
     9.5402   9.5406   9.6390

          k = 0.0000-0.1919-0.2385 (150240 PWs)   bands (ev):

   -19.9697 -19.9679 -19.8603 -19.8599 -19.7543 -19.7539 -19.6205 -19.6196
   -19.3079 -19.3074 -19.2898 -19.2888 -19.1366 -19.1351 -19.1270 -19.1258
   -18.1671 -18.1662 -18.1655 -18.1647 -17.3233 -17.3230 -17.3143 -17.3143
   -16.8024 -16.8019 -16.7453 -16.7449 -16.0800 -16.0792 -16.0247 -16.0237
   -15.8268 -15.8257 -15.8195 -15.8185 -14.6484 -14.6479 -14.6362 -14.6358
   -12.1267 -12.1256 -12.1072 -12.1059 -11.8225 -11.8221 -11.8155 -11.8152
   -11.2849 -11.2847 -11.2765 -11.2759 -10.7248 -10.7237 -10.7056 -10.7042
    -9.9073  -9.9071  -9.8208  -9.8207  -9.5261  -9.5257  -9.4505  -9.4499
    -9.2901  -9.2887  -9.2255  -9.2245  -9.0206  -9.0203  -9.0104  -9.0095
    -7.9695  -7.9688  -7.9096  -7.9087  -7.7869  -7.7861  -7.7626  -7.7621
    -7.4463  -7.4453  -7.4332  -7.4325  -6.6876  -6.6866  -6.6773  -6.6771
    -6.0667  -6.0661  -5.9359  -5.9357  -5.8507  -5.8502  -5.8498  -5.8496
    -5.7120  -5.7107  -5.7037  -5.7033  -5.4878  -5.4873  -5.4426  -5.4415
    -4.9040  -4.9037  -4.8183  -4.8173  -4.6559  -4.6556  -4.5940  -4.5933
    -4.4998  -4.4993  -4.4454  -4.4452  -4.3727  -4.3727  -4.2891  -4.2884
    -4.2321  -4.2316  -4.2309  -4.2305  -4.1327  -4.1323  -4.1028  -4.1027
    -3.9619  -3.9617  -3.8953  -3.8948  -3.7040  -3.7039  -3.6906  -3.6903
    -3.6381  -3.6379  -3.5212  -3.5208  -3.4517  -3.4514  -3.3855  -3.3851
    -3.2679  -3.2675  -3.1647  -3.1643  -3.1113  -3.1111  -3.0670  -3.0665
    -3.0163  -3.0159  -2.9226  -2.9224  -2.6218  -2.6214  -2.6172  -2.6170
    -2.4861  -2.4858  -2.4715  -2.4711  -2.3610  -2.3608  -2.3320  -2.3311
    -2.1735  -2.1726  -2.1038  -2.1035  -1.9675  -1.9674  -1.9664  -1.9661
    -1.8717  -1.8711  -1.7597  -1.7594  -1.7517  -1.7514  -1.6142  -1.6140
    -1.4774  -1.4773  -1.4576  -1.4574  -0.9399  -0.9393  -0.9367  -0.9363
    -0.8214  -0.8211  -0.7726  -0.7722  -0.6636  -0.6631  -0.6352  -0.6350
    -0.2230  -0.2220  -0.1802  -0.1800  -0.0221  -0.0218   0.0556   0.0561
     0.1843   0.1844   0.2249   0.2252   0.3185   0.3190   0.3544   0.3550
     0.5732   0.5736   0.5760   0.5762   0.7302   0.7305   0.7466   0.7471
     0.8647   0.8649   0.8996   0.8996   1.0979   1.0985   1.2230   1.2241
     1.4569   1.4576   1.5623   1.5636   5.1589   5.1595   5.1773   5.1775
     5.4621   5.4632   5.4867   5.4881   6.6822   6.6825   6.8982   6.8996
     7.1257   7.1275   7.2700   7.2707   7.4083   7.4086   7.4537   7.4543
     7.7361   7.7373   7.9088   7.9100   8.3319   8.3323   8.4416   8.4425
     8.6618   8.6624   8.6801   8.6805   8.7895   8.7897   8.8374   8.8376
     9.0166   9.0172   9.1444   9.1453   9.1768   9.1772   9.2466   9.2468
     9.5549   9.5614   9.5619

          k = 0.3333 0.0000 0.0221 (150297 PWs)   bands (ev):

   -19.9489 -19.9438 -19.8595 -19.8541 -19.7453 -19.7449 -19.6414 -19.6406
   -19.3123 -19.3079 -19.2891 -19.2858 -19.1522 -19.1510 -19.1174 -19.1159
   -18.1717 -18.1706 -18.1608 -18.1599 -17.3475 -17.3355 -17.3108 -17.3009
   -16.8079 -16.8053 -16.7484 -16.7460 -16.0896 -16.0682 -16.0445 -16.0240
   -15.8233 -15.8219 -15.8200 -15.8186 -14.6774 -14.6726 -14.6418 -14.6374
   -12.1430 -12.1346 -12.1112 -12.0976 -11.8605 -11.8558 -11.8201 -11.8135
   -11.3061 -11.2984 -11.2399 -11.2241 -10.7365 -10.7215 -10.6936 -10.6758
    -9.8199  -9.8008  -9.7958  -9.7840  -9.5090  -9.4957  -9.4605  -9.4581
    -9.2830  -9.2793  -9.2327  -9.2100  -9.0353  -9.0301  -8.8944  -8.8836
    -7.9871  -7.9470  -7.9349  -7.8927  -7.8215  -7.7857  -7.7396  -7.7078
    -7.4529  -7.4405  -7.3865  -7.3860  -6.8457  -6.8045  -6.7128  -6.6830
    -6.1515  -6.1008  -5.9958  -5.9212  -5.8725  -5.8511  -5.8442  -5.7895
    -5.7438  -5.6947  -5.6251  -5.5537  -5.5391  -5.5028  -5.3958  -5.3950
    -5.0283  -4.9527  -4.9362  -4.8708  -4.7786  -4.7511  -4.7197  -4.7110
    -4.5779  -4.4882  -4.4437  -4.4325  -4.3234  -4.3214  -4.2888  -4.2597
    -4.2424  -4.2322  -4.2089  -4.1863  -4.1230  -4.1171  -4.0497  -4.0462
    -3.9561  -3.9222  -3.8842  -3.8177  -3.7828  -3.7019  -3.6736  -3.6713
    -3.6577  -3.5806  -3.5597  -3.5585  -3.5053  -3.5047  -3.3895  -3.2944
    -3.2818  -3.2751  -3.2143  -3.1734  -3.1427  -3.0755  -3.0665  -3.0513
    -3.0036  -2.9723  -2.9426  -2.9031  -2.7178  -2.6553  -2.6401  -2.6380
    -2.5550  -2.5327  -2.4559  -2.4261  -2.3406  -2.3071  -2.2993  -2.2020
    -2.1997  -2.1815  -2.1125  -2.0873  -2.0340  -1.9935  -1.9479  -1.9211
    -1.8357  -1.8284  -1.7632  -1.7394  -1.7102  -1.6839  -1.6360  -1.6269
    -1.5981  -1.5786  -1.5510  -1.5114  -1.0449  -0.9798  -0.8876  -0.8601
    -0.8304  -0.8230  -0.8114  -0.7683  -0.7213  -0.7045  -0.6310  -0.6239
    -0.1940  -0.1912  -0.0753  -0.0576  -0.0064  -0.0042   0.1027   0.1030
     0.1323   0.1696   0.2427   0.2449   0.2692   0.2703   0.4268   0.4359
     0.5129   0.5455   0.5921   0.6102   0.6615   0.6826   0.7081   0.7318
     0.8456   0.8475   1.0624   1.0790   1.1013   1.1230   1.2119   1.2445
     1.4959   1.4974   1.5311   1.5451   5.1517   5.1521   5.2162   5.2205
     5.2969   5.3355   5.3890   5.4279   6.7842   6.9194   6.9895   7.0057
     7.2165   7.2969   7.3738   7.3971   7.4405   7.4519   7.6142   7.6292
     7.6744   7.9250   8.0687   8.1045   8.2260   8.3283   8.3528   8.4336
     8.5262   8.5386   8.5757   8.5923   8.7157   8.7404   8.8110   8.9082
     8.9655   8.9938   9.0396   9.0869   9.1733   9.2056   9.2540   9.3072
     9.3181   9.4007   9.4860

          k = 0.3333 0.0000-0.2163 (150293 PWs)   bands (ev):

   -19.9449 -19.9413 -19.8687 -19.8634 -19.7337 -19.7326 -19.6477 -19.6466
   -19.3111 -19.3072 -19.2918 -19.2853 -19.1532 -19.1466 -19.1202 -19.1158
   -18.1685 -18.1670 -18.1657 -18.1614 -17.3413 -17.3266 -17.3184 -17.3083
   -16.8007 -16.7972 -16.7580 -16.7573 -16.0762 -16.0674 -16.0377 -16.0306
   -15.8330 -15.8313 -15.8152 -15.8136 -14.6662 -14.6599 -14.6541 -14.6494
   -12.1437 -12.1296 -12.1155 -12.0977 -11.8475 -11.8390 -11.8350 -11.8267
   -11.2802 -11.2732 -11.2671 -11.2558 -10.7344 -10.7214 -10.6900 -10.6752
    -9.8371  -9.8275  -9.7727  -9.7636  -9.5269  -9.5184  -9.4385  -9.4271
    -9.2903  -9.2662  -9.2401  -9.2211  -8.9974  -8.9817  -8.9373  -8.9358
    -7.9657  -7.9497  -7.9132  -7.8904  -7.8206  -7.8141  -7.7338  -7.7279
    -7.4706  -7.4205  -7.4094  -7.3759  -6.7850  -6.7726  -6.7320  -6.7262
    -6.0543  -6.0433  -5.9741  -5.9665  -5.8836  -5.8646  -5.8291  -5.8224
    -5.7920  -5.7776  -5.6489  -5.5938  -5.5609  -5.5054  -5.4593  -5.4169
    -5.0710  -4.9227  -4.8496  -4.7784  -4.7183  -4.6922  -4.6042  -4.5773
    -4.5335  -4.4721  -4.4078  -4.4064  -4.3856  -4.3814  -4.3334  -4.3030
    -4.2646  -4.2596  -4.2359  -4.1842  -4.1780  -4.1319  -4.0865  -4.0789
    -4.0702  -3.9694  -3.9545  -3.8682  -3.7224  -3.7064  -3.6662  -3.6642
    -3.6455  -3.5886  -3.5297  -3.5000  -3.4838  -3.4136  -3.3531  -3.3447
    -3.2472  -3.2311  -3.2077  -3.1970  -3.1855  -3.1355  -3.0813  -3.0537
    -3.0053  -2.9710  -2.9373  -2.9227  -2.6884  -2.6826  -2.5824  -2.5776
    -2.5184  -2.5141  -2.4977  -2.4305  -2.3509  -2.3387  -2.2817  -2.2545
    -2.1996  -2.1555  -2.1241  -2.0782  -2.0044  -1.9993  -1.9630  -1.9239
    -1.8442  -1.7857  -1.7580  -1.7548  -1.7204  -1.7111  -1.6609  -1.6105
    -1.5914  -1.5824  -1.5552  -1.5046  -1.0193  -1.0095  -0.8663  -0.8585
    -0.8380  -0.8321  -0.7992  -0.7706  -0.7189  -0.6845  -0.6556  -0.6503
    -0.1796  -0.1767  -0.0425  -0.0402  -0.0308  -0.0076   0.0516   0.0973
     0.1524   0.1838   0.2244   0.2317   0.2765   0.2782   0.4249   0.4407
     0.5265   0.5358   0.5920   0.6039   0.6635   0.6757   0.7096   0.7189
     0.7928   0.9074   1.0284   1.0619   1.1372   1.1471   1.2218   1.2327
     1.4754   1.5056   1.5426   1.5500   5.1447   5.1527   5.2042   5.2392
     5.3015   5.3601   5.3914   5.3967   6.8477   6.9169   6.9832   6.9884
     7.2136   7.2837   7.3596   7.3995   7.4536   7.4979   7.5425   7.5771
     7.8073   7.9188   8.0361   8.1607   8.2660   8.3549   8.4196   8.4534
     8.4897   8.5022   8.5126   8.5987   8.6140   8.7695   8.8199   8.8687
     8.8907   9.0314   9.1015   9.1299   9.1468   9.2282   9.2602   9.2812
     9.3332   9.3799   9.3982

          k = 0.3333-0.1919 0.0221 (150296 PWs)   bands (ev):

   -19.9471 -19.9456 -19.8574 -19.8563 -19.7452 -19.7450 -19.6414 -19.6406
   -19.3062 -19.3055 -19.2923 -19.2914 -19.1519 -19.1507 -19.1175 -19.1160
   -18.1711 -18.1702 -18.1613 -18.1604 -17.3397 -17.3394 -17.3080 -17.3080
   -16.8068 -16.8063 -16.7474 -16.7469 -16.0792 -16.0783 -16.0349 -16.0340
   -15.8230 -15.8219 -15.8198 -15.8188 -14.6746 -14.6741 -14.6405 -14.6400
   -12.1326 -12.1315 -12.1120 -12.1107 -11.8584 -11.8581 -11.8169 -11.8167
   -11.3023 -11.3019 -11.2321 -11.2317 -10.7296 -10.7283 -10.6856 -10.6844
    -9.8131  -9.8130  -9.7872  -9.7869  -9.5005  -9.5001  -9.4606  -9.4600
    -9.2764  -9.2752  -9.2290  -9.2279  -9.0329  -9.0321  -8.8892  -8.8886
    -7.9668  -7.9660  -7.9203  -7.9194  -7.7781  -7.7776  -7.7443  -7.7435
    -7.4421  -7.4410  -7.3946  -7.3941  -6.8220  -6.8214  -6.6985  -6.6980
    -6.1263  -6.1262  -5.9585  -5.9583  -5.8638  -5.8632  -5.8206  -5.8198
    -5.7108  -5.7102  -5.6038  -5.6035  -5.5120  -5.5115  -5.3929  -5.3924
    -4.9921  -4.9915  -4.9045  -4.9041  -4.7752  -4.7749  -4.7195  -4.7193
    -4.5416  -4.5411  -4.4197  -4.4193  -4.3204  -4.3201  -4.2654  -4.2651
    -4.2327  -4.2323  -4.1777  -4.1773  -4.1409  -4.1408  -4.0157  -4.0155
    -3.9659  -3.9654  -3.8506  -3.8503  -3.7922  -3.7920  -3.6897  -3.6895
    -3.6127  -3.6122  -3.5358  -3.5356  -3.4796  -3.4794  -3.3808  -3.3806
    -3.2502  -3.2501  -3.1734  -3.1731  -3.1256  -3.1251  -3.0558  -3.0557
    -2.9967  -2.9961  -2.9202  -2.9199  -2.6859  -2.6857  -2.6368  -2.6366
    -2.5453  -2.5452  -2.4429  -2.4428  -2.2999  -2.2992  -2.2586  -2.2583
    -2.2083  -2.2075  -2.0937  -2.0934  -2.0191  -2.0188  -1.9312  -1.9310
    -1.8207  -1.8202  -1.7646  -1.7643  -1.6914  -1.6912  -1.6506  -1.6501
    -1.5716  -1.5716  -1.5402  -1.5402  -0.9693  -0.9690  -0.9132  -0.9129
    -0.8321  -0.8318  -0.7915  -0.7911  -0.7101  -0.7097  -0.6226  -0.6223
    -0.1919  -0.1913  -0.0679  -0.0677  -0.0062  -0.0060   0.1011   0.1014
     0.1503   0.1504   0.2427   0.2432   0.2692   0.2693   0.4323   0.4328
     0.5437   0.5443   0.5945   0.5949   0.6787   0.6788   0.7205   0.7206
     0.8352   0.8352   1.0426   1.0432   1.1443   1.1448   1.2245   1.2253
     1.4978   1.4989   1.5346   1.5357   5.1517   5.1521   5.2174   5.2180
     5.3184   5.3195   5.4045   5.4055   6.8572   6.8579   6.9908   6.9917
     7.2624   7.2632   7.3790   7.3795   7.4445   7.4456   7.6115   7.6124
     7.7808   7.7814   8.1109   8.1114   8.3049   8.3052   8.3452   8.3458
     8.4795   8.4798   8.6483   8.6486   8.7805   8.7814   8.8467   8.8468
     8.9285   8.9291   9.0848   9.0853   9.2052   9.2063   9.3400   9.3408
     9.3616   9.3624   9.4753

          k = 0.3333-0.1919-0.2163 (150280 PWs)   bands (ev):

   -19.9438 -19.9422 -19.8667 -19.8658 -19.7333 -19.7329 -19.6475 -19.6468
   -19.3047 -19.3040 -19.2940 -19.2931 -19.1504 -19.1492 -19.1186 -19.1171
   -18.1680 -18.1672 -18.1641 -18.1633 -17.3308 -17.3307 -17.3168 -17.3166
   -16.7991 -16.7986 -16.7579 -16.7573 -16.0693 -16.0685 -16.0376 -16.0366
   -15.8326 -15.8316 -15.8149 -15.8138 -14.6613 -14.6609 -14.6539 -14.6534
   -12.1307 -12.1296 -12.1139 -12.1126 -11.8441 -11.8439 -11.8301 -11.8301
   -11.2762 -11.2759 -11.2620 -11.2616 -10.7283 -10.7271 -10.6836 -10.6824
    -9.8333  -9.8331  -9.7671  -9.7669  -9.5214  -9.5210  -9.4340  -9.4335
    -9.2726  -9.2714  -9.2381  -9.2371  -8.9899  -8.9890  -8.9371  -8.9367
    -7.9558  -7.9550  -7.9103  -7.9095  -7.7838  -7.7831  -7.7589  -7.7582
    -7.4479  -7.4470  -7.3942  -7.3936  -6.7600  -6.7598  -6.7454  -6.7447
    -6.0337  -6.0334  -5.9867  -5.9864  -5.8652  -5.8644  -5.8408  -5.8400
    -5.7752  -5.7744  -5.6321  -5.6313  -5.5268  -5.5263  -5.4397  -5.4393
    -4.9982  -4.9977  -4.8258  -4.8257  -4.7014  -4.7009  -4.5952  -4.5950
    -4.5070  -4.5064  -4.4182  -4.4181  -4.3459  -4.3458  -4.3091  -4.3088
    -4.2650  -4.2647  -4.2090  -4.2086  -4.1521  -4.1515  -4.0890  -4.0889
    -4.0296  -4.0295  -3.9054  -3.9051  -3.7450  -3.7447  -3.6860  -3.6856
    -3.5823  -3.5822  -3.5237  -3.5236  -3.4551  -3.4548  -3.3381  -3.3378
    -3.2462  -3.2461  -3.1812  -3.1809  -3.1174  -3.1172  -3.1067  -3.1064
    -3.0016  -3.0013  -2.9296  -2.9293  -2.6792  -2.6788  -2.5753  -2.5752
    -2.5198  -2.5195  -2.4669  -2.4667  -2.3118  -2.3114  -2.2795  -2.2787
    -2.2180  -2.2175  -2.0867  -2.0866  -1.9852  -1.9848  -1.9505  -1.9504
    -1.8239  -1.8235  -1.7517  -1.7514  -1.7153  -1.7152  -1.6536  -1.6533
    -1.5738  -1.5736  -1.5326  -1.5326  -0.9579  -0.9577  -0.9287  -0.9285
    -0.8287  -0.8283  -0.7861  -0.7857  -0.6990  -0.6988  -0.6466  -0.6465
    -0.1777  -0.1770  -0.0451  -0.0446  -0.0236  -0.0234   0.0785   0.0788
     0.1661   0.1662   0.2278   0.2280   0.2762   0.2765   0.4328   0.4333
     0.5594   0.5597   0.5785   0.5789   0.6872   0.6874   0.6957   0.6959
     0.8414   0.8415   1.0427   1.0432   1.1517   1.1519   1.2269   1.2275
     1.4897   1.4909   1.5449   1.5458   5.1468   5.1471   5.2230   5.2238
     5.3308   5.3317   5.3920   5.3928   6.9116   6.9121   6.9541   6.9547
     7.2644   7.2650   7.3742   7.3753   7.4875   7.4880   7.5266   7.5275
     7.8497   7.8508   8.1285   8.1300   8.2615   8.2618   8.4091   8.4095
     8.4843   8.4852   8.5895   8.5898   8.7715   8.7721   8.8933   8.8946
     8.9539   8.9541   9.0682   9.0692   9.1333   9.1335   9.2677   9.2687
     9.3722   9.3723   9.5065

     highest occupied, lowest unoccupied level (ev):     1.5809    5.1335

!    total energy              =   -2320.24212893 Ry
     Harris-Foulkes estimate   =   -2320.24212894 Ry
     estimated scf accuracy    <          5.5E-09 Ry

     total all-electron energy =     -8801.693791 Ry

     The total energy is the sum of the following terms:

     one-electron contribution =   -1383.50598362 Ry
     hartree contribution      =     885.10815963 Ry
     xc contribution           =    -498.03886016 Ry
     ewald contribution        =    -654.52305325 Ry
     Dispersion Correction     =      -0.80436053 Ry
     one-center paw contrib.   =    -668.47803100 Ry

     convergence has been achieved in  20 iterations

     Forces acting on atoms (cartesian axes, Ry/au):

     atom    1 type  1   force =     0.01120538   -0.00449873   -0.00177667
     atom    2 type  1   force =    -0.01120158   -0.00449459    0.00165009
     atom    3 type  1   force =    -0.01120538    0.00449873    0.00177667
     atom    4 type  1   force =     0.01120158    0.00449459   -0.00165009
     atom    5 type  2   force =    -0.00468261   -0.00202947   -0.00003347
     atom    6 type  2   force =     0.00464895   -0.00198964   -0.00001767
     atom    7 type  2   force =     0.00468261    0.00202947    0.00003347
     atom    8 type  2   force =    -0.00464895    0.00198964    0.00001767
     atom    9 type  1   force =     0.00336149    0.00029738    0.00112693
     atom   10 type  1   force =    -0.00320117   -0.00004788   -0.00082802
     atom   11 type  1   force =    -0.00336149   -0.00029738   -0.00112693
     atom   12 type  1   force =     0.00320117    0.00004788    0.00082802
     atom   13 type  4   force =    -0.00112383   -0.00050388   -0.00161228
     atom   14 type  4   force =     0.00102684   -0.00021631    0.00135906
     atom   15 type  4   force =     0.00112383    0.00050388    0.00161228
     atom   16 type  4   force =    -0.00102684    0.00021631   -0.00135906
     atom   17 type  2   force =    -0.00171434   -0.00221066   -0.00168338
     atom   18 type  2   force =     0.00164114   -0.00219323    0.00163219
     atom   19 type  2   force =     0.00171434    0.00221066    0.00168338
     atom   20 type  2   force =    -0.00164114    0.00219323   -0.00163219
     atom   21 type  1   force =     0.00303079    0.00084531    0.00723928
     atom   22 type  1   force =    -0.00265648    0.00106538   -0.00736990
     atom   23 type  1   force =    -0.00303079   -0.00084531   -0.00723928
     atom   24 type  1   force =     0.00265648   -0.00106538    0.00736990
     atom   25 type  4   force =     0.00522501    0.00679570   -0.00113310
     atom   26 type  4   force =    -0.00554172    0.00658716    0.00127215
     atom   27 type  4   force =    -0.00522501   -0.00679570    0.00113310
     atom   28 type  4   force =     0.00554172   -0.00658716   -0.00127215
     atom   29 type  1   force =    -0.00800192   -0.00500732    0.00128863
     atom   30 type  1   force =     0.00795284   -0.00501357   -0.00131027
     atom   31 type  1   force =     0.00800192    0.00500732   -0.00128863
     atom   32 type  1   force =    -0.00795284    0.00501357    0.00131027
     atom   33 type  1   force =     0.00606154    0.00597017   -0.00103567
     atom   34 type  1   force =    -0.00603597    0.00596650    0.00094955
     atom   35 type  1   force =    -0.00606154   -0.00597017    0.00103567
     atom   36 type  1   force =     0.00603597   -0.00596650   -0.00094955
     atom   37 type  1   force =    -0.00610135   -0.00212860    0.00254065
     atom   38 type  1   force =     0.00613978   -0.00210999   -0.00264492
     atom   39 type  1   force =     0.00610135    0.00212860   -0.00254065
     atom   40 type  1   force =    -0.00613978    0.00210999    0.00264492
     atom   41 type  1   force =    -0.00075553    0.00163748    0.00360864
     atom   42 type  1   force =     0.00076591    0.00163272   -0.00365303
     atom   43 type  1   force =     0.00075553   -0.00163748   -0.00360864
     atom   44 type  1   force =    -0.00076591   -0.00163272    0.00365303
     atom   45 type  1   force =     0.00262428   -0.00038426   -0.00767940
     atom   46 type  1   force =    -0.00281236   -0.00059321    0.00785805
     atom   47 type  1   force =    -0.00262428    0.00038426    0.00767940
     atom   48 type  1   force =     0.00281236    0.00059321   -0.00785805
     atom   49 type  4   force =    -0.00171667    0.00244769   -0.00073361
     atom   50 type  4   force =     0.00183184    0.00267583    0.00063740
     atom   51 type  4   force =     0.00171667   -0.00244769    0.00073361
     atom   52 type  4   force =    -0.00183184   -0.00267583   -0.00063740
     atom   53 type  2   force =    -0.00314926   -0.00317381    0.00007709
     atom   54 type  2   force =     0.00326331   -0.00313896   -0.00016921
     atom   55 type  2   force =     0.00314926    0.00317381   -0.00007709
     atom   56 type  2   force =    -0.00326331    0.00313896    0.00016921
     atom   57 type  4   force =    -0.00314127   -0.00173235   -0.00132275
     atom   58 type  4   force =     0.00286669   -0.00131548    0.00151427
     atom   59 type  4   force =     0.00314127    0.00173235    0.00132275
     atom   60 type  4   force =    -0.00286669    0.00131548   -0.00151427
     atom   61 type  1   force =     0.00443390    0.00195880   -0.00048699
     atom   62 type  1   force =    -0.00411666    0.00148713    0.00023486
     atom   63 type  1   force =    -0.00443390   -0.00195880    0.00048699
     atom   64 type  1   force =     0.00411666   -0.00148713   -0.00023486
     atom   65 type  2   force =    -0.00108219    0.00171815   -0.00097192
     atom   66 type  2   force =     0.00104792    0.00174822    0.00100163
     atom   67 type  2   force =     0.00108219   -0.00171815    0.00097192
     atom   68 type  2   force =    -0.00104792   -0.00174822   -0.00100163
     atom   69 type  1   force =    -0.00207200   -0.00088673   -0.00135093
     atom   70 type  1   force =     0.00201147   -0.00087812    0.00125740
     atom   71 type  1   force =     0.00207200    0.00088673    0.00135093
     atom   72 type  1   force =    -0.00201147    0.00087812   -0.00125740
     atom   73 type  1   force =    -0.00287452    0.00139529   -0.00114209
     atom   74 type  1   force =     0.00290093    0.00136455    0.00106308
     atom   75 type  1   force =     0.00287452   -0.00139529    0.00114209
     atom   76 type  1   force =    -0.00290093   -0.00136455   -0.00106308
     atom   77 type  1   force =     0.00286952    0.00095901   -0.00004776
     atom   78 type  1   force =    -0.00279653    0.00096734    0.00015050
     atom   79 type  1   force =    -0.00286952   -0.00095901    0.00004776
     atom   80 type  1   force =     0.00279653   -0.00096734   -0.00015050
     atom   81 type  1   force =    -0.00193405    0.00001192   -0.00032049
     atom   82 type  1   force =     0.00190259   -0.00001359    0.00029521
     atom   83 type  1   force =     0.00193405   -0.00001192    0.00032049
     atom   84 type  1   force =    -0.00190259    0.00001359   -0.00029521
     atom   85 type  4   force =    -0.00107317    0.00222404   -0.00194259
     atom   86 type  4   force =     0.00105413    0.00224448    0.00192086
     atom   87 type  4   force =     0.00107317   -0.00222404    0.00194259
     atom   88 type  4   force =    -0.00105413   -0.00224448   -0.00192086
     atom   89 type  3   force =     0.00046445    0.00060587    0.00070638
     atom   90 type  3   force =    -0.00047218    0.00057846   -0.00067188
     atom   91 type  3   force =    -0.00046445   -0.00060587   -0.00070638
     atom   92 type  3   force =     0.00047218   -0.00057846    0.00067188
     atom   93 type  3   force =     0.00045143   -0.00006805   -0.00057351
     atom   94 type  3   force =    -0.00040467   -0.00007630    0.00061325
     atom   95 type  3   force =    -0.00045143    0.00006805    0.00057351
     atom   96 type  3   force =     0.00040467    0.00007630   -0.00061325
     atom   97 type  3   force =    -0.00732690   -0.00838464   -0.00036102
     atom   98 type  3   force =     0.00732505   -0.00838396    0.00036605
     atom   99 type  3   force =     0.00732690    0.00838464    0.00036102
     atom  100 type  3   force =    -0.00732505    0.00838396   -0.00036605
     atom  101 type  3   force =    -0.00656970    0.00291934   -0.00091022
     atom  102 type  3   force =     0.00657482    0.00290703    0.00091724
     atom  103 type  3   force =     0.00656970   -0.00291934    0.00091022
     atom  104 type  3   force =    -0.00657482   -0.00290703   -0.00091724
     atom  105 type  3   force =    -0.00085309   -0.00034057    0.00018345
     atom  106 type  3   force =     0.00085454   -0.00034885   -0.00018024
     atom  107 type  3   force =     0.00085309    0.00034057   -0.00018345
     atom  108 type  3   force =    -0.00085454    0.00034885    0.00018024
     atom  109 type  3   force =    -0.00025703    0.00018507   -0.00011827
     atom  110 type  3   force =     0.00026578    0.00017875    0.00011360
     atom  111 type  3   force =     0.00025703   -0.00018507    0.00011827
     atom  112 type  3   force =    -0.00026578   -0.00017875   -0.00011360
     atom  113 type  3   force =     0.00016084    0.00007108    0.00062372
     atom  114 type  3   force =    -0.00021288    0.00004524   -0.00059738
     atom  115 type  3   force =    -0.00016084   -0.00007108   -0.00062372
     atom  116 type  3   force =     0.00021288   -0.00004524    0.00059738
     atom  117 type  3   force =     0.00424058   -0.00004520    0.00170299
     atom  118 type  3   force =    -0.00422692   -0.00004577   -0.00170808
     atom  119 type  3   force =    -0.00424058    0.00004520   -0.00170299
     atom  120 type  3   force =     0.00422692    0.00004577    0.00170808
     atom  121 type  3   force =     0.00319272   -0.00084372   -0.00003662
     atom  122 type  3   force =    -0.00319534   -0.00084750    0.00005192
     atom  123 type  3   force =    -0.00319272    0.00084372    0.00003662
     atom  124 type  3   force =     0.00319534    0.00084750   -0.00005192
     atom  125 type  3   force =     0.00014123   -0.00036430   -0.00053748
     atom  126 type  3   force =    -0.00013940   -0.00036111    0.00054779
     atom  127 type  3   force =    -0.00014123    0.00036430    0.00053748
     atom  128 type  3   force =     0.00013940    0.00036111   -0.00054779
     atom  129 type  3   force =    -0.00025112    0.00066314    0.00005770
     atom  130 type  3   force =     0.00025254    0.00066438   -0.00003633
     atom  131 type  3   force =     0.00025112   -0.00066314   -0.00005770
     atom  132 type  3   force =    -0.00025254   -0.00066438    0.00003633
     atom  133 type  3   force =     0.00251708   -0.00029201    0.00021218
     atom  134 type  3   force =    -0.00251719   -0.00027989   -0.00020153
     atom  135 type  3   force =    -0.00251708    0.00029201   -0.00021218
     atom  136 type  3   force =     0.00251719    0.00027989    0.00020153
     atom  137 type  3   force =     0.00030983   -0.00021818    0.00031621
     atom  138 type  3   force =    -0.00030786   -0.00020743   -0.00032311
     atom  139 type  3   force =    -0.00030983    0.00021818   -0.00031621
     atom  140 type  3   force =     0.00030786    0.00020743    0.00032311
     atom  141 type  3   force =     0.00309532    0.00083951    0.00148907
     atom  142 type  3   force =    -0.00309328    0.00084033   -0.00149592
     atom  143 type  3   force =    -0.00309532   -0.00083951   -0.00148907
     atom  144 type  3   force =     0.00309328   -0.00084033    0.00149592
     atom  145 type  3   force =     0.00041922    0.00016056    0.00023598
     atom  146 type  3   force =    -0.00041495    0.00016972   -0.00022702
     atom  147 type  3   force =    -0.00041922   -0.00016056   -0.00023598
     atom  148 type  3   force =     0.00041495   -0.00016972    0.00022702
     atom  149 type  3   force =    -0.00029730   -0.00009847    0.00005731
     atom  150 type  3   force =     0.00028934   -0.00010030   -0.00004774
     atom  151 type  3   force =     0.00029730    0.00009847   -0.00005731
     atom  152 type  3   force =    -0.00028934    0.00010030    0.00004774

     Total force =     0.062536     Total SCF correction =     0.000152


     Computing stress (Cartesian axis) and pressure

          total   stress  (Ry/bohr**3)                   (kbar)     P=   -4.05
  -0.00002153   0.00000006  -0.00000472         -3.17      0.01     -0.69
   0.00000006  -0.00003500  -0.00000015          0.01     -5.15     -0.02
  -0.00000472  -0.00000015  -0.00002613         -0.69     -0.02     -3.84


     Writing output data file scf.save
 
     init_run     :    128.81s CPU    132.12s WALL (       1 calls)
     electrons    :   6044.42s CPU   6226.79s WALL (       1 calls)
     forces       :     64.64s CPU     65.05s WALL (       1 calls)
     stress       :    320.25s CPU    321.11s WALL (       1 calls)

     Called by init_run:
     wfcinit      :    113.37s CPU    116.45s WALL (       1 calls)
     potinit      :      5.37s CPU      5.41s WALL (       1 calls)

     Called by electrons:
     c_bands      :   5536.48s CPU   5692.18s WALL (      20 calls)
     sum_band     :    479.89s CPU    503.62s WALL (      20 calls)
     v_of_rho     :      3.54s CPU      3.89s WALL (      21 calls)
     newd         :     11.10s CPU     13.75s WALL (      21 calls)
     PAW_pot      :     12.36s CPU     12.36s WALL (      21 calls)
     mix_rho      :      1.00s CPU      1.04s WALL (      20 calls)

     Called by c_bands:
     init_us_2    :     20.08s CPU     20.19s WALL (     344 calls)
     cegterg      :   5452.94s CPU   5608.43s WALL (     160 calls)

     Called by sum_band:
     sum_band:bec :      0.30s CPU      0.30s WALL (     160 calls)
     addusdens    :     11.12s CPU     13.68s WALL (      20 calls)

     Called by *egterg:
     h_psi        :   2608.85s CPU   2730.81s WALL (     713 calls)
     s_psi        :    734.97s CPU    735.14s WALL (     713 calls)
     g_psi        :     10.61s CPU     10.61s WALL (     545 calls)
     cdiaghg      :    317.76s CPU    317.96s WALL (     705 calls)

     Called by h_psi:
     h_psi:pot    :   2593.60s CPU   2715.25s WALL (     713 calls)
     h_psi:calbec :    719.72s CPU    720.75s WALL (     713 calls)
     vloc_psi     :   1138.49s CPU   1258.82s WALL (     713 calls)
     add_vuspsi   :    735.38s CPU    735.67s WALL (     713 calls)

     General routines
     calbec       :   1025.22s CPU   1026.63s WALL (     913 calls)
     fft          :      2.14s CPU      2.71s WALL (     297 calls)
     fftw         :   1187.99s CPU   1328.61s WALL (  311206 calls)
 
     Parallel routines
     fft_scatter  :    227.57s CPU    365.35s WALL (  311503 calls)
 
     PWSCF        :     1h49m CPU        1h54m WALL

 
   This run was terminated on:   8:56: 3  20Dec2017            

=------------------------------------------------------------------------------=
   JOB DONE.
=------------------------------------------------------------------------------=
