
     Program PWSCF v.6.1 (svn rev. 13369) starts on 20Dec2017 at 12:43:47 

     This program is part of the open-source Quantum ESPRESSO suite
     for quantum simulation of materials; please cite
         "P. Giannozzi et al., J. Phys.:Condens. Matter 21 395502 (2009);
          URL http://www.quantum-espresso.org", 
     in publications or presentations arising from this work. More details at
     http://www.quantum-espresso.org/quote

     Parallel version (MPI), running on     8 processors
     R & G space division:  proc/nbgrp/npool/nimage =       8
     Waiting for input...
     Reading input from standard input

     Current dimensions of program PWSCF are:
     Max number of different atomic species (ntypx) = 10
     Max number of k-points (npk) =  40000
     Max angular momentum in pseudopotentials (lmaxx) =  3
               file C.pbe-n-kjpaw_psl.0.1.UPF: wavefunction(s)  2P renormalized
               file N.pbe-n-kjpaw_psl.0.1.UPF: wavefunction(s)  2P renormalized
               file H.pbe-kjpaw_psl.0.1.UPF: wavefunction(s)  1S renormalized
               file O.pbe-n-kjpaw_psl.0.1.UPF: wavefunction(s)  2P renormalized

     -------------------------------------
     Parameters for Dispersion Correction:
     -------------------------------------
       atom      VdW radius       C_6     

        C          2.744         60.710
        N          2.640         42.670
        H          1.892          4.857
        O          2.536         24.284

     Subspace diagonalization in iterative solution of the eigenvalue problem:
     a serial algorithm will be used

 
     Parallelization info
     --------------------
     sticks:   dense  smooth     PW     G-vecs:    dense   smooth      PW
     Min        1502    1502    398               132298   132298   17945
     Max        1503    1503    399               132301   132301   17946
     Sum       12023   12023   3187              1058395  1058395  143565
 


     bravais-lattice index     =            0
     lattice parameter (alat)  =      20.9899  a.u.
     unit-cell volume          =    7835.7424 (a.u.)^3
     number of atoms/cell      =          108
     number of atomic types    =            4
     number of electrons       =       496.00
     number of Kohn-Sham states=          297
     kinetic-energy cutoff     =     100.0000  Ry
     charge density cutoff     =     400.0000  Ry
     convergence threshold     =      1.0E-08
     mixing beta               =       0.5000
     number of iterations used =            8  plain     mixing
     Exchange-correlation      =  SLA  PW   PBX  PBC ( 1  4  3  4 0 0)

     celldm(1)=  20.989944  celldm(2)=   0.000000  celldm(3)=   0.000000
     celldm(4)=   0.000000  celldm(5)=   0.000000  celldm(6)=   0.000000

     crystal axes: (cart. coord. in units of alat)
               a(1) = (   1.000000   0.000000   0.000000 )  
               a(2) = (   0.000000   0.857383   0.000000 )  
               a(3) = (   0.000000   0.000000   0.988260 )  

     reciprocal axes: (cart. coord. in units 2 pi/alat)
               b(1) = (  1.000000  0.000000  0.000000 )  
               b(2) = (  0.000000  1.166339  0.000000 )  
               b(3) = (  0.000000  0.000000  1.011879 )  


     PseudoPot. # 1 for  C read from file:
     /scratch/ahofstet/pseudo/C.pbe-n-kjpaw_psl.0.1.UPF
     MD5 check sum: 430fe95172b1e11ef3f8ed03bac87931
     Pseudo is Projector augmented-wave + core cor, Zval =  4.0
     Generated using "atomic" code by A. Dal Corso  v.5.0.99 svn rev. 10869
     Shape of augmentation charge: BESSEL
     Using radial grid of 1073 points,  4 beta functions with: 
                l(1) =   0
                l(2) =   0
                l(3) =   1
                l(4) =   1
     Q(r) pseudized with 0 coefficients 


     PseudoPot. # 2 for  N read from file:
     /scratch/ahofstet/pseudo/N.pbe-n-kjpaw_psl.0.1.UPF
     MD5 check sum: f73187c8b701007e77325f868c9291d7
     Pseudo is Projector augmented-wave + core cor, Zval =  5.0
     Generated using "atomic" code by A. Dal Corso  v.5.0.99 svn rev. 10869
     Shape of augmentation charge: PSQ
     Using radial grid of 1085 points,  4 beta functions with: 
                l(1) =   0
                l(2) =   0
                l(3) =   1
                l(4) =   1
     Q(r) pseudized with 0 coefficients 


     PseudoPot. # 3 for  H read from file:
     /scratch/ahofstet/pseudo/H.pbe-kjpaw_psl.0.1.UPF
     MD5 check sum: 94e484f906d9e9773b2f6e52662335b2
     Pseudo is Projector augmented-wave, Zval =  1.0
     Generated using "atomic" code by A. Dal Corso  v.5.0.99 svn rev. 10869
     Shape of augmentation charge: PSQ
     Using radial grid of  929 points,  2 beta functions with: 
                l(1) =   0
                l(2) =   0
     Q(r) pseudized with 0 coefficients 


     PseudoPot. # 4 for  O read from file:
     /scratch/ahofstet/pseudo/O.pbe-n-kjpaw_psl.0.1.UPF
     MD5 check sum: 3f94a2996a3169367d6eb21d9b593f20
     Pseudo is Projector augmented-wave + core cor, Zval =  6.0
     Generated using "atomic" code by A. Dal Corso  v.5.0.99 svn rev. 10869
     Shape of augmentation charge: BESSEL
     Using radial grid of 1095 points,  4 beta functions with: 
                l(1) =   0
                l(2) =   0
                l(3) =   1
                l(4) =   1
     Q(r) pseudized with 0 coefficients 


     atomic species   valence    mass     pseudopotential
        C              4.00    12.01070      C( 1.00)
        N              5.00    14.00670      N( 1.00)
        H              1.00     1.00794      H( 1.00)
        O              6.00    15.99940      O( 1.00)

     No symmetry found
          (note:  3 additional sym.ops. were found but ignored
           their fractional translations are incommensurate with FFT grid)


   Cartesian axes

     site n.     atom                  positions (alat units)
         1           N   tau(   1) = (   0.2028620   0.0816381   0.8307873  )
         2           N   tau(   2) = (   0.7971380   0.7757452   0.3366573  )
         3           N   tau(   3) = (   0.2971380   0.5103298   0.3366573  )
         4           N   tau(   4) = (   0.7028620   0.3470535   0.8307873  )
         5           C   tau(   5) = (   0.1353571   0.1656585   0.7665397  )
         6           C   tau(   6) = (   0.8646429   0.6917249   0.2724097  )
         7           C   tau(   7) = (   0.3646429   0.5943502   0.2724097  )
         8           C   tau(   8) = (   0.6353571   0.2630332   0.7665397  )
         9           N   tau(   9) = (   0.0219920   0.1663260   0.7996904  )
        10           N   tau(  10) = (   0.9780080   0.6910573   0.3055603  )
        11           N   tau(  11) = (   0.4780080   0.5950177   0.3055603  )
        12           N   tau(  12) = (   0.5219920   0.2623657   0.7996904  )
        13           C   tau(  13) = (   0.0155050   0.0805309   0.8858809  )
        14           C   tau(  14) = (   0.9844950   0.7768524   0.3917508  )
        15           C   tau(  15) = (   0.4844950   0.5092226   0.3917508  )
        16           C   tau(  16) = (   0.5155050   0.3481608   0.8858809  )
        17           C   tau(  17) = (   0.1260260   0.0269790   0.9088138  )
        18           C   tau(  18) = (   0.8739740   0.8304043   0.4146837  )
        19           C   tau(  19) = (   0.3739740   0.4556707   0.4146837  )
        20           C   tau(  20) = (   0.6260260   0.4017126   0.9088138  )
        21           H   tau(  21) = (   0.1552448   0.8159465   0.9721872  )
        22           H   tau(  22) = (   0.8447552   0.0414369   0.4780572  )
        23           H   tau(  23) = (   0.3447552   0.3872548   0.4780572  )
        24           H   tau(  24) = (   0.6552448   0.4701286   0.9721872  )
        25           N   tau(  25) = (   0.3264259   0.0593676   0.8299054  )
        26           N   tau(  26) = (   0.6735741   0.7980158   0.3357753  )
        27           N   tau(  27) = (   0.1735741   0.4880592   0.3357753  )
        28           N   tau(  28) = (   0.8264259   0.3693241   0.8299054  )
        29           H   tau(  29) = (   0.3699849   0.1407729   0.8358601  )
        30           H   tau(  30) = (   0.6300151   0.7166105   0.3417301  )
        31           H   tau(  31) = (   0.1300151   0.5694646   0.3417301  )
        32           H   tau(  32) = (   0.8699849   0.2879188   0.8358601  )
        33           C   tau(  33) = (   0.3693192   0.8516116   0.7241742  )
        34           C   tau(  34) = (   0.6306808   0.0057718   0.2300442  )
        35           C   tau(  35) = (   0.1306808   0.4229199   0.2300442  )
        36           C   tau(  36) = (   0.8693192   0.4344634   0.7241742  )
        37           H   tau(  37) = (   0.4332692   0.0506455   0.6744082  )
        38           H   tau(  38) = (   0.5667308   0.8067378   0.1802782  )
        39           H   tau(  39) = (   0.0667308   0.4793372   0.1802782  )
        40           H   tau(  40) = (   0.9332692   0.3780462   0.6744082  )
        41           H   tau(  41) = (   0.2964981   0.8269803   0.6618574  )
        42           H   tau(  42) = (   0.7035019   0.0304031   0.1677273  )
        43           H   tau(  43) = (   0.2035019   0.3982886   0.1677273  )
        44           H   tau(  44) = (   0.7964981   0.4590948   0.6618574  )
        45           C   tau(  45) = (   0.4366775   0.7364454   0.7594396  )
        46           C   tau(  46) = (   0.5633225   0.1209380   0.2653096  )
        47           C   tau(  47) = (   0.0633225   0.3077537   0.2653096  )
        48           C   tau(  48) = (   0.9366775   0.5496297   0.7594396  )
        49           N   tau(  49) = (   0.5229508   0.7520180   0.8679576  )
        50           N   tau(  50) = (   0.4770492   0.1053653   0.3738276  )
        51           N   tau(  51) = (   0.9770492   0.3233263   0.3738276  )
        52           N   tau(  52) = (   0.0229508   0.5340570   0.8679576  )
        53           O   tau(  53) = (   0.5289487   0.6684203   0.9388854  )
        54           O   tau(  54) = (   0.4710513   0.1889631   0.4447553  )
        55           O   tau(  55) = (   0.9710513   0.2397286   0.4447553  )
        56           O   tau(  56) = (   0.0289487   0.6176548   0.9388854  )
        57           O   tau(  57) = (   0.5796315   0.8458918   0.8688318  )
        58           O   tau(  58) = (   0.4203685   0.0114916   0.3747018  )
        59           O   tau(  59) = (   0.9203685   0.4172001   0.3747018  )
        60           O   tau(  60) = (   0.0796315   0.4401832   0.8688318  )
        61           N   tau(  61) = (   0.5155567   0.6940812   0.6543052  )
        62           N   tau(  62) = (   0.4844433   0.1633022   0.1601752  )
        63           N   tau(  63) = (   0.9844433   0.2653895   0.1601752  )
        64           N   tau(  64) = (   0.0155567   0.5919939   0.6543052  )
        65           O   tau(  65) = (   0.6142515   0.6511961   0.6773318  )
        66           O   tau(  66) = (   0.3857485   0.2061873   0.1832018  )
        67           O   tau(  67) = (   0.8857485   0.2225044   0.1832018  )
        68           O   tau(  68) = (   0.1142515   0.6348790   0.6773318  )
        69           O   tau(  69) = (   0.4691497   0.7060480   0.5552594  )
        70           O   tau(  70) = (   0.5308503   0.1513354   0.0611293  )
        71           O   tau(  71) = (   0.0308503   0.2773563   0.0611293  )
        72           O   tau(  72) = (   0.9691497   0.5800270   0.5552594  )
        73           N   tau(  73) = (   0.3531897   0.6304395   0.7912118  )
        74           N   tau(  74) = (   0.6468103   0.2269439   0.2970818  )
        75           N   tau(  75) = (   0.1468103   0.2017478   0.2970818  )
        76           N   tau(  76) = (   0.8531897   0.6556356   0.7912118  )
        77           O   tau(  77) = (   0.3689133   0.5347128   0.7385649  )
        78           O   tau(  78) = (   0.6310867   0.3226706   0.2444349  )
        79           O   tau(  79) = (   0.1310867   0.1060211   0.2444349  )
        80           O   tau(  80) = (   0.8689133   0.7513623   0.7385649  )
        81           O   tau(  81) = (   0.2784656   0.6530382   0.8684146  )
        82           O   tau(  82) = (   0.7215344   0.2043452   0.3742845  )
        83           O   tau(  83) = (   0.2215344   0.2243465   0.3742845  )
        84           O   tau(  84) = (   0.7784656   0.6330369   0.8684146  )
        85           N   tau(  85) = (   0.1851018   0.2451925   0.6758605  )
        86           N   tau(  86) = (   0.8148982   0.6121908   0.1817305  )
        87           N   tau(  87) = (   0.3148982   0.6738842   0.1817305  )
        88           N   tau(  88) = (   0.6851018   0.1834992   0.6758605  )
        89           O   tau(  89) = (   0.1186367   0.3237437   0.6344723  )
        90           O   tau(  90) = (   0.8813633   0.5336397   0.1403422  )
        91           O   tau(  91) = (   0.3813633   0.7524354   0.1403422  )
        92           O   tau(  92) = (   0.6186367   0.1049480   0.6344723  )
        93           O   tau(  93) = (   0.2910014   0.2291953   0.6459522  )
        94           O   tau(  94) = (   0.7089986   0.6281881   0.1518221  )
        95           O   tau(  95) = (   0.2089986   0.6578869   0.1518221  )
        96           O   tau(  96) = (   0.7910014   0.1994964   0.6459522  )
        97           N   tau(  97) = (   0.9050321   0.0584547   0.9505534  )
        98           N   tau(  98) = (   0.0949679   0.7989286   0.4564234  )
        99           N   tau(  99) = (   0.5949679   0.4871464   0.4564234  )
       100           N   tau( 100) = (   0.4050321   0.3702369   0.9505534  )
       101           O   tau( 101) = (   0.8151823   0.1178780   0.9232665  )
       102           O   tau( 102) = (   0.1848177   0.7395054   0.4291364  )
       103           O   tau( 103) = (   0.6848177   0.5465697   0.4291364  )
       104           O   tau( 104) = (   0.3151823   0.3108137   0.9232665  )
       105           O   tau( 105) = (   0.9086893   0.8397365   0.0437295  )
       106           O   tau( 106) = (   0.0913107   0.0176468   0.5378595  )
       107           O   tau( 107) = (   0.5913107   0.4110449   0.5378595  )
       108           O   tau( 108) = (   0.4086893   0.4463385   0.0437295  )

     number of k points=     8
                       cart. coord. in units 2pi/alat
        k(    1) = (   0.0000000   0.0000000   0.0000000), wk =   0.2500000
        k(    2) = (   0.0000000   0.0000000  -0.5059397), wk =   0.2500000
        k(    3) = (   0.0000000  -0.5831697   0.0000000), wk =   0.2500000
        k(    4) = (   0.0000000  -0.5831697  -0.5059397), wk =   0.2500000
        k(    5) = (  -0.5000000   0.0000000   0.0000000), wk =   0.2500000
        k(    6) = (  -0.5000000   0.0000000  -0.5059397), wk =   0.2500000
        k(    7) = (  -0.5000000  -0.5831697   0.0000000), wk =   0.2500000
        k(    8) = (  -0.5000000  -0.5831697  -0.5059397), wk =   0.2500000

     Dense  grid:  1058395 G-vectors     FFT dimensions: ( 135, 120, 135)

     Estimated max dynamical RAM per process >    1592.61MB

     Estimated total allocated dynamical RAM >   12740.85MB

     Check: negative/imaginary core charge=   -0.000003    0.000000

     Initial potential from superposition of free atoms

     starting charge  495.99872, renormalised to  496.00000
     Starting wfc are  384 randomized atomic wfcs
     Checking if some PAW data can be deallocated... 

     total cpu time spent up to now is      101.4 secs

     per-process dynamical memory:  1004.0 Mb

     Self-consistent Calculation

     iteration #  1     ecut=   100.00 Ry     beta=0.50
     Davidson diagonalization with overlap
     ethr =  1.00E-02,  avg # of iterations =  4.2

     total cpu time spent up to now is      457.2 secs

     total energy              =   -2948.91626587 Ry
     Harris-Foulkes estimate   =   -2955.92311099 Ry
     estimated scf accuracy    <      12.07648968 Ry

     iteration #  2     ecut=   100.00 Ry     beta=0.50
     Davidson diagonalization with overlap
     ethr =  2.43E-03,  avg # of iterations =  5.0

     total cpu time spent up to now is      759.4 secs

     total energy              =   -2951.30878886 Ry
     Harris-Foulkes estimate   =   -2954.07573889 Ry
     estimated scf accuracy    <       6.34801727 Ry

     iteration #  3     ecut=   100.00 Ry     beta=0.50
     Davidson diagonalization with overlap
     ethr =  1.28E-03,  avg # of iterations =  2.4

     total cpu time spent up to now is      958.4 secs

     total energy              =   -2952.37692495 Ry
     Harris-Foulkes estimate   =   -2952.53527187 Ry
     estimated scf accuracy    <       0.40481215 Ry

     iteration #  4     ecut=   100.00 Ry     beta=0.50
     Davidson diagonalization with overlap
     ethr =  8.16E-05,  avg # of iterations =  6.5

     total cpu time spent up to now is     1399.3 secs

     total energy              =   -2952.53163719 Ry
     Harris-Foulkes estimate   =   -2952.68330261 Ry
     estimated scf accuracy    <       0.44463627 Ry

     iteration #  5     ecut=   100.00 Ry     beta=0.50
     Davidson diagonalization with overlap
     ethr =  8.16E-05,  avg # of iterations =  2.0

     total cpu time spent up to now is     1592.9 secs

     total energy              =   -2952.57884911 Ry
     Harris-Foulkes estimate   =   -2952.60379325 Ry
     estimated scf accuracy    <       0.06981775 Ry

     iteration #  6     ecut=   100.00 Ry     beta=0.50
     Davidson diagonalization with overlap
     ethr =  1.41E-05,  avg # of iterations =  5.6

     total cpu time spent up to now is     1874.1 secs

     total energy              =   -2952.59471148 Ry
     Harris-Foulkes estimate   =   -2952.59851655 Ry
     estimated scf accuracy    <       0.01083181 Ry

     iteration #  7     ecut=   100.00 Ry     beta=0.50
     Davidson diagonalization with overlap
     ethr =  2.18E-06,  avg # of iterations =  8.6

     total cpu time spent up to now is     2155.5 secs

     total energy              =   -2952.59650617 Ry
     Harris-Foulkes estimate   =   -2952.59748055 Ry
     estimated scf accuracy    <       0.00275416 Ry

     iteration #  8     ecut=   100.00 Ry     beta=0.50
     Davidson diagonalization with overlap
     ethr =  5.55E-07,  avg # of iterations =  2.2

     total cpu time spent up to now is     2370.1 secs

     total energy              =   -2952.59688981 Ry
     Harris-Foulkes estimate   =   -2952.59734311 Ry
     estimated scf accuracy    <       0.00142709 Ry

     iteration #  9     ecut=   100.00 Ry     beta=0.50
     Davidson diagonalization with overlap
     ethr =  2.88E-07,  avg # of iterations =  2.0

     total cpu time spent up to now is     2559.2 secs

     total energy              =   -2952.59709926 Ry
     Harris-Foulkes estimate   =   -2952.59712314 Ry
     estimated scf accuracy    <       0.00007000 Ry

     iteration # 10     ecut=   100.00 Ry     beta=0.50
     Davidson diagonalization with overlap
     ethr =  1.41E-08,  avg # of iterations =  4.0

     total cpu time spent up to now is     2924.2 secs

     total energy              =   -2952.59713985 Ry
     Harris-Foulkes estimate   =   -2952.59715685 Ry
     estimated scf accuracy    <       0.00006015 Ry

     iteration # 11     ecut=   100.00 Ry     beta=0.50
     Davidson diagonalization with overlap
     ethr =  1.21E-08,  avg # of iterations =  2.0

     total cpu time spent up to now is     3113.4 secs

     total energy              =   -2952.59714401 Ry
     Harris-Foulkes estimate   =   -2952.59714918 Ry
     estimated scf accuracy    <       0.00001848 Ry

     iteration # 12     ecut=   100.00 Ry     beta=0.50
     Davidson diagonalization with overlap
     ethr =  3.73E-09,  avg # of iterations =  3.0

     total cpu time spent up to now is     3311.5 secs

     total energy              =   -2952.59714542 Ry
     Harris-Foulkes estimate   =   -2952.59714670 Ry
     estimated scf accuracy    <       0.00000329 Ry

     iteration # 13     ecut=   100.00 Ry     beta=0.50
     Davidson diagonalization with overlap
     ethr =  6.64E-10,  avg # of iterations =  3.0

     total cpu time spent up to now is     3627.0 secs

     total energy              =   -2952.59714658 Ry
     Harris-Foulkes estimate   =   -2952.59714702 Ry
     estimated scf accuracy    <       0.00000152 Ry

     iteration # 14     ecut=   100.00 Ry     beta=0.50
     Davidson diagonalization with overlap
     ethr =  3.06E-10,  avg # of iterations =  2.0

     total cpu time spent up to now is     3816.8 secs

     total energy              =   -2952.59714671 Ry
     Harris-Foulkes estimate   =   -2952.59714684 Ry
     estimated scf accuracy    <       0.00000042 Ry

     iteration # 15     ecut=   100.00 Ry     beta=0.50
     Davidson diagonalization with overlap
     ethr =  8.52E-11,  avg # of iterations =  3.0

     total cpu time spent up to now is     4017.0 secs

     total energy              =   -2952.59714676 Ry
     Harris-Foulkes estimate   =   -2952.59714677 Ry
     estimated scf accuracy    <       0.00000003 Ry

     iteration # 16     ecut=   100.00 Ry     beta=0.50
     Davidson diagonalization with overlap
     ethr =  7.02E-12,  avg # of iterations =  4.0

     total cpu time spent up to now is     4380.0 secs

     total energy              =   -2952.59714678 Ry
     Harris-Foulkes estimate   =   -2952.59714679 Ry
     estimated scf accuracy    <       0.00000002 Ry

     iteration # 17     ecut=   100.00 Ry     beta=0.50
     Davidson diagonalization with overlap
     ethr =  4.96E-12,  avg # of iterations =  2.0

     total cpu time spent up to now is     4567.4 secs

     End of self-consistent calculation

          k = 0.0000 0.0000 0.0000 (132161 PWs)   bands (ev):

   -24.4649 -24.4565 -24.4336 -24.4254 -23.9896 -23.9848 -23.9714 -23.9640
   -23.8513 -23.8455 -23.8335 -23.8305 -23.4404 -23.4391 -23.4365 -23.4362
   -23.2780 -23.2769 -23.2767 -23.2761 -19.8764 -19.8729 -19.8715 -19.8708
   -19.7901 -19.7876 -19.7864 -19.7850 -19.7091 -19.7065 -19.7055 -19.6972
   -19.6554 -19.6548 -19.6512 -19.6507 -18.9656 -18.9634 -18.9544 -18.9536
   -18.8269 -18.8251 -18.8237 -18.8221 -17.1718 -17.1667 -17.1260 -17.1224
   -15.0794 -15.0656 -15.0561 -15.0452 -13.8692 -13.8517 -13.7671 -13.7665
   -13.3245 -13.2852 -13.2803 -13.2746 -11.6244 -11.6096 -11.6005 -11.5825
   -10.5493 -10.5377 -10.5308 -10.5230 -10.4086 -10.4029 -10.4012 -10.3768
   -10.2686 -10.2290 -10.2223 -10.1772  -9.3620  -9.2912  -9.2885  -9.2603
    -8.0224  -7.9980  -7.9749  -7.9150  -7.3567  -7.3441  -7.3017  -7.2795
    -7.2450  -7.2161  -7.1769  -7.1496  -7.1290  -7.1079  -7.1053  -7.0726
    -6.9776  -6.9470  -6.9160  -6.8814  -6.5834  -6.5715  -6.5663  -6.5484
    -6.4439  -6.4111  -6.2805  -6.2434  -6.1648  -6.0901  -6.0179  -5.9854
    -5.9232  -5.9164  -5.8980  -5.8908  -5.8437  -5.8367  -5.8105  -5.7538
    -5.7418  -5.7151  -5.7051  -5.7020  -5.6725  -5.6392  -5.6283  -5.6279
    -5.5688  -5.5681  -5.5404  -5.5287  -5.5044  -5.4510  -5.4079  -5.3997
    -5.3784  -5.3580  -5.3547  -5.3159  -5.2679  -5.2454  -5.2357  -5.1818
    -5.0942  -5.0420  -5.0221  -4.9372  -4.9040  -4.9026  -4.9024  -4.8336
    -4.7043  -4.6526  -4.6460  -4.6360  -4.1511  -4.1019  -4.0625  -4.0446
    -3.8732  -3.8521  -3.8405  -3.7777  -3.3557  -3.2854  -3.2775  -3.2422
    -2.5529  -2.5336  -2.5317  -2.5067  -1.2481  -1.1572  -1.1465  -1.1050
    -1.0655  -1.0308  -0.9558  -0.8972  -0.8672  -0.8301  -0.7987  -0.7956
    -0.7493  -0.7366  -0.6773  -0.5830  -0.5731  -0.5560  -0.4954  -0.4720
    -0.4469  -0.4159  -0.4085  -0.3975  -0.3163  -0.2786  -0.2544  -0.2484
    -0.2072  -0.1928  -0.1737  -0.1589  -0.1567  -0.1442  -0.0911  -0.0767
    -0.0608  -0.0386  -0.0190  -0.0171  -0.0130   0.0116   0.0272   0.1388
     0.1565   0.1721   0.1835   0.1923   0.2146   0.2391   0.2492   0.2718
     0.2993   0.3031   0.3410   0.4017   0.4079   0.4132   0.4314   0.4358
     0.6230   0.6304   0.7131   0.7659   0.7706   0.7762   0.7899   0.8032
     0.9100   0.9401   0.9790   0.9805   1.2027   1.2641   1.3545   1.3876
     3.6477   3.7506   3.7603   3.8013   3.8433   3.8700   3.8727   3.8938
     3.9632   3.9991   4.0167   4.0387   4.1794   4.2071   4.2225   4.2373
     4.4169   4.4454   4.4651   4.5199   6.9896   6.9943   7.0089   7.0772
     7.7917   7.8136   7.8782   7.9035   7.9244   7.9485   8.0518   8.0836
     8.3505   8.3913   8.4273   8.4348   8.4760   8.7394   9.0389   9.1091
     9.1995   9.2364   9.2483   9.4273   9.5201   9.5860   9.6026   9.6430
     9.6612

          k = 0.0000 0.0000-0.5059 (132394 PWs)   bands (ev):

   -24.4607 -24.4607 -24.4295 -24.4295 -23.9872 -23.9872 -23.9677 -23.9677
   -23.8484 -23.8484 -23.8320 -23.8320 -23.4396 -23.4396 -23.4364 -23.4363
   -23.2774 -23.2774 -23.2765 -23.2764 -19.8735 -19.8735 -19.8722 -19.8722
   -19.7882 -19.7882 -19.7866 -19.7866 -19.7075 -19.7075 -19.7017 -19.7017
   -19.6533 -19.6533 -19.6525 -19.6524 -18.9645 -18.9645 -18.9540 -18.9540
   -18.8260 -18.8260 -18.8229 -18.8229 -17.1692 -17.1692 -17.1242 -17.1242
   -15.0724 -15.0724 -15.0506 -15.0506 -13.8604 -13.8604 -13.7669 -13.7669
   -13.3030 -13.3030 -13.2798 -13.2798 -11.6126 -11.6126 -11.5949 -11.5949
   -10.5398 -10.5398 -10.5316 -10.5316 -10.4053 -10.4052 -10.3905 -10.3905
   -10.2474 -10.2474 -10.1993 -10.1993  -9.3273  -9.3273  -9.2748  -9.2748
    -8.0103  -8.0103  -7.9481  -7.9481  -7.3342  -7.3342  -7.3084  -7.3084
    -7.2180  -7.2180  -7.1835  -7.1835  -7.1103  -7.1103  -7.0903  -7.0903
    -6.9369  -6.9369  -6.9094  -6.9094  -6.5843  -6.5842  -6.5668  -6.5668
    -6.4245  -6.4245  -6.2716  -6.2716  -6.1189  -6.1189  -5.9527  -5.9527
    -5.9442  -5.9442  -5.8768  -5.8768  -5.8701  -5.8701  -5.7868  -5.7868
    -5.7063  -5.7063  -5.7043  -5.7043  -5.6661  -5.6661  -5.6487  -5.6487
    -5.5750  -5.5750  -5.5485  -5.5485  -5.4548  -5.4548  -5.4219  -5.4219
    -5.3642  -5.3642  -5.3211  -5.3211  -5.2522  -5.2522  -5.2280  -5.2280
    -5.0366  -5.0366  -4.9856  -4.9856  -4.9065  -4.9065  -4.8710  -4.8710
    -4.6711  -4.6711  -4.6481  -4.6481  -4.1260  -4.1260  -4.0526  -4.0526
    -3.8628  -3.8628  -3.8097  -3.8097  -3.3191  -3.3191  -3.2575  -3.2575
    -2.5437  -2.5436  -2.5204  -2.5204  -1.2242  -1.2242  -1.1139  -1.1139
    -1.0488  -1.0488  -0.9740  -0.9740  -0.8107  -0.8107  -0.8008  -0.8008
    -0.7241  -0.7241  -0.6388  -0.6388  -0.5599  -0.5599  -0.4732  -0.4732
    -0.4145  -0.4145  -0.4145  -0.4145  -0.2972  -0.2972  -0.2656  -0.2656
    -0.2069  -0.2069  -0.1600  -0.1599  -0.1387  -0.1387  -0.0689  -0.0689
    -0.0584  -0.0584  -0.0097  -0.0097   0.0265   0.0265   0.0700   0.0700
     0.1473   0.1473   0.1531   0.1531   0.2112   0.2112   0.2211   0.2212
     0.3671   0.3671   0.3741   0.3741   0.4051   0.4052   0.4349   0.4349
     0.6288   0.6288   0.7490   0.7490   0.7790   0.7790   0.7878   0.7878
     0.9283   0.9283   0.9790   0.9790   1.2308   1.2308   1.3726   1.3726
     3.7011   3.7011   3.7781   3.7781   3.8440   3.8440   3.8750   3.8750
     4.0044   4.0044   4.0117   4.0117   4.1930   4.1930   4.2220   4.2220
     4.4489   4.4489   4.4933   4.4933   7.0044   7.0044   7.0299   7.0299
     7.8118   7.8118   7.8791   7.8791   7.9485   7.9485   8.0756   8.0756
     8.3871   8.3872   8.4096   8.4096   8.7166   8.7166   8.9119   8.9119
     9.1730   9.1730   9.3556   9.3556   9.5280   9.5280   9.5514   9.5514
     9.8339

          k = 0.0000-0.5832 0.0000 (132346 PWs)   bands (ev):

   -24.4610 -24.4610 -24.4292 -24.4292 -23.9873 -23.9873 -23.9677 -23.9677
   -23.8487 -23.8487 -23.8316 -23.8316 -23.4399 -23.4399 -23.4362 -23.4362
   -23.2774 -23.2774 -23.2764 -23.2764 -19.8763 -19.8763 -19.8696 -19.8696
   -19.7890 -19.7890 -19.7856 -19.7856 -19.7076 -19.7076 -19.6991 -19.6991
   -19.6554 -19.6554 -19.6529 -19.6529 -18.9647 -18.9646 -18.9539 -18.9539
   -18.8257 -18.8256 -18.8233 -18.8233 -17.1695 -17.1695 -17.1239 -17.1239
   -15.0632 -15.0632 -15.0604 -15.0603 -13.8555 -13.8555 -13.7721 -13.7721
   -13.3074 -13.3074 -13.2746 -13.2746 -11.6193 -11.6193 -11.5889 -11.5888
   -10.5604 -10.5604 -10.5148 -10.5148 -10.4014 -10.4014 -10.3890 -10.3890
   -10.2544 -10.2544 -10.1945 -10.1944  -9.3208  -9.3208  -9.2791  -9.2791
    -8.0691  -8.0691  -7.8964  -7.8964  -7.3023  -7.3023  -7.2543  -7.2543
    -7.2035  -7.2035  -7.2002  -7.2002  -7.1614  -7.1614  -7.1178  -7.1178
    -6.9535  -6.9535  -6.8426  -6.8426  -6.6434  -6.6434  -6.6026  -6.6026
    -6.3703  -6.3703  -6.2708  -6.2708  -6.1125  -6.1125  -5.9870  -5.9870
    -5.8972  -5.8972  -5.8761  -5.8761  -5.8610  -5.8610  -5.7794  -5.7794
    -5.7708  -5.7708  -5.7082  -5.7082  -5.6818  -5.6818  -5.6308  -5.6308
    -5.5880  -5.5880  -5.5424  -5.5424  -5.4842  -5.4841  -5.4021  -5.4021
    -5.3600  -5.3600  -5.3377  -5.3377  -5.2004  -5.2004  -5.1970  -5.1970
    -5.0761  -5.0761  -4.9457  -4.9457  -4.9277  -4.9277  -4.8649  -4.8649
    -4.6959  -4.6959  -4.6564  -4.6564  -4.1089  -4.1089  -4.0610  -4.0610
    -3.8616  -3.8616  -3.8062  -3.8062  -3.3328  -3.3328  -3.2492  -3.2492
    -2.5698  -2.5698  -2.4882  -2.4882  -1.2066  -1.2066  -1.1185  -1.1185
    -1.0582  -1.0582  -0.9695  -0.9695  -0.7988  -0.7988  -0.7922  -0.7922
    -0.7249  -0.7249  -0.6180  -0.6180  -0.5672  -0.5672  -0.5142  -0.5142
    -0.4250  -0.4250  -0.3655  -0.3655  -0.3569  -0.3569  -0.2974  -0.2974
    -0.2087  -0.2087  -0.1714  -0.1714  -0.0963  -0.0963  -0.0787  -0.0787
    -0.0628  -0.0628  -0.0085  -0.0085   0.0103   0.0103   0.0852   0.0852
     0.1638   0.1638   0.2049   0.2049   0.2442   0.2442   0.2585   0.2585
     0.3190   0.3190   0.3582   0.3582   0.3940   0.3940   0.4071   0.4072
     0.6476   0.6476   0.7136   0.7136   0.7645   0.7645   0.8467   0.8467
     0.9298   0.9298   0.9619   0.9619   1.2065   1.2065   1.3765   1.3765
     3.6565   3.6565   3.7617   3.7617   3.8760   3.8760   3.9346   3.9346
     4.0027   4.0027   4.0360   4.0360   4.1986   4.1986   4.2206   4.2206
     4.4371   4.4371   4.4630   4.4630   6.9970   6.9971   7.0350   7.0350
     7.7610   7.7610   7.9178   7.9178   7.9352   7.9352   8.0740   8.0740
     8.3095   8.3095   8.4107   8.4107   8.7899   8.7899   8.9883   8.9883
     9.1832   9.1832   9.3572   9.3572   9.4907   9.4907   9.5591   9.5591
     9.8262

          k = 0.0000-0.5832-0.5059 (132388 PWs)   bands (ev):

   -24.4607 -24.4607 -24.4295 -24.4295 -23.9872 -23.9872 -23.9677 -23.9677
   -23.8484 -23.8484 -23.8320 -23.8320 -23.4397 -23.4397 -23.4364 -23.4364
   -23.2777 -23.2777 -23.2762 -23.2762 -19.8741 -19.8741 -19.8719 -19.8719
   -19.7891 -19.7891 -19.7854 -19.7854 -19.7088 -19.7087 -19.6977 -19.6976
   -19.6567 -19.6567 -19.6517 -19.6517 -18.9646 -18.9646 -18.9540 -18.9540
   -18.8259 -18.8259 -18.8231 -18.8231 -17.1696 -17.1696 -17.1239 -17.1239
   -15.0680 -15.0680 -15.0554 -15.0554 -13.8557 -13.8557 -13.7720 -13.7720
   -13.3012 -13.3012 -13.2813 -13.2813 -11.6115 -11.6115 -11.5956 -11.5956
   -10.5617 -10.5617 -10.5141 -10.5141 -10.4027 -10.4027 -10.3883 -10.3882
   -10.2476 -10.2476 -10.2003 -10.2003  -9.3246  -9.3246  -9.2752  -9.2752
    -8.0685  -8.0685  -7.9000  -7.9000  -7.3012  -7.3012  -7.2446  -7.2446
    -7.2375  -7.2375  -7.1987  -7.1987  -7.1413  -7.1413  -7.0813  -7.0813
    -6.9982  -6.9982  -6.8207  -6.8207  -6.6531  -6.6531  -6.6083  -6.6083
    -6.3514  -6.3514  -6.2905  -6.2905  -6.0763  -6.0763  -6.0149  -6.0149
    -5.9160  -5.9160  -5.8994  -5.8994  -5.8518  -5.8518  -5.7787  -5.7786
    -5.7306  -5.7306  -5.7075  -5.7075  -5.6909  -5.6909  -5.6675  -5.6675
    -5.6020  -5.6020  -5.4889  -5.4889  -5.4543  -5.4543  -5.4046  -5.4046
    -5.3802  -5.3802  -5.3275  -5.3275  -5.2200  -5.2200  -5.1998  -5.1998
    -5.0787  -5.0787  -4.9539  -4.9539  -4.9124  -4.9124  -4.8639  -4.8639
    -4.7044  -4.7044  -4.6516  -4.6516  -4.1191  -4.1191  -4.0503  -4.0503
    -3.8767  -3.8767  -3.7928  -3.7927  -3.3229  -3.3229  -3.2557  -3.2557
    -2.5698  -2.5698  -2.4885  -2.4885  -1.2100  -1.2100  -1.1261  -1.1261
    -1.0784  -1.0784  -0.9388  -0.9388  -0.8322  -0.8322  -0.7678  -0.7678
    -0.7282  -0.7282  -0.6390  -0.6390  -0.5705  -0.5705  -0.5020  -0.5020
    -0.4123  -0.4123  -0.3838  -0.3838  -0.3285  -0.3285  -0.3035  -0.3035
    -0.2188  -0.2188  -0.1349  -0.1349  -0.1139  -0.1139  -0.0592  -0.0592
    -0.0205  -0.0205   0.0124   0.0124   0.0218   0.0218   0.0469   0.0469
     0.1278   0.1278   0.1769   0.1769   0.2049   0.2049   0.2703   0.2703
     0.3213   0.3213   0.3613   0.3613   0.3992   0.3992   0.4166   0.4166
     0.6552   0.6552   0.7179   0.7179   0.7592   0.7592   0.8413   0.8413
     0.9390   0.9390   0.9575   0.9576   1.2135   1.2135   1.3789   1.3789
     3.6770   3.6770   3.7404   3.7404   3.8797   3.8797   3.9361   3.9361
     3.9999   3.9999   4.0146   4.0146   4.1869   4.1869   4.2248   4.2248
     4.4352   4.4352   4.4888   4.4888   7.0022   7.0022   7.0298   7.0298
     7.7577   7.7577   7.9108   7.9108   7.9381   7.9381   8.0880   8.0880
     8.3145   8.3145   8.4173   8.4173   8.7989   8.7989   9.0563   9.0563
     9.1584   9.1584   9.3256   9.3256   9.4314   9.4314   9.5582   9.5582
     9.8414

          k =-0.5000 0.0000 0.0000 (132318 PWs)   bands (ev):

   -24.4498 -24.4498 -24.4415 -24.4415 -23.9795 -23.9795 -23.9734 -23.9734
   -23.8428 -23.8428 -23.8384 -23.8384 -23.4386 -23.4386 -23.4376 -23.4376
   -23.2773 -23.2773 -23.2765 -23.2765 -19.8748 -19.8748 -19.8709 -19.8709
   -19.7888 -19.7888 -19.7856 -19.7856 -19.7070 -19.7070 -19.7038 -19.7038
   -19.6551 -19.6551 -19.6497 -19.6497 -18.9600 -18.9600 -18.9582 -18.9582
   -18.8254 -18.8254 -18.8235 -18.8235 -17.1496 -17.1496 -17.1452 -17.1452
   -15.0664 -15.0664 -15.0544 -15.0544 -13.8214 -13.8214 -13.8071 -13.8071
   -13.3075 -13.3074 -13.2763 -13.2763 -11.6177 -11.6177 -11.5903 -11.5903
   -10.5409 -10.5409 -10.5346 -10.5346 -10.4058 -10.4058 -10.3859 -10.3859
   -10.2427 -10.2427 -10.2050 -10.2050  -9.3236  -9.3236  -9.2756  -9.2756
    -7.9760  -7.9760  -7.9576  -7.9576  -7.3529  -7.3529  -7.2958  -7.2958
    -7.2459  -7.2459  -7.1746  -7.1746  -7.1296  -7.1296  -7.0674  -7.0674
    -6.9702  -6.9702  -6.8963  -6.8963  -6.6145  -6.6145  -6.5500  -6.5500
    -6.3557  -6.3557  -6.3191  -6.3191  -6.1245  -6.1245  -6.0002  -6.0002
    -5.9182  -5.9182  -5.8726  -5.8726  -5.8540  -5.8540  -5.8150  -5.8150
    -5.7239  -5.7239  -5.6783  -5.6783  -5.6294  -5.6294  -5.6187  -5.6187
    -5.5781  -5.5781  -5.5306  -5.5306  -5.4962  -5.4962  -5.4263  -5.4263
    -5.3944  -5.3944  -5.3106  -5.3106  -5.2396  -5.2396  -5.1806  -5.1806
    -5.0343  -5.0343  -5.0167  -5.0167  -4.9352  -4.9352  -4.8525  -4.8525
    -4.6889  -4.6889  -4.6319  -4.6319  -4.1048  -4.1048  -4.0803  -4.0803
    -3.8566  -3.8566  -3.8058  -3.8058  -3.3172  -3.3172  -3.2723  -3.2723
    -2.5386  -2.5386  -2.5216  -2.5216  -1.1790  -1.1790  -1.1161  -1.1161
    -1.0504  -1.0504  -0.9694  -0.9694  -0.8322  -0.8322  -0.7329  -0.7329
    -0.7083  -0.7083  -0.6724  -0.6724  -0.6064  -0.6064  -0.5125  -0.5125
    -0.4025  -0.4025  -0.3626  -0.3626  -0.3195  -0.3195  -0.2912  -0.2912
    -0.2062  -0.2062  -0.1599  -0.1599  -0.1305  -0.1305  -0.1007  -0.1007
    -0.0665  -0.0665  -0.0188  -0.0188   0.0107   0.0107   0.0645   0.0645
     0.1170   0.1170   0.1915   0.1915   0.2465   0.2465   0.2891   0.2891
     0.3330   0.3330   0.3713   0.3713   0.4117   0.4117   0.4263   0.4263
     0.6251   0.6251   0.6996   0.6996   0.7691   0.7691   0.7888   0.7888
     0.9492   0.9492   0.9659   0.9659   1.2899   1.2899   1.3549   1.3549
     3.7013   3.7013   3.7863   3.7863   3.8407   3.8407   3.9178   3.9178
     3.9699   3.9699   4.0145   4.0145   4.1726   4.1726   4.2226   4.2226
     4.4560   4.4560   4.4926   4.4926   6.9846   6.9846   7.0643   7.0643
     7.7958   7.7958   7.8736   7.8737   7.9958   7.9958   8.0679   8.0679
     8.3526   8.3526   8.4205   8.4205   8.6630   8.6630   8.9299   8.9299
     9.1504   9.1504   9.3467   9.3467   9.5125   9.5125   9.6331   9.6332
     9.8306

          k =-0.5000 0.0000-0.5059 (132244 PWs)   bands (ev):

   -24.4457 -24.4457 -24.4457 -24.4457 -23.9764 -23.9764 -23.9764 -23.9764
   -23.8407 -23.8407 -23.8407 -23.8407 -23.4380 -23.4380 -23.4380 -23.4380
   -23.2770 -23.2769 -23.2769 -23.2769 -19.8729 -19.8728 -19.8728 -19.8728
   -19.7873 -19.7873 -19.7873 -19.7873 -19.7053 -19.7053 -19.7053 -19.7053
   -19.6523 -19.6523 -19.6523 -19.6523 -18.9591 -18.9591 -18.9591 -18.9591
   -18.8245 -18.8245 -18.8245 -18.8245 -17.1474 -17.1474 -17.1474 -17.1474
   -15.0604 -15.0603 -15.0603 -15.0603 -13.8142 -13.8142 -13.8142 -13.8142
   -13.2922 -13.2922 -13.2922 -13.2922 -11.6038 -11.6038 -11.6038 -11.6038
   -10.5377 -10.5376 -10.5376 -10.5376 -10.3966 -10.3966 -10.3966 -10.3966
   -10.2224 -10.2224 -10.2224 -10.2224  -9.3009  -9.3009  -9.3009  -9.3009
    -7.9675  -7.9675  -7.9675  -7.9675  -7.3249  -7.3249  -7.3249  -7.3249
    -7.2225  -7.2225  -7.2224  -7.2224  -7.0963  -7.0963  -7.0963  -7.0963
    -6.9159  -6.9159  -6.9159  -6.9159  -6.5898  -6.5898  -6.5898  -6.5897
    -6.3376  -6.3376  -6.3376  -6.3376  -6.0632  -6.0632  -6.0632  -6.0632
    -5.9019  -5.9019  -5.9019  -5.9019  -5.8406  -5.8406  -5.8406  -5.8406
    -5.6706  -5.6706  -5.6706  -5.6706  -5.6250  -5.6250  -5.6250  -5.6250
    -5.5741  -5.5741  -5.5741  -5.5741  -5.4660  -5.4660  -5.4660  -5.4660
    -5.3537  -5.3537  -5.3537  -5.3537  -5.1992  -5.1992  -5.1992  -5.1992
    -5.0248  -5.0248  -5.0248  -5.0248  -4.8950  -4.8949  -4.8949  -4.8949
    -4.6602  -4.6602  -4.6602  -4.6602  -4.0921  -4.0921  -4.0921  -4.0921
    -3.8311  -3.8311  -3.8311  -3.8310  -3.2931  -3.2931  -3.2931  -3.2931
    -2.5298  -2.5298  -2.5298  -2.5298  -1.1458  -1.1458  -1.1458  -1.1458
    -1.0447  -1.0447  -1.0447  -1.0447  -0.7559  -0.7559  -0.7559  -0.7559
    -0.6780  -0.6780  -0.6780  -0.6780  -0.5654  -0.5654  -0.5654  -0.5654
    -0.4045  -0.4045  -0.4045  -0.4045  -0.3125  -0.3125  -0.3125  -0.3125
    -0.1604  -0.1604  -0.1604  -0.1604  -0.1148  -0.1148  -0.1148  -0.1148
    -0.0392  -0.0392  -0.0392  -0.0392   0.0491   0.0491   0.0491   0.0491
     0.1513   0.1513   0.1513   0.1513   0.2739   0.2739   0.2739   0.2739
     0.3324   0.3324   0.3324   0.3324   0.4238   0.4239   0.4239   0.4239
     0.6608   0.6608   0.6608   0.6608   0.7797   0.7797   0.7797   0.7797
     0.9601   0.9601   0.9601   0.9601   1.3224   1.3224   1.3224   1.3224
     3.7394   3.7394   3.7395   3.7395   3.8660   3.8660   3.8660   3.8660
     4.0021   4.0021   4.0021   4.0021   4.1968   4.1968   4.1968   4.1968
     4.4803   4.4803   4.4803   4.4804   7.0247   7.0247   7.0247   7.0247
     7.8356   7.8356   7.8356   7.8356   8.0386   8.0386   8.0386   8.0386
     8.3901   8.3901   8.3901   8.3901   8.8421   8.8421   8.8421   8.8421
     9.1401   9.1401   9.1401   9.1401   9.5822   9.5822   9.5822   9.5822
     9.8272

          k =-0.5000-0.5832 0.0000 (132232 PWs)   bands (ev):

   -24.4488 -24.4488 -24.4424 -24.4424 -23.9775 -23.9775 -23.9755 -23.9755
   -23.8432 -23.8432 -23.8381 -23.8381 -23.4389 -23.4389 -23.4372 -23.4372
   -23.2770 -23.2770 -23.2768 -23.2768 -19.8762 -19.8762 -19.8697 -19.8697
   -19.7881 -19.7881 -19.7859 -19.7859 -19.7059 -19.7059 -19.7038 -19.7038
   -19.6535 -19.6535 -19.6524 -19.6524 -18.9599 -18.9599 -18.9584 -18.9584
   -18.8245 -18.8245 -18.8244 -18.8244 -17.1479 -17.1479 -17.1470 -17.1470
   -15.0612 -15.0612 -15.0594 -15.0594 -13.8205 -13.8205 -13.8093 -13.8093
   -13.3040 -13.3040 -13.2787 -13.2787 -11.6186 -11.6186 -11.5890 -11.5890
   -10.5386 -10.5386 -10.5377 -10.5377 -10.3995 -10.3995 -10.3954 -10.3954
   -10.2394 -10.2394 -10.2074 -10.2074  -9.3006  -9.3006  -9.2958  -9.2958
    -7.9690  -7.9690  -7.9670  -7.9670  -7.3075  -7.3075  -7.2926  -7.2926
    -7.2608  -7.2608  -7.1833  -7.1833  -7.1152  -7.1152  -7.1025  -7.1025
    -6.9646  -6.9646  -6.8861  -6.8861  -6.6342  -6.6341  -6.5858  -6.5858
    -6.3564  -6.3564  -6.3117  -6.3117  -6.0291  -6.0290  -5.9881  -5.9881
    -5.9256  -5.9256  -5.9118  -5.9118  -5.8192  -5.8192  -5.8031  -5.8031
    -5.7608  -5.7608  -5.6814  -5.6814  -5.6692  -5.6692  -5.6107  -5.6107
    -5.6053  -5.6053  -5.5794  -5.5794  -5.4428  -5.4428  -5.4348  -5.4348
    -5.3788  -5.3788  -5.3365  -5.3365  -5.2025  -5.2025  -5.1871  -5.1871
    -5.0511  -5.0511  -5.0174  -5.0174  -4.8848  -4.8848  -4.8606  -4.8606
    -4.6734  -4.6734  -4.6671  -4.6671  -4.1034  -4.1034  -4.0970  -4.0970
    -3.8393  -3.8393  -3.8158  -3.8158  -3.3141  -3.3141  -3.2690  -3.2690
    -2.5408  -2.5408  -2.5131  -2.5131  -1.1655  -1.1655  -1.1321  -1.1321
    -1.0521  -1.0521  -0.9642  -0.9642  -0.8258  -0.8258  -0.8078  -0.8078
    -0.6666  -0.6665  -0.6412  -0.6412  -0.5655  -0.5655  -0.5585  -0.5585
    -0.4260  -0.4260  -0.3740  -0.3740  -0.3174  -0.3174  -0.2873  -0.2873
    -0.1996  -0.1996  -0.1681  -0.1681  -0.1103  -0.1103  -0.0850  -0.0850
    -0.0446  -0.0446  -0.0336  -0.0336   0.0219   0.0219   0.0595   0.0595
     0.1084   0.1084   0.1884   0.1884   0.2871   0.2871   0.2900   0.2900
     0.3368   0.3368   0.3519   0.3519   0.3773   0.3773   0.4191   0.4191
     0.6470   0.6470   0.6726   0.6726   0.7889   0.7889   0.7967   0.7967
     0.9393   0.9393   0.9627   0.9627   1.2926   1.2926   1.3407   1.3407
     3.6751   3.6751   3.7440   3.7440   3.8983   3.8983   3.9187   3.9187
     3.9949   3.9949   4.0328   4.0328   4.1952   4.1952   4.2133   4.2133
     4.4504   4.4504   4.4609   4.4609   6.9929   6.9929   7.0569   7.0569
     7.7926   7.7926   7.9033   7.9033   7.9663   7.9664   8.0218   8.0218
     8.3193   8.3193   8.4419   8.4419   8.8531   8.8531   8.9690   8.9690
     9.0620   9.0620   9.1545   9.1545   9.5726   9.5727   9.5894   9.5894
     9.8081

          k =-0.5000-0.5832-0.5059 (132312 PWs)   bands (ev):

   -24.4457 -24.4457 -24.4456 -24.4456 -23.9766 -23.9766 -23.9764 -23.9764
   -23.8408 -23.8408 -23.8405 -23.8405 -23.4384 -23.4384 -23.4377 -23.4377
   -23.2775 -23.2775 -23.2764 -23.2764 -19.8737 -19.8737 -19.8721 -19.8721
   -19.7880 -19.7880 -19.7860 -19.7860 -19.7091 -19.7091 -19.7002 -19.7002
   -19.6556 -19.6556 -19.6505 -19.6505 -18.9593 -18.9593 -18.9590 -18.9590
   -18.8254 -18.8254 -18.8235 -18.8235 -17.1488 -17.1488 -17.1460 -17.1460
   -15.0664 -15.0664 -15.0541 -15.0541 -13.8196 -13.8196 -13.8102 -13.8102
   -13.2965 -13.2965 -13.2868 -13.2868 -11.6042 -11.6042 -11.6031 -11.6031
   -10.5452 -10.5452 -10.5308 -10.5308 -10.3994 -10.3994 -10.3963 -10.3963
   -10.2248 -10.2248 -10.2202 -10.2202  -9.3150  -9.3150  -9.2829  -9.2829
    -7.9776  -7.9775  -7.9598  -7.9598  -7.3052  -7.3052  -7.3041  -7.3041
    -7.2332  -7.2332  -7.2145  -7.2145  -7.1182  -7.1182  -7.0880  -7.0880
    -6.9701  -6.9701  -6.8669  -6.8669  -6.6684  -6.6684  -6.5549  -6.5549
    -6.3449  -6.3449  -6.3375  -6.3375  -6.0379  -6.0379  -5.9575  -5.9575
    -5.9037  -5.9037  -5.8966  -5.8966  -5.8612  -5.8612  -5.8339  -5.8339
    -5.7271  -5.7271  -5.7253  -5.7253  -5.6580  -5.6580  -5.6485  -5.6485
    -5.5600  -5.5600  -5.5597  -5.5597  -5.4556  -5.4556  -5.4153  -5.4153
    -5.3671  -5.3671  -5.3417  -5.3417  -5.2455  -5.2455  -5.1718  -5.1718
    -5.0641  -5.0640  -4.9979  -4.9979  -4.8860  -4.8860  -4.8544  -4.8544
    -4.6887  -4.6887  -4.6541  -4.6541  -4.1183  -4.1183  -4.0849  -4.0849
    -3.8640  -3.8640  -3.7906  -3.7906  -3.3033  -3.3032  -3.2775  -3.2775
    -2.5271  -2.5271  -2.5266  -2.5266  -1.1495  -1.1495  -1.1282  -1.1282
    -1.0734  -1.0734  -1.0128  -1.0128  -0.8086  -0.8086  -0.7873  -0.7873
    -0.6457  -0.6457  -0.6360  -0.6360  -0.6026  -0.6026  -0.5462  -0.5462
    -0.4243  -0.4243  -0.4029  -0.4029  -0.3197  -0.3197  -0.2708  -0.2708
    -0.1977  -0.1977  -0.1681  -0.1681  -0.0960  -0.0960  -0.0922  -0.0922
    -0.0470  -0.0470   0.0093   0.0093   0.0396   0.0396   0.0609   0.0609
     0.1370   0.1370   0.1553   0.1553   0.2532   0.2532   0.2964   0.2964
     0.3329   0.3329   0.3337   0.3337   0.3726   0.3726   0.4216   0.4216
     0.6581   0.6581   0.6669   0.6669   0.7861   0.7861   0.7909   0.7909
     0.9458   0.9458   0.9654   0.9654   1.3072   1.3072   1.3318   1.3318
     3.6930   3.6930   3.7275   3.7275   3.8981   3.8981   3.9201   3.9201
     3.9895   3.9895   4.0220   4.0221   4.1669   4.1669   4.2277   4.2277
     4.4632   4.4632   4.4713   4.4713   7.0143   7.0143   7.0357   7.0357
     7.8211   7.8211   7.8688   7.8688   7.9813   7.9813   8.0252   8.0252
     8.3534   8.3534   8.4126   8.4126   8.8460   8.8460   8.9714   8.9714
     9.1075   9.1075   9.2220   9.2220   9.5327   9.5327   9.5631   9.5631
     9.8634

     highest occupied, lowest unoccupied level (ev):     1.3876    3.6477

!    total energy              =   -2952.59714678 Ry
     Harris-Foulkes estimate   =   -2952.59714679 Ry
     estimated scf accuracy    <          6.1E-09 Ry

     total all-electron energy =    -11063.316438 Ry

     The total energy is the sum of the following terms:

     one-electron contribution =   -1464.08188926 Ry
     hartree contribution      =     943.39976055 Ry
     xc contribution           =    -560.86320131 Ry
     ewald contribution        =   -1091.54122694 Ry
     Dispersion Correction     =      -0.53431519 Ry
     one-center paw contrib.   =    -778.97627464 Ry

     convergence has been achieved in  17 iterations

     Forces acting on atoms (cartesian axes, Ry/au):

     atom    1 type  2   force =     0.00025374   -0.00012479   -0.00005834
     atom    2 type  2   force =    -0.00025480    0.00012717   -0.00005661
     atom    3 type  2   force =    -0.00025429   -0.00012556   -0.00005721
     atom    4 type  2   force =     0.00025542    0.00012304   -0.00005888
     atom    5 type  1   force =     0.00061146   -0.00021365    0.00002474
     atom    6 type  1   force =    -0.00061716    0.00021458    0.00003684
     atom    7 type  1   force =    -0.00060549   -0.00021188    0.00003644
     atom    8 type  1   force =     0.00060963    0.00021411    0.00002689
     atom    9 type  2   force =     0.00036120   -0.00000696    0.00011049
     atom   10 type  2   force =    -0.00036151    0.00000968    0.00011469
     atom   11 type  2   force =    -0.00036109   -0.00000448    0.00011160
     atom   12 type  2   force =     0.00036295    0.00000567    0.00011284
     atom   13 type  1   force =    -0.00019621    0.00031796   -0.00009822
     atom   14 type  1   force =     0.00019512   -0.00031517   -0.00010000
     atom   15 type  1   force =     0.00020120    0.00031937   -0.00010196
     atom   16 type  1   force =    -0.00020055   -0.00031796   -0.00009553
     atom   17 type  1   force =     0.00003422   -0.00060266   -0.00012532
     atom   18 type  1   force =    -0.00003612    0.00060340   -0.00013555
     atom   19 type  1   force =    -0.00002517   -0.00060281   -0.00013309
     atom   20 type  1   force =     0.00002518    0.00060194   -0.00012523
     atom   21 type  3   force =     0.00058193    0.00083884   -0.00026390
     atom   22 type  3   force =    -0.00058175   -0.00083925   -0.00026436
     atom   23 type  3   force =    -0.00058144    0.00083946   -0.00026446
     atom   24 type  3   force =     0.00058156   -0.00083877   -0.00026382
     atom   25 type  2   force =    -0.00020919   -0.00071023   -0.00066475
     atom   26 type  2   force =     0.00021039    0.00071051   -0.00066649
     atom   27 type  2   force =     0.00020907   -0.00071151   -0.00066323
     atom   28 type  2   force =    -0.00021004    0.00070797   -0.00066685
     atom   29 type  3   force =    -0.00015866    0.00056082    0.00021639
     atom   30 type  3   force =     0.00015863   -0.00056095    0.00021655
     atom   31 type  3   force =     0.00015894    0.00056076    0.00021675
     atom   32 type  3   force =    -0.00015890   -0.00056128    0.00021610
     atom   33 type  1   force =     0.00008816    0.00008427    0.00015735
     atom   34 type  1   force =    -0.00008869   -0.00008413    0.00016211
     atom   35 type  1   force =    -0.00010207    0.00008226    0.00016227
     atom   36 type  1   force =     0.00010241   -0.00008552    0.00015691
     atom   37 type  3   force =     0.00004033   -0.00044812    0.00010118
     atom   38 type  3   force =    -0.00004048    0.00044806    0.00010104
     atom   39 type  3   force =    -0.00004068   -0.00044801    0.00010078
     atom   40 type  3   force =     0.00004069    0.00044726    0.00010085
     atom   41 type  3   force =    -0.00024657    0.00009392    0.00066637
     atom   42 type  3   force =     0.00024655   -0.00009385    0.00066674
     atom   43 type  3   force =     0.00024670    0.00009360    0.00066656
     atom   44 type  3   force =    -0.00024640   -0.00009427    0.00066647
     atom   45 type  1   force =     0.00018100    0.00001565    0.00014130
     atom   46 type  1   force =    -0.00018066   -0.00001685    0.00015561
     atom   47 type  1   force =    -0.00018690    0.00001413    0.00015654
     atom   48 type  1   force =     0.00018529   -0.00001554    0.00014127
     atom   49 type  2   force =    -0.00033318    0.00019692    0.00006701
     atom   50 type  2   force =     0.00033306   -0.00020230    0.00006394
     atom   51 type  2   force =     0.00033586    0.00018924    0.00006814
     atom   52 type  2   force =    -0.00033289   -0.00019725    0.00006506
     atom   53 type  4   force =    -0.00056773    0.00018538    0.00025947
     atom   54 type  4   force =     0.00056772   -0.00018495    0.00025981
     atom   55 type  4   force =     0.00056878    0.00019543    0.00025015
     atom   56 type  4   force =    -0.00056765   -0.00018263    0.00025947
     atom   57 type  4   force =    -0.00034802   -0.00037748   -0.00086390
     atom   58 type  4   force =     0.00035162    0.00037980   -0.00086347
     atom   59 type  4   force =     0.00034447   -0.00037391   -0.00086231
     atom   60 type  4   force =    -0.00034809    0.00037837   -0.00086594
     atom   61 type  2   force =    -0.00009502    0.00008110   -0.00098000
     atom   62 type  2   force =     0.00009619   -0.00008287   -0.00097894
     atom   63 type  2   force =     0.00009193    0.00007842   -0.00097476
     atom   64 type  2   force =    -0.00009490   -0.00008059   -0.00097920
     atom   65 type  4   force =    -0.00113441    0.00037706   -0.00005464
     atom   66 type  4   force =     0.00113434   -0.00037772   -0.00005307
     atom   67 type  4   force =     0.00113693    0.00037706   -0.00005270
     atom   68 type  4   force =    -0.00113613   -0.00037730   -0.00005485
     atom   69 type  4   force =     0.00015157   -0.00075031    0.00040363
     atom   70 type  4   force =    -0.00015108    0.00074971    0.00040673
     atom   71 type  4   force =    -0.00014898   -0.00075136    0.00040279
     atom   72 type  4   force =     0.00014966    0.00075072    0.00040378
     atom   73 type  2   force =    -0.00036069   -0.00022165    0.00029442
     atom   74 type  2   force =     0.00036292    0.00021797    0.00029612
     atom   75 type  2   force =     0.00035789   -0.00022310    0.00029365
     atom   76 type  2   force =    -0.00035974    0.00022358    0.00029220
     atom   77 type  4   force =     0.00000788    0.00164673    0.00002404
     atom   78 type  4   force =    -0.00000756   -0.00164718    0.00002410
     atom   79 type  4   force =    -0.00000870    0.00165019    0.00002745
     atom   80 type  4   force =     0.00000829   -0.00164932    0.00002537
     atom   81 type  4   force =     0.00123278   -0.00037776    0.00014371
     atom   82 type  4   force =    -0.00123661    0.00037731    0.00014239
     atom   83 type  4   force =    -0.00123633   -0.00037985    0.00014610
     atom   84 type  4   force =     0.00123227    0.00037936    0.00014435
     atom   85 type  2   force =     0.00001872    0.00027155   -0.00009363
     atom   86 type  2   force =    -0.00002859   -0.00026631   -0.00009263
     atom   87 type  2   force =    -0.00001817    0.00027286   -0.00009366
     atom   88 type  2   force =     0.00002985   -0.00026777   -0.00009297
     atom   89 type  4   force =     0.00008014    0.00004870    0.00029071
     atom   90 type  4   force =    -0.00007728   -0.00005563    0.00028686
     atom   91 type  4   force =    -0.00007760    0.00004986    0.00029037
     atom   92 type  4   force =     0.00007545   -0.00005359    0.00028907
     atom   93 type  4   force =    -0.00064660   -0.00005148    0.00051219
     atom   94 type  4   force =     0.00065039    0.00005089    0.00051126
     atom   95 type  4   force =     0.00064971   -0.00005090    0.00050986
     atom   96 type  4   force =    -0.00065734    0.00004973    0.00051473
     atom   97 type  2   force =    -0.00058196   -0.00001972    0.00064931
     atom   98 type  2   force =     0.00057991    0.00002197    0.00065084
     atom   99 type  2   force =     0.00058396   -0.00001789    0.00064910
     atom  100 type  2   force =    -0.00057940    0.00002164    0.00065072
     atom  101 type  4   force =     0.00076126    0.00015492   -0.00018196
     atom  102 type  4   force =    -0.00075624   -0.00015671   -0.00018344
     atom  103 type  4   force =    -0.00075807    0.00015744   -0.00018294
     atom  104 type  4   force =     0.00075848   -0.00015670   -0.00018164
     atom  105 type  4   force =     0.00018654    0.00102872   -0.00069045
     atom  106 type  4   force =    -0.00018782   -0.00102880   -0.00069193
     atom  107 type  4   force =    -0.00018932    0.00102814   -0.00068929
     atom  108 type  4   force =     0.00019060   -0.00102796   -0.00069048

     Total force =     0.008422     Total SCF correction =     0.000213


     Computing stress (Cartesian axis) and pressure

          total   stress  (Ry/bohr**3)                   (kbar)     P=    2.47
   0.00001781   0.00000000   0.00000000          2.62      0.00      0.00
   0.00000000   0.00000825  -0.00000000          0.00      1.21     -0.00
   0.00000000  -0.00000000   0.00002425          0.00     -0.00      3.57


     Writing output data file scf.save
 
     init_run     :     98.35s CPU    100.76s WALL (       1 calls)
     electrons    :   4359.12s CPU   4466.14s WALL (       1 calls)
     forces       :     50.78s CPU     51.09s WALL (       1 calls)
     stress       :    265.81s CPU    266.38s WALL (       1 calls)

     Called by init_run:
     wfcinit      :     91.02s CPU     93.24s WALL (       1 calls)
     potinit      :      2.65s CPU      2.68s WALL (       1 calls)

     Called by electrons:
     c_bands      :   3964.59s CPU   4057.70s WALL (      17 calls)
     sum_band     :    377.28s CPU    389.39s WALL (      17 calls)
     v_of_rho     :      2.86s CPU      3.06s WALL (      18 calls)
     newd         :      6.35s CPU      7.99s WALL (      18 calls)
     PAW_pot      :      7.42s CPU      7.42s WALL (      18 calls)
     mix_rho      :      0.71s CPU      0.78s WALL (      17 calls)

     Called by c_bands:
     init_us_2    :     12.13s CPU     12.18s WALL (     296 calls)
     cegterg      :   3893.73s CPU   3986.70s WALL (     136 calls)

     Called by sum_band:
     sum_band:bec :      0.23s CPU      0.23s WALL (     136 calls)
     addusdens    :      6.79s CPU      8.36s WALL (      17 calls)

     Called by *egterg:
     h_psi        :   1887.85s CPU   1954.73s WALL (     637 calls)
     s_psi        :    462.56s CPU    462.59s WALL (     637 calls)
     g_psi        :      6.95s CPU      6.95s WALL (     493 calls)
     cdiaghg      :    270.12s CPU    270.12s WALL (     629 calls)

     Called by h_psi:
     h_psi:pot    :   1878.07s CPU   1944.78s WALL (     637 calls)
     h_psi:calbec :    491.44s CPU    492.24s WALL (     637 calls)
     vloc_psi     :    924.33s CPU    990.22s WALL (     637 calls)
     add_vuspsi   :    462.30s CPU    462.32s WALL (     637 calls)

     General routines
     calbec       :    743.32s CPU    744.57s WALL (     813 calls)
     fft          :      8.45s CPU      8.82s WALL (     258 calls)
     fftw         :   1023.23s CPU   1099.19s WALL (  260450 calls)
 
     Parallel routines
     fft_scatter  :    304.72s CPU    380.27s WALL (  260708 calls)
 
     PWSCF        :     1h19m CPU        1h23m WALL

 
   This run was terminated on:  14: 6:49  20Dec2017            

=------------------------------------------------------------------------------=
   JOB DONE.
=------------------------------------------------------------------------------=
