
     Program PWSCF v.6.1 (svn rev. 13369) starts on  4Nov2017 at  4:30:57 

     This program is part of the open-source Quantum ESPRESSO suite
     for quantum simulation of materials; please cite
         "P. Giannozzi et al., J. Phys.:Condens. Matter 21 395502 (2009);
          URL http://www.quantum-espresso.org", 
     in publications or presentations arising from this work. More details at
     http://www.quantum-espresso.org/quote

     Parallel version (MPI), running on     8 processors
     R & G space division:  proc/nbgrp/npool/nimage =       8
     Waiting for input...
     Reading input from standard input

     Current dimensions of program PWSCF are:
     Max number of different atomic species (ntypx) = 10
     Max number of k-points (npk) =  40000
     Max angular momentum in pseudopotentials (lmaxx) =  3
               file C.pbe-n-kjpaw_psl.0.1.UPF: wavefunction(s)  2P renormalized
               file N.pbe-n-kjpaw_psl.0.1.UPF: wavefunction(s)  2P renormalized
               file H.pbe-kjpaw_psl.0.1.UPF: wavefunction(s)  1S renormalized
               file O.pbe-n-kjpaw_psl.0.1.UPF: wavefunction(s)  2P renormalized

     -------------------------------------
     Parameters for Dispersion Correction:
     -------------------------------------
       atom      VdW radius       C_6     

        C          2.744         60.710
        N          2.640         42.670
        H          1.892          4.857
        O          2.536         24.284

     Subspace diagonalization in iterative solution of the eigenvalue problem:
     a serial algorithm will be used

 
     Parallelization info
     --------------------
     sticks:   dense  smooth     PW     G-vecs:    dense   smooth      PW
     Min         765     765    202                71700    71700    9813
     Max         766     766    203                71702    71702    9817
     Sum        6125    6125   1623               573609   573609   78521
 


     bravais-lattice index     =            0
     lattice parameter (alat)  =      11.9674  a.u.
     unit-cell volume          =    4246.6947 (a.u.)^3
     number of atoms/cell      =           64
     number of atomic types    =            4
     number of electrons       =       240.00
     number of Kohn-Sham states=          144
     kinetic-energy cutoff     =     100.0000  Ry
     charge density cutoff     =     400.0000  Ry
     convergence threshold     =      1.0E-08
     mixing beta               =       0.5000
     number of iterations used =            8  plain     mixing
     Exchange-correlation      =  SLA  PW   PBX  PBC ( 1  4  3  4 0 0)

     celldm(1)=  11.967447  celldm(2)=   0.000000  celldm(3)=   0.000000
     celldm(4)=   0.000000  celldm(5)=   0.000000  celldm(6)=   0.000000

     crystal axes: (cart. coord. in units of alat)
               a(1) = (   1.000000   0.000000   0.000000 )  
               a(2) = (  -0.094542   1.344594   0.000000 )  
               a(3) = (  -0.408825  -0.670404   1.842704 )  

     reciprocal axes: (cart. coord. in units 2 pi/alat)
               b(1) = (  1.000000  0.070313  0.247442 )  
               b(2) = (  0.000000  0.743719  0.270577 )  
               b(3) = (  0.000000  0.000000  0.542681 )  


     PseudoPot. # 1 for  C read from file:
     /scratch/ahofstet/pseudo/C.pbe-n-kjpaw_psl.0.1.UPF
     MD5 check sum: 430fe95172b1e11ef3f8ed03bac87931
     Pseudo is Projector augmented-wave + core cor, Zval =  4.0
     Generated using "atomic" code by A. Dal Corso  v.5.0.99 svn rev. 10869
     Shape of augmentation charge: BESSEL
     Using radial grid of 1073 points,  4 beta functions with: 
                l(1) =   0
                l(2) =   0
                l(3) =   1
                l(4) =   1
     Q(r) pseudized with 0 coefficients 


     PseudoPot. # 2 for  N read from file:
     /scratch/ahofstet/pseudo/N.pbe-n-kjpaw_psl.0.1.UPF
     MD5 check sum: f73187c8b701007e77325f868c9291d7
     Pseudo is Projector augmented-wave + core cor, Zval =  5.0
     Generated using "atomic" code by A. Dal Corso  v.5.0.99 svn rev. 10869
     Shape of augmentation charge: PSQ
     Using radial grid of 1085 points,  4 beta functions with: 
                l(1) =   0
                l(2) =   0
                l(3) =   1
                l(4) =   1
     Q(r) pseudized with 0 coefficients 


     PseudoPot. # 3 for  H read from file:
     /scratch/ahofstet/pseudo/H.pbe-kjpaw_psl.0.1.UPF
     MD5 check sum: 94e484f906d9e9773b2f6e52662335b2
     Pseudo is Projector augmented-wave, Zval =  1.0
     Generated using "atomic" code by A. Dal Corso  v.5.0.99 svn rev. 10869
     Shape of augmentation charge: PSQ
     Using radial grid of  929 points,  2 beta functions with: 
                l(1) =   0
                l(2) =   0
     Q(r) pseudized with 0 coefficients 


     PseudoPot. # 4 for  O read from file:
     /scratch/ahofstet/pseudo/O.pbe-n-kjpaw_psl.0.1.UPF
     MD5 check sum: 3f94a2996a3169367d6eb21d9b593f20
     Pseudo is Projector augmented-wave + core cor, Zval =  6.0
     Generated using "atomic" code by A. Dal Corso  v.5.0.99 svn rev. 10869
     Shape of augmentation charge: BESSEL
     Using radial grid of 1095 points,  4 beta functions with: 
                l(1) =   0
                l(2) =   0
                l(3) =   1
                l(4) =   1
     Q(r) pseudized with 0 coefficients 


     atomic species   valence    mass     pseudopotential
        C              4.00    12.01070      C( 1.00)
        N              5.00    14.00670      N( 1.00)
        H              1.00     1.00794      H( 1.00)
        O              6.00    15.99940      O( 1.00)

      2 Sym. Ops., with inversion, found



   Cartesian axes

     site n.     atom                  positions (alat units)
         1           O   tau(   1) = (   0.1866820   0.1731113   0.1504173  )
         2           O   tau(   2) = (   0.3099511   0.5010781   1.6922863  )
         3           H   tau(   3) = (   0.0831040   0.2258419   0.0447614  )
         4           H   tau(   4) = (   0.4135291   0.4483476   1.7979423  )
         5           H   tau(   5) = (   0.3201524   0.2538098   0.1340421  )
         6           H   tau(   6) = (   0.1764806   0.4203797   1.7086616  )
         7           O   tau(   7) = (  -0.0967290   0.4501765   1.2299203  )
         8           O   tau(   8) = (   0.5933621   0.2240130   0.6127834  )
         9           H   tau(   9) = (  -0.0758397   0.6032027   1.2257763  )
        10           H   tau(  10) = (   0.5724728   0.0709867   0.6169273  )
        11           H   tau(  11) = (  -0.0871041   0.4020272   1.3789319  )
        12           H   tau(  12) = (   0.5837372   0.2721622   0.4637717  )
        13           O   tau(  13) = (  -0.0679326   0.2986785   1.6371673  )
        14           O   tau(  14) = (   0.5645657   0.3755109   0.2055364  )
        15           H   tau(  15) = (  -0.1745225   0.3327999   1.7480170  )
        16           H   tau(  16) = (   0.6711555   0.3413895   0.0946867  )
        17           H   tau(  17) = (  -0.0651122   0.1452207   1.6249580  )
        18           H   tau(  18) = (   0.5617453   0.5289688   0.2177456  )
        19           O   tau(  19) = (   0.0594851   1.0929079   0.1004791  )
        20           O   tau(  20) = (   0.4371480  -0.4187185   1.7422245  )
        21           H   tau(  21) = (   0.0885538   1.2445486   0.1330945  )
        22           H   tau(  22) = (   0.4080793  -0.5703592   1.7096091  )
        23           H   tau(  23) = (   0.0497245   1.0173621   0.2355537  )
        24           H   tau(  24) = (   0.4469085  -0.3431727   1.6071500  )
        25           H   tau(  25) = (  -0.0304080   0.3324868   1.0327726  )
        26           H   tau(  26) = (   0.5270410   0.3417026   0.8099310  )
        27           H   tau(  27) = (   0.1121198   0.2365267   0.3842494  )
        28           H   tau(  28) = (   0.3845133   0.4376628   1.4584543  )
        29           H   tau(  29) = (  -0.0225215   0.9527617   0.7933615  )
        30           H   tau(  30) = (   0.5191546  -0.2785722   1.0493422  )
        31           N   tau(  31) = (   0.0092295   0.2616658   0.8811028  )
        32           N   tau(  32) = (   0.4874035   0.4125237   0.9616009  )
        33           O   tau(  33) = (   0.0222703   0.8833381   0.5283671  )
        34           O   tau(  34) = (   0.4743628  -0.2091487   1.3143365  )
        35           N   tau(  35) = (  -0.0183523  -0.0851487   1.1913077  )
        36           N   tau(  36) = (   0.5149854   0.7593382   0.6513960  )
        37           N   tau(  37) = (  -0.0747541   0.9089818   1.1185265  )
        38           N   tau(  38) = (   0.5713872  -0.2347924   0.7241771  )
        39           N   tau(  39) = (   0.0432966  -0.3216236   0.9416129  )
        40           N   tau(  40) = (   0.4533365   0.9958131   0.9010908  )
        41           N   tau(  41) = (   0.0187480   0.5821884   0.6994634  )
        42           N   tau(  42) = (   0.4778850   0.0920010   1.1432402  )
        43           N   tau(  43) = (   0.0391666   0.6820990   0.5157178  )
        44           N   tau(  44) = (   0.4574664  -0.0079095   1.3269859  )
        45           O   tau(  45) = (   0.0735144   0.5937150   0.3440905  )
        46           O   tau(  46) = (   0.4231186   0.0804745   1.4986132  )
        47           N   tau(  47) = (   0.0787665   0.0257122   0.6303965  )
        48           N   tau(  48) = (   0.4178666   0.6484773   1.2123071  )
        49           C   tau(  49) = (   0.0355989   0.3696700   0.6976704  )
        50           C   tau(  50) = (   0.4610341   0.3045195   1.1450332  )
        51           C   tau(  51) = (   0.0205329  -0.1128748   0.9862607  )
        52           C   tau(  52) = (   0.4761002   0.7870643   0.8564429  )
        53           O   tau(  53) = (  -0.0948417  -0.1953075   1.6050551  )
        54           O   tau(  54) = (   0.5914748   0.8694969   0.2376485  )
        55           C   tau(  55) = (   0.0357168   0.0539858   0.8325353  )
        56           C   tau(  56) = (   0.4609163   0.6202037   1.0101683  )
        57           N   tau(  57) = (   0.0781987   0.2227976   0.5483588  )
        58           N   tau(  58) = (   0.4184344   0.4513918   1.2943448  )
        59           C   tau(  59) = (  -0.0161972  -0.2852771   1.2615400  )
        60           C   tau(  60) = (   0.5128303   0.9594665   0.5811636  )
        61           O   tau(  61) = (  -0.0303563  -0.5271802   1.5308645  )
        62           O   tau(  62) = (   0.5269894   1.2013697   0.3118392  )
        63           N   tau(  63) = (  -0.0496558  -0.3398707   1.4820807  )
        64           N   tau(  64) = (   0.5462888   1.0140601   0.3606230  )

     number of k points=     8
                       cart. coord. in units 2pi/alat
        k(    1) = (   0.0000000   0.0000000   0.0000000), wk =   0.1666667
        k(    2) = (   0.0000000   0.0000000  -0.2713404), wk =   0.1666667
        k(    3) = (   0.0000000  -0.3718596  -0.1352883), wk =   0.1666667
        k(    4) = (   0.0000000  -0.3718596  -0.4066287), wk =   0.1666667
        k(    5) = (   0.3333333   0.0234376   0.0824808), wk =   0.3333333
        k(    6) = (   0.3333333   0.0234376  -0.1888597), wk =   0.3333333
        k(    7) = (   0.3333333  -0.3484220  -0.0528075), wk =   0.3333333
        k(    8) = (   0.3333333  -0.3484220  -0.3241479), wk =   0.3333333

     Dense  grid:   573609 G-vectors     FFT dimensions: (  80, 108, 160)

     Estimated max dynamical RAM per process >     441.64MB

     Estimated total allocated dynamical RAM >    3533.12MB

     Check: negative/imaginary core charge=   -0.000002    0.000000

     Initial potential from superposition of free atoms

     starting charge  239.99930, renormalised to  240.00000
     Starting wfc are  190 randomized atomic wfcs
     Checking if some PAW data can be deallocated... 

     total cpu time spent up to now is       24.2 secs

     per-process dynamical memory:   314.6 Mb

     Self-consistent Calculation

     iteration #  1     ecut=   100.00 Ry     beta=0.50
     Davidson diagonalization with overlap
     ethr =  1.00E-02,  avg # of iterations =  3.2

     total cpu time spent up to now is       80.7 secs

     total energy              =   -1345.98134118 Ry
     Harris-Foulkes estimate   =   -1349.69048480 Ry
     estimated scf accuracy    <       6.49468550 Ry

     iteration #  2     ecut=   100.00 Ry     beta=0.50
     Davidson diagonalization with overlap
     ethr =  2.71E-03,  avg # of iterations =  3.0

     total cpu time spent up to now is      124.4 secs

     total energy              =   -1347.38194922 Ry
     Harris-Foulkes estimate   =   -1348.13007030 Ry
     estimated scf accuracy    <       1.62320706 Ry

     iteration #  3     ecut=   100.00 Ry     beta=0.50
     Davidson diagonalization with overlap
     ethr =  6.76E-04,  avg # of iterations =  5.1

     total cpu time spent up to now is      168.9 secs

     total energy              =   -1347.69217607 Ry
     Harris-Foulkes estimate   =   -1347.77369701 Ry
     estimated scf accuracy    <       0.21286971 Ry

     iteration #  4     ecut=   100.00 Ry     beta=0.50
     Davidson diagonalization with overlap
     ethr =  8.87E-05,  avg # of iterations =  8.9

     total cpu time spent up to now is      221.5 secs

     total energy              =   -1347.71999449 Ry
     Harris-Foulkes estimate   =   -1347.76350768 Ry
     estimated scf accuracy    <       0.11949129 Ry

     iteration #  5     ecut=   100.00 Ry     beta=0.50
     Davidson diagonalization with overlap
     ethr =  4.98E-05,  avg # of iterations =  2.6

     total cpu time spent up to now is      256.9 secs

     total energy              =   -1347.74029381 Ry
     Harris-Foulkes estimate   =   -1347.74668404 Ry
     estimated scf accuracy    <       0.01827955 Ry

     iteration #  6     ecut=   100.00 Ry     beta=0.50
     Davidson diagonalization with overlap
     ethr =  7.62E-06,  avg # of iterations =  7.1

     total cpu time spent up to now is      302.5 secs

     total energy              =   -1347.74384164 Ry
     Harris-Foulkes estimate   =   -1347.74517657 Ry
     estimated scf accuracy    <       0.00357442 Ry

     iteration #  7     ecut=   100.00 Ry     beta=0.50
     Davidson diagonalization with overlap
     ethr =  1.49E-06,  avg # of iterations =  4.6

     total cpu time spent up to now is      344.1 secs

     total energy              =   -1347.74458159 Ry
     Harris-Foulkes estimate   =   -1347.74505190 Ry
     estimated scf accuracy    <       0.00143269 Ry

     iteration #  8     ecut=   100.00 Ry     beta=0.50
     Davidson diagonalization with overlap
     ethr =  5.97E-07,  avg # of iterations =  2.0

     total cpu time spent up to now is      377.8 secs

     total energy              =   -1347.74483782 Ry
     Harris-Foulkes estimate   =   -1347.74485983 Ry
     estimated scf accuracy    <       0.00009245 Ry

     iteration #  9     ecut=   100.00 Ry     beta=0.50
     Davidson diagonalization with overlap
     ethr =  3.85E-08,  avg # of iterations =  3.6

     total cpu time spent up to now is      429.3 secs

     total energy              =   -1347.74486967 Ry
     Harris-Foulkes estimate   =   -1347.74487630 Ry
     estimated scf accuracy    <       0.00002278 Ry

     iteration # 10     ecut=   100.00 Ry     beta=0.50
     Davidson diagonalization with overlap
     ethr =  9.49E-09,  avg # of iterations =  3.0

     total cpu time spent up to now is      466.2 secs

     total energy              =   -1347.74487361 Ry
     Harris-Foulkes estimate   =   -1347.74487499 Ry
     estimated scf accuracy    <       0.00000480 Ry

     iteration # 11     ecut=   100.00 Ry     beta=0.50
     Davidson diagonalization with overlap
     ethr =  2.00E-09,  avg # of iterations =  3.0

     total cpu time spent up to now is      504.3 secs

     total energy              =   -1347.74487462 Ry
     Harris-Foulkes estimate   =   -1347.74487484 Ry
     estimated scf accuracy    <       0.00000077 Ry

     iteration # 12     ecut=   100.00 Ry     beta=0.50
     Davidson diagonalization with overlap
     ethr =  3.21E-10,  avg # of iterations =  2.9

     total cpu time spent up to now is      544.0 secs

     total energy              =   -1347.74487482 Ry
     Harris-Foulkes estimate   =   -1347.74487485 Ry
     estimated scf accuracy    <       0.00000013 Ry

     iteration # 13     ecut=   100.00 Ry     beta=0.50
     Davidson diagonalization with overlap
     ethr =  5.23E-11,  avg # of iterations =  3.0

     total cpu time spent up to now is      582.9 secs

     total energy              =   -1347.74487485 Ry
     Harris-Foulkes estimate   =   -1347.74487485 Ry
     estimated scf accuracy    <       0.00000002 Ry

     iteration # 14     ecut=   100.00 Ry     beta=0.50
     Davidson diagonalization with overlap
     ethr =  7.99E-12,  avg # of iterations =  3.0

     total cpu time spent up to now is      624.6 secs

     End of self-consistent calculation

          k = 0.0000 0.0000 0.0000 ( 71655 PWs)   bands (ev):

   -24.5180 -24.5174 -23.9363 -23.9356 -21.4678 -21.3716 -21.0926 -21.0542
   -20.0724 -20.0713 -19.0967 -19.0908 -18.6145 -18.4626 -18.2741 -18.1599
   -18.1003 -17.9788 -17.8852 -17.7482 -17.5199 -17.4941 -16.9377 -16.9268
   -16.5882 -16.5381 -15.3836 -15.3765 -14.1904 -14.1852 -12.3827 -12.3782
   -11.1038 -11.0407 -10.7541 -10.7507  -9.6937  -9.6762  -9.2014  -9.1739
    -8.2377  -8.2122  -7.3725  -7.3665  -7.2477  -7.2176  -7.1526  -7.0338
    -6.9139  -6.8696  -6.5447  -6.4896  -6.4555  -6.4183  -6.4078  -6.3690
    -6.3438  -6.2559  -6.2245  -6.1922  -6.1182  -6.0628  -6.0037  -5.9289
    -5.8669  -5.8286  -5.7955  -5.5945  -5.5872  -5.5364  -5.4610  -4.9755
    -4.9751  -4.8856  -3.2484  -3.1570  -3.1485  -2.8636  -2.4911  -2.4864
    -2.3921  -2.3297  -2.2994  -2.1033  -2.0784  -1.8998  -1.8404  -1.8360
    -1.7021  -1.6409  -1.5778  -1.4805  -1.2834  -1.2694  -1.1428  -1.0614
    -1.0034  -0.9472  -0.9201  -0.8877  -0.8194  -0.8148  -0.7427  -0.6883
    -0.6214  -0.5915  -0.5288  -0.4437  -0.4314  -0.4059  -0.3814  -0.3299
    -0.3170  -0.3163  -0.2494  -0.2451   0.4683   0.4758   0.8080   0.8550
     2.9909   3.0147   4.0556   4.0649   4.2119   4.3125   6.3650   6.4389
     6.5544   6.7812   6.8694   7.6240   7.6875   7.7347   7.8391   8.1431
     8.4527   8.4892   8.6632   8.7784   8.9010   8.9673   8.9971   9.6536

          k = 0.0000 0.0000-0.2713 ( 71674 PWs)   bands (ev):

   -24.5177 -24.5177 -23.9363 -23.9356 -21.4679 -21.3717 -21.0924 -21.0541
   -20.0722 -20.0714 -19.0958 -19.0918 -18.6204 -18.4539 -18.2616 -18.1636
   -18.1130 -17.9940 -17.8717 -17.7461 -17.5172 -17.4956 -16.9381 -16.9293
   -16.5871 -16.5358 -15.3827 -15.3755 -14.1933 -14.1886 -12.3810 -12.3774
   -11.1014 -11.0390 -10.7537 -10.7505  -9.6916  -9.6754  -9.2020  -9.1739
    -8.2374  -8.2235  -7.3919  -7.3654  -7.2392  -7.2130  -7.1521  -7.0380
    -6.9078  -6.8692  -6.5627  -6.4851  -6.4448  -6.4006  -6.3905  -6.3817
    -6.3554  -6.3123  -6.2275  -6.1540  -6.1445  -6.0626  -5.9917  -5.9259
    -5.8547  -5.8234  -5.7760  -5.5890  -5.5817  -5.5295  -5.4683  -4.9735
    -4.9716  -4.8907  -3.2592  -3.2479  -3.0845  -2.7265  -2.6065  -2.4588
    -2.4231  -2.3190  -2.3039  -2.2294  -2.0551  -1.9142  -1.8725  -1.7639
    -1.6566  -1.5780  -1.5757  -1.4749  -1.2864  -1.2743  -1.1317  -1.1135
    -0.9832  -0.9781  -0.9231  -0.9062  -0.8101  -0.7799  -0.7231  -0.6866
    -0.6303  -0.5556  -0.5198  -0.5094  -0.4274  -0.4178  -0.4002  -0.3310
    -0.3252  -0.2816  -0.2582  -0.2338   0.4691   0.4768   0.8082   0.8524
     2.9791   3.0278   4.0551   4.0659   4.2116   4.3141   6.4258   6.5206
     6.5586   6.7869   6.8671   7.1437   7.6511   7.7976   8.0728   8.2105
     8.4698   8.6422   8.7158   8.7165   8.9534   9.0285   9.1337   9.1834

          k = 0.0000-0.3719-0.1353 ( 71620 PWs)   bands (ev):

   -24.5178 -24.5176 -23.9359 -23.9358 -21.4676 -21.3764 -21.0895 -21.0545
   -20.0727 -20.0720 -19.0957 -19.0931 -18.6131 -18.4548 -18.2619 -18.1701
   -18.1061 -17.9939 -17.8729 -17.7570 -17.5117 -17.4803 -16.9254 -16.9211
   -16.5850 -16.5531 -15.4317 -15.3697 -14.2058 -14.1639 -12.3678 -12.3614
   -11.0730 -11.0178 -10.8203 -10.8026  -9.6931  -9.6774  -9.0977  -9.0634
    -8.2217  -8.2019  -7.7620  -7.7380  -7.1305  -7.1272  -7.0822  -7.0402
    -6.7083  -6.6851  -6.5508  -6.5328  -6.4562  -6.4318  -6.4012  -6.3128
    -6.2742  -6.2700  -6.2021  -6.1729  -6.1014  -6.0987  -6.0263  -6.0030
    -5.9502  -5.8445  -5.7869  -5.6802  -5.5121  -5.4924  -5.1047  -5.1025
    -5.0985  -5.0224  -3.2663  -3.2636  -3.0714  -2.7584  -2.6319  -2.4107
    -2.2817  -2.2244  -2.1669  -2.1647  -2.1407  -1.9701  -1.9123  -1.8264
    -1.7752  -1.6224  -1.5640  -1.4519  -1.2847  -1.2658  -1.1097  -1.0748
    -0.9856  -0.9737  -0.9344  -0.9312  -0.8590  -0.8181  -0.8137  -0.6760
    -0.6530  -0.5141  -0.5122  -0.4949  -0.4421  -0.4313  -0.3650  -0.3340
    -0.2982  -0.2903  -0.2372  -0.2337   0.4446   0.4513   0.7501   0.9511
     2.9722   3.0273   3.9716   4.0260   4.2773   4.3960   6.4573   6.5624
     6.7371   6.9109   7.0064   7.1414   7.5790   7.5863   7.7705   7.8536
     8.0368   8.3919   8.8024   9.0829   9.1636   9.1711   9.3234   9.6176

          k = 0.0000-0.3719-0.4066 ( 71736 PWs)   bands (ev):

   -24.5179 -24.5175 -23.9358 -23.9358 -21.4676 -21.3766 -21.0894 -21.0543
   -20.0729 -20.0719 -19.0975 -19.0911 -18.6079 -18.4651 -18.2712 -18.1591
   -18.0965 -17.9815 -17.8924 -17.7617 -17.5009 -17.4859 -16.9264 -16.9226
   -16.5836 -16.5510 -15.4303 -15.3687 -14.2094 -14.1668 -12.3660 -12.3602
   -11.0709 -11.0165 -10.8200 -10.8025  -9.6909  -9.6757  -9.0966  -9.0633
    -8.2360  -8.2068  -7.7654  -7.7394  -7.1272  -7.1046  -7.0790  -7.0484
    -6.7159  -6.6920  -6.5863  -6.5010  -6.4514  -6.4226  -6.4172  -6.3181
    -6.2538  -6.2320  -6.2304  -6.1638  -6.1570  -6.1269  -5.9993  -5.9949
    -5.9596  -5.8366  -5.7528  -5.6793  -5.5068  -5.5048  -5.1065  -5.0898
    -5.0888  -5.0240  -3.2520  -3.1658  -3.1589  -2.8972  -2.5345  -2.4212
    -2.2438  -2.1861  -2.1744  -2.1494  -2.1076  -2.0117  -1.9897  -1.8066
    -1.7715  -1.6615  -1.5689  -1.4423  -1.2877  -1.2565  -1.1197  -1.0857
    -1.0104  -1.0058  -0.9421  -0.8664  -0.8611  -0.8579  -0.8163  -0.6712
    -0.6325  -0.5712  -0.4729  -0.4442  -0.4387  -0.3846  -0.3698  -0.3119
    -0.3036  -0.2882  -0.2598  -0.2388   0.4418   0.4506   0.7484   0.9503
     2.9837   3.0161   3.9726   4.0250   4.2772   4.3976   6.4633   6.5556
     6.7364   6.9124   6.9754   7.0421   7.5647   7.6557   7.7666   7.9418
     8.2622   8.4034   8.5500   8.8389   9.1501   9.1689   9.4364   9.7498

          k = 0.3333 0.0234 0.0825 ( 71755 PWs)   bands (ev):

   -24.5176 -24.5173 -23.9364 -23.9358 -21.4490 -21.3907 -21.0842 -21.0605
   -20.0724 -20.0715 -19.0952 -19.0922 -18.5433 -18.4312 -18.3740 -18.1648
   -18.1291 -18.0243 -17.9020 -17.6636 -17.5140 -17.4952 -16.9405 -16.9277
   -16.5791 -16.5482 -15.4046 -15.3574 -14.1925 -14.1832 -12.3889 -12.3735
   -11.0911 -11.0544 -10.7552 -10.7501  -9.7103  -9.6633  -9.1992  -9.1842
    -8.2361  -8.2221  -7.3773  -7.3742  -7.2655  -7.2402  -7.0316  -6.9750
    -6.8986  -6.8759  -6.5625  -6.5456  -6.4988  -6.4508  -6.3805  -6.3503
    -6.3245  -6.2821  -6.2000  -6.1514  -6.0928  -6.0380  -6.0057  -5.9134
    -5.8485  -5.8002  -5.7941  -5.6322  -5.5896  -5.5721  -5.2686  -5.0058
    -4.9727  -4.9664  -3.5005  -3.2578  -3.0079  -2.7999  -2.6035  -2.3881
    -2.3387  -2.2583  -2.1893  -2.1393  -2.0263  -1.9716  -1.8708  -1.7580
    -1.7329  -1.7139  -1.6111  -1.4907  -1.3096  -1.2878  -1.1294  -1.0725
    -0.9966  -0.9615  -0.9006  -0.8826  -0.8137  -0.8015  -0.7018  -0.6741
    -0.6633  -0.6172  -0.5720  -0.4910  -0.4569  -0.4503  -0.4195  -0.3487
    -0.3400  -0.3233  -0.2825  -0.2358   0.4716   0.4801   0.8008   0.8453
     2.9570   3.0045   4.0542   4.0712   4.1449   4.2754   6.3712   6.4534
     6.6455   6.8482   7.0807   7.6560   7.7303   7.9131   8.1022   8.2874
     8.5243   8.6881   8.8669   8.9899   8.9993   9.0574   9.2305   9.3814

          k = 0.3333 0.0234-0.1889 ( 71728 PWs)   bands (ev):

   -24.5176 -24.5172 -23.9364 -23.9358 -21.4490 -21.3908 -21.0841 -21.0604
   -20.0725 -20.0715 -19.0949 -19.0925 -18.5490 -18.4239 -18.3746 -18.1562
   -18.1326 -18.0178 -17.9239 -17.6550 -17.5150 -17.4933 -16.9407 -16.9303
   -16.5771 -16.5466 -15.4037 -15.3563 -14.1954 -14.1866 -12.3872 -12.3728
   -11.0890 -11.0523 -10.7548 -10.7499  -9.7082  -9.6623  -9.1997  -9.1844
    -8.2433  -8.2255  -7.3938  -7.3794  -7.2610  -7.2347  -7.0314  -6.9703
    -6.8957  -6.8801  -6.5612  -6.5184  -6.4996  -6.4375  -6.3824  -6.3731
    -6.3180  -6.2946  -6.2611  -6.1906  -6.0804  -6.0131  -5.9741  -5.8700
    -5.8482  -5.8048  -5.7969  -5.6281  -5.5833  -5.5650  -5.2714  -5.0094
    -4.9708  -4.9631  -3.5512  -3.2267  -2.9404  -2.7793  -2.6939  -2.3827
    -2.3433  -2.2949  -2.2543  -2.1173  -2.0525  -1.9712  -1.7970  -1.7704
    -1.7369  -1.6440  -1.5947  -1.4848  -1.3020  -1.2934  -1.1523  -1.0972
    -0.9943  -0.9800  -0.9065  -0.8990  -0.7895  -0.7726  -0.6889  -0.6758
    -0.6407  -0.6300  -0.5708  -0.5135  -0.4713  -0.4502  -0.4338  -0.3698
    -0.3445  -0.2996  -0.2636  -0.2387   0.4760   0.4790   0.7998   0.8469
     2.9619   2.9978   4.0561   4.0720   4.1449   4.2761   6.3501   6.4596
     6.6922   6.8791   7.0709   7.6551   7.7413   7.8386   8.1670   8.2295
     8.4795   8.6486   8.8908   8.9645   9.0049   9.0761   9.3546   9.4218

          k = 0.3333-0.3484-0.0528 ( 71733 PWs)   bands (ev):

   -24.5175 -24.5173 -23.9360 -23.9359 -21.4502 -21.3931 -21.0839 -21.0591
   -20.0729 -20.0721 -19.0954 -19.0930 -18.5427 -18.4236 -18.3704 -18.1622
   -18.1354 -18.0215 -17.9179 -17.6686 -17.5007 -17.4839 -16.9342 -16.9151
   -16.5774 -16.5614 -15.4212 -15.3824 -14.1955 -14.1746 -12.3737 -12.3567
   -11.0621 -11.0294 -10.8173 -10.8066  -9.7128  -9.6609  -9.0918  -9.0745
    -8.2250  -8.2086  -7.7699  -7.7591  -7.1279  -7.1151  -7.0163  -6.9709
    -6.7161  -6.7038  -6.5675  -6.4940  -6.4758  -6.4374  -6.4286  -6.2965
    -6.2891  -6.2628  -6.1845  -6.1720  -6.1669  -6.0783  -5.9827  -5.9060
    -5.8533  -5.8284  -5.8138  -5.6566  -5.5122  -5.4911  -5.2423  -5.1024
    -5.1011  -4.9790  -3.5696  -3.2237  -2.9492  -2.8043  -2.6806  -2.3525
    -2.3382  -2.1813  -2.1588  -2.0431  -2.0221  -1.9430  -1.9107  -1.8112
    -1.7790  -1.6951  -1.5689  -1.4700  -1.3068  -1.2975  -1.0899  -1.0579
    -1.0009  -0.9911  -0.9660  -0.9255  -0.8376  -0.8119  -0.7405  -0.6750
    -0.6314  -0.5996  -0.5578  -0.5200  -0.4934  -0.4329  -0.4268  -0.3723
    -0.3424  -0.3077  -0.2618  -0.2328   0.4491   0.4586   0.7542   0.8817
     2.9585   3.0013   3.9389   4.0321   4.2716   4.3683   6.4036   6.5014
     6.6221   6.8906   7.4702   7.5462   7.6706   7.7421   7.9960   8.1188
     8.4543   8.5289   8.7013   8.9899   9.1899   9.2336   9.2845   9.4258

          k = 0.3333-0.3484-0.3241 ( 71732 PWs)   bands (ev):

   -24.5175 -24.5173 -23.9360 -23.9359 -21.4503 -21.3932 -21.0838 -21.0590
   -20.0729 -20.0720 -19.0957 -19.0925 -18.5377 -18.4325 -18.3699 -18.1623
   -18.1321 -18.0298 -17.9008 -17.6821 -17.5046 -17.4759 -16.9353 -16.9162
   -16.5758 -16.5595 -15.4200 -15.3813 -14.1990 -14.1776 -12.3722 -12.3553
   -11.0604 -11.0277 -10.8170 -10.8064  -9.7104  -9.6593  -9.0910  -9.0742
    -8.2354  -8.2185  -7.7723  -7.7604  -7.1170  -7.1076  -7.0096  -6.9699
    -6.7241  -6.7134  -6.5593  -6.5330  -6.4471  -6.4282  -6.4230  -6.3537
    -6.2844  -6.2442  -6.2107  -6.1693  -6.1108  -6.1039  -5.9772  -5.9196
    -5.8569  -5.8332  -5.7840  -5.6485  -5.5120  -5.4958  -5.2432  -5.0925
    -5.0892  -4.9798  -3.5265  -3.2525  -3.0252  -2.8237  -2.6134  -2.3497
    -2.2594  -2.2042  -2.1355  -2.0953  -2.0186  -1.9925  -1.9356  -1.8392
    -1.7462  -1.6843  -1.5575  -1.4675  -1.3119  -1.2941  -1.0821  -1.0698
    -1.0271  -1.0164  -0.9551  -0.8961  -0.8729  -0.8394  -0.7372  -0.6626
    -0.6458  -0.5931  -0.5447  -0.4811  -0.4680  -0.4563  -0.4016  -0.3454
    -0.3197  -0.3122  -0.2728  -0.2548   0.4486   0.4540   0.7535   0.8842
     2.9502   3.0082   3.9371   4.0325   4.2724   4.3702   6.3900   6.5076
     6.6325   6.8965   7.4603   7.5497   7.5912   7.7230   7.9683   8.2158
     8.4073   8.6784   8.7083   8.8945   9.0997   9.2431   9.3210   9.4150

     highest occupied, lowest unoccupied level (ev):     0.9511    2.9502

!    total energy              =   -1347.74487486 Ry
     Harris-Foulkes estimate   =   -1347.74487485 Ry
     estimated scf accuracy    <          4.1E-09 Ry

     total all-electron energy =     -5014.786290 Ry

     The total energy is the sum of the following terms:

     one-electron contribution =    -739.72789798 Ry
     hartree contribution      =     466.79171205 Ry
     xc contribution           =    -264.89683739 Ry
     ewald contribution        =    -455.20438899 Ry
     Dispersion Correction     =      -0.27345443 Ry
     one-center paw contrib.   =    -354.43400812 Ry

     convergence has been achieved in  14 iterations

     Forces acting on atoms (cartesian axes, Ry/au):

     atom    1 type  4   force =    -0.00040440    0.00019104   -0.00029053
     atom    2 type  4   force =     0.00040440   -0.00019104    0.00029053
     atom    3 type  3   force =    -0.00011847    0.00010481   -0.00004608
     atom    4 type  3   force =     0.00011847   -0.00010481    0.00004608
     atom    5 type  3   force =     0.00033848   -0.00006945    0.00037705
     atom    6 type  3   force =    -0.00033848    0.00006945   -0.00037705
     atom    7 type  4   force =     0.00058045   -0.00114917   -0.00017067
     atom    8 type  4   force =    -0.00058045    0.00114917    0.00017067
     atom    9 type  3   force =    -0.00008702    0.00146367    0.00010682
     atom   10 type  3   force =     0.00008702   -0.00146367   -0.00010682
     atom   11 type  3   force =    -0.00025742   -0.00027439    0.00038868
     atom   12 type  3   force =     0.00025742    0.00027439   -0.00038868
     atom   13 type  4   force =    -0.00053411    0.00123819   -0.00070112
     atom   14 type  4   force =     0.00053411   -0.00123819    0.00070112
     atom   15 type  3   force =    -0.00003683    0.00051358    0.00078355
     atom   16 type  3   force =     0.00003683   -0.00051358   -0.00078355
     atom   17 type  3   force =     0.00003963   -0.00072395   -0.00084585
     atom   18 type  3   force =    -0.00003963    0.00072395    0.00084585
     atom   19 type  4   force =    -0.00007666   -0.00048513    0.00074077
     atom   20 type  4   force =     0.00007666    0.00048513   -0.00074077
     atom   21 type  3   force =     0.00024490   -0.00060132   -0.00027126
     atom   22 type  3   force =    -0.00024490    0.00060132    0.00027126
     atom   23 type  3   force =    -0.00036977   -0.00006556   -0.00012597
     atom   24 type  3   force =     0.00036977    0.00006556    0.00012597
     atom   25 type  3   force =     0.00106446   -0.00115983   -0.00228401
     atom   26 type  3   force =    -0.00106446    0.00115983    0.00228401
     atom   27 type  3   force =    -0.00025840    0.00054798    0.00040772
     atom   28 type  3   force =     0.00025840   -0.00054798   -0.00040772
     atom   29 type  3   force =     0.00011739   -0.00029784   -0.00062762
     atom   30 type  3   force =    -0.00011739    0.00029784    0.00062762
     atom   31 type  2   force =     0.00000050    0.00306118    0.00256207
     atom   32 type  2   force =    -0.00000050   -0.00306118   -0.00256207
     atom   33 type  4   force =     0.00055795    0.00393140    0.00022455
     atom   34 type  4   force =    -0.00055795   -0.00393140   -0.00022455
     atom   35 type  2   force =    -0.00016667    0.00082963    0.00150528
     atom   36 type  2   force =     0.00016667   -0.00082963   -0.00150528
     atom   37 type  2   force =    -0.00046050    0.00128024    0.00274775
     atom   38 type  2   force =     0.00046050   -0.00128024   -0.00274775
     atom   39 type  2   force =     0.00103002   -0.00326371   -0.00417795
     atom   40 type  2   force =    -0.00103002    0.00326371    0.00417795
     atom   41 type  2   force =    -0.00108270   -0.00016104    0.00290676
     atom   42 type  2   force =     0.00108270    0.00016104   -0.00290676
     atom   43 type  2   force =     0.00111517   -0.00205544   -0.00151159
     atom   44 type  2   force =    -0.00111517    0.00205544    0.00151159
     atom   45 type  4   force =    -0.00026313    0.00086055   -0.00014644
     atom   46 type  4   force =     0.00026313   -0.00086055    0.00014644
     atom   47 type  2   force =    -0.00156066   -0.00132184    0.00275079
     atom   48 type  2   force =     0.00156066    0.00132184   -0.00275079
     atom   49 type  1   force =    -0.00088707    0.00198725    0.00026140
     atom   50 type  1   force =     0.00088707   -0.00198725   -0.00026140
     atom   51 type  1   force =    -0.00074000    0.00196252    0.00010327
     atom   52 type  1   force =     0.00074000   -0.00196252   -0.00010327
     atom   53 type  4   force =     0.00116182   -0.00005543   -0.00046138
     atom   54 type  4   force =    -0.00116182    0.00005543    0.00046138
     atom   55 type  1   force =     0.00121754   -0.00146841   -0.00190721
     atom   56 type  1   force =    -0.00121754    0.00146841    0.00190721
     atom   57 type  2   force =     0.00043865   -0.00034577   -0.00009498
     atom   58 type  2   force =    -0.00043865    0.00034577    0.00009498
     atom   59 type  1   force =     0.00001183   -0.00082068    0.00048291
     atom   60 type  1   force =    -0.00001183    0.00082068   -0.00048291
     atom   61 type  4   force =    -0.00103880   -0.00095113    0.00088130
     atom   62 type  4   force =     0.00103880    0.00095113   -0.00088130
     atom   63 type  2   force =     0.00037873    0.00146430    0.00031139
     atom   64 type  2   force =    -0.00037873   -0.00146430   -0.00031139

     Total force =     0.017148     Total SCF correction =     0.000116


     Computing stress (Cartesian axis) and pressure

          total   stress  (Ry/bohr**3)                   (kbar)     P=   -4.62
  -0.00002268  -0.00000039   0.00000343         -3.34     -0.06      0.50
  -0.00000039  -0.00002417  -0.00000327         -0.06     -3.56     -0.48
   0.00000343  -0.00000327  -0.00004736          0.50     -0.48     -6.97


     Writing output data file scf.save
 
     init_run     :     22.75s CPU     23.57s WALL (       1 calls)
     electrons    :    576.79s CPU    600.55s WALL (       1 calls)
     forces       :     12.01s CPU     12.10s WALL (       1 calls)
     stress       :     38.87s CPU     39.01s WALL (       1 calls)

     Called by init_run:
     wfcinit      :     15.43s CPU     16.10s WALL (       1 calls)
     potinit      :      2.66s CPU      2.74s WALL (       1 calls)

     Called by electrons:
     c_bands      :    508.79s CPU    528.63s WALL (      14 calls)
     sum_band     :     60.33s CPU     63.62s WALL (      14 calls)
     v_of_rho     :      1.24s CPU      1.38s WALL (      15 calls)
     newd         :      2.46s CPU      2.86s WALL (      15 calls)
     PAW_pot      :      3.66s CPU      3.67s WALL (      15 calls)
     mix_rho      :      0.23s CPU      0.26s WALL (      14 calls)

     Called by c_bands:
     init_us_2    :      3.26s CPU      3.28s WALL (     248 calls)
     cegterg      :    496.01s CPU    515.82s WALL (     112 calls)

     Called by sum_band:
     sum_band:bec :      0.04s CPU      0.04s WALL (     112 calls)
     addusdens    :      2.42s CPU      2.80s WALL (      14 calls)

     Called by *egterg:
     h_psi        :    291.77s CPU    306.27s WALL (     561 calls)
     s_psi        :     53.57s CPU     53.58s WALL (     561 calls)
     g_psi        :      1.48s CPU      1.48s WALL (     441 calls)
     cdiaghg      :     31.93s CPU     31.92s WALL (     553 calls)

     Called by h_psi:
     h_psi:pot    :    289.95s CPU    304.40s WALL (     561 calls)
     h_psi:calbec :     52.18s CPU     52.35s WALL (     561 calls)
     vloc_psi     :    184.26s CPU    198.53s WALL (     561 calls)
     add_vuspsi   :     53.51s CPU     53.52s WALL (     561 calls)

     General routines
     calbec       :     79.74s CPU     79.97s WALL (     713 calls)
     fft          :      1.19s CPU      1.43s WALL (     219 calls)
     fftw         :    200.99s CPU    216.91s WALL (  101540 calls)
 
     Parallel routines
     fft_scatter  :     51.27s CPU     62.46s WALL (  101759 calls)
 
     PWSCF        : 10m56.57s CPU    11m56.65s WALL

 
   This run was terminated on:   4:42:54   4Nov2017            

=------------------------------------------------------------------------------=
   JOB DONE.
=------------------------------------------------------------------------------=
