
     Program PWSCF v.6.1 (svn rev. 13369) starts on  4Nov2017 at  5:34:28 

     This program is part of the open-source Quantum ESPRESSO suite
     for quantum simulation of materials; please cite
         "P. Giannozzi et al., J. Phys.:Condens. Matter 21 395502 (2009);
          URL http://www.quantum-espresso.org", 
     in publications or presentations arising from this work. More details at
     http://www.quantum-espresso.org/quote

     Parallel version (MPI), running on     8 processors
     R & G space division:  proc/nbgrp/npool/nimage =       8
     Waiting for input...
     Reading input from standard input

     Current dimensions of program PWSCF are:
     Max number of different atomic species (ntypx) = 10
     Max number of k-points (npk) =  40000
     Max angular momentum in pseudopotentials (lmaxx) =  3
               file C.pbe-n-kjpaw_psl.0.1.UPF: wavefunction(s)  2P renormalized
               file N.pbe-n-kjpaw_psl.0.1.UPF: wavefunction(s)  2P renormalized
               file H.pbe-kjpaw_psl.0.1.UPF: wavefunction(s)  1S renormalized
               file O.pbe-n-kjpaw_psl.0.1.UPF: wavefunction(s)  2P renormalized

     -------------------------------------
     Parameters for Dispersion Correction:
     -------------------------------------
       atom      VdW radius       C_6     

        C          2.744         60.710
        N          2.640         42.670
        H          1.892          4.857
        O          2.536         24.284

     Subspace diagonalization in iterative solution of the eigenvalue problem:
     a serial algorithm will be used

 
     Parallelization info
     --------------------
     sticks:   dense  smooth     PW     G-vecs:    dense   smooth      PW
     Min        1276    1276    333               166070   166070   22167
     Max        1277    1277    334               166076   166076   22172
     Sum       10213   10213   2671              1328585  1328585  177365
 


     bravais-lattice index     =            0
     lattice parameter (alat)  =      14.2126  a.u.
     unit-cell volume          =    9834.0761 (a.u.)^3
     number of atoms/cell      =          168
     number of atomic types    =            4
     number of electrons       =       472.00
     number of Kohn-Sham states=          283
     kinetic-energy cutoff     =     100.0000  Ry
     charge density cutoff     =     400.0000  Ry
     convergence threshold     =      1.0E-08
     mixing beta               =       0.5000
     number of iterations used =            8  plain     mixing
     Exchange-correlation      =  SLA  PW   PBX  PBC ( 1  4  3  4 0 0)

     celldm(1)=  14.212630  celldm(2)=   0.000000  celldm(3)=   0.000000
     celldm(4)=   0.000000  celldm(5)=   0.000000  celldm(6)=   0.000000

     crystal axes: (cart. coord. in units of alat)
               a(1) = (   1.000000   0.000000   0.000000 )  
               a(2) = (   0.000000   1.589815   0.000000 )  
               a(3) = (  -0.105377   0.000000   2.154585 )  

     reciprocal axes: (cart. coord. in units 2 pi/alat)
               b(1) = (  1.000000  0.000000  0.048908 )  
               b(2) = (  0.000000  0.629004  0.000000 )  
               b(3) = (  0.000000  0.000000  0.464127 )  


     PseudoPot. # 1 for  C read from file:
     /scratch/ahofstet/pseudo/C.pbe-n-kjpaw_psl.0.1.UPF
     MD5 check sum: 430fe95172b1e11ef3f8ed03bac87931
     Pseudo is Projector augmented-wave + core cor, Zval =  4.0
     Generated using "atomic" code by A. Dal Corso  v.5.0.99 svn rev. 10869
     Shape of augmentation charge: BESSEL
     Using radial grid of 1073 points,  4 beta functions with: 
                l(1) =   0
                l(2) =   0
                l(3) =   1
                l(4) =   1
     Q(r) pseudized with 0 coefficients 


     PseudoPot. # 2 for  N read from file:
     /scratch/ahofstet/pseudo/N.pbe-n-kjpaw_psl.0.1.UPF
     MD5 check sum: f73187c8b701007e77325f868c9291d7
     Pseudo is Projector augmented-wave + core cor, Zval =  5.0
     Generated using "atomic" code by A. Dal Corso  v.5.0.99 svn rev. 10869
     Shape of augmentation charge: PSQ
     Using radial grid of 1085 points,  4 beta functions with: 
                l(1) =   0
                l(2) =   0
                l(3) =   1
                l(4) =   1
     Q(r) pseudized with 0 coefficients 


     PseudoPot. # 3 for  H read from file:
     /scratch/ahofstet/pseudo/H.pbe-kjpaw_psl.0.1.UPF
     MD5 check sum: 94e484f906d9e9773b2f6e52662335b2
     Pseudo is Projector augmented-wave, Zval =  1.0
     Generated using "atomic" code by A. Dal Corso  v.5.0.99 svn rev. 10869
     Shape of augmentation charge: PSQ
     Using radial grid of  929 points,  2 beta functions with: 
                l(1) =   0
                l(2) =   0
     Q(r) pseudized with 0 coefficients 


     PseudoPot. # 4 for  O read from file:
     /scratch/ahofstet/pseudo/O.pbe-n-kjpaw_psl.0.1.UPF
     MD5 check sum: 3f94a2996a3169367d6eb21d9b593f20
     Pseudo is Projector augmented-wave + core cor, Zval =  6.0
     Generated using "atomic" code by A. Dal Corso  v.5.0.99 svn rev. 10869
     Shape of augmentation charge: BESSEL
     Using radial grid of 1095 points,  4 beta functions with: 
                l(1) =   0
                l(2) =   0
                l(3) =   1
                l(4) =   1
     Q(r) pseudized with 0 coefficients 


     atomic species   valence    mass     pseudopotential
        C              4.00    12.01070      C( 1.00)
        N              5.00    14.00670      N( 1.00)
        H              1.00     1.00794      H( 1.00)
        O              6.00    15.99940      O( 1.00)

      4 Sym. Ops., with inversion, found ( 2 have fractional translation)



   Cartesian axes

     site n.     atom                  positions (alat units)
         1           O   tau(   1) = (   0.5643128   0.0627901   0.7235377  )
         2           O   tau(   2) = (   0.5116245   0.7321175   1.8008300  )
         3           O   tau(   3) = (   0.3303104   1.5270251   1.4310469  )
         4           O   tau(   4) = (   0.3829988   0.8576976   0.3537546  )
         5           O   tau(   5) = (   0.8408767   0.9609452   1.4283807  )
         6           O   tau(   6) = (   0.8935651   1.4237776   0.3510884  )
         7           O   tau(   7) = (   0.0537465   0.6288700   0.7262039  )
         8           O   tau(   8) = (   0.0010581   0.1660376   1.8034962  )
         9           O   tau(   9) = (   0.3308240   1.4974293   0.1743524  )
        10           O   tau(  10) = (   0.2781356   0.8872935   1.2516447  )
        11           O   tau(  11) = (   0.5637992   0.0923859   1.9802322  )
        12           O   tau(  12) = (   0.6164876   0.7025217   0.9029399  )
        13           O   tau(  13) = (   0.1084254   1.1155365   1.9605812  )
        14           O   tau(  14) = (   0.1611138   1.2691863   0.8832889  )
        15           O   tau(  15) = (   0.7861978   0.4742787   0.1940034  )
        16           O   tau(  16) = (   0.7335094   0.3206289   1.2712957  )
        17           O   tau(  17) = (   0.6682340   0.3380539   0.9083715  )
        18           O   tau(  18) = (   0.6155457   0.4568537   1.9856638  )
        19           O   tau(  19) = (   0.2263892   1.2517613   1.2462131  )
        20           O   tau(  20) = (   0.2790776   1.1329615   0.1689208  )
        21           O   tau(  21) = (   0.8051134   0.6832218   1.2244353  )
        22           O   tau(  22) = (   0.8578018   0.1116858   0.1471430  )
        23           O   tau(  23) = (   0.0895098   0.9065934   0.9301493  )
        24           O   tau(  24) = (   0.0368214   1.4781294   2.0074416  )
        25           N   tau(  25) = (   0.4972916   0.1102115   0.5607155  )
        26           N   tau(  26) = (   0.4446032   0.6846961   1.6380078  )
        27           N   tau(  27) = (   0.3973316   1.4796037   1.5938691  )
        28           N   tau(  28) = (   0.4500200   0.9051191   0.5165768  )
        29           N   tau(  29) = (  -0.0799054   0.9150497   1.5845096  )
        30           N   tau(  30) = (  -0.0272170   1.4696731   0.5072173  )
        31           N   tau(  31) = (   0.9745286   0.6747655   0.5700750  )
        32           N   tau(  32) = (   0.9218402   0.1201421   1.6473673  )
        33           N   tau(  33) = (   0.3714677   0.2002929   0.2403692  )
        34           N   tau(  34) = (   0.3187793   0.5946147   1.3176615  )
        35           N   tau(  35) = (   0.5231556   1.3895223   1.9142154  )
        36           N   tau(  36) = (   0.5758440   0.9952005   0.8369231  )
        37           N   tau(  37) = (   0.0420999   0.8251129   1.9043394  )
        38           N   tau(  38) = (   0.0947883   1.5596099   0.8270471  )
        39           N   tau(  39) = (   0.8525233   0.7647023   0.2502452  )
        40           N   tau(  40) = (   0.7998349   0.0302053   1.3275375  )
        41           C   tau(  41) = (   0.4767922   1.3748500   0.5011091  )
        42           C   tau(  42) = (   0.4241038   1.0098728   1.5784014  )
        43           C   tau(  43) = (   0.4178310   0.2149652   1.6534755  )
        44           C   tau(  44) = (   0.4705194   0.5799424   0.5761832  )
        45           C   tau(  45) = (  -0.0600528   1.2409970   1.6441112  )
        46           C   tau(  46) = (  -0.0073644   1.1437258   0.5668189  )
        47           C   tau(  47) = (   0.9546760   0.3488182   0.5104734  )
        48           C   tau(  48) = (   0.9019877   0.4460894   1.5877657  )
        49           C   tau(  49) = (   0.4553018   1.5677095   0.4588840  )
        50           C   tau(  50) = (   0.4026134   0.8170132   1.5361763  )
        51           C   tau(  51) = (   0.4393215   0.0221057   1.6957006  )
        52           C   tau(  52) = (   0.4920098   0.7728019   0.6184083  )
        53           C   tau(  53) = (  -0.0371902   1.0479161   1.6857902  )
        54           C   tau(  54) = (   0.0154982   1.3368067   0.6084979  )
        55           C   tau(  55) = (   0.9318135   0.5418991   0.4687944  )
        56           C   tau(  56) = (   0.8791251   0.2530085   1.5460867  )
        57           C   tau(  57) = (   0.3811509   0.0267524   0.2802385  )
        58           C   tau(  58) = (   0.3284625   0.7681552   1.3575308  )
        59           C   tau(  59) = (   0.5134723   1.5630628   1.8743461  )
        60           C   tau(  60) = (   0.5661607   0.8216600   0.7970538  )
        61           C   tau(  61) = (   0.0437757   0.9979762   1.8603779  )
        62           C   tau(  62) = (   0.0964641   1.3867465   0.7830856  )
        63           C   tau(  63) = (   0.8508475   0.5918389   0.2942067  )
        64           C   tau(  64) = (   0.7981591   0.2030687   1.3714990  )
        65           C   tau(  65) = (   0.2965280   0.2693681   0.0753371  )
        66           C   tau(  66) = (   0.2438396   0.5255395   1.1526294  )
        67           C   tau(  67) = (   0.5980953   1.3204471   2.0792475  )
        68           C   tau(  68) = (   0.6507836   1.0642757   1.0019552  )
        69           C   tau(  69) = (   0.1282842   0.7530568   2.0620614  )
        70           C   tau(  70) = (   0.1809726   0.0418508   0.9847691  )
        71           C   tau(  71) = (   0.7663390   0.8367584   0.0925232  )
        72           C   tau(  72) = (   0.7136506   1.5479644   1.1698155  )
        73           C   tau(  73) = (   0.3066100   0.4718332   0.0743667  )
        74           C   tau(  74) = (   0.2539217   0.3230744   1.1516590  )
        75           C   tau(  75) = (   0.5880132   1.1179820   2.0802179  )
        76           C   tau(  76) = (   0.6407016   1.2667408   1.0029256  )
        77           C   tau(  77) = (   0.1154661   0.5508711   2.0630267  )
        78           C   tau(  78) = (   0.1681545   0.2440365   0.9857344  )
        79           C   tau(  79) = (   0.7791572   1.0389441   0.0915579  )
        80           C   tau(  80) = (   0.7264688   1.3457786   1.1688502  )
        81           H   tau(  81) = (   0.6879369   0.3193837   1.0369088  )
        82           H   tau(  82) = (   0.6352485   0.4755239   2.1142011  )
        83           H   tau(  83) = (   0.2066864   1.2704314   1.1176758  )
        84           H   tau(  84) = (   0.2593748   1.1142913   0.0403835  )
        85           H   tau(  85) = (   0.7415603   0.7061966   1.1117353  )
        86           H   tau(  86) = (   0.7942487   0.0887110   0.0344430  )
        87           H   tau(  87) = (   0.1530629   0.8836186   1.0428493  )
        88           H   tau(  88) = (   0.1003745   1.5011042   2.1201416  )
        89           H   tau(  89) = (   0.6437276   0.4663205   0.8930714  )
        90           H   tau(  90) = (   0.5910392   0.3285871   1.9703637  )
        91           H   tau(  91) = (   0.2508956   1.1234947   1.2615132  )
        92           H   tau(  92) = (   0.3035840   1.2612281   0.1842209  )
        93           H   tau(  93) = (   0.7741144   0.5608486   1.2596729  )
        94           H   tau(  94) = (   0.8268027   0.2340590   0.1823806  )
        95           H   tau(  95) = (   0.1205089   1.0289666   0.8949117  )
        96           H   tau(  96) = (   0.0678205   1.3557562   1.9722040  )
        97           H   tau(  97) = (   0.5951305   0.1787553   0.7851219  )
        98           H   tau(  98) = (   0.5424421   0.6161523   1.8624142  )
        99           H   tau(  99) = (   0.2994927   1.4110599   1.3694627  )
       100           H   tau( 100) = (   0.3521811   0.9736629   0.2921704  )
       101           H   tau( 101) = (   0.8268858   0.8452100   1.3593134  )
       102           H   tau( 102) = (   0.8795742   1.5395128   0.2820211  )
       103           H   tau( 103) = (   0.0677375   0.7446052   0.7952712  )
       104           H   tau( 104) = (   0.0150491   0.0503024   1.8725635  )
       105           H   tau( 105) = (   0.5122617   1.3589336   0.6414280  )
       106           H   tau( 106) = (   0.4595733   1.0257892   1.7187203  )
       107           H   tau( 107) = (   0.3823615   0.2308816   1.5131566  )
       108           H   tau( 108) = (   0.4350499   0.5640260   0.4358643  )
       109           H   tau( 109) = (   0.8971355   1.2558573   1.5057724  )
       110           H   tau( 110) = (   0.9498238   1.1288655   0.4284801  )
       111           H   tau( 111) = (  -0.0025122   0.3339579   0.6488122  )
       112           H   tau( 112) = (  -0.0552006   0.4609497   1.7261045  )
       113           H   tau( 113) = (   0.5840420   1.3186092   0.4187168  )
       114           H   tau( 114) = (   0.5313536   1.0661136   1.4960091  )
       115           H   tau( 115) = (   0.3105812   0.2712060   1.7358678  )
       116           H   tau( 116) = (   0.3632696   0.5237016   0.6585755  )
       117           H   tau( 117) = (   0.8414942   1.3033484   1.7327198  )
       118           H   tau( 118) = (   0.8941826   1.0813744   0.6554275  )
       119           H   tau( 119) = (   0.0531290   0.2864668   0.4218648  )
       120           H   tau( 120) = (   0.0004407   0.5084408   1.4991571  )
       121           H   tau( 121) = (   0.3545778   1.3010859   0.4716612  )
       122           H   tau( 122) = (   0.3018894   1.0836369   1.5489535  )
       123           H   tau( 123) = (   0.5400455   0.2887293   1.6829234  )
       124           H   tau( 124) = (   0.5927338   0.5061783   0.6056311  )
       125           H   tau( 125) = (   0.0657506   1.3127432   1.6637782  )
       126           H   tau( 126) = (   0.1184389   1.0719796   0.5864859  )
       127           H   tau( 127) = (   0.8288727   0.2770720   0.4908064  )
       128           H   tau( 128) = (   0.7761843   0.5178356   1.5680987  )
       129           H   tau( 129) = (   0.4208019   0.2858476   0.3332289  )
       130           H   tau( 130) = (   0.3681135   0.5090600   1.4105212  )
       131           H   tau( 131) = (   0.4738214   1.3039676   1.8213557  )
       132           H   tau( 132) = (   0.5265098   1.0807552   0.7440634  )
       133           H   tau( 133) = (  -0.0093911   0.7409613   1.8112426  )
       134           H   tau( 134) = (   0.0432973   0.0539463   0.7339503  )
       135           H   tau( 135) = (   0.9040143   0.8488539   0.3433420  )
       136           H   tau( 136) = (   0.8513259   1.5358689   1.4206343  )
       137           H   tau( 137) = (   0.2656558   0.2143930   2.1163474  )
       138           H   tau( 138) = (   0.3183442   0.5805146   1.0390551  )
       139           H   tau( 139) = (   0.6289674   1.3754222   0.0382372  )
       140           H   tau( 140) = (   0.5762791   1.0093006   1.1155295  )
       141           H   tau( 141) = (   0.1708627   0.8084400   0.0278228  )
       142           H   tau( 142) = (   0.1181743  -0.0135324   1.1051151  )
       143           H   tau( 143) = (   0.7237606   0.7813752   2.1267618  )
       144           H   tau( 144) = (   0.7764489   1.6033476   1.0494695  )
       145           H   tau( 145) = (   0.1574865   0.2241176   0.0635103  )
       146           H   tau( 146) = (   0.1047982   0.5707900   1.1408026  )
       147           H   tau( 147) = (   0.7371367   1.3656976   2.0910743  )
       148           H   tau( 148) = (   0.7898251   1.0190252   1.0137820  )
       149           H   tau( 149) = (   0.2686504   0.7951932   2.0627692  )
       150           H   tau( 150) = (   0.3213388  -0.0002856   0.9854769  )
       151           H   tau( 151) = (   0.6259729   0.7946220   0.0918154  )
       152           H   tau( 152) = (   0.5732845   1.5901008   1.1691077  )
       153           H   tau( 153) = (   0.4471684   0.5128553   0.0815959  )
       154           H   tau( 154) = (   0.3944800   0.2820523   1.1588882  )
       155           H   tau( 155) = (   0.4474549   1.0769599   2.0729887  )
       156           H   tau( 156) = (   0.5001433   1.3077629   0.9956964  )
       157           H   tau( 157) = (  -0.0252054   0.5103087   2.0552710  )
       158           H   tau( 158) = (   0.0274830   0.2845989   0.9779787  )
       159           H   tau( 159) = (   0.9198286   1.0795065   0.0993136  )
       160           H   tau( 160) = (   0.8671402   1.3052162   1.1766059  )
       161           H   tau( 161) = (   0.1823566   0.4982095   1.9436998  )
       162           H   tau( 162) = (   0.2350450   0.2966981   0.8664075  )
       163           H   tau( 163) = (   0.7122666   1.0916056   0.2108848  )
       164           H   tau( 164) = (   0.6595782   1.2931171   1.2881771  )
       165           H   tau( 165) = (   0.2397610   0.5251776   0.1936013  )
       166           H   tau( 166) = (   0.1870726   0.2697300   1.2708936  )
       167           H   tau( 167) = (   0.6548622   1.0646376   1.9609833  )
       168           H   tau( 168) = (   0.7075506   1.3200852   0.8836910  )

     number of k points=     8
                       cart. coord. in units 2pi/alat
        k(    1) = (   0.0000000   0.0000000   0.0000000), wk =   0.1666667
        k(    2) = (   0.0000000   0.0000000  -0.2320633), wk =   0.1666667
        k(    3) = (   0.0000000  -0.3145020   0.0000000), wk =   0.1666667
        k(    4) = (   0.0000000  -0.3145020  -0.2320633), wk =   0.1666667
        k(    5) = (   0.3333333   0.0000000   0.0163027), wk =   0.3333333
        k(    6) = (   0.3333333   0.0000000  -0.2157606), wk =   0.3333333
        k(    7) = (   0.3333333  -0.3145020   0.0163027), wk =   0.3333333
        k(    8) = (   0.3333333  -0.3145020  -0.2157606), wk =   0.3333333

     Dense  grid:  1328585 G-vectors     FFT dimensions: (  96, 144, 200)

     Estimated max dynamical RAM per process >    1922.79MB

     Estimated total allocated dynamical RAM >   15382.32MB

     Check: negative/imaginary core charge=   -0.000002    0.000000

     Initial potential from superposition of free atoms

     starting charge  471.99734, renormalised to  472.00000
     Starting wfc are  408 randomized atomic wfcs
     Checking if some PAW data can be deallocated... 

     total cpu time spent up to now is      113.1 secs

     per-process dynamical memory:  1252.5 Mb

     Self-consistent Calculation

     iteration #  1     ecut=   100.00 Ry     beta=0.50
     Davidson diagonalization with overlap
     ethr =  1.00E-02,  avg # of iterations =  3.4

     total cpu time spent up to now is      443.1 secs

     total energy              =   -2290.58141702 Ry
     Harris-Foulkes estimate   =   -2299.34827160 Ry
     estimated scf accuracy    <      16.52376675 Ry

     iteration #  2     ecut=   100.00 Ry     beta=0.50
     Davidson diagonalization with overlap
     ethr =  3.50E-03,  avg # of iterations =  3.0

     total cpu time spent up to now is      649.3 secs

     total energy              =   -2292.96236196 Ry
     Harris-Foulkes estimate   =   -2293.71457211 Ry
     estimated scf accuracy    <       1.73462765 Ry

     iteration #  3     ecut=   100.00 Ry     beta=0.50
     Davidson diagonalization with overlap
     ethr =  3.68E-04,  avg # of iterations =  7.9

     total cpu time spent up to now is     1021.1 secs

     total energy              =   -2293.72136574 Ry
     Harris-Foulkes estimate   =   -2294.03125347 Ry
     estimated scf accuracy    <       0.79352473 Ry

     iteration #  4     ecut=   100.00 Ry     beta=0.50
     Davidson diagonalization with overlap
     ethr =  1.68E-04,  avg # of iterations =  2.0

     total cpu time spent up to now is     1192.5 secs

     total energy              =   -2293.70481640 Ry
     Harris-Foulkes estimate   =   -2293.79399454 Ry
     estimated scf accuracy    <       0.18660228 Ry

     iteration #  5     ecut=   100.00 Ry     beta=0.50
     Davidson diagonalization with overlap
     ethr =  3.95E-05,  avg # of iterations =  7.2

     total cpu time spent up to now is     1567.7 secs

     total energy              =   -2293.81028635 Ry
     Harris-Foulkes estimate   =   -2293.87989700 Ry
     estimated scf accuracy    <       0.21646805 Ry

     iteration #  6     ecut=   100.00 Ry     beta=0.50
     Davidson diagonalization with overlap
     ethr =  3.95E-05,  avg # of iterations =  1.0

     total cpu time spent up to now is     1731.3 secs

     total energy              =   -2293.78409160 Ry
     Harris-Foulkes estimate   =   -2293.82022552 Ry
     estimated scf accuracy    <       0.08717145 Ry

     iteration #  7     ecut=   100.00 Ry     beta=0.50
     Davidson diagonalization with overlap
     ethr =  1.85E-05,  avg # of iterations =  4.0

     total cpu time spent up to now is     1980.3 secs

     total energy              =   -2293.81316034 Ry
     Harris-Foulkes estimate   =   -2293.81375011 Ry
     estimated scf accuracy    <       0.00310073 Ry

     iteration #  8     ecut=   100.00 Ry     beta=0.50
     Davidson diagonalization with overlap
     ethr =  6.57E-07,  avg # of iterations =  8.1

     total cpu time spent up to now is     2294.2 secs

     total energy              =   -2293.81249738 Ry
     Harris-Foulkes estimate   =   -2293.81433149 Ry
     estimated scf accuracy    <       0.00310971 Ry

     iteration #  9     ecut=   100.00 Ry     beta=0.50
     Davidson diagonalization with overlap
     ethr =  6.57E-07,  avg # of iterations =  5.0

     total cpu time spent up to now is     2496.3 secs

     total energy              =   -2293.81319892 Ry
     Harris-Foulkes estimate   =   -2293.81321905 Ry
     estimated scf accuracy    <       0.00010717 Ry

     iteration # 10     ecut=   100.00 Ry     beta=0.50
     Davidson diagonalization with overlap
     ethr =  2.27E-08,  avg # of iterations =  4.0

     total cpu time spent up to now is     2860.6 secs

     total energy              =   -2293.81337704 Ry
     Harris-Foulkes estimate   =   -2293.81354008 Ry
     estimated scf accuracy    <       0.00037336 Ry

     iteration # 11     ecut=   100.00 Ry     beta=0.50
     Davidson diagonalization with overlap
     ethr =  2.27E-08,  avg # of iterations =  4.0

     total cpu time spent up to now is     3115.3 secs

     total energy              =   -2293.81341993 Ry
     Harris-Foulkes estimate   =   -2293.81342583 Ry
     estimated scf accuracy    <       0.00001539 Ry

     iteration # 12     ecut=   100.00 Ry     beta=0.50
     Davidson diagonalization with overlap
     ethr =  3.26E-09,  avg # of iterations =  2.4

     total cpu time spent up to now is     3299.7 secs

     total energy              =   -2293.81342136 Ry
     Harris-Foulkes estimate   =   -2293.81342202 Ry
     estimated scf accuracy    <       0.00000255 Ry

     iteration # 13     ecut=   100.00 Ry     beta=0.50
     Davidson diagonalization with overlap
     ethr =  5.40E-10,  avg # of iterations =  4.0

     total cpu time spent up to now is     3609.6 secs

     total energy              =   -2293.81342312 Ry
     Harris-Foulkes estimate   =   -2293.81342325 Ry
     estimated scf accuracy    <       0.00000027 Ry

     iteration # 14     ecut=   100.00 Ry     beta=0.50
     Davidson diagonalization with overlap
     ethr =  5.72E-11,  avg # of iterations =  3.6

     total cpu time spent up to now is     3803.2 secs

     total energy              =   -2293.81342316 Ry
     Harris-Foulkes estimate   =   -2293.81342317 Ry
     estimated scf accuracy    <       0.00000003 Ry

     iteration # 15     ecut=   100.00 Ry     beta=0.50
     Davidson diagonalization with overlap
     ethr =  6.54E-12,  avg # of iterations =  4.0

     total cpu time spent up to now is     4135.8 secs

     total energy              =   -2293.81342318 Ry
     Harris-Foulkes estimate   =   -2293.81342320 Ry
     estimated scf accuracy    <       0.00000004 Ry

     iteration # 16     ecut=   100.00 Ry     beta=0.50
     Davidson diagonalization with overlap
     ethr =  6.54E-12,  avg # of iterations =  2.1

     total cpu time spent up to now is     4306.8 secs

     End of self-consistent calculation

          k = 0.0000 0.0000 0.0000 (166111 PWs)   bands (ev):

   -21.2123 -21.2110 -21.2091 -21.2082 -21.1198 -21.1198 -21.1175 -21.1175
   -20.2574 -20.2526 -20.2491 -20.2466 -20.1279 -20.1241 -20.1133 -20.1078
   -18.7092 -18.7045 -18.6915 -18.6839 -18.6676 -18.6663 -18.6580 -18.6566
   -17.3725 -17.3649 -17.3554 -17.3471 -17.2272 -17.2209 -17.2193 -17.2126
   -15.4531 -15.4490 -15.4395 -15.4369 -15.4288 -15.4227 -15.4147 -15.4131
   -13.8471 -13.8328 -13.8217 -13.8187 -12.3505 -12.3153 -12.3152 -12.3014
   -11.9724 -11.9710 -11.9299 -11.9232 -11.8813 -11.8800 -11.8586 -11.8507
   -10.7329 -10.7239 -10.7171 -10.7140  -9.5653  -9.5577  -9.5423  -9.5384
    -9.1301  -9.1233  -8.9672  -8.9387  -8.9158  -8.9068  -8.8696  -8.8413
    -8.4629  -8.4596  -8.2730  -8.2650  -7.9401  -7.9038  -7.8115  -7.7920
    -7.1057  -7.1050  -7.0632  -7.0595  -6.9503  -6.9495  -6.9285  -6.9114
    -6.7948  -6.7546  -6.6233  -6.5828  -6.5362  -6.5202  -6.5006  -6.4528
    -6.4093  -6.3346  -6.3127  -6.2837  -6.1223  -6.0958  -6.0847  -6.0816
    -6.0312  -5.9815  -5.9671  -5.9264  -5.9181  -5.8634  -5.7575  -5.7076
    -5.7021  -5.6910  -5.6284  -5.5989  -5.5693  -5.4841  -5.4631  -5.4402
    -5.1951  -5.1423  -5.0499  -5.0400  -4.9718  -4.8985  -4.8857  -4.8256
    -4.7310  -4.6849  -4.5551  -4.5178  -4.4924  -4.4607  -4.4423  -4.4419
    -4.2482  -4.2418  -4.2377  -4.2319  -4.2169  -4.1835  -4.1188  -4.0863
    -4.0145  -3.9911  -3.9546  -3.9361  -3.5793  -3.5584  -3.5514  -3.5418
    -3.5362  -3.5080  -3.4977  -3.4662  -3.4294  -3.4260  -3.4149  -3.4063
    -3.4010  -3.3884  -3.3682  -3.2978  -3.2859  -3.2746  -3.2439  -3.2230
    -3.2074  -3.1845  -3.0579  -3.0219  -2.9968  -2.9948  -2.8671  -2.8417
    -2.8241  -2.8117  -2.7500  -2.7441  -2.7438  -2.7295  -2.7198  -2.6906
    -2.6455  -2.6408  -2.5444  -2.4970  -2.3837  -2.2489  -2.2447  -2.1673
    -1.9329  -1.9217  -1.9204  -1.9066  -1.2363  -1.1749  -1.1382  -1.1013
    -1.0933  -1.0671  -1.0470  -0.9843  -0.8517  -0.7484  -0.7400  -0.7014
    -0.6484  -0.6461  -0.6415  -0.6369  -0.6050  -0.5811  -0.5654  -0.5642
    -0.4894  -0.4199  -0.3827  -0.3764  -0.3540  -0.3264  -0.2916  -0.2256
    -0.1205  -0.1193  -0.0764  -0.0619   0.1092   0.1176   0.1206   0.1235
     0.2080   0.2547   0.2598   0.2885   3.6914   3.7251   3.7371   3.7681
     3.8094   3.8130   3.9637   3.9717   5.6210   5.9657   6.2553   6.3259
     6.3611   6.4731   6.4941   6.5405   6.5579   6.5998   6.6284   6.6414
     6.7740   6.8080   6.8644   6.8897   7.0007   7.1634   7.2224   7.3086
     7.3175   7.3860   7.5719   7.6147   7.6556   7.7311   7.7801   7.9231
     7.9317   8.0072   8.0155   8.0560   8.0800   8.1615   8.2647   8.2806
     8.2843   8.3388   8.4683

          k = 0.0000 0.0000-0.2321 (166162 PWs)   bands (ev):

   -21.2116 -21.2116 -21.2086 -21.2086 -21.1198 -21.1198 -21.1175 -21.1175
   -20.2547 -20.2547 -20.2480 -20.2480 -20.1267 -20.1267 -20.1100 -20.1100
   -18.7009 -18.7009 -18.6946 -18.6946 -18.6668 -18.6668 -18.6565 -18.6565
   -17.3694 -17.3694 -17.3504 -17.3504 -17.2256 -17.2256 -17.2145 -17.2145
   -15.4465 -15.4465 -15.4449 -15.4449 -15.4210 -15.4210 -15.4165 -15.4165
   -13.8400 -13.8400 -13.8202 -13.8202 -12.3333 -12.3333 -12.3085 -12.3085
   -11.9718 -11.9718 -11.9266 -11.9266 -11.8805 -11.8805 -11.8544 -11.8544
   -10.7238 -10.7238 -10.7185 -10.7185  -9.5665  -9.5665  -9.5519  -9.5519
    -9.0416  -9.0416  -9.0076  -9.0076  -8.9213  -8.9213  -8.8706  -8.8706
    -8.3704  -8.3704  -8.3680  -8.3680  -7.8724  -7.8724  -7.8434  -7.8434
    -7.1032  -7.1032  -7.0817  -7.0817  -6.9271  -6.9271  -6.8788  -6.8788
    -6.7029  -6.7029  -6.6872  -6.6872  -6.5267  -6.5267  -6.4952  -6.4952
    -6.3756  -6.3756  -6.2813  -6.2813  -6.2309  -6.2309  -6.0435  -6.0435
    -5.9810  -5.9810  -5.9326  -5.9326  -5.8162  -5.8162  -5.7935  -5.7935
    -5.6584  -5.6584  -5.6312  -5.6312  -5.5474  -5.5474  -5.4437  -5.4437
    -5.2103  -5.2103  -4.9881  -4.9881  -4.9450  -4.9450  -4.8654  -4.8654
    -4.6708  -4.6708  -4.5808  -4.5808  -4.4618  -4.4618  -4.4432  -4.4432
    -4.2647  -4.2647  -4.2562  -4.2562  -4.1730  -4.1730  -4.0936  -4.0936
    -3.9680  -3.9680  -3.9619  -3.9619  -3.5737  -3.5737  -3.5557  -3.5557
    -3.5197  -3.5197  -3.4810  -3.4810  -3.4408  -3.4408  -3.3980  -3.3980
    -3.3749  -3.3749  -3.3212  -3.3212  -3.2906  -3.2906  -3.2093  -3.2093
    -3.1820  -3.1820  -3.1684  -3.1684  -2.9486  -2.9486  -2.9127  -2.9127
    -2.7700  -2.7700  -2.7406  -2.7406  -2.7208  -2.7208  -2.6995  -2.6995
    -2.5926  -2.5926  -2.5648  -2.5648  -2.3193  -2.3193  -2.2120  -2.2120
    -1.9272  -1.9272  -1.9138  -1.9138  -1.2037  -1.2037  -1.1251  -1.1251
    -1.0597  -1.0597  -1.0214  -1.0214  -0.7787  -0.7787  -0.7500  -0.7500
    -0.6674  -0.6674  -0.6267  -0.6267  -0.5892  -0.5892  -0.5718  -0.5718
    -0.4599  -0.4599  -0.3633  -0.3633  -0.3485  -0.3485  -0.2519  -0.2519
    -0.1185  -0.1185  -0.0696  -0.0696   0.1035   0.1035   0.1428   0.1428
     0.2261   0.2261   0.2701   0.2701   3.7153   3.7153   3.7478   3.7478
     3.8078   3.8078   3.9690   3.9690   5.7401   5.7401   6.3746   6.3746
     6.4204   6.4204   6.5054   6.5054   6.5355   6.5355   6.7075   6.7075
     6.7587   6.7587   6.9172   6.9172   7.0507   7.0507   7.1986   7.1986
     7.4180   7.4180   7.5698   7.5698   7.6844   7.6844   7.8028   7.8028
     7.9828   7.9828   8.0304   8.0304   8.1191   8.1191   8.2339   8.2339
     8.3776   8.3776   8.4695

          k = 0.0000-0.3145 0.0000 (166036 PWs)   bands (ev):

   -21.2107 -21.2107 -21.2096 -21.2096 -21.1186 -21.1186 -21.1186 -21.1186
   -20.2522 -20.2522 -20.2505 -20.2505 -20.1261 -20.1261 -20.1107 -20.1107
   -18.7010 -18.7010 -18.6943 -18.6943 -18.6666 -18.6666 -18.6565 -18.6565
   -17.3704 -17.3704 -17.3543 -17.3543 -17.2229 -17.2229 -17.2123 -17.2123
   -15.4508 -15.4508 -15.4380 -15.4380 -15.4262 -15.4262 -15.4139 -15.4139
   -13.8395 -13.8395 -13.8244 -13.8244 -12.3226 -12.3226 -12.3058 -12.3058
   -11.9517 -11.9517 -11.9478 -11.9478 -11.8699 -11.8699 -11.8651 -11.8651
   -10.7379 -10.7379 -10.7315 -10.7315  -9.5417  -9.5417  -9.5403  -9.5403
    -9.0366  -9.0366  -9.0159  -9.0159  -8.9269  -8.9269  -8.8904  -8.8904
    -8.3764  -8.3764  -8.3674  -8.3674  -7.8065  -7.8065  -7.7859  -7.7859
    -7.2424  -7.2424  -7.2154  -7.2154  -6.8921  -6.8921  -6.8745  -6.8745
    -6.6686  -6.6686  -6.6418  -6.6418  -6.4641  -6.4641  -6.4355  -6.4355
    -6.3781  -6.3781  -6.3288  -6.3288  -6.3012  -6.3012  -6.0915  -6.0915
    -5.9954  -5.9954  -5.9432  -5.9432  -5.8081  -5.8081  -5.7629  -5.7629
    -5.6159  -5.6159  -5.4543  -5.4543  -5.4115  -5.4115  -5.3686  -5.3686
    -5.2761  -5.2761  -5.1630  -5.1630  -5.0849  -5.0849  -4.8845  -4.8845
    -4.7756  -4.7756  -4.5496  -4.5496  -4.4945  -4.4945  -4.4533  -4.4533
    -4.2803  -4.2803  -4.2288  -4.2288  -4.0877  -4.0877  -4.0656  -4.0656
    -4.0319  -4.0319  -3.8552  -3.8552  -3.6132  -3.6132  -3.5334  -3.5334
    -3.4847  -3.4847  -3.4620  -3.4620  -3.4210  -3.4210  -3.3648  -3.3648
    -3.3365  -3.3365  -3.2850  -3.2850  -3.2625  -3.2625  -3.2385  -3.2385
    -3.2290  -3.2290  -3.2029  -3.2029  -2.9786  -2.9786  -2.9553  -2.9553
    -2.9014  -2.9014  -2.7259  -2.7259  -2.6753  -2.6753  -2.6204  -2.6204
    -2.6005  -2.6005  -2.5688  -2.5688  -2.3400  -2.3400  -2.1962  -2.1962
    -1.9627  -1.9627  -1.8780  -1.8780  -1.2189  -1.2189  -1.1077  -1.1077
    -1.0654  -1.0654  -1.0163  -1.0163  -0.8207  -0.8207  -0.7545  -0.7545
    -0.6535  -0.6535  -0.6091  -0.6091  -0.5950  -0.5950  -0.5287  -0.5287
    -0.4784  -0.4784  -0.3530  -0.3530  -0.2470  -0.2470  -0.2264  -0.2264
    -0.1776  -0.1776  -0.1574  -0.1574   0.1033   0.1033   0.1336   0.1336
     0.2256   0.2256   0.2726   0.2726   3.6988   3.6988   3.7470   3.7470
     3.8928   3.8928   3.9023   3.9023   5.8175   5.8175   6.2344   6.2344
     6.3150   6.3150   6.4769   6.4769   6.5253   6.5253   6.7179   6.7179
     6.8359   6.8359   7.0527   7.0527   7.1457   7.1457   7.2731   7.2731
     7.4738   7.4738   7.5560   7.5560   7.6633   7.6633   7.7270   7.7270
     7.9021   7.9021   8.0499   8.0499   8.1010   8.1010   8.1945   8.1945
     8.3029   8.3030   8.3836

          k = 0.0000-0.3145-0.2321 (166108 PWs)   bands (ev):

   -21.2104 -21.2104 -21.2098 -21.2098 -21.1187 -21.1187 -21.1186 -21.1186
   -20.2518 -20.2518 -20.2507 -20.2507 -20.1263 -20.1263 -20.1107 -20.1107
   -18.7002 -18.7002 -18.6935 -18.6935 -18.6674 -18.6674 -18.6574 -18.6574
   -17.3703 -17.3703 -17.3542 -17.3542 -17.2230 -17.2230 -17.2124 -17.2124
   -15.4466 -15.4466 -15.4446 -15.4446 -15.4207 -15.4207 -15.4170 -15.4170
   -13.8390 -13.8390 -13.8249 -13.8249 -12.3207 -12.3207 -12.3078 -12.3078
   -11.9505 -11.9505 -11.9493 -11.9493 -11.8677 -11.8677 -11.8670 -11.8670
   -10.7368 -10.7368 -10.7336 -10.7336  -9.5357  -9.5357  -9.5341  -9.5341
    -9.0456  -9.0456  -9.0248  -9.0248  -8.9307  -8.9307  -8.8941  -8.8941
    -8.3650  -8.3650  -8.3577  -8.3577  -7.8101  -7.8101  -7.7895  -7.7895
    -7.2469  -7.2469  -7.2199  -7.2199  -6.8969  -6.8969  -6.8764  -6.8764
    -6.5920  -6.5920  -6.5757  -6.5757  -6.5250  -6.5250  -6.5185  -6.5185
    -6.3666  -6.3666  -6.3364  -6.3364  -6.2977  -6.2977  -6.0741  -6.0741
    -6.0206  -6.0206  -5.9347  -5.9347  -5.7928  -5.7928  -5.7924  -5.7924
    -5.5939  -5.5939  -5.4834  -5.4834  -5.4072  -5.4072  -5.3827  -5.3827
    -5.1866  -5.1866  -5.1589  -5.1589  -5.0556  -5.0556  -5.0241  -5.0241
    -4.6494  -4.6494  -4.5952  -4.5952  -4.5217  -4.5217  -4.5150  -4.5150
    -4.2144  -4.2144  -4.1590  -4.1590  -4.1125  -4.1125  -4.1037  -4.1037
    -4.0361  -4.0361  -3.8594  -3.8594  -3.6114  -3.6114  -3.5288  -3.5288
    -3.4972  -3.4972  -3.4616  -3.4616  -3.4141  -3.4141  -3.3676  -3.3676
    -3.3664  -3.3664  -3.3229  -3.3229  -3.2364  -3.2364  -3.2362  -3.2362
    -3.1767  -3.1767  -3.1574  -3.1574  -3.0016  -3.0016  -2.9804  -2.9804
    -2.9061  -2.9061  -2.6798  -2.6798  -2.6770  -2.6770  -2.6531  -2.6531
    -2.6313  -2.6313  -2.5736  -2.5736  -2.3307  -2.3307  -2.1889  -2.1889
    -1.9627  -1.9627  -1.8789  -1.8789  -1.2145  -1.2145  -1.1027  -1.1027
    -1.0698  -1.0698  -1.0210  -1.0210  -0.7940  -0.7940  -0.7327  -0.7327
    -0.6552  -0.6552  -0.6451  -0.6451  -0.6161  -0.6161  -0.5266  -0.5266
    -0.4766  -0.4766  -0.3507  -0.3507  -0.2365  -0.2365  -0.2310  -0.2310
    -0.1833  -0.1833  -0.1520  -0.1520   0.1069   0.1069   0.1407   0.1407
     0.2385   0.2385   0.2513   0.2513   3.7188   3.7188   3.7268   3.7268
     3.8972   3.8972   3.8981   3.8981   5.8910   5.8910   5.9919   5.9919
     6.4779   6.4779   6.4918   6.4918   6.6648   6.6648   6.6847   6.6847
     6.8583   6.8583   6.8652   6.8652   7.2113   7.2113   7.2672   7.2672
     7.5101   7.5101   7.5624   7.5624   7.6109   7.6109   7.7505   7.7505
     7.7927   7.7927   8.0786   8.0786   8.0892   8.0892   8.1526   8.1526
     8.3165   8.3165   8.4554

          k = 0.3333 0.0000 0.0163 (166010 PWs)   bands (ev):

   -21.2113 -21.2104 -21.2084 -21.2078 -21.1207 -21.1203 -21.1180 -21.1178
   -20.2558 -20.2527 -20.2492 -20.2474 -20.1283 -20.1230 -20.1141 -20.1082
   -18.7084 -18.7031 -18.6906 -18.6887 -18.6687 -18.6642 -18.6574 -18.6563
   -17.3721 -17.3649 -17.3553 -17.3477 -17.2289 -17.2218 -17.2189 -17.2116
   -15.4650 -15.4619 -15.4442 -15.4392 -15.4242 -15.4205 -15.4033 -15.3995
   -13.8436 -13.8363 -13.8228 -13.8199 -12.3400 -12.3197 -12.3137 -12.3110
   -11.9502 -11.9496 -11.9130 -11.9075 -11.9038 -11.9011 -11.8748 -11.8698
   -10.7389 -10.7256 -10.7145 -10.7072  -9.5748  -9.5695  -9.5531  -9.5346
    -9.0852  -9.0763  -8.9859  -8.9752  -8.9144  -8.9143  -8.8849  -8.8556
    -8.4225  -8.4106  -8.3269  -8.3141  -7.8995  -7.8908  -7.8343  -7.8131
    -7.1355  -7.1106  -7.0657  -7.0532  -6.9288  -6.9259  -6.8882  -6.8856
    -6.7606  -6.7486  -6.6193  -6.6150  -6.5548  -6.5431  -6.4936  -6.4854
    -6.3051  -6.3021  -6.2873  -6.2608  -6.2054  -6.2023  -6.1117  -6.0997
    -5.9954  -5.9843  -5.9391  -5.9313  -5.8438  -5.7978  -5.7606  -5.7519
    -5.6824  -5.6241  -5.5667  -5.5533  -5.5476  -5.5016  -5.4165  -5.3902
    -5.1914  -5.1161  -5.0393  -4.9654  -4.9584  -4.9451  -4.9165  -4.8859
    -4.8250  -4.7665  -4.6123  -4.5672  -4.4715  -4.4556  -4.4492  -4.4297
    -4.2744  -4.2633  -4.2525  -4.2459  -4.1802  -4.1641  -4.1057  -4.0858
    -4.0843  -4.0066  -3.9525  -3.8405  -3.6279  -3.6043  -3.5839  -3.5631
    -3.5368  -3.5235  -3.5038  -3.5017  -3.4627  -3.4610  -3.4110  -3.3860
    -3.3650  -3.3526  -3.3217  -3.2953  -3.2886  -3.2658  -3.2479  -3.2231
    -3.2202  -3.1937  -3.1436  -3.0980  -2.9807  -2.9502  -2.8830  -2.8730
    -2.8565  -2.8374  -2.7339  -2.7330  -2.7171  -2.7084  -2.6792  -2.6604
    -2.6247  -2.5993  -2.5680  -2.5240  -2.3578  -2.3284  -2.2275  -2.2056
    -1.9950  -1.9934  -1.9801  -1.9656  -1.2561  -1.2326  -1.0842  -1.0773
    -1.0594  -1.0508  -1.0297  -1.0078  -0.8262  -0.7578  -0.7449  -0.7009
    -0.6874  -0.6632  -0.6297  -0.6001  -0.5918  -0.5664  -0.5471  -0.5214
    -0.4823  -0.4647  -0.3603  -0.3558  -0.3048  -0.2959  -0.2552  -0.2213
    -0.1137  -0.1117  -0.0761  -0.0627   0.1129   0.1318   0.1646   0.1872
     0.2149   0.2330   0.2645   0.2829   3.6523   3.7125   3.7610   3.7733
     3.7854   3.8282   3.9252   3.9464   5.9477   6.1865   6.4168   6.4170
     6.4905   6.4953   6.5867   6.6035   6.6179   6.6805   6.6994   6.7262
     6.7822   6.8183   6.8731   6.9086   6.9838   7.0349   7.0637   7.3037
     7.3346   7.3505   7.4392   7.4724   7.5100   7.6255   7.6349   7.7026
     7.7477   7.8272   7.8344   8.0324   8.0915   8.1182   8.1528   8.2433
     8.2666   8.3422   8.3746

          k = 0.3333 0.0000-0.2158 (165986 PWs)   bands (ev):

   -21.2110 -21.2108 -21.2082 -21.2080 -21.1206 -21.1204 -21.1180 -21.1178
   -20.2554 -20.2542 -20.2481 -20.2475 -20.1264 -20.1257 -20.1107 -20.1107
   -18.7084 -18.7081 -18.6883 -18.6849 -18.6683 -18.6652 -18.6573 -18.6569
   -17.3695 -17.3694 -17.3508 -17.3505 -17.2268 -17.2259 -17.2146 -17.2137
   -15.4605 -15.4567 -15.4525 -15.4507 -15.4157 -15.4102 -15.4088 -15.4028
   -13.8423 -13.8383 -13.8228 -13.8193 -12.3381 -12.3275 -12.3149 -12.3034
   -11.9502 -11.9494 -11.9123 -11.9084 -11.9042 -11.9005 -11.8754 -11.8694
   -10.7356 -10.7323 -10.7108 -10.7092  -9.5712  -9.5687  -9.5415  -9.5337
    -9.1218  -9.1107  -8.9692  -8.9538  -8.9156  -8.9123  -8.8573  -8.8564
    -8.4542  -8.4455  -8.2892  -8.2766  -7.9286  -7.9081  -7.8064  -7.8026
    -7.1288  -7.1136  -7.0547  -7.0491  -6.9402  -6.9374  -6.9068  -6.9055
    -6.7913  -6.7693  -6.5997  -6.5835  -6.5527  -6.5475  -6.4812  -6.4669
    -6.3310  -6.2956  -6.2693  -6.2664  -6.1614  -6.1592  -6.1371  -6.0818
    -6.0118  -6.0019  -5.9394  -5.9328  -5.8500  -5.8447  -5.7475  -5.7288
    -5.6886  -5.6809  -5.5721  -5.5533  -5.4965  -5.4692  -5.4288  -5.4238
    -5.1112  -5.1102  -5.0881  -5.0105  -4.9844  -4.9299  -4.8850  -4.8749
    -4.8478  -4.7174  -4.6739  -4.5346  -4.4749  -4.4519  -4.4417  -4.4385
    -4.2760  -4.2445  -4.2364  -4.2159  -4.2076  -4.1856  -4.1370  -4.0972
    -4.0618  -4.0241  -3.9619  -3.8370  -3.6156  -3.5841  -3.5749  -3.5551
    -3.5551  -3.5195  -3.5005  -3.4980  -3.4687  -3.4638  -3.4299  -3.4052
    -3.3584  -3.3518  -3.3355  -3.3041  -3.2890  -3.2697  -3.2509  -3.2481
    -3.2007  -3.1834  -3.0556  -3.0554  -2.9971  -2.9816  -2.8985  -2.8928
    -2.8163  -2.7937  -2.7724  -2.7608  -2.7285  -2.7247  -2.6747  -2.6738
    -2.6244  -2.6196  -2.5312  -2.5229  -2.3839  -2.3231  -2.2240  -2.1838
    -1.9996  -1.9884  -1.9739  -1.9719  -1.2545  -1.2340  -1.1171  -1.0800
    -1.0577  -1.0405  -1.0286  -1.0010  -0.7875  -0.7838  -0.7540  -0.7256
    -0.6697  -0.6483  -0.6064  -0.6043  -0.5875  -0.5875  -0.5638  -0.5209
    -0.4789  -0.4453  -0.3733  -0.3509  -0.2913  -0.2811  -0.2676  -0.2400
    -0.1167  -0.1091  -0.0718  -0.0708   0.1150   0.1197   0.1870   0.1988
     0.2251   0.2359   0.2499   0.2658   3.6725   3.6770   3.7787   3.7789
     3.7894   3.8113   3.9263   3.9504   6.0031   6.0944   6.4091   6.4164
     6.4836   6.4914   6.5689   6.5942   6.6135   6.6634   6.7378   6.7742
     6.8455   6.8460   6.8819   6.8853   6.9353   7.0254   7.1501   7.1831
     7.3386   7.3559   7.4008   7.5088   7.5251   7.5582   7.6165   7.7207
     7.8179   7.9034   7.9425   7.9555   8.0795   8.1419   8.2060   8.2395
     8.2805   8.3160   8.3625

          k = 0.3333-0.3145 0.0163 (166042 PWs)   bands (ev):

   -21.2099 -21.2099 -21.2091 -21.2091 -21.1194 -21.1194 -21.1190 -21.1190
   -20.2526 -20.2526 -20.2498 -20.2498 -20.1258 -20.1258 -20.1113 -20.1113
   -18.7045 -18.7045 -18.6897 -18.6897 -18.6670 -18.6670 -18.6572 -18.6572
   -17.3708 -17.3708 -17.3538 -17.3538 -17.2242 -17.2242 -17.2117 -17.2117
   -15.4633 -15.4633 -15.4420 -15.4420 -15.4225 -15.4225 -15.4012 -15.4012
   -13.8385 -13.8385 -13.8266 -13.8266 -12.3273 -12.3273 -12.3015 -12.3015
   -11.9310 -11.9310 -11.9293 -11.9293 -11.8891 -11.8891 -11.8865 -11.8865
   -10.7497 -10.7497 -10.7212 -10.7212  -9.5485  -9.5485  -9.5253  -9.5253
    -9.0515  -9.0515  -9.0166  -9.0166  -8.9386  -8.9386  -8.8866  -8.8866
    -8.3735  -8.3735  -8.3543  -8.3543  -7.8095  -7.8095  -7.7919  -7.7919
    -7.2405  -7.2405  -7.2239  -7.2239  -6.8930  -6.8930  -6.8719  -6.8719
    -6.6153  -6.6153  -6.6050  -6.6050  -6.5056  -6.5056  -6.4812  -6.4812
    -6.3817  -6.3817  -6.3372  -6.3372  -6.2146  -6.2146  -6.0473  -6.0473
    -6.0152  -6.0152  -5.9494  -5.9494  -5.7963  -5.7963  -5.7674  -5.7674
    -5.6150  -5.6150  -5.4652  -5.4652  -5.4043  -5.4043  -5.3732  -5.3732
    -5.1695  -5.1695  -5.1340  -5.1340  -5.0861  -5.0861  -4.9256  -4.9256
    -4.7556  -4.7556  -4.6397  -4.6397  -4.5184  -4.5184  -4.4823  -4.4823
    -4.2180  -4.2180  -4.2018  -4.2018  -4.1133  -4.1133  -4.0948  -4.0948
    -4.0326  -4.0326  -3.9071  -3.9071  -3.6514  -3.6514  -3.5678  -3.5678
    -3.4971  -3.4971  -3.4709  -3.4709  -3.4220  -3.4220  -3.3716  -3.3716
    -3.3524  -3.3524  -3.3427  -3.3427  -3.2745  -3.2745  -3.2244  -3.2244
    -3.1907  -3.1907  -3.1498  -3.1498  -2.9959  -2.9959  -2.9561  -2.9561
    -2.8181  -2.8181  -2.7214  -2.7214  -2.6660  -2.6660  -2.6541  -2.6541
    -2.6255  -2.6255  -2.5970  -2.5970  -2.3245  -2.3245  -2.2193  -2.2193
    -2.0229  -2.0229  -1.9473  -1.9473  -1.2615  -1.2615  -1.0853  -1.0853
    -1.0454  -1.0454  -1.0050  -1.0050  -0.7873  -0.7873  -0.7496  -0.7496
    -0.6380  -0.6380  -0.6185  -0.6185  -0.6056  -0.6056  -0.5150  -0.5150
    -0.4917  -0.4917  -0.2728  -0.2728  -0.2371  -0.2371  -0.2257  -0.2257
    -0.1750  -0.1750  -0.1616  -0.1616   0.1178   0.1178   0.1763   0.1763
     0.2236   0.2236   0.2741   0.2741   3.7021   3.7021   3.7544   3.7544
     3.8633   3.8633   3.8727   3.8727   6.1059   6.1059   6.3656   6.3656
     6.4657   6.4657   6.5297   6.5297   6.5995   6.5995   6.7345   6.7345
     6.7894   6.7894   6.9088   6.9088   7.1164   7.1164   7.2161   7.2161
     7.3481   7.3481   7.5300   7.5300   7.5884   7.5884   7.6320   7.6320
     7.8688   7.8688   7.9903   7.9903   8.0863   8.0863   8.2255   8.2255
     8.2828   8.2828   8.4003

          k = 0.3333-0.3145-0.2158 (166100 PWs)   bands (ev):

   -21.2097 -21.2097 -21.2092 -21.2092 -21.1194 -21.1194 -21.1190 -21.1190
   -20.2525 -20.2525 -20.2500 -20.2500 -20.1258 -20.1258 -20.1112 -20.1112
   -18.7050 -18.7050 -18.6900 -18.6900 -18.6665 -18.6665 -18.6568 -18.6568
   -17.3709 -17.3709 -17.3538 -17.3538 -17.2242 -17.2242 -17.2116 -17.2116
   -15.4589 -15.4589 -15.4511 -15.4511 -15.4143 -15.4143 -15.4047 -15.4047
   -13.8380 -13.8380 -13.8271 -13.8271 -12.3261 -12.3261 -12.3028 -12.3028
   -11.9321 -11.9321 -11.9280 -11.9280 -11.8899 -11.8899 -11.8860 -11.8860
   -10.7490 -10.7490 -10.7214 -10.7214  -9.5500  -9.5500  -9.5300  -9.5300
    -9.0473  -9.0473  -9.0120  -9.0120  -8.9365  -8.9365  -8.8844  -8.8844
    -8.3793  -8.3793  -8.3594  -8.3594  -7.8073  -7.8073  -7.7906  -7.7906
    -7.2372  -7.2372  -7.2215  -7.2215  -6.8956  -6.8956  -6.8668  -6.8668
    -6.6532  -6.6532  -6.6388  -6.6388  -6.4639  -6.4639  -6.4491  -6.4491
    -6.3735  -6.3735  -6.3437  -6.3437  -6.2232  -6.2232  -6.0597  -6.0597
    -6.0043  -6.0043  -5.9511  -5.9511  -5.7936  -5.7936  -5.7570  -5.7570
    -5.5921  -5.5921  -5.4949  -5.4949  -5.4158  -5.4158  -5.3971  -5.3971
    -5.1533  -5.1533  -5.1153  -5.1153  -5.0705  -5.0705  -4.9454  -4.9454
    -4.7817  -4.7817  -4.6239  -4.6239  -4.5038  -4.5038  -4.4557  -4.4557
    -4.2609  -4.2609  -4.2063  -4.2063  -4.1262  -4.1262  -4.0910  -4.0910
    -4.0110  -4.0110  -3.9081  -3.9081  -3.6460  -3.6460  -3.5634  -3.5634
    -3.4967  -3.4967  -3.4628  -3.4628  -3.4494  -3.4494  -3.3655  -3.3655
    -3.3348  -3.3348  -3.3243  -3.3243  -3.2752  -3.2752  -3.2336  -3.2336
    -3.2170  -3.2170  -3.1692  -3.1692  -2.9861  -2.9861  -2.9452  -2.9452
    -2.8216  -2.8216  -2.7293  -2.7293  -2.6702  -2.6702  -2.6394  -2.6394
    -2.6251  -2.6251  -2.5800  -2.5800  -2.3310  -2.3310  -2.2214  -2.2214
    -2.0237  -2.0237  -1.9477  -1.9477  -1.2616  -1.2616  -1.0903  -1.0903
    -1.0424  -1.0424  -1.0036  -1.0036  -0.8024  -0.8024  -0.7459  -0.7459
    -0.6338  -0.6338  -0.6236  -0.6236  -0.5928  -0.5928  -0.5364  -0.5364
    -0.4660  -0.4660  -0.2726  -0.2726  -0.2365  -0.2365  -0.2242  -0.2242
    -0.1858  -0.1858  -0.1614  -0.1614   0.1161   0.1161   0.1873   0.1873
     0.2343   0.2343   0.2568   0.2568   3.7135   3.7135   3.7399   3.7399
     3.8491   3.8491   3.8902   3.8902   6.1434   6.1434   6.2665   6.2665
     6.4878   6.4878   6.5628   6.5628   6.6375   6.6375   6.6893   6.6893
     6.7765   6.7765   6.9557   6.9557   7.0760   7.0760   7.1926   7.1926
     7.4252   7.4252   7.4839   7.4839   7.6373   7.6373   7.7438   7.7438
     7.7603   7.7603   7.9698   7.9698   8.0940   8.0940   8.2261   8.2261
     8.2734   8.2734   8.3659

     highest occupied, lowest unoccupied level (ev):     0.2885    3.6523

!    total energy              =   -2293.81342317 Ry
     Harris-Foulkes estimate   =   -2293.81342318 Ry
     estimated scf accuracy    <          7.9E-09 Ry

     total all-electron energy =     -8517.483335 Ry

     The total energy is the sum of the following terms:

     one-electron contribution =   -1140.11509056 Ry
     hartree contribution      =     749.65872912 Ry
     xc contribution           =    -493.70603258 Ry
     ewald contribution        =    -782.21253160 Ry
     Dispersion Correction     =      -0.69959034 Ry
     one-center paw contrib.   =    -626.73890720 Ry

     convergence has been achieved in  16 iterations

     Forces acting on atoms (cartesian axes, Ry/au):

     atom    1 type  4   force =     0.00032763   -0.00005514   -0.00038573
     atom    2 type  4   force =     0.00032763    0.00005514   -0.00038573
     atom    3 type  4   force =    -0.00032763    0.00005514    0.00038573
     atom    4 type  4   force =    -0.00032763   -0.00005514    0.00038573
     atom    5 type  4   force =     0.00133687   -0.00065826   -0.00317700
     atom    6 type  4   force =     0.00133687    0.00065826   -0.00317700
     atom    7 type  4   force =    -0.00133687    0.00065826    0.00317700
     atom    8 type  4   force =    -0.00133687   -0.00065826    0.00317700
     atom    9 type  4   force =    -0.00001056    0.00020536    0.00004213
     atom   10 type  4   force =    -0.00001056   -0.00020536    0.00004213
     atom   11 type  4   force =     0.00001056   -0.00020536   -0.00004213
     atom   12 type  4   force =     0.00001056    0.00020536   -0.00004213
     atom   13 type  4   force =    -0.00022575    0.00006631    0.00054413
     atom   14 type  4   force =    -0.00022575   -0.00006631    0.00054413
     atom   15 type  4   force =     0.00022575   -0.00006631   -0.00054413
     atom   16 type  4   force =     0.00022575    0.00006631   -0.00054413
     atom   17 type  4   force =    -0.00016799    0.00045569   -0.00029495
     atom   18 type  4   force =    -0.00016799   -0.00045569   -0.00029495
     atom   19 type  4   force =     0.00016799   -0.00045569    0.00029495
     atom   20 type  4   force =     0.00016799    0.00045569    0.00029495
     atom   21 type  4   force =    -0.00048834   -0.00080131   -0.00036775
     atom   22 type  4   force =    -0.00048834    0.00080131   -0.00036775
     atom   23 type  4   force =     0.00048834    0.00080131    0.00036775
     atom   24 type  4   force =     0.00048834   -0.00080131    0.00036775
     atom   25 type  2   force =    -0.00028788    0.00020032    0.00016977
     atom   26 type  2   force =    -0.00028788   -0.00020032    0.00016977
     atom   27 type  2   force =     0.00028788   -0.00020032   -0.00016977
     atom   28 type  2   force =     0.00028788    0.00020032   -0.00016977
     atom   29 type  2   force =    -0.00034136    0.00019449    0.00091151
     atom   30 type  2   force =    -0.00034136   -0.00019449    0.00091151
     atom   31 type  2   force =     0.00034136   -0.00019449   -0.00091151
     atom   32 type  2   force =     0.00034136    0.00019449   -0.00091151
     atom   33 type  2   force =    -0.00058526   -0.00053451    0.00137288
     atom   34 type  2   force =    -0.00058526    0.00053451    0.00137288
     atom   35 type  2   force =     0.00058526    0.00053451   -0.00137288
     atom   36 type  2   force =     0.00058526   -0.00053451   -0.00137288
     atom   37 type  2   force =     0.00068405    0.00007288   -0.00086811
     atom   38 type  2   force =     0.00068405   -0.00007288   -0.00086811
     atom   39 type  2   force =    -0.00068405   -0.00007288    0.00086811
     atom   40 type  2   force =    -0.00068405    0.00007288    0.00086811
     atom   41 type  1   force =     0.00155122    0.00051214    0.00057862
     atom   42 type  1   force =     0.00155122   -0.00051214    0.00057862
     atom   43 type  1   force =    -0.00155122   -0.00051214   -0.00057862
     atom   44 type  1   force =    -0.00155122    0.00051214   -0.00057862
     atom   45 type  1   force =     0.00007363   -0.00010732   -0.00059404
     atom   46 type  1   force =     0.00007363    0.00010732   -0.00059404
     atom   47 type  1   force =    -0.00007363    0.00010732    0.00059404
     atom   48 type  1   force =    -0.00007363   -0.00010732    0.00059404
     atom   49 type  1   force =     0.00106715    0.00023137   -0.00045318
     atom   50 type  1   force =     0.00106715   -0.00023137   -0.00045318
     atom   51 type  1   force =    -0.00106715   -0.00023137    0.00045318
     atom   52 type  1   force =    -0.00106715    0.00023137    0.00045318
     atom   53 type  1   force =    -0.00166186    0.00024135    0.00079320
     atom   54 type  1   force =    -0.00166186   -0.00024135    0.00079320
     atom   55 type  1   force =     0.00166186   -0.00024135   -0.00079320
     atom   56 type  1   force =     0.00166186    0.00024135   -0.00079320
     atom   57 type  1   force =    -0.00056258    0.00062752   -0.00034525
     atom   58 type  1   force =    -0.00056258   -0.00062752   -0.00034525
     atom   59 type  1   force =     0.00056258   -0.00062752    0.00034525
     atom   60 type  1   force =     0.00056258    0.00062752    0.00034525
     atom   61 type  1   force =    -0.00066101   -0.00005450   -0.00035846
     atom   62 type  1   force =    -0.00066101    0.00005450   -0.00035846
     atom   63 type  1   force =     0.00066101    0.00005450    0.00035846
     atom   64 type  1   force =     0.00066101   -0.00005450    0.00035846
     atom   65 type  1   force =    -0.00070727   -0.00027319   -0.00095530
     atom   66 type  1   force =    -0.00070727    0.00027319   -0.00095530
     atom   67 type  1   force =     0.00070727    0.00027319    0.00095530
     atom   68 type  1   force =     0.00070727   -0.00027319    0.00095530
     atom   69 type  1   force =     0.00026472    0.00054241    0.00097847
     atom   70 type  1   force =     0.00026472   -0.00054241    0.00097847
     atom   71 type  1   force =    -0.00026472   -0.00054241   -0.00097847
     atom   72 type  1   force =    -0.00026472    0.00054241   -0.00097847
     atom   73 type  1   force =     0.00006119   -0.00009150    0.00120307
     atom   74 type  1   force =     0.00006119    0.00009150    0.00120307
     atom   75 type  1   force =    -0.00006119    0.00009150   -0.00120307
     atom   76 type  1   force =    -0.00006119   -0.00009150   -0.00120307
     atom   77 type  1   force =     0.00033501    0.00008930   -0.00111082
     atom   78 type  1   force =     0.00033501   -0.00008930   -0.00111082
     atom   79 type  1   force =    -0.00033501   -0.00008930    0.00111082
     atom   80 type  1   force =    -0.00033501    0.00008930    0.00111082
     atom   81 type  3   force =    -0.00045735    0.00019846    0.00017099
     atom   82 type  3   force =    -0.00045735   -0.00019846    0.00017099
     atom   83 type  3   force =     0.00045735   -0.00019846   -0.00017099
     atom   84 type  3   force =     0.00045735    0.00019846   -0.00017099
     atom   85 type  3   force =    -0.00037213   -0.00000731    0.00018679
     atom   86 type  3   force =    -0.00037213    0.00000731    0.00018679
     atom   87 type  3   force =     0.00037213    0.00000731   -0.00018679
     atom   88 type  3   force =     0.00037213   -0.00000731   -0.00018679
     atom   89 type  3   force =     0.00011099   -0.00016459   -0.00055472
     atom   90 type  3   force =     0.00011099    0.00016459   -0.00055472
     atom   91 type  3   force =    -0.00011099    0.00016459    0.00055472
     atom   92 type  3   force =    -0.00011099   -0.00016459    0.00055472
     atom   93 type  3   force =     0.00006766   -0.00001746    0.00011031
     atom   94 type  3   force =     0.00006766    0.00001746    0.00011031
     atom   95 type  3   force =    -0.00006766    0.00001746   -0.00011031
     atom   96 type  3   force =    -0.00006766   -0.00001746   -0.00011031
     atom   97 type  3   force =    -0.00027672   -0.00078245    0.00051224
     atom   98 type  3   force =    -0.00027672    0.00078245    0.00051224
     atom   99 type  3   force =     0.00027672    0.00078245   -0.00051224
     atom  100 type  3   force =     0.00027672   -0.00078245   -0.00051224
     atom  101 type  3   force =    -0.00033615    0.00084809    0.00010882
     atom  102 type  3   force =    -0.00033615   -0.00084809    0.00010882
     atom  103 type  3   force =     0.00033615   -0.00084809   -0.00010882
     atom  104 type  3   force =     0.00033615    0.00084809   -0.00010882
     atom  105 type  3   force =    -0.00088990   -0.00065245    0.00012942
     atom  106 type  3   force =    -0.00088990    0.00065245    0.00012942
     atom  107 type  3   force =     0.00088990    0.00065245   -0.00012942
     atom  108 type  3   force =     0.00088990   -0.00065245   -0.00012942
     atom  109 type  3   force =     0.00029146    0.00048541   -0.00006224
     atom  110 type  3   force =     0.00029146   -0.00048541   -0.00006224
     atom  111 type  3   force =    -0.00029146   -0.00048541    0.00006224
     atom  112 type  3   force =    -0.00029146    0.00048541    0.00006224
     atom  113 type  3   force =    -0.00157095   -0.00049999    0.00115587
     atom  114 type  3   force =    -0.00157095    0.00049999    0.00115587
     atom  115 type  3   force =     0.00157095    0.00049999   -0.00115587
     atom  116 type  3   force =     0.00157095   -0.00049999   -0.00115587
     atom  117 type  3   force =    -0.00022026   -0.00015189   -0.00039995
     atom  118 type  3   force =    -0.00022026    0.00015189   -0.00039995
     atom  119 type  3   force =     0.00022026    0.00015189    0.00039995
     atom  120 type  3   force =     0.00022026   -0.00015189    0.00039995
     atom  121 type  3   force =    -0.00041930   -0.00043929    0.00053268
     atom  122 type  3   force =    -0.00041930    0.00043929    0.00053268
     atom  123 type  3   force =     0.00041930    0.00043929   -0.00053268
     atom  124 type  3   force =     0.00041930   -0.00043929   -0.00053268
     atom  125 type  3   force =     0.00023695    0.00004018   -0.00007687
     atom  126 type  3   force =     0.00023695   -0.00004018   -0.00007687
     atom  127 type  3   force =    -0.00023695   -0.00004018    0.00007687
     atom  128 type  3   force =    -0.00023695    0.00004018    0.00007687
     atom  129 type  3   force =    -0.00049221   -0.00048711   -0.00060289
     atom  130 type  3   force =    -0.00049221    0.00048711   -0.00060289
     atom  131 type  3   force =     0.00049221    0.00048711    0.00060289
     atom  132 type  3   force =     0.00049221   -0.00048711    0.00060289
     atom  133 type  3   force =    -0.00000714    0.00007421    0.00038071
     atom  134 type  3   force =    -0.00000714   -0.00007421    0.00038071
     atom  135 type  3   force =     0.00000714   -0.00007421   -0.00038071
     atom  136 type  3   force =     0.00000714    0.00007421   -0.00038071
     atom  137 type  3   force =     0.00055173    0.00000547    0.00031669
     atom  138 type  3   force =     0.00055173   -0.00000547    0.00031669
     atom  139 type  3   force =    -0.00055173   -0.00000547   -0.00031669
     atom  140 type  3   force =    -0.00055173    0.00000547   -0.00031669
     atom  141 type  3   force =    -0.00070625   -0.00011971   -0.00033441
     atom  142 type  3   force =    -0.00070625    0.00011971   -0.00033441
     atom  143 type  3   force =     0.00070625    0.00011971    0.00033441
     atom  144 type  3   force =     0.00070625   -0.00011971    0.00033441
     atom  145 type  3   force =     0.00085305    0.00020262    0.00002120
     atom  146 type  3   force =     0.00085305   -0.00020262    0.00002120
     atom  147 type  3   force =    -0.00085305   -0.00020262   -0.00002120
     atom  148 type  3   force =    -0.00085305    0.00020262   -0.00002120
     atom  149 type  3   force =     0.00011532   -0.00022243    0.00033791
     atom  150 type  3   force =     0.00011532    0.00022243    0.00033791
     atom  151 type  3   force =    -0.00011532    0.00022243   -0.00033791
     atom  152 type  3   force =    -0.00011532   -0.00022243   -0.00033791
     atom  153 type  3   force =    -0.00142764    0.00021838    0.00122047
     atom  154 type  3   force =    -0.00142764   -0.00021838    0.00122047
     atom  155 type  3   force =     0.00142764   -0.00021838   -0.00122047
     atom  156 type  3   force =     0.00142764    0.00021838   -0.00122047
     atom  157 type  3   force =     0.00029096   -0.00059151   -0.00065997
     atom  158 type  3   force =     0.00029096    0.00059151   -0.00065997
     atom  159 type  3   force =    -0.00029096    0.00059151    0.00065997
     atom  160 type  3   force =    -0.00029096   -0.00059151    0.00065997
     atom  161 type  3   force =    -0.00054766   -0.00030870    0.00002710
     atom  162 type  3   force =    -0.00054766    0.00030870    0.00002710
     atom  163 type  3   force =     0.00054766    0.00030870   -0.00002710
     atom  164 type  3   force =     0.00054766   -0.00030870   -0.00002710
     atom  165 type  3   force =     0.00046812   -0.00000960   -0.00009388
     atom  166 type  3   force =     0.00046812    0.00000960   -0.00009388
     atom  167 type  3   force =    -0.00046812    0.00000960    0.00009388
     atom  168 type  3   force =    -0.00046812   -0.00000960    0.00009388

     Total force =     0.014371     Total SCF correction =     0.000160


     Computing stress (Cartesian axis) and pressure

          total   stress  (Ry/bohr**3)                   (kbar)     P=   -9.27
  -0.00006078   0.00000000  -0.00000662         -8.94      0.00     -0.97
   0.00000000  -0.00005646   0.00000000          0.00     -8.31      0.00
  -0.00000662   0.00000000  -0.00007180         -0.97      0.00    -10.56


     Writing output data file scf.save
 
     init_run     :    107.96s CPU    112.45s WALL (       1 calls)
     electrons    :   4026.25s CPU   4193.99s WALL (       1 calls)
     forces       :     53.93s CPU     54.40s WALL (       1 calls)
     stress       :    429.14s CPU    429.92s WALL (       1 calls)

     Called by init_run:
     wfcinit      :     89.03s CPU     93.23s WALL (       1 calls)
     potinit      :      6.62s CPU      6.71s WALL (       1 calls)

     Called by electrons:
     c_bands      :   3662.65s CPU   3805.89s WALL (      16 calls)
     sum_band     :    337.17s CPU    358.78s WALL (      16 calls)
     v_of_rho     :      3.26s CPU      3.58s WALL (      17 calls)
     newd         :      9.79s CPU     12.33s WALL (      17 calls)
     PAW_pot      :     12.25s CPU     12.26s WALL (      17 calls)
     mix_rho      :      0.91s CPU      0.96s WALL (      16 calls)

     Called by c_bands:
     init_us_2    :     21.68s CPU     21.75s WALL (     280 calls)
     cegterg      :   3585.70s CPU   3728.85s WALL (     128 calls)

     Called by sum_band:
     sum_band:bec :      0.18s CPU      0.18s WALL (     128 calls)
     addusdens    :      9.82s CPU     12.29s WALL (      16 calls)

     Called by *egterg:
     h_psi        :   1878.77s CPU   1993.94s WALL (     662 calls)
     s_psi        :    433.17s CPU    433.27s WALL (     662 calls)
     g_psi        :     12.30s CPU     12.30s WALL (     526 calls)
     cdiaghg      :    238.52s CPU    238.63s WALL (     654 calls)

     Called by h_psi:
     h_psi:pot    :   1865.12s CPU   1980.04s WALL (     662 calls)
     h_psi:calbec :    410.28s CPU    410.95s WALL (     662 calls)
     vloc_psi     :   1021.55s CPU   1135.69s WALL (     662 calls)
     add_vuspsi   :    433.28s CPU    433.40s WALL (     662 calls)

     General routines
     calbec       :    586.06s CPU    586.98s WALL (     830 calls)
     fft          :      2.01s CPU      2.56s WALL (     245 calls)
     fftw         :   1082.98s CPU   1215.69s WALL (  254376 calls)
 
     Parallel routines
     fft_scatter  :    191.42s CPU    323.49s WALL (  254621 calls)
 
     PWSCF        :     1h17m CPU        1h21m WALL

 
   This run was terminated on:   6:55:43   4Nov2017            

=------------------------------------------------------------------------------=
   JOB DONE.
=------------------------------------------------------------------------------=
