
     Program PWSCF v.6.1 (svn rev. 13369) starts on 20Dec2017 at 12:33:57 

     This program is part of the open-source Quantum ESPRESSO suite
     for quantum simulation of materials; please cite
         "P. Giannozzi et al., J. Phys.:Condens. Matter 21 395502 (2009);
          URL http://www.quantum-espresso.org", 
     in publications or presentations arising from this work. More details at
     http://www.quantum-espresso.org/quote

     Parallel version (MPI), running on     8 processors
     R & G space division:  proc/nbgrp/npool/nimage =       8
     Waiting for input...
     Reading input from standard input

     Current dimensions of program PWSCF are:
     Max number of different atomic species (ntypx) = 10
     Max number of k-points (npk) =  40000
     Max angular momentum in pseudopotentials (lmaxx) =  3
               file C.pbe-n-kjpaw_psl.0.1.UPF: wavefunction(s)  2P renormalized
               file N.pbe-n-kjpaw_psl.0.1.UPF: wavefunction(s)  2P renormalized
               file H.pbe-kjpaw_psl.0.1.UPF: wavefunction(s)  1S renormalized
               file O.pbe-n-kjpaw_psl.0.1.UPF: wavefunction(s)  2P renormalized

     -------------------------------------
     Parameters for Dispersion Correction:
     -------------------------------------
       atom      VdW radius       C_6     

        C          2.744         60.710
        N          2.640         42.670
        H          1.892          4.857
        O          2.536         24.284

     Subspace diagonalization in iterative solution of the eigenvalue problem:
     a serial algorithm will be used

 
     Parallelization info
     --------------------
     sticks:   dense  smooth     PW     G-vecs:    dense   smooth      PW
     Min         981     981    258                90418    90418   12179
     Max         982     982    259                90424    90424   12181
     Sum        7853    7853   2069               723359   723359   97435
 


     bravais-lattice index     =            0
     lattice parameter (alat)  =      12.1339  a.u.
     unit-cell volume          =    5354.1201 (a.u.)^3
     number of atoms/cell      =           92
     number of atomic types    =            4
     number of electrons       =       264.00
     number of Kohn-Sham states=          158
     kinetic-energy cutoff     =     100.0000  Ry
     charge density cutoff     =     400.0000  Ry
     convergence threshold     =      1.0E-08
     mixing beta               =       0.5000
     number of iterations used =            8  plain     mixing
     Exchange-correlation      =  SLA  PW   PBX  PBC ( 1  4  3  4 0 0)

     celldm(1)=  12.133931  celldm(2)=   0.000000  celldm(3)=   0.000000
     celldm(4)=   0.000000  celldm(5)=   0.000000  celldm(6)=   0.000000

     crystal axes: (cart. coord. in units of alat)
               a(1) = (   1.000000   0.000000   0.000000 )  
               a(2) = (   0.000000   1.676686   0.000000 )  
               a(3) = (  -0.472262   0.000000   1.787441 )  

     reciprocal axes: (cart. coord. in units 2 pi/alat)
               b(1) = (  1.000000  0.000000  0.264211 )  
               b(2) = (  0.000000  0.596415  0.000000 )  
               b(3) = (  0.000000  0.000000  0.559459 )  


     PseudoPot. # 1 for  C read from file:
     /scratch/ahofstet/pseudo/C.pbe-n-kjpaw_psl.0.1.UPF
     MD5 check sum: 430fe95172b1e11ef3f8ed03bac87931
     Pseudo is Projector augmented-wave + core cor, Zval =  4.0
     Generated using "atomic" code by A. Dal Corso  v.5.0.99 svn rev. 10869
     Shape of augmentation charge: BESSEL
     Using radial grid of 1073 points,  4 beta functions with: 
                l(1) =   0
                l(2) =   0
                l(3) =   1
                l(4) =   1
     Q(r) pseudized with 0 coefficients 


     PseudoPot. # 2 for  N read from file:
     /scratch/ahofstet/pseudo/N.pbe-n-kjpaw_psl.0.1.UPF
     MD5 check sum: f73187c8b701007e77325f868c9291d7
     Pseudo is Projector augmented-wave + core cor, Zval =  5.0
     Generated using "atomic" code by A. Dal Corso  v.5.0.99 svn rev. 10869
     Shape of augmentation charge: PSQ
     Using radial grid of 1085 points,  4 beta functions with: 
                l(1) =   0
                l(2) =   0
                l(3) =   1
                l(4) =   1
     Q(r) pseudized with 0 coefficients 


     PseudoPot. # 3 for  H read from file:
     /scratch/ahofstet/pseudo/H.pbe-kjpaw_psl.0.1.UPF
     MD5 check sum: 94e484f906d9e9773b2f6e52662335b2
     Pseudo is Projector augmented-wave, Zval =  1.0
     Generated using "atomic" code by A. Dal Corso  v.5.0.99 svn rev. 10869
     Shape of augmentation charge: PSQ
     Using radial grid of  929 points,  2 beta functions with: 
                l(1) =   0
                l(2) =   0
     Q(r) pseudized with 0 coefficients 


     PseudoPot. # 4 for  O read from file:
     /scratch/ahofstet/pseudo/O.pbe-n-kjpaw_psl.0.1.UPF
     MD5 check sum: 3f94a2996a3169367d6eb21d9b593f20
     Pseudo is Projector augmented-wave + core cor, Zval =  6.0
     Generated using "atomic" code by A. Dal Corso  v.5.0.99 svn rev. 10869
     Shape of augmentation charge: BESSEL
     Using radial grid of 1095 points,  4 beta functions with: 
                l(1) =   0
                l(2) =   0
                l(3) =   1
                l(4) =   1
     Q(r) pseudized with 0 coefficients 


     atomic species   valence    mass     pseudopotential
        C              4.00    12.01070      C( 1.00)
        N              5.00    14.00670      N( 1.00)
        H              1.00     1.00794      H( 1.00)
        O              6.00    15.99940      O( 1.00)

      2 Sym. Ops., with inversion, found
          (note:  2 additional sym.ops. were found but ignored
           their fractional translations are incommensurate with FFT grid)


   Cartesian axes

     site n.     atom                  positions (alat units)
         1           O   tau(   1) = (   0.6715739   1.5704421   0.6761967  )
         2           O   tau(   2) = (   0.0922949   0.7320992   0.2175239  )
         3           O   tau(   3) = (  -0.1438362   0.1062437   1.1112445  )
         4           O   tau(   4) = (   0.4354427   0.9445867   1.5699174  )
         5           O   tau(   5) = (   0.6252752   0.2210367   0.8003254  )
         6           O   tau(   6) = (   0.1385936   1.0593797   0.0933952  )
         7           O   tau(   7) = (  -0.0975376   1.4556491   0.9871158  )
         8           O   tau(   8) = (   0.3891440   0.6173062   1.6940461  )
         9           C   tau(   9) = (   0.4254446   0.1162586   0.5094012  )
        10           C   tau(  10) = (   0.3384242   0.9546015   0.3843194  )
        11           C   tau(  11) = (   0.1022930   1.5604273   1.2780401  )
        12           C   tau(  12) = (   0.1893134   0.7220844   1.4031218  )
        13           C   tau(  13) = (   0.2039384   0.0359938   0.5792262  )
        14           C   tau(  14) = (   0.5599304   0.8743367   0.3144944  )
        15           C   tau(  15) = (   0.3237992   1.6406921   1.2082151  )
        16           C   tau(  16) = (  -0.0321927   0.8023491   1.4729468  )
        17           C   tau(  17) = (   0.0956425  -0.0587244   0.3855967  )
        18           C   tau(  18) = (   0.6682263   0.7796186   0.5081239  )
        19           C   tau(  19) = (   0.4320952   1.7354103   1.4018446  )
        20           C   tau(  20) = (  -0.1404887   0.8970673   1.2793173  )
        21           C   tau(  21) = (   0.2446920   1.6393616   0.1957279  )
        22           C   tau(  22) = (   0.5191768   0.8010187   0.6979928  )
        23           C   tau(  23) = (   0.2830457   0.0373243   1.5917134  )
        24           C   tau(  24) = (   0.0085608   0.8756672   1.0894485  )
        25           C   tau(  25) = (   0.4492433   0.0695503   0.2721094  )
        26           C   tau(  26) = (   0.3146255   0.9078933   0.6216112  )
        27           C   tau(  27) = (   0.0784943   1.6071355   1.5153319  )
        28           C   tau(  28) = (   0.2131122   0.7687926   1.1658300  )
        29           C   tau(  29) = (   0.3280330   0.3342653   0.4592464  )
        30           C   tau(  30) = (   0.4358359   1.1726083   0.4344743  )
        31           C   tau(  31) = (   0.1997047   1.3424205   1.3281949  )
        32           C   tau(  32) = (   0.0919018   0.5040776   1.3529670  )
        33           C   tau(  33) = (   0.1098112   0.2554021   0.5288240  )
        34           C   tau(  34) = (   0.6540576   1.0937451   0.3648967  )
        35           C   tau(  35) = (   0.4179265   1.4212837   1.2586173  )
        36           C   tau(  36) = (  -0.1263200   0.5829408   1.4225446  )
        37           C   tau(  37) = (  -0.0009303   0.1599301   0.3347141  )
        38           C   tau(  38) = (   0.7647992   0.9982730   0.5590065  )
        39           C   tau(  39) = (   0.5286680   1.5167558   1.4527272  )
        40           C   tau(  40) = (  -0.2370615   0.6784129   1.2284347  )
        41           C   tau(  41) = (   0.1486981   0.1820823   0.1449703  )
        42           C   tau(  42) = (   0.6151707   1.0204253   0.7487503  )
        43           C   tau(  43) = (   0.3790395   1.4946035   1.6424710  )
        44           C   tau(  44) = (  -0.0874331   0.6562606   1.0386910  )
        45           C   tau(  45) = (   0.3523139   0.2882813   0.2221794  )
        46           C   tau(  46) = (   0.4115549   1.1266243   0.6715412  )
        47           C   tau(  47) = (   0.1754237   1.3884045   1.5652619  )
        48           C   tau(  48) = (   0.1161828   0.5500616   1.1159000  )
        49           C   tau(  49) = (   0.5885220   0.0686397   0.6658061  )
        50           C   tau(  50) = (   0.1753468   0.9069827   0.2279145  )
        51           C   tau(  51) = (  -0.0607844   1.6080461   1.1216352  )
        52           C   tau(  52) = (   0.3523908   0.7697032   1.5595267  )
        53           H   tau(  53) = (   0.1891810  -0.0429397   0.7299814  )
        54           H   tau(  54) = (   0.5746878   0.7954033   0.1637392  )
        55           H   tau(  55) = (   0.3385566   1.7196255   1.0574598  )
        56           H   tau(  56) = (  -0.0469501   0.8812826   1.6237021  )
        57           H   tau(  57) = (   0.0034814   1.4758514   0.4054430  )
        58           H   tau(  58) = (   0.7603874   0.6375085   0.4882777  )
        59           H   tau(  59) = (   0.5242562   0.2008345   1.3819983  )
        60           H   tau(  60) = (  -0.2326497   1.0391774   1.2991636  )
        61           H   tau(  61) = (   0.2534755   1.5117914   0.0827094  )
        62           H   tau(  62) = (   0.5103933   0.6734485   0.8110113  )
        63           H   tau(  63) = (   0.2742622   0.1648945   1.7047319  )
        64           H   tau(  64) = (   0.0173443   1.0032374   0.9764300  )
        65           H   tau(  65) = (   0.5991513   1.6919389   0.2119875  )
        66           H   tau(  66) = (   0.1647175   0.8535960   0.6817331  )
        67           H   tau(  67) = (  -0.0714137  -0.0152531   1.5754537  )
        68           H   tau(  68) = (   0.3630201   0.8230899   1.1057082  )
        69           H   tau(  69) = (   0.3889175   0.4796094   0.5230768  )
        70           H   tau(  70) = (   0.3749513   1.3179523   0.3706439  )
        71           H   tau(  71) = (   0.1388201   1.1970765   1.2643645  )
        72           H   tau(  72) = (   0.1527863   0.3587335   1.4167974  )
        73           H   tau(  73) = (   0.0196022   0.3466811   0.6415378  )
        74           H   tau(  74) = (   0.7442666   1.1850240   0.2521828  )
        75           H   tau(  75) = (   0.5081354   1.3300048   1.1459035  )
        76           H   tau(  76) = (  -0.2165289   0.4916618   1.5352585  )
        77           H   tau(  77) = (   0.8307441   0.1806985   0.3154401  )
        78           H   tau(  78) = (  -0.0668753   1.0190414   0.5782805  )
        79           H   tau(  79) = (  -0.3030065   1.4959874   1.4720012  )
        80           H   tau(  80) = (   0.5946130   0.6576444   1.2091607  )
        81           H   tau(  81) = (  -0.3865509   0.2237445   1.7794972  )
        82           H   tau(  82) = (   0.6781574   1.0620875   0.9016648  )
        83           H   tau(  83) = (   0.9142886   1.4529413   0.0079441  )
        84           H   tau(  84) = (  -0.1504198   0.6145984   0.8857765  )
        85           H   tau(  85) = (   0.4288902   0.4046673   0.1236370  )
        86           H   tau(  86) = (   0.3349786   1.2430102   0.7700836  )
        87           H   tau(  87) = (   0.0988474   1.2720186   1.6638043  )
        88           H   tau(  88) = (   0.1927590   0.4336756   1.0173576  )
        89           H   tau(  89) = (   0.7202664   0.1704130   0.9198117  )
        90           H   tau(  90) = (  -0.4286599   1.0087560   1.7613502  )
        91           H   tau(  91) = (  -0.1925287   1.5062728   0.8676295  )
        92           H   tau(  92) = (   0.9563975   0.6679299   0.0260911  )

     number of k points=     8
                       cart. coord. in units 2pi/alat
        k(    1) = (   0.0000000   0.0000000   0.0000000), wk =   0.1666667
        k(    2) = (   0.0000000   0.0000000  -0.2797295), wk =   0.1666667
        k(    3) = (   0.0000000  -0.2982073   0.0000000), wk =   0.1666667
        k(    4) = (   0.0000000  -0.2982073  -0.2797295), wk =   0.1666667
        k(    5) = (   0.3333333   0.0000000   0.0880705), wk =   0.3333333
        k(    6) = (   0.3333333   0.0000000  -0.1916590), wk =   0.3333333
        k(    7) = (   0.3333333  -0.2982073   0.0880705), wk =   0.3333333
        k(    8) = (   0.3333333  -0.2982073  -0.1916590), wk =   0.3333333

     Dense  grid:   723359 G-vectors     FFT dimensions: (  80, 135, 144)

     Estimated max dynamical RAM per process >     615.79MB

     Estimated total allocated dynamical RAM >    4926.33MB

     Check: negative/imaginary core charge=   -0.000002    0.000000

     Initial potential from superposition of free atoms

     starting charge  263.99778, renormalised to  264.00000
     Starting wfc are  248 randomized atomic wfcs
     Checking if some PAW data can be deallocated... 

     total cpu time spent up to now is       40.8 secs

     per-process dynamical memory:   437.0 Mb

     Self-consistent Calculation

     iteration #  1     ecut=   100.00 Ry     beta=0.50
     Davidson diagonalization with overlap
     ethr =  1.00E-02,  avg # of iterations =  3.1

     total cpu time spent up to now is      133.6 secs

     total energy              =   -1189.38964599 Ry
     Harris-Foulkes estimate   =   -1194.12665768 Ry
     estimated scf accuracy    <       9.02435603 Ry

     iteration #  2     ecut=   100.00 Ry     beta=0.50
     Davidson diagonalization with overlap
     ethr =  3.42E-03,  avg # of iterations =  2.6

     total cpu time spent up to now is      186.4 secs

     total energy              =   -1189.70884434 Ry
     Harris-Foulkes estimate   =   -1190.30404237 Ry
     estimated scf accuracy    <       1.21481681 Ry

     iteration #  3     ecut=   100.00 Ry     beta=0.50
     Davidson diagonalization with overlap
     ethr =  4.60E-04,  avg # of iterations =  5.0

     total cpu time spent up to now is      310.5 secs

     total energy              =   -1191.00148983 Ry
     Harris-Foulkes estimate   =   -1191.87464564 Ry
     estimated scf accuracy    <       2.82083686 Ry

     iteration #  4     ecut=   100.00 Ry     beta=0.50
     Davidson diagonalization with overlap
     ethr =  4.60E-04,  avg # of iterations =  2.0

     total cpu time spent up to now is      360.8 secs

     total energy              =   -1190.37972198 Ry
     Harris-Foulkes estimate   =   -1191.10931025 Ry
     estimated scf accuracy    <       1.05060212 Ry

     iteration #  5     ecut=   100.00 Ry     beta=0.50
     Davidson diagonalization with overlap
     ethr =  3.98E-04,  avg # of iterations =  5.5

     total cpu time spent up to now is      471.1 secs

     total energy              =   -1190.95650817 Ry
     Harris-Foulkes estimate   =   -1191.51586166 Ry
     estimated scf accuracy    <       1.38696000 Ry

     iteration #  6     ecut=   100.00 Ry     beta=0.50
     Davidson diagonalization with overlap
     ethr =  3.98E-04,  avg # of iterations =  2.0

     total cpu time spent up to now is      522.6 secs

     total energy              =   -1190.88428628 Ry
     Harris-Foulkes estimate   =   -1191.03434895 Ry
     estimated scf accuracy    <       0.33916960 Ry

     iteration #  7     ecut=   100.00 Ry     beta=0.50
     Davidson diagonalization with overlap
     ethr =  1.28E-04,  avg # of iterations =  6.1

     total cpu time spent up to now is      626.6 secs

     total energy              =   -1191.09928760 Ry
     Harris-Foulkes estimate   =   -1191.11237980 Ry
     estimated scf accuracy    <       0.06130036 Ry

     iteration #  8     ecut=   100.00 Ry     beta=0.50
     Davidson diagonalization with overlap
     ethr =  2.32E-05,  avg # of iterations =  1.9

     total cpu time spent up to now is      676.4 secs

     total energy              =   -1191.08324297 Ry
     Harris-Foulkes estimate   =   -1191.10029093 Ry
     estimated scf accuracy    <       0.03639926 Ry

     iteration #  9     ecut=   100.00 Ry     beta=0.50
     Davidson diagonalization with overlap
     ethr =  1.38E-05,  avg # of iterations =  6.1

     total cpu time spent up to now is      760.7 secs

     total energy              =   -1191.09512640 Ry
     Harris-Foulkes estimate   =   -1191.09541646 Ry
     estimated scf accuracy    <       0.00113286 Ry

     iteration # 10     ecut=   100.00 Ry     beta=0.50
     Davidson diagonalization with overlap
     ethr =  4.29E-07,  avg # of iterations =  8.8

     total cpu time spent up to now is      839.1 secs

     total energy              =   -1191.09506729 Ry
     Harris-Foulkes estimate   =   -1191.09535581 Ry
     estimated scf accuracy    <       0.00055275 Ry

     iteration # 11     ecut=   100.00 Ry     beta=0.50
     Davidson diagonalization with overlap
     ethr =  2.09E-07,  avg # of iterations =  5.0

     total cpu time spent up to now is      911.9 secs

     total energy              =   -1191.09522853 Ry
     Harris-Foulkes estimate   =   -1191.09522174 Ry
     estimated scf accuracy    <       0.00002160 Ry

     iteration # 12     ecut=   100.00 Ry     beta=0.50
     Davidson diagonalization with overlap
     ethr =  8.18E-09,  avg # of iterations =  4.4

     total cpu time spent up to now is     1026.0 secs

     total energy              =   -1191.09523278 Ry
     Harris-Foulkes estimate   =   -1191.09526066 Ry
     estimated scf accuracy    <       0.00009752 Ry

     iteration # 13     ecut=   100.00 Ry     beta=0.50
     Davidson diagonalization with overlap
     ethr =  8.18E-09,  avg # of iterations =  3.5

     total cpu time spent up to now is     1078.8 secs

     total energy              =   -1191.09521000 Ry
     Harris-Foulkes estimate   =   -1191.09523492 Ry
     estimated scf accuracy    <       0.00004468 Ry

     iteration # 14     ecut=   100.00 Ry     beta=0.50
     Davidson diagonalization with overlap
     ethr =  8.18E-09,  avg # of iterations =  4.0

     total cpu time spent up to now is     1178.7 secs

     total energy              =   -1191.09523349 Ry
     Harris-Foulkes estimate   =   -1191.09523609 Ry
     estimated scf accuracy    <       0.00001317 Ry

     iteration # 15     ecut=   100.00 Ry     beta=0.50
     Davidson diagonalization with overlap
     ethr =  4.99E-09,  avg # of iterations =  1.0

     total cpu time spent up to now is     1227.9 secs

     total energy              =   -1191.09522776 Ry
     Harris-Foulkes estimate   =   -1191.09523360 Ry
     estimated scf accuracy    <       0.00000854 Ry

     iteration # 16     ecut=   100.00 Ry     beta=0.50
     Davidson diagonalization with overlap
     ethr =  3.23E-09,  avg # of iterations =  4.0

     total cpu time spent up to now is     1319.8 secs

     total energy              =   -1191.09523232 Ry
     Harris-Foulkes estimate   =   -1191.09523393 Ry
     estimated scf accuracy    <       0.00000575 Ry

     iteration # 17     ecut=   100.00 Ry     beta=0.50
     Davidson diagonalization with overlap
     ethr =  2.18E-09,  avg # of iterations =  1.0

     total cpu time spent up to now is     1368.9 secs

     total energy              =   -1191.09523112 Ry
     Harris-Foulkes estimate   =   -1191.09523242 Ry
     estimated scf accuracy    <       0.00000297 Ry

     iteration # 18     ecut=   100.00 Ry     beta=0.50
     Davidson diagonalization with overlap
     ethr =  1.12E-09,  avg # of iterations =  4.0

     total cpu time spent up to now is     1445.1 secs

     total energy              =   -1191.09523224 Ry
     Harris-Foulkes estimate   =   -1191.09523221 Ry
     estimated scf accuracy    <       0.00000009 Ry

     iteration # 19     ecut=   100.00 Ry     beta=0.50
     Davidson diagonalization with overlap
     ethr =  3.52E-11,  avg # of iterations =  4.8

     total cpu time spent up to now is     1529.3 secs

     total energy              =   -1191.09523220 Ry
     Harris-Foulkes estimate   =   -1191.09523228 Ry
     estimated scf accuracy    <       0.00000024 Ry

     iteration # 20     ecut=   100.00 Ry     beta=0.50
     Davidson diagonalization with overlap
     ethr =  3.52E-11,  avg # of iterations =  1.0

     total cpu time spent up to now is     1578.5 secs

     total energy              =   -1191.09523216 Ry
     Harris-Foulkes estimate   =   -1191.09523220 Ry
     estimated scf accuracy    <       0.00000010 Ry

     iteration # 21     ecut=   100.00 Ry     beta=0.50
     Davidson diagonalization with overlap
     ethr =  3.52E-11,  avg # of iterations =  4.0

     total cpu time spent up to now is     1664.7 secs

     End of self-consistent calculation

          k = 0.0000 0.0000 0.0000 ( 90425 PWs)   bands (ev):

   -20.8177 -20.8171 -20.4520 -20.4515 -18.5543 -18.5542 -18.1437 -18.1435
   -16.4942 -16.4754 -16.4621 -16.4470 -13.0418 -13.0219 -12.9303 -12.9031
   -12.8334 -12.8135 -12.7756 -12.7732 -11.0998 -11.0405 -11.0113 -10.8876
    -9.9338  -9.8387  -9.4035  -9.3672  -8.3163  -8.2990  -8.2479  -8.2446
    -8.1591  -8.0800  -8.0170  -7.9878  -7.9649  -7.9534  -7.8996  -7.8633
    -7.5438  -7.5279  -7.4893  -7.4787  -6.9150  -6.6073  -6.5077  -6.4965
    -5.8320  -5.7672  -5.3906  -5.3297  -5.0039  -4.9535  -4.9081  -4.8232
    -4.7839  -4.7496  -4.7412  -4.6134  -4.6095  -4.4241  -4.3982  -4.3548
    -4.2952  -4.2801  -4.2077  -4.0993  -3.9907  -3.9656  -3.9556  -3.9331
    -3.7809  -3.7429  -3.7258  -3.7238  -3.5133  -3.4935  -3.4496  -3.3632
    -3.2427  -3.1520  -3.1029  -3.0853  -3.0493  -3.0289  -2.9518  -2.9300
    -2.9254  -2.8919  -1.9460  -1.8907  -1.0947  -1.0320  -0.8613  -0.8489
    -0.7495  -0.7204  -0.6304  -0.6233  -0.4330  -0.4310  -0.4273  -0.3748
    -0.3373  -0.3227  -0.2635  -0.2302  -0.2142  -0.1969  -0.1627  -0.0415
    -0.0044   0.0249   0.0975   0.1209   0.1292   0.1763   0.1793   0.1987
     0.2601   0.3413   0.3755   0.4502   0.7278   0.7751   0.8410   0.8438
     0.8459   0.8896   0.9645   0.9739   5.4330   5.4355   5.7393   5.7410
     6.3722   6.6580   6.7864   7.4746   7.4775   7.5841   7.6650   7.6862
     7.7712   7.8289   7.9025   7.9418   8.0167   8.1495   8.2347   8.3642
     8.4185   8.5367   8.5706   8.5956   8.6338   8.9092

          k = 0.0000 0.0000-0.2797 ( 90460 PWs)   bands (ev):

   -20.8174 -20.8174 -20.4517 -20.4517 -18.5542 -18.5542 -18.1436 -18.1436
   -16.4824 -16.4824 -16.4570 -16.4570 -12.9935 -12.9935 -12.9581 -12.9581
   -12.8167 -12.8167 -12.7809 -12.7809 -11.0888 -11.0888 -10.9251 -10.9251
    -9.8684  -9.8684  -9.4170  -9.4170  -8.3252  -8.3252  -8.2231  -8.2231
    -8.1510  -8.1510  -7.9981  -7.9981  -7.8993  -7.8993  -7.8930  -7.8930
    -7.5732  -7.5732  -7.4753  -7.4753  -6.8083  -6.8083  -6.3187  -6.3187
    -5.9763  -5.9763  -5.2957  -5.2957  -5.0147  -5.0147  -4.8312  -4.8312
    -4.7876  -4.7876  -4.6717  -4.6717  -4.5710  -4.5710  -4.3464  -4.3464
    -4.2253  -4.2253  -4.1248  -4.1248  -4.0551  -4.0551  -3.9843  -3.9843
    -3.7606  -3.7606  -3.7460  -3.7460  -3.4663  -3.4663  -3.3785  -3.3785
    -3.1995  -3.1995  -3.1125  -3.1125  -2.9820  -2.9820  -2.9542  -2.9542
    -2.9217  -2.9217  -1.9064  -1.9064  -1.0481  -1.0481  -0.8154  -0.8154
    -0.7094  -0.7094  -0.5876  -0.5876  -0.4735  -0.4735  -0.3742  -0.3742
    -0.3555  -0.3555  -0.2906  -0.2906  -0.2427  -0.2427  -0.1836  -0.1836
     0.0408   0.0408   0.0721   0.0721   0.1727   0.1727   0.1858   0.1858
     0.2913   0.2913   0.4346   0.4346   0.8101   0.8101   0.8395   0.8395
     0.9024   0.9024   0.9225   0.9225   5.4120   5.4120   5.7695   5.7695
     6.5993   6.5993   6.8659   6.8659   7.5847   7.5847   7.7404   7.7404
     7.7982   7.7982   7.9753   7.9753   8.1965   8.1965   8.2218   8.2218
     8.4777   8.4777   8.6621   8.6621   8.7805   8.7805

          k = 0.0000-0.2982 0.0000 ( 90384 PWs)   bands (ev):

   -20.8174 -20.8174 -20.4517 -20.4517 -18.5542 -18.5542 -18.1436 -18.1436
   -16.4848 -16.4848 -16.4545 -16.4545 -13.0316 -13.0316 -12.9165 -12.9165
   -12.8241 -12.8241 -12.7737 -12.7737 -11.0603 -11.0603 -10.9649 -10.9649
    -9.8884  -9.8884  -9.3843  -9.3843  -8.3106  -8.3106  -8.2458  -8.2458
    -8.0812  -8.0812  -8.0048  -8.0048  -7.9671  -7.9671  -7.8959  -7.8959
    -7.5265  -7.5265  -7.4929  -7.4929  -6.7402  -6.7402  -6.5348  -6.5348
    -5.8085  -5.8085  -5.3750  -5.3750  -4.9843  -4.9843  -4.8577  -4.8577
    -4.7473  -4.7473  -4.6746  -4.6746  -4.4987  -4.4987  -4.3500  -4.3500
    -4.2923  -4.2923  -4.2111  -4.2111  -3.9772  -3.9772  -3.9327  -3.9327
    -3.7905  -3.7905  -3.6910  -3.6910  -3.4858  -3.4858  -3.4251  -3.4251
    -3.2217  -3.2217  -3.0666  -3.0666  -3.0421  -3.0421  -2.9339  -2.9339
    -2.9110  -2.9110  -1.9212  -1.9212  -1.0629  -1.0629  -0.7838  -0.7838
    -0.7319  -0.7319  -0.6700  -0.6700  -0.4570  -0.4570  -0.3886  -0.3886
    -0.3383  -0.3383  -0.2700  -0.2700  -0.2054  -0.2054  -0.1026  -0.1026
     0.0340   0.0340   0.0998   0.0998   0.1481   0.1481   0.1829   0.1829
     0.3116   0.3116   0.4163   0.4163   0.7564   0.7564   0.8349   0.8349
     0.9026   0.9026   0.9335   0.9335   5.4316   5.4316   5.7321   5.7321
     6.4332   6.4332   7.0532   7.0533   7.5160   7.5160   7.7219   7.7219
     7.9102   7.9102   8.0352   8.0352   8.1967   8.1967   8.2872   8.2872
     8.4394   8.4394   8.7345   8.7345   8.9290   8.9291

          k = 0.0000-0.2982-0.2797 ( 90492 PWs)   bands (ev):

   -20.8174 -20.8174 -20.4517 -20.4517 -18.5543 -18.5543 -18.1436 -18.1436
   -16.4791 -16.4791 -16.4603 -16.4603 -12.9892 -12.9892 -12.9618 -12.9618
   -12.8161 -12.8161 -12.7816 -12.7816 -11.0681 -11.0681 -10.9506 -10.9506
    -9.8694  -9.8694  -9.4179  -9.4179  -8.3276  -8.3276  -8.2225  -8.2225
    -8.1088  -8.1088  -7.9940  -7.9940  -7.9338  -7.9338  -7.8963  -7.8963
    -7.5703  -7.5703  -7.4746  -7.4746  -6.7596  -6.7596  -6.3800  -6.3800
    -5.9840  -5.9840  -5.3098  -5.3098  -5.0149  -5.0149  -4.8241  -4.8241
    -4.7995  -4.7995  -4.6735  -4.6735  -4.4592  -4.4592  -4.4050  -4.4050
    -4.2056  -4.2056  -4.1305  -4.1305  -4.0719  -4.0719  -4.0077  -4.0077
    -3.7566  -3.7566  -3.7469  -3.7469  -3.4622  -3.4622  -3.3906  -3.3906
    -3.1965  -3.1965  -3.1081  -3.1081  -2.9920  -2.9920  -2.9409  -2.9409
    -2.9191  -2.9191  -1.9068  -1.9068  -1.0446  -1.0446  -0.7658  -0.7658
    -0.6776  -0.6776  -0.6403  -0.6403  -0.4966  -0.4966  -0.4014  -0.4014
    -0.3306  -0.3306  -0.2918  -0.2918  -0.2436  -0.2436  -0.1963  -0.1963
     0.0523   0.0523   0.0615   0.0615   0.1757   0.1757   0.1815   0.1815
     0.3193   0.3193   0.4215   0.4215   0.8398   0.8398   0.8425   0.8425
     0.8854   0.8854   0.8995   0.8995   5.4080   5.4080   5.7635   5.7635
     6.6359   6.6359   6.7531   6.7531   7.6034   7.6035   7.6596   7.6596
     7.8307   7.8307   8.1714   8.1714   8.2735   8.2735   8.2980   8.2980
     8.5763   8.5763   8.6436   8.6437   9.0042   9.0043

          k = 0.3333 0.0000 0.0881 ( 90390 PWs)   bands (ev):

   -20.8161 -20.8160 -20.4522 -20.4520 -18.5537 -18.5537 -18.1436 -18.1436
   -16.4754 -16.4714 -16.4568 -16.4551 -13.0348 -13.0197 -12.9741 -12.9501
   -12.8704 -12.8431 -12.8002 -12.7974 -11.1156 -11.0816 -10.9696 -10.9390
    -9.8754  -9.8208  -9.4210  -9.4054  -8.1831  -8.1445  -8.0854  -8.0700
    -8.0257  -8.0118  -7.9968  -7.9930  -7.9557  -7.9235  -7.9054  -7.8402
    -7.5708  -7.5437  -7.5342  -7.5283  -6.7838  -6.5954  -6.3542  -6.2411
    -5.8392  -5.8226  -5.2686  -5.2269  -5.0982  -5.0069  -4.9494  -4.9213
    -4.8933  -4.8513  -4.8031  -4.6732  -4.6476  -4.5949  -4.5726  -4.4129
    -4.4037  -4.2726  -4.2030  -4.1312  -4.1149  -4.0836  -3.9408  -3.8584
    -3.8353  -3.7826  -3.7825  -3.7539  -3.5680  -3.5560  -3.4436  -3.4270
    -3.4155  -3.3752  -3.2318  -3.1778  -3.1105  -3.0162  -3.0108  -2.9785
    -2.8988  -2.8688  -1.8926  -1.8706  -1.0699  -1.0170  -0.8307  -0.8161
    -0.7561  -0.7387  -0.6475  -0.5881  -0.4633  -0.4132  -0.4039  -0.4009
    -0.3721  -0.3401  -0.2825  -0.2157  -0.1429  -0.0954  -0.0943   0.0622
     0.1152   0.1255   0.1566   0.1745   0.2173   0.2395   0.2440   0.2757
     0.2885   0.3044   0.4023   0.4343   0.7461   0.8180   0.8371   0.8395
     0.9067   0.9453   0.9481   1.0109   5.4328   5.4396   5.7174   5.7265
     6.5072   6.8409   7.0215   7.1996   7.3387   7.5459   7.6880   7.7822
     7.9380   7.9936   8.0134   8.0142   8.0990   8.2653   8.3378   8.4775
     8.4927   8.5220   8.5263   8.6184   8.6293   8.7790

          k = 0.3333 0.0000-0.1917 ( 90422 PWs)   bands (ev):

   -20.8163 -20.8159 -20.4523 -20.4519 -18.5537 -18.5536 -18.1437 -18.1435
   -16.4810 -16.4681 -16.4618 -16.4478 -13.0508 -13.0351 -12.9585 -12.9336
   -12.8507 -12.8483 -12.8072 -12.8036 -11.1103 -11.0793 -10.9908 -10.9297
    -9.8992  -9.8204  -9.4096  -9.3753  -8.1704  -8.1534  -8.1147  -8.1006
    -8.0438  -8.0335  -7.9794  -7.9703  -7.9394  -7.8959  -7.8834  -7.8678
    -7.5952  -7.5435  -7.5263  -7.5008  -6.6536  -6.6483  -6.5044  -6.3036
    -5.7714  -5.6862  -5.3391  -5.2945  -5.0123  -4.9886  -4.9461  -4.9215
    -4.9025  -4.8891  -4.8348  -4.6694  -4.6430  -4.5637  -4.5306  -4.4597
    -4.3527  -4.3154  -4.2829  -4.1251  -4.0583  -4.0399  -3.9295  -3.8970
    -3.8026  -3.7905  -3.7899  -3.7466  -3.6325  -3.5173  -3.4724  -3.4341
    -3.3933  -3.3273  -3.2570  -3.1690  -3.0914  -3.0598  -2.9967  -2.9932
    -2.8954  -2.8828  -1.9097  -1.8589  -1.0547  -1.0053  -0.8708  -0.8617
    -0.7872  -0.7133  -0.6608  -0.5766  -0.4339  -0.4318  -0.4116  -0.3843
    -0.3068  -0.3011  -0.2588  -0.1846  -0.1287  -0.0869  -0.0120  -0.0081
     0.0834   0.0969   0.1340   0.1495   0.2136   0.2321   0.2418   0.2646
     0.3062   0.3094   0.3702   0.4527   0.6841   0.7849   0.8667   0.8824
     0.9485   0.9512   0.9555   0.9639   5.4388   5.4535   5.6933   5.7266
     6.6916   6.7281   7.0929   7.1416   7.2692   7.4480   7.6767   7.7200
     7.9077   7.9127   7.9875   8.0794   8.1769   8.2473   8.3501   8.4124
     8.4279   8.5778   8.6693   8.7330   8.8045   8.8955

          k = 0.3333-0.2982 0.0881 ( 90390 PWs)   bands (ev):

   -20.8161 -20.8161 -20.4521 -20.4521 -18.5537 -18.5537 -18.1436 -18.1436
   -16.4689 -16.4689 -16.4606 -16.4606 -13.0268 -13.0268 -12.9621 -12.9621
   -12.8574 -12.8574 -12.7982 -12.7982 -11.0810 -11.0810 -10.9756 -10.9756
    -9.8486  -9.8486  -9.4134  -9.4134  -8.1361  -8.1361  -8.0800  -8.0800
    -8.0047  -8.0047  -7.9866  -7.9866  -7.9586  -7.9586  -7.9006  -7.9006
    -7.5582  -7.5582  -7.5298  -7.5298  -6.6804  -6.6804  -6.3038  -6.3038
    -5.8464  -5.8464  -5.2591  -5.2591  -5.0427  -5.0427  -4.9385  -4.9385
    -4.8718  -4.8718  -4.6982  -4.6982  -4.5933  -4.5933  -4.4887  -4.4887
    -4.3667  -4.3667  -4.1788  -4.1788  -4.0953  -4.0953  -3.9236  -3.9236
    -3.8399  -3.8399  -3.7468  -3.7468  -3.5483  -3.5483  -3.4599  -3.4599
    -3.3624  -3.3624  -3.2175  -3.2175  -3.0637  -3.0637  -3.0071  -3.0071
    -2.8820  -2.8820  -1.8790  -1.8790  -1.0459  -1.0459  -0.7979  -0.7979
    -0.7031  -0.7031  -0.6456  -0.6456  -0.4518  -0.4518  -0.4043  -0.4043
    -0.3410  -0.3410  -0.2765  -0.2765  -0.1359  -0.1359   0.0063   0.0063
     0.1122   0.1122   0.1626   0.1626   0.2390   0.2390   0.2627   0.2627
     0.3038   0.3038   0.4159   0.4159   0.7830   0.7830   0.8377   0.8377
     0.9107   0.9107   0.9899   0.9899   5.4323   5.4323   5.7166   5.7166
     6.7258   6.7258   7.0713   7.0713   7.5515   7.5515   7.6415   7.6415
     7.8653   7.8653   7.9656   7.9656   8.2258   8.2258   8.3065   8.3065
     8.4205   8.4205   8.6406   8.6406   8.9394   8.9394

          k = 0.3333-0.2982-0.1917 ( 90342 PWs)   bands (ev):

   -20.8161 -20.8161 -20.4521 -20.4521 -18.5537 -18.5537 -18.1436 -18.1436
   -16.4737 -16.4737 -16.4557 -16.4557 -13.0427 -13.0427 -12.9458 -12.9458
   -12.8482 -12.8482 -12.8069 -12.8069 -11.0775 -11.0775 -10.9815 -10.9815
    -9.8610  -9.8610  -9.3916  -9.3916  -8.1453  -8.1453  -8.0905  -8.0905
    -8.0233  -8.0233  -7.9692  -7.9692  -7.9423  -7.9423  -7.9056  -7.9056
    -7.5683  -7.5683  -7.5158  -7.5158  -6.6069  -6.6069  -6.4484  -6.4484
    -5.7396  -5.7396  -5.3236  -5.3236  -4.9923  -4.9923  -4.9312  -4.9312
    -4.9003  -4.9003  -4.6989  -4.6989  -4.6337  -4.6337  -4.4610  -4.4610
    -4.3251  -4.3251  -4.2344  -4.2344  -4.0237  -4.0237  -3.9558  -3.9558
    -3.8421  -3.8421  -3.7484  -3.7484  -3.5712  -3.5712  -3.4386  -3.4386
    -3.3539  -3.3539  -3.2175  -3.2175  -3.0787  -3.0787  -3.0037  -3.0037
    -2.8924  -2.8924  -1.8836  -1.8836  -1.0317  -1.0317  -0.8334  -0.8334
    -0.7335  -0.7335  -0.6250  -0.6250  -0.4335  -0.4335  -0.4037  -0.4037
    -0.3282  -0.3282  -0.2059  -0.2059  -0.0970  -0.0970  -0.0348  -0.0348
     0.0904   0.0904   0.1479   0.1479   0.2237   0.2237   0.2601   0.2601
     0.3028   0.3028   0.4120   0.4120   0.7367   0.7367   0.8733   0.8733
     0.9473   0.9473   0.9613   0.9613   5.4432   5.4432   5.7043   5.7043
     6.8334   6.8334   7.0203   7.0203   7.4651   7.4651   7.5896   7.5896
     7.8424   7.8424   7.9965   7.9965   8.1650   8.1650   8.4149   8.4149
     8.5465   8.5465   8.6362   8.6362   8.9153   8.9154

     highest occupied, lowest unoccupied level (ev):     1.0109    5.4080

!    total energy              =   -1191.09523220 Ry
     Harris-Foulkes estimate   =   -1191.09523221 Ry
     estimated scf accuracy    <          5.7E-09 Ry

     total all-electron energy =     -4603.490660 Ry

     The total energy is the sum of the following terms:

     one-electron contribution =    -656.63397506 Ry
     hartree contribution      =     435.85490740 Ry
     xc contribution           =    -270.39405999 Ry
     ewald contribution        =    -330.65890926 Ry
     Dispersion Correction     =      -0.48223915 Ry
     one-center paw contrib.   =    -368.78095615 Ry

     convergence has been achieved in  21 iterations

     Forces acting on atoms (cartesian axes, Ry/au):

     atom    1 type  4   force =     0.00068831    0.00215453   -0.00043202
     atom    2 type  4   force =    -0.00068735    0.00215793    0.00043254
     atom    3 type  4   force =    -0.00068831   -0.00215453    0.00043202
     atom    4 type  4   force =     0.00068735   -0.00215793   -0.00043254
     atom    5 type  4   force =    -0.00002874   -0.00071409    0.00055755
     atom    6 type  4   force =     0.00002865   -0.00071516   -0.00055777
     atom    7 type  4   force =     0.00002874    0.00071409   -0.00055755
     atom    8 type  4   force =    -0.00002865    0.00071516    0.00055777
     atom    9 type  1   force =     0.00007254   -0.00160271    0.00259363
     atom   10 type  1   force =    -0.00007222   -0.00160856   -0.00259335
     atom   11 type  1   force =    -0.00007254    0.00160271   -0.00259363
     atom   12 type  1   force =     0.00007222    0.00160856    0.00259335
     atom   13 type  1   force =    -0.00076741   -0.00090120    0.00284618
     atom   14 type  1   force =     0.00076736   -0.00089792   -0.00284640
     atom   15 type  1   force =     0.00076741    0.00090120   -0.00284618
     atom   16 type  1   force =    -0.00076736    0.00089792    0.00284640
     atom   17 type  1   force =    -0.00103157   -0.00283260   -0.00261769
     atom   18 type  1   force =     0.00103145   -0.00284191    0.00261806
     atom   19 type  1   force =     0.00103157    0.00283260    0.00261769
     atom   20 type  1   force =    -0.00103145    0.00284191   -0.00261806
     atom   21 type  1   force =     0.00095847   -0.00177405   -0.00006169
     atom   22 type  1   force =    -0.00095868   -0.00177431    0.00006163
     atom   23 type  1   force =    -0.00095847    0.00177405    0.00006169
     atom   24 type  1   force =     0.00095868    0.00177431   -0.00006163
     atom   25 type  1   force =    -0.00423720   -0.00582731    0.00099235
     atom   26 type  1   force =     0.00423711   -0.00582332   -0.00099246
     atom   27 type  1   force =     0.00423720    0.00582731   -0.00099235
     atom   28 type  1   force =    -0.00423711    0.00582332    0.00099246
     atom   29 type  1   force =    -0.00017692    0.00047599   -0.00155970
     atom   30 type  1   force =     0.00017691    0.00048321    0.00155976
     atom   31 type  1   force =     0.00017692   -0.00047599    0.00155970
     atom   32 type  1   force =    -0.00017691   -0.00048321   -0.00155976
     atom   33 type  1   force =    -0.00185565   -0.00075965    0.00025252
     atom   34 type  1   force =     0.00185557   -0.00075782   -0.00025227
     atom   35 type  1   force =     0.00185565    0.00075965   -0.00025252
     atom   36 type  1   force =    -0.00185557    0.00075782    0.00025227
     atom   37 type  1   force =    -0.00327578    0.00191824    0.00035293
     atom   38 type  1   force =     0.00327544    0.00192433   -0.00035309
     atom   39 type  1   force =     0.00327578   -0.00191824   -0.00035293
     atom   40 type  1   force =    -0.00327544   -0.00192433    0.00035309
     atom   41 type  1   force =     0.00017814   -0.00039163   -0.00253449
     atom   42 type  1   force =    -0.00017850   -0.00038850    0.00253457
     atom   43 type  1   force =    -0.00017814    0.00039163    0.00253449
     atom   44 type  1   force =     0.00017850    0.00038850   -0.00253457
     atom   45 type  1   force =     0.00090558    0.00421098    0.00113615
     atom   46 type  1   force =    -0.00090557    0.00420359   -0.00113601
     atom   47 type  1   force =    -0.00090558   -0.00421098   -0.00113615
     atom   48 type  1   force =     0.00090557   -0.00420359    0.00113601
     atom   49 type  1   force =     0.00137638    0.00079986    0.00140413
     atom   50 type  1   force =    -0.00137709    0.00081192   -0.00140373
     atom   51 type  1   force =    -0.00137638   -0.00079986   -0.00140413
     atom   52 type  1   force =     0.00137709   -0.00081192    0.00140373
     atom   53 type  3   force =     0.00109111    0.00085796   -0.00026686
     atom   54 type  3   force =    -0.00109110    0.00085780    0.00026697
     atom   55 type  3   force =    -0.00109111   -0.00085796    0.00026686
     atom   56 type  3   force =     0.00109110   -0.00085780   -0.00026697
     atom   57 type  3   force =    -0.00186096    0.00014487   -0.00092690
     atom   58 type  3   force =     0.00186105    0.00014467    0.00092697
     atom   59 type  3   force =     0.00186096   -0.00014487    0.00092690
     atom   60 type  3   force =    -0.00186105   -0.00014467   -0.00092697
     atom   61 type  3   force =     0.00145989    0.00039873    0.00104502
     atom   62 type  3   force =    -0.00145992    0.00039888   -0.00104529
     atom   63 type  3   force =    -0.00145989   -0.00039873   -0.00104502
     atom   64 type  3   force =     0.00145992   -0.00039888    0.00104529
     atom   65 type  3   force =    -0.00194626   -0.00250629    0.00004909
     atom   66 type  3   force =     0.00194649   -0.00250591   -0.00004916
     atom   67 type  3   force =     0.00194626    0.00250629   -0.00004909
     atom   68 type  3   force =    -0.00194649    0.00250591    0.00004916
     atom   69 type  3   force =     0.00079364    0.00023216    0.00061690
     atom   70 type  3   force =    -0.00079356    0.00023231   -0.00061684
     atom   71 type  3   force =    -0.00079364   -0.00023216   -0.00061690
     atom   72 type  3   force =     0.00079356   -0.00023231    0.00061684
     atom   73 type  3   force =     0.00061608   -0.00060164   -0.00098356
     atom   74 type  3   force =    -0.00061601   -0.00060186    0.00098355
     atom   75 type  3   force =    -0.00061608    0.00060164    0.00098356
     atom   76 type  3   force =     0.00061601    0.00060186   -0.00098355
     atom   77 type  3   force =     0.00654741    0.00673117   -0.00145239
     atom   78 type  3   force =    -0.00654733    0.00673111    0.00145237
     atom   79 type  3   force =    -0.00654741   -0.00673117    0.00145239
     atom   80 type  3   force =     0.00654733   -0.00673111   -0.00145237
     atom   81 type  3   force =     0.00002090    0.00061593    0.00055562
     atom   82 type  3   force =    -0.00002094    0.00061583   -0.00055567
     atom   83 type  3   force =    -0.00002090   -0.00061593   -0.00055562
     atom   84 type  3   force =     0.00002094   -0.00061583    0.00055567
     atom   85 type  3   force =     0.00085965   -0.00020485   -0.00016188
     atom   86 type  3   force =    -0.00085966   -0.00020482    0.00016184
     atom   87 type  3   force =    -0.00085965    0.00020485    0.00016188
     atom   88 type  3   force =     0.00085966    0.00020482   -0.00016184
     atom   89 type  3   force =    -0.00057452    0.00010664   -0.00117855
     atom   90 type  3   force =     0.00057457    0.00010638    0.00117862
     atom   91 type  3   force =     0.00057452   -0.00010664    0.00117855
     atom   92 type  3   force =    -0.00057457   -0.00010638   -0.00117862

     Total force =     0.032631     Total SCF correction =     0.000161


     Computing stress (Cartesian axis) and pressure

          total   stress  (Ry/bohr**3)                   (kbar)     P=   -4.05
   0.00001302  -0.00000000   0.00002653          1.92     -0.00      3.90
  -0.00000000  -0.00004023   0.00000000         -0.00     -5.92      0.00
   0.00002653   0.00000000  -0.00005539          3.90      0.00     -8.15


     Writing output data file scf.save
 
     init_run     :     38.99s CPU     40.12s WALL (       1 calls)
     electrons    :   1565.64s CPU   1624.05s WALL (       1 calls)
     forces       :     18.42s CPU     18.60s WALL (       1 calls)
     stress       :     70.99s CPU     71.25s WALL (       1 calls)

     Called by init_run:
     wfcinit      :     29.91s CPU     30.94s WALL (       1 calls)
     potinit      :      3.24s CPU      3.27s WALL (       1 calls)

     Called by electrons:
     c_bands      :   1409.66s CPU   1459.02s WALL (      21 calls)
     sum_band     :    139.45s CPU    146.96s WALL (      21 calls)
     v_of_rho     :      2.25s CPU      2.46s WALL (      22 calls)
     newd         :      5.31s CPU      6.58s WALL (      22 calls)
     PAW_pot      :      8.17s CPU      8.17s WALL (      22 calls)
     mix_rho      :      0.63s CPU      0.70s WALL (      21 calls)

     Called by c_bands:
     init_us_2    :      8.55s CPU      8.58s WALL (     360 calls)
     cegterg      :   1377.50s CPU   1426.75s WALL (     168 calls)

     Called by sum_band:
     sum_band:bec :      0.09s CPU      0.09s WALL (     168 calls)
     addusdens    :      5.54s CPU      6.74s WALL (      21 calls)

     Called by *egterg:
     h_psi        :    762.61s CPU    800.09s WALL (     814 calls)
     s_psi        :    161.64s CPU    161.66s WALL (     814 calls)
     g_psi        :      3.89s CPU      3.89s WALL (     638 calls)
     cdiaghg      :     72.96s CPU     72.95s WALL (     806 calls)

     Called by h_psi:
     h_psi:pot    :    756.94s CPU    794.33s WALL (     814 calls)
     h_psi:calbec :    161.45s CPU    161.85s WALL (     814 calls)
     vloc_psi     :    433.27s CPU    470.23s WALL (     814 calls)
     add_vuspsi   :    162.22s CPU    162.26s WALL (     814 calls)

     General routines
     calbec       :    226.05s CPU    226.57s WALL (    1022 calls)
     fft          :      2.02s CPU      2.38s WALL (     310 calls)
     fftw         :    464.47s CPU    504.72s WALL (  186602 calls)
 
     Parallel routines
     fft_scatter  :    101.32s CPU    132.53s WALL (  186912 calls)
 
     PWSCF        : 28m22.42s CPU    30m 5.33s WALL

 
   This run was terminated on:  13: 4: 3  20Dec2017            

=------------------------------------------------------------------------------=
   JOB DONE.
=------------------------------------------------------------------------------=
