
     Program PWSCF v.6.1 (svn rev. 13369) starts on 12Nov2017 at  9:41:40 

     This program is part of the open-source Quantum ESPRESSO suite
     for quantum simulation of materials; please cite
         "P. Giannozzi et al., J. Phys.:Condens. Matter 21 395502 (2009);
          URL http://www.quantum-espresso.org", 
     in publications or presentations arising from this work. More details at
     http://www.quantum-espresso.org/quote

     Parallel version (MPI), running on     8 processors
     R & G space division:  proc/nbgrp/npool/nimage =       8
     Waiting for input...
     Reading input from standard input

     Current dimensions of program PWSCF are:
     Max number of different atomic species (ntypx) = 10
     Max number of k-points (npk) =  40000
     Max angular momentum in pseudopotentials (lmaxx) =  3
               file C.pbe-n-kjpaw_psl.0.1.UPF: wavefunction(s)  2P renormalized
               file N.pbe-n-kjpaw_psl.0.1.UPF: wavefunction(s)  2P renormalized
               file H.pbe-kjpaw_psl.0.1.UPF: wavefunction(s)  1S renormalized
               file O.pbe-n-kjpaw_psl.0.1.UPF: wavefunction(s)  2P renormalized

     -------------------------------------
     Parameters for Dispersion Correction:
     -------------------------------------
       atom      VdW radius       C_6     

        C          2.744         60.710
        N          2.640         42.670
        H          1.892          4.857
        O          2.536         24.284

     Subspace diagonalization in iterative solution of the eigenvalue problem:
     a serial algorithm will be used

 
     Parallelization info
     --------------------
     sticks:   dense  smooth     PW     G-vecs:    dense   smooth      PW
     Min        1630    1630    431               158908   158908   21702
     Max        1631    1631    432               158910   158910   21706
     Sum       13041   13041   3449              1271269  1271269  173625
 


     bravais-lattice index     =            0
     lattice parameter (alat)  =      19.5908  a.u.
     unit-cell volume          =    9410.8345 (a.u.)^3
     number of atoms/cell      =          164
     number of atomic types    =            4
     number of electrons       =       456.00
     number of Kohn-Sham states=          273
     kinetic-energy cutoff     =     100.0000  Ry
     charge density cutoff     =     400.0000  Ry
     convergence threshold     =      1.0E-08
     mixing beta               =       0.5000
     number of iterations used =            8  plain     mixing
     Exchange-correlation      =  SLA  PW   PBX  PBC ( 1  4  3  4 0 0)

     celldm(1)=  19.590791  celldm(2)=   0.000000  celldm(3)=   0.000000
     celldm(4)=   0.000000  celldm(5)=   0.000000  celldm(6)=   0.000000

     crystal axes: (cart. coord. in units of alat)
               a(1) = (   1.000000   0.000000   0.000000 )  
               a(2) = (   0.000000   1.066268   0.000000 )  
               a(3) = (  -0.485017   0.000000   1.173832 )  

     reciprocal axes: (cart. coord. in units 2 pi/alat)
               b(1) = (  1.000000  0.000000  0.413192 )  
               b(2) = (  0.000000  0.937851  0.000000 )  
               b(3) = (  0.000000  0.000000  0.851911 )  


     PseudoPot. # 1 for  C read from file:
     /scratch/ahofstet/pseudo/C.pbe-n-kjpaw_psl.0.1.UPF
     MD5 check sum: 430fe95172b1e11ef3f8ed03bac87931
     Pseudo is Projector augmented-wave + core cor, Zval =  4.0
     Generated using "atomic" code by A. Dal Corso  v.5.0.99 svn rev. 10869
     Shape of augmentation charge: BESSEL
     Using radial grid of 1073 points,  4 beta functions with: 
                l(1) =   0
                l(2) =   0
                l(3) =   1
                l(4) =   1
     Q(r) pseudized with 0 coefficients 


     PseudoPot. # 2 for  N read from file:
     /scratch/ahofstet/pseudo/N.pbe-n-kjpaw_psl.0.1.UPF
     MD5 check sum: f73187c8b701007e77325f868c9291d7
     Pseudo is Projector augmented-wave + core cor, Zval =  5.0
     Generated using "atomic" code by A. Dal Corso  v.5.0.99 svn rev. 10869
     Shape of augmentation charge: PSQ
     Using radial grid of 1085 points,  4 beta functions with: 
                l(1) =   0
                l(2) =   0
                l(3) =   1
                l(4) =   1
     Q(r) pseudized with 0 coefficients 


     PseudoPot. # 3 for  H read from file:
     /scratch/ahofstet/pseudo/H.pbe-kjpaw_psl.0.1.UPF
     MD5 check sum: 94e484f906d9e9773b2f6e52662335b2
     Pseudo is Projector augmented-wave, Zval =  1.0
     Generated using "atomic" code by A. Dal Corso  v.5.0.99 svn rev. 10869
     Shape of augmentation charge: PSQ
     Using radial grid of  929 points,  2 beta functions with: 
                l(1) =   0
                l(2) =   0
     Q(r) pseudized with 0 coefficients 


     PseudoPot. # 4 for  O read from file:
     /scratch/ahofstet/pseudo/O.pbe-n-kjpaw_psl.0.1.UPF
     MD5 check sum: 3f94a2996a3169367d6eb21d9b593f20
     Pseudo is Projector augmented-wave + core cor, Zval =  6.0
     Generated using "atomic" code by A. Dal Corso  v.5.0.99 svn rev. 10869
     Shape of augmentation charge: BESSEL
     Using radial grid of 1095 points,  4 beta functions with: 
                l(1) =   0
                l(2) =   0
                l(3) =   1
                l(4) =   1
     Q(r) pseudized with 0 coefficients 


     atomic species   valence    mass     pseudopotential
        C              4.00    12.01070      C( 1.00)
        N              5.00    14.00670      N( 1.00)
        H              1.00     1.00794      H( 1.00)
        O              6.00    15.99940      O( 1.00)

      2 Sym. Ops., with inversion, found



   Cartesian axes

     site n.     atom                  positions (alat units)
         1           N   tau(   1) = (   0.6418563   0.6897669   0.0391042  )
         2           N   tau(   2) = (   0.6156363   0.1566352   0.5478041  )
         3           N   tau(   3) = (  -0.1268737   0.3765011   1.1347276  )
         4           N   tau(   4) = (  -0.1006537   0.9096328   0.6260277  )
         5           H   tau(   5) = (   0.1336361   0.6453719   1.1248803  )
         6           H   tau(   6) = (   0.6388329   0.1122421   0.6358624  )
         7           H   tau(   7) = (   0.3813465   0.4208960   0.0489515  )
         8           H   tau(   8) = (  -0.1238502   0.9540258   0.5379694  )
         9           H   tau(   9) = (   0.5786457   0.6441465   0.1044752  )
        10           H   tau(  10) = (   0.6788531   0.1110119   0.4824405  )
        11           H   tau(  11) = (  -0.0636630   0.4221214   1.0693566  )
        12           H   tau(  12) = (  -0.1638705   0.9552560   0.6913913  )
        13           N   tau(  13) = (   0.4452853   0.9276324   1.0495535  )
        14           N   tau(  14) = (   0.3271846   0.3944966   0.7111702  )
        15           N   tau(  15) = (   0.0696974   0.1386356   0.1242783  )
        16           N   tau(  16) = (   0.1877981   0.6717714   0.4626616  )
        17           H   tau(  17) = (   0.5409013   0.9162990   1.0751054  )
        18           H   tau(  18) = (   0.2315662   0.3831632   0.6856219  )
        19           H   tau(  19) = (  -0.0259187   0.1499690   0.0987264  )
        20           H   tau(  20) = (   0.2834164   0.6831048   0.4882099  )
        21           H   tau(  21) = (   0.4263983   1.0270552   1.0459600  )
        22           H   tau(  22) = (   0.3460698   0.4939210   0.7147690  )
        23           H   tau(  23) = (   0.0885844   0.0392128   0.1278718  )
        24           H   tau(  24) = (   0.1689128   0.5723470   0.4590628  )
        25           H   tau(  25) = (   0.4320178   0.8873948   0.9569537  )
        26           H   tau(  26) = (   0.3404585   0.3542556   0.8037640  )
        27           H   tau(  27) = (   0.0829648   0.1788732   0.2168781  )
        28           H   tau(  28) = (   0.1745242   0.7120123   0.3700678  )
        29           C   tau(  29) = (   0.7796648   0.6515281   0.0733296  )
        30           C   tau(  30) = (   0.4778325   0.1183937   0.5135666  )
        31           C   tau(  31) = (  -0.2646822   0.4147398   1.1005022  )
        32           C   tau(  32) = (   0.0371502   0.9478743   0.6602652  )
        33           C   tau(  33) = (   0.3867250   0.7230201   1.1561050  )
        34           C   tau(  34) = (   0.3857426   0.1898960   0.6046014  )
        35           C   tau(  35) = (   0.1282576   0.3432479   0.0177268  )
        36           C   tau(  36) = (   0.1292401   0.8763720   0.5692304  )
        37           H   tau(  37) = (   0.9702938   0.7090864   0.0188875  )
        38           H   tau(  38) = (   0.2871953   0.1759617   0.5679756  )
        39           H   tau(  39) = (  -0.4553112   0.3571816   1.1549444  )
        40           H   tau(  40) = (   0.2277873   0.8903063   0.6058562  )
        41           H   tau(  41) = (   0.3807246   0.6807474   1.0587597  )
        42           H   tau(  42) = (   0.3917288   0.1476283   0.7019499  )
        43           H   tau(  43) = (   0.1342581   0.3855206   0.1150721  )
        44           H   tau(  44) = (   0.1232539   0.9186397   0.4718819  )
        45           C   tau(  45) = (   0.3580450   0.8671207   1.1474227  )
        46           C   tau(  46) = (   0.4144217   0.3339961   0.6132900  )
        47           C   tau(  47) = (   0.1569376   0.1991473   0.0264091  )
        48           C   tau(  48) = (   0.1005609   0.7322719   0.5605418  )
        49           H   tau(  49) = (   0.8646970   0.9147363   0.0657800  )
        50           H   tau(  50) = (   0.3927852   0.3816189   0.5211063  )
        51           H   tau(  51) = (  -0.3497144   0.1515317   1.1080518  )
        52           H   tau(  52) = (   0.1221974   0.6846491   0.6527255  )
        53           C   tau(  53) = (   0.2187001   0.8917061   1.1066449  )
        54           C   tau(  54) = (   0.5537646   0.3585837   0.6540754  )
        55           C   tau(  55) = (   0.2962825   0.1745619   0.0671869  )
        56           C   tau(  56) = (  -0.0387820   0.7076843   0.5197564  )
        57           H   tau(  57) = (   0.2040604   0.8495740   1.0101667  )
        58           H   tau(  58) = (   0.5683964   0.3164646   0.7505604  )
        59           H   tau(  59) = (   0.3109222   0.2166940   0.1636651  )
        60           H   tau(  60) = (  -0.0534137   0.7498033   0.4232715  )
        61           H   tau(  61) = (   0.2005541   0.9959471   1.0993409  )
        62           H   tau(  62) = (   0.5719102   0.4628258   0.6613661  )
        63           H   tau(  63) = (   0.3144285   0.0703209   0.0744909  )
        64           H   tau(  64) = (  -0.0569275   0.6034422   0.5124657  )
        65           C   tau(  65) = (   0.6064544   0.8314843   0.0263924  )
        66           C   tau(  66) = (   0.6510372   0.2983522   0.5605139  )
        67           C   tau(  67) = (  -0.0914718   0.2347837   1.1474394  )
        68           C   tau(  68) = (  -0.1360546   0.7679157   0.6133180  )
        69           C   tau(  69) = (   0.7870590   0.5058469   0.0504795  )
        70           C   tau(  70) = (   0.4704277   1.0389852   0.5364459  )
        71           C   tau(  71) = (  -0.2720764   0.5604211   1.1233523  )
        72           C   tau(  72) = (   0.0445550   0.0272828   0.6373859  )
        73           H   tau(  73) = (   0.2844973   0.4808998   1.1228378  )
        74           H   tau(  74) = (   0.4879593   1.0140585   0.6379266  )
        75           H   tau(  75) = (   0.2304853   0.5853681   0.0509940  )
        76           H   tau(  76) = (   0.0270233   0.0522094   0.5359052  )
        77           H   tau(  77) = (   0.7166027   0.4553054   0.1114759  )
        78           H   tau(  78) = (   0.5408875   0.9884261   0.4754683  )
        79           H   tau(  79) = (  -0.2016201   0.6109625   1.0623559  )
        80           H   tau(  80) = (  -0.0259049   0.0778419   0.6983635  )
        81           H   tau(  81) = (   0.8835714   0.4720795   0.0775191  )
        82           H   tau(  82) = (   0.3739161   1.0052182   0.5094020  )
        83           H   tau(  83) = (  -0.3685888   0.5941885   1.0963127  )
        84           H   tau(  84) = (   0.1410665   0.0610497   0.6644299  )
        85           C   tau(  85) = (   0.8083673   0.6791924   0.2155176  )
        86           C   tau(  86) = (   0.4491503   0.1460385   0.3713690  )
        87           C   tau(  87) = (  -0.2933847   0.3870756   0.9583142  )
        88           C   tau(  88) = (   0.0658323   0.9202295   0.8024628  )
        89           H   tau(  89) = (   0.7262768   0.6513660   0.2766807  )
        90           H   tau(  90) = (   0.5312476   0.1182052   0.3102187  )
        91           H   tau(  91) = (  -0.2112942   0.4149019   0.8971511  )
        92           H   tau(  92) = (  -0.0162650   0.9480628   0.8636131  )
        93           H   tau(  93) = (   0.8326430   0.7803843   0.2339787  )
        94           H   tau(  94) = (   0.4248783   0.2472295   0.3528965  )
        95           H   tau(  95) = (  -0.3176603   0.2858836   0.9398532  )
        96           H   tau(  96) = (   0.0901043   0.8190385   0.8209353  )
        97           H   tau(  97) = (   0.8922273   0.6209090   0.2435350  )
        98           H   tau(  98) = (   0.3652919   0.0877534   0.3433502  )
        99           H   tau(  99) = (  -0.3772447   0.4453590   0.9302968  )
       100           H   tau( 100) = (   0.1496907   0.9785145   0.8304816  )
       101           C   tau( 101) = (   0.6035807   0.8976345   0.1583159  )
       102           C   tau( 102) = (   0.6539262   0.3644958   0.4285876  )
       103           C   tau( 103) = (  -0.0885980   0.1686335   1.0155159  )
       104           C   tau( 104) = (  -0.1389436   0.7017722   0.7452442  )
       105           H   tau( 105) = (   0.5571037   0.9921491   0.1466641  )
       106           H   tau( 106) = (   0.7003993   0.4590119   0.4402404  )
       107           H   tau( 107) = (  -0.0421211   0.0741188   1.0271677  )
       108           H   tau( 108) = (  -0.1854167   0.6072560   0.7335914  )
       109           H   tau( 109) = (   0.6996362   0.9136522   0.1987913  )
       110           H   tau( 110) = (   0.5578749   0.3805101   0.3880999  )
       111           H   tau( 111) = (  -0.1846536   0.1526158   0.9750405  )
       112           H   tau( 112) = (  -0.0428923   0.6857578   0.7857320  )
       113           H   tau( 113) = (   0.5460601   0.8407974   0.2269140  )
       114           H   tau( 114) = (   0.7114541   0.3076577   0.3599966  )
       115           H   tau( 115) = (  -0.0310775   0.2254705   0.9469178  )
       116           H   tau( 116) = (  -0.1964714   0.7586103   0.8138353  )
       117           C   tau( 117) = (  -0.0146966   0.8339858   1.1428035  )
       118           C   tau( 118) = (  -0.2128362   0.3008568   0.6179523  )
       119           C   tau( 119) = (   0.5296792   0.2322822   0.0310283  )
       120           C   tau( 120) = (   0.7278189   0.7654112   0.5558795  )
       121           H   tau( 121) = (  -0.0443477   0.9344050   1.1267451  )
       122           H   tau( 122) = (  -0.1831893   0.4012767   0.6340129  )
       123           H   tau( 123) = (   0.5593303   0.1318630   0.0470867  )
       124           H   tau( 124) = (   0.6981720   0.6649913   0.5398189  )
       125           H   tau( 125) = (   0.4008510   0.7896094   0.0357007  )
       126           H   tau( 126) = (  -0.1433572   0.2564807   0.5512326  )
       127           H   tau( 127) = (   0.1141316   0.2766586   1.1381311  )
       128           H   tau( 128) = (   0.6583398   0.8097873   0.6225992  )
       129           H   tau( 129) = (  -0.0181612   0.7827138   1.0501732  )
       130           H   tau( 130) = (  -0.2093831   0.2495846   0.7105828  )
       131           H   tau( 131) = (   0.5331439   0.2835542   0.1236586  )
       132           H   tau( 132) = (   0.7243657   0.8166834   0.4632490  )
       133           N   tau( 133) = (   0.8411006   0.0140901   0.3178456  )
       134           N   tau( 134) = (   0.4163874   0.5472249   0.2690817  )
       135           N   tau( 135) = (  -0.3261180   1.0521778   0.8559862  )
       136           N   tau( 136) = (   0.0985952   0.5190430   0.9047501  )
       137           O   tau( 137) = (   0.7880186   1.0616847   0.4291100  )
       138           O   tau( 138) = (   0.4694828   0.5285501   0.1578219  )
       139           O   tau( 139) = (  -0.2730360   0.0045833   0.7447218  )
       140           O   tau( 140) = (   0.0454998   0.5377179   1.0160099  )
       141           O   tau( 141) = (   0.8061142   0.1083175   0.2511413  )
       142           O   tau( 142) = (   0.4513712   0.6414603   0.3357851  )
       143           O   tau( 143) = (  -0.2911316   0.9579505   0.9226905  )
       144           O   tau( 144) = (   0.0636114   0.4248077   0.8380467  )
       145           O   tau( 145) = (  -0.0747311   1.0018838   0.2808002  )
       146           O   tau( 146) = (   0.3322213   0.4687569   0.3061215  )
       147           O   tau( 147) = (   0.5897137   0.0643841   0.8930316  )
       148           O   tau( 148) = (   0.1827613   0.5975111   0.8677103  )
       149           N   tau( 149) = (   0.1691838   0.8861317   0.1883318  )
       150           N   tau( 150) = (   0.0883051   0.3529946   0.3985996  )
       151           N   tau( 151) = (   0.3457988   0.1801363   0.9855000  )
       152           N   tau( 152) = (   0.4266775   0.7132734   0.7752322  )
       153           O   tau( 153) = (   0.1305436   0.9398926   0.0845776  )
       154           O   tau( 154) = (   0.1269400   0.4067622   0.5023458  )
       155           O   tau( 155) = (   0.3844391   0.1263753   1.0892542  )
       156           O   tau( 156) = (   0.3880426   0.6595058   0.6714860  )
       157           O   tau( 157) = (   0.1404697   0.7686463   0.2085005  )
       158           O   tau( 158) = (   0.1170191   0.2355158   0.3784273  )
       159           O   tau( 159) = (   0.3745129   0.2976217   0.9653313  )
       160           O   tau( 160) = (   0.3979635   0.8307521   0.7954045  )
       161           O   tau( 161) = (   0.2342455   0.9489566   0.2684362  )
       162           O   tau( 162) = (   0.0232326   0.4158223   0.3184874  )
       163           O   tau( 163) = (   0.2807371   0.1173114   0.9053956  )
       164           O   tau( 164) = (   0.4917500   0.6504457   0.8553444  )

     number of k points=     8
                       cart. coord. in units 2pi/alat
        k(    1) = (   0.0000000   0.0000000   0.0000000), wk =   0.2500000
        k(    2) = (   0.0000000   0.0000000  -0.4259554), wk =   0.2500000
        k(    3) = (   0.0000000  -0.4689253   0.0000000), wk =   0.2500000
        k(    4) = (   0.0000000  -0.4689253  -0.4259554), wk =   0.2500000
        k(    5) = (  -0.5000000   0.0000000  -0.2065958), wk =   0.2500000
        k(    6) = (  -0.5000000   0.0000000  -0.6325512), wk =   0.2500000
        k(    7) = (  -0.5000000  -0.4689253  -0.2065958), wk =   0.2500000
        k(    8) = (  -0.5000000  -0.4689253  -0.6325512), wk =   0.2500000

     Dense  grid:  1271269 G-vectors     FFT dimensions: ( 125, 135, 160)

     Estimated max dynamical RAM per process >    1778.08MB

     Estimated total allocated dynamical RAM >   14224.61MB

     Check: negative/imaginary core charge=   -0.000002    0.000000

     Initial potential from superposition of free atoms

     starting charge  455.99751, renormalised to  456.00000
     Starting wfc are  392 randomized atomic wfcs
     Checking if some PAW data can be deallocated... 

     total cpu time spent up to now is      126.0 secs

     per-process dynamical memory:  1153.8 Mb

     Self-consistent Calculation

     iteration #  1     ecut=   100.00 Ry     beta=0.50
     Davidson diagonalization with overlap
     ethr =  1.00E-02,  avg # of iterations =  4.0

     total cpu time spent up to now is      522.2 secs

     total energy              =   -2215.10938110 Ry
     Harris-Foulkes estimate   =   -2224.46762897 Ry
     estimated scf accuracy    <      17.41363372 Ry

     iteration #  2     ecut=   100.00 Ry     beta=0.50
     Davidson diagonalization with overlap
     ethr =  3.82E-03,  avg # of iterations =  3.0

     total cpu time spent up to now is      775.9 secs

     total energy              =   -2217.57697466 Ry
     Harris-Foulkes estimate   =   -2218.98968874 Ry
     estimated scf accuracy    <       3.01252418 Ry

     iteration #  3     ecut=   100.00 Ry     beta=0.50
     Davidson diagonalization with overlap
     ethr =  6.61E-04,  avg # of iterations =  7.0

     total cpu time spent up to now is     1207.4 secs

     total energy              =   -2218.85350621 Ry
     Harris-Foulkes estimate   =   -2219.32607494 Ry
     estimated scf accuracy    <       1.25283124 Ry

     iteration #  4     ecut=   100.00 Ry     beta=0.50
     Davidson diagonalization with overlap
     ethr =  2.75E-04,  avg # of iterations =  1.2

     total cpu time spent up to now is     1401.5 secs

     total energy              =   -2218.76688811 Ry
     Harris-Foulkes estimate   =   -2218.93900366 Ry
     estimated scf accuracy    <       0.30924255 Ry

     iteration #  5     ecut=   100.00 Ry     beta=0.50
     Davidson diagonalization with overlap
     ethr =  6.78E-05,  avg # of iterations =  7.4

     total cpu time spent up to now is     1879.0 secs

     total energy              =   -2218.99074722 Ry
     Harris-Foulkes estimate   =   -2219.15519629 Ry
     estimated scf accuracy    <       0.60525866 Ry

     iteration #  6     ecut=   100.00 Ry     beta=0.50
     Davidson diagonalization with overlap
     ethr =  6.78E-05,  avg # of iterations =  2.0

     total cpu time spent up to now is     2078.8 secs

     total energy              =   -2218.94006899 Ry
     Harris-Foulkes estimate   =   -2219.01337679 Ry
     estimated scf accuracy    <       0.27692372 Ry

     iteration #  7     ecut=   100.00 Ry     beta=0.50
     Davidson diagonalization with overlap
     ethr =  6.07E-05,  avg # of iterations =  3.0

     total cpu time spent up to now is     2321.9 secs

     total energy              =   -2218.96558710 Ry
     Harris-Foulkes estimate   =   -2218.97864957 Ry
     estimated scf accuracy    <       0.03895785 Ry

     iteration #  8     ecut=   100.00 Ry     beta=0.50
     Davidson diagonalization with overlap
     ethr =  8.54E-06,  avg # of iterations =  9.4

     total cpu time spent up to now is     2645.2 secs

     total energy              =   -2218.97138425 Ry
     Harris-Foulkes estimate   =   -2218.97419922 Ry
     estimated scf accuracy    <       0.00692920 Ry

     iteration #  9     ecut=   100.00 Ry     beta=0.50
     Davidson diagonalization with overlap
     ethr =  1.52E-06,  avg # of iterations =  4.9

     total cpu time spent up to now is     2934.8 secs

     total energy              =   -2218.97426911 Ry
     Harris-Foulkes estimate   =   -2218.97439566 Ry
     estimated scf accuracy    <       0.00031865 Ry

     iteration # 10     ecut=   100.00 Ry     beta=0.50
     Davidson diagonalization with overlap
     ethr =  6.99E-08,  avg # of iterations =  4.0

     total cpu time spent up to now is     3266.7 secs

     total energy              =   -2218.97437705 Ry
     Harris-Foulkes estimate   =   -2218.97441018 Ry
     estimated scf accuracy    <       0.00009750 Ry

     iteration # 11     ecut=   100.00 Ry     beta=0.50
     Davidson diagonalization with overlap
     ethr =  2.14E-08,  avg # of iterations =  2.0

     total cpu time spent up to now is     3464.7 secs

     total energy              =   -2218.97437379 Ry
     Harris-Foulkes estimate   =   -2218.97438439 Ry
     estimated scf accuracy    <       0.00002652 Ry

     iteration # 12     ecut=   100.00 Ry     beta=0.50
     Davidson diagonalization with overlap
     ethr =  5.82E-09,  avg # of iterations =  4.0

     total cpu time spent up to now is     3766.1 secs

     total energy              =   -2218.97438562 Ry
     Harris-Foulkes estimate   =   -2218.97438767 Ry
     estimated scf accuracy    <       0.00000436 Ry

     iteration # 13     ecut=   100.00 Ry     beta=0.50
     Davidson diagonalization with overlap
     ethr =  9.56E-10,  avg # of iterations =  3.1

     total cpu time spent up to now is     3995.9 secs

     total energy              =   -2218.97438616 Ry
     Harris-Foulkes estimate   =   -2218.97438644 Ry
     estimated scf accuracy    <       0.00000059 Ry

     iteration # 14     ecut=   100.00 Ry     beta=0.50
     Davidson diagonalization with overlap
     ethr =  1.30E-10,  avg # of iterations =  4.0

     total cpu time spent up to now is     4356.3 secs

     total energy              =   -2218.97438658 Ry
     Harris-Foulkes estimate   =   -2218.97438683 Ry
     estimated scf accuracy    <       0.00000067 Ry

     iteration # 15     ecut=   100.00 Ry     beta=0.50
     Davidson diagonalization with overlap
     ethr =  1.30E-10,  avg # of iterations =  1.0

     total cpu time spent up to now is     4549.5 secs

     total energy              =   -2218.97438653 Ry
     Harris-Foulkes estimate   =   -2218.97438662 Ry
     estimated scf accuracy    <       0.00000022 Ry

     iteration # 16     ecut=   100.00 Ry     beta=0.50
     Davidson diagonalization with overlap
     ethr =  4.89E-11,  avg # of iterations =  3.1

     total cpu time spent up to now is     4824.4 secs

     total energy              =   -2218.97438662 Ry
     Harris-Foulkes estimate   =   -2218.97438662 Ry
     estimated scf accuracy    <       0.00000001 Ry

     iteration # 17     ecut=   100.00 Ry     beta=0.50
     Davidson diagonalization with overlap
     ethr =  2.59E-12,  avg # of iterations =  4.0

     total cpu time spent up to now is     5141.2 secs

     total energy              =   -2218.97438662 Ry
     Harris-Foulkes estimate   =   -2218.97438663 Ry
     estimated scf accuracy    <       0.00000001 Ry

     iteration # 18     ecut=   100.00 Ry     beta=0.50
     Davidson diagonalization with overlap
     ethr =  2.31E-12,  avg # of iterations =  1.0

     total cpu time spent up to now is     5333.6 secs

     End of self-consistent calculation

          k = 0.0000 0.0000 0.0000 (158927 PWs)   bands (ev):

   -24.9460 -24.9458 -24.9443 -24.9441 -24.5602 -24.5597 -24.5591 -24.5590
   -19.6108 -19.6105 -19.6095 -19.6093 -19.3307 -19.3255 -19.2627 -19.2621
   -19.1373 -19.1356 -19.1347 -19.1325 -19.0425 -19.0163 -19.0071 -19.0021
   -18.5187 -18.5182 -18.4829 -18.4644 -17.8992 -17.8979 -17.8776 -17.8685
   -14.5778 -14.5594 -14.5511 -14.5431 -14.0233 -14.0007 -13.9959 -13.9819
   -12.5054 -12.4850 -12.4826 -12.4669 -11.3534 -11.3204 -11.2557 -11.2270
   -11.1667 -11.1430 -11.1052 -11.0615 -10.9354 -10.8704 -10.8366 -10.8322
    -9.7174  -9.6943  -9.6706  -9.5711  -9.0445  -9.0278  -9.0044  -8.9252
    -8.7890  -8.7869  -8.7443  -8.7401  -8.6791  -8.5987  -8.5634  -8.5278
    -8.0921  -8.0563  -7.9507  -7.7730  -7.5288  -7.5091  -7.4458  -7.4364
    -7.2646  -7.2483  -7.2429  -7.2381  -7.2239  -7.2019  -7.1730  -7.1489
    -7.1292  -7.1062  -7.0604  -7.0339  -6.8026  -6.7479  -6.6967  -6.6886
    -6.5859  -6.5248  -6.4067  -6.3692  -6.3131  -6.3107  -6.3106  -6.2724
    -6.2304  -6.2231  -6.2191  -6.1976  -6.1473  -6.1189  -6.0977  -6.0946
    -6.0073  -6.0004  -5.9559  -5.9501  -5.7260  -5.6815  -5.5934  -5.5335
    -5.5238  -5.4774  -5.4703  -5.3850  -4.9025  -4.8641  -4.8335  -4.8217
    -4.8006  -4.7845  -4.7582  -4.6802  -4.5126  -4.4729  -4.4254  -4.4099
    -4.2263  -4.1585  -4.0426  -4.0268  -3.9997  -3.9536  -3.9441  -3.9394
    -3.6589  -3.5691  -3.5424  -3.5300  -3.4631  -3.4084  -3.2721  -3.2458
    -3.2418  -3.1855  -3.1615  -3.1428  -3.0582  -3.0202  -2.9924  -2.9616
    -2.8836  -2.8724  -2.8606  -2.8511  -2.8079  -2.8077  -2.8015  -2.7837
    -2.5606  -2.5271  -2.4670  -2.4636  -2.4528  -2.4482  -2.3470  -2.3096
    -2.2660  -2.2133  -2.1805  -2.1737  -2.0575  -1.9790  -1.9787  -1.8947
    -1.8726  -1.7980  -1.7586  -1.7438  -1.4497  -1.4158  -1.3469  -1.3379
    -1.2412  -1.2385  -1.2288  -1.1727  -1.1653  -1.1513  -1.1309  -1.1140
    -1.1086  -1.0922  -1.0849  -1.0730  -1.0550  -1.0484  -1.0478  -1.0428
    -1.0017  -0.9426  -0.8792  -0.8767  -0.7777  -0.7539  -0.7391  -0.7216
    -0.6978  -0.6970  -0.6766  -0.6731   0.3710   0.3767   0.3953   0.3972
     0.6594   0.7058   0.7061   0.7285   4.0193   4.0464   4.0639   4.0668
     4.3319   4.3468   4.3599   4.3627   5.7600   6.1415   6.6295   6.6627
     6.7290   6.8112   6.9289   6.9334   7.1432   7.1480   7.2124   7.3137
     7.3848   7.4390   7.5366   7.6952   7.7467   7.7695   7.8330   7.8689
     7.8756   7.9704   7.9941   8.0210   8.0224   8.0836   8.1390   8.1412
     8.1580   8.2409   8.2448   8.2650   8.3687   8.3889   8.4601   8.4789
     8.5212

          k = 0.0000 0.0000-0.4260 (158946 PWs)   bands (ev):

   -24.9458 -24.9458 -24.9443 -24.9442 -24.5600 -24.5599 -24.5591 -24.5590
   -19.6106 -19.6104 -19.6096 -19.6095 -19.3272 -19.3270 -19.2638 -19.2636
   -19.1363 -19.1363 -19.1339 -19.1338 -19.0320 -19.0313 -19.0026 -19.0018
   -18.5187 -18.5186 -18.4732 -18.4732 -17.8992 -17.8992 -17.8725 -17.8724
   -14.5653 -14.5652 -14.5509 -14.5508 -14.0097 -14.0096 -13.9909 -13.9909
   -12.4997 -12.4997 -12.4704 -12.4704 -11.3117 -11.3116 -11.2788 -11.2787
   -11.1538 -11.1537 -11.0756 -11.0755 -10.8895 -10.8893 -10.8447 -10.8445
    -9.7179  -9.7178  -9.6145  -9.6144  -9.0169  -9.0169  -8.9471  -8.9470
    -8.7726  -8.7726  -8.7414  -8.7413  -8.7194  -8.7193  -8.5414  -8.5413
    -8.0104  -8.0103  -7.8982  -7.8982  -7.5200  -7.5199  -7.4218  -7.4218
    -7.2797  -7.2797  -7.2368  -7.2367  -7.2193  -7.2192  -7.1783  -7.1783
    -7.0931  -7.0930  -7.0441  -7.0441  -6.7714  -6.7714  -6.7102  -6.7101
    -6.5613  -6.5613  -6.3761  -6.3761  -6.2943  -6.2942  -6.2742  -6.2741
    -6.2330  -6.2329  -6.2085  -6.2084  -6.1668  -6.1667  -6.0875  -6.0874
    -5.9961  -5.9961  -5.9623  -5.9623  -5.6602  -5.6601  -5.6250  -5.6250
    -5.4978  -5.4978  -5.4125  -5.4125  -4.8639  -4.8639  -4.8431  -4.8431
    -4.7844  -4.7844  -4.7348  -4.7348  -4.4977  -4.4976  -4.4143  -4.4143
    -4.1891  -4.1891  -4.0044  -4.0043  -3.9837  -3.9836  -3.9623  -3.9622
    -3.6327  -3.6325  -3.4860  -3.4859  -3.4543  -3.4541  -3.2726  -3.2725
    -3.2220  -3.2219  -3.1547  -3.1547  -3.0035  -3.0035  -2.9907  -2.9907
    -2.8918  -2.8917  -2.8373  -2.8372  -2.8320  -2.8320  -2.7830  -2.7830
    -2.5272  -2.5271  -2.5031  -2.5030  -2.4515  -2.4515  -2.3123  -2.3123
    -2.1937  -2.1937  -2.1691  -2.1689  -2.0463  -2.0463  -1.9506  -1.9506
    -1.8537  -1.8535  -1.7433  -1.7432  -1.4337  -1.4336  -1.3160  -1.3159
    -1.2647  -1.2646  -1.2020  -1.2019  -1.1641  -1.1640  -1.1441  -1.1441
    -1.1078  -1.1078  -1.0619  -1.0618  -1.0574  -1.0574  -1.0220  -1.0218
    -0.9781  -0.9781  -0.8664  -0.8663  -0.7728  -0.7720  -0.7270  -0.7263
    -0.6976  -0.6974  -0.6715  -0.6714   0.3825   0.3825   0.3856   0.3856
     0.6826   0.6826   0.7191   0.7192   4.0215   4.0216   4.0756   4.0756
     4.3441   4.3444   4.3527   4.3530   5.9723   5.9723   6.5756   6.5757
     6.8015   6.8016   6.9610   6.9611   7.2911   7.2912   7.3697   7.3698
     7.4025   7.4026   7.4707   7.4708   7.6124   7.6125   7.7685   7.7688
     7.9042   7.9043   8.0127   8.0128   8.0279   8.0280   8.1445   8.1446
     8.1889   8.1889   8.2256   8.2257   8.2999   8.3000   8.4669   8.4673
     8.5228

          k = 0.0000-0.4689 0.0000 (158894 PWs)   bands (ev):

   -24.9459 -24.9459 -24.9442 -24.9442 -24.5597 -24.5597 -24.5594 -24.5593
   -19.6107 -19.6106 -19.6094 -19.6093 -19.3281 -19.3279 -19.2625 -19.2623
   -19.1362 -19.1362 -19.1338 -19.1337 -19.0279 -19.0268 -19.0082 -19.0070
   -18.5180 -18.5180 -18.4735 -18.4734 -17.8886 -17.8886 -17.8829 -17.8829
   -14.5699 -14.5698 -14.5463 -14.5463 -14.0127 -14.0127 -13.9879 -13.9878
   -12.4863 -12.4863 -12.4837 -12.4837 -11.3497 -11.3496 -11.2244 -11.2243
   -11.1506 -11.1506 -11.0878 -11.0877 -10.9045 -10.9045 -10.8369 -10.8369
    -9.7246  -9.7244  -9.5999  -9.5998  -9.0351  -9.0351  -8.9619  -8.9618
    -8.8276  -8.8274  -8.7319  -8.7317  -8.6437  -8.6435  -8.5272  -8.5271
    -8.0785  -8.0784  -7.8336  -7.8336  -7.5144  -7.5144  -7.4543  -7.4543
    -7.2469  -7.2467  -7.2265  -7.2264  -7.2221  -7.2221  -7.1870  -7.1869
    -7.1065  -7.1065  -7.0567  -7.0567  -6.7796  -6.7795  -6.6875  -6.6874
    -6.5604  -6.5604  -6.3900  -6.3900  -6.3415  -6.3415  -6.2768  -6.2766
    -6.2357  -6.2357  -6.1854  -6.1854  -6.1262  -6.1261  -6.1025  -6.1024
    -6.0166  -6.0166  -5.9205  -5.9205  -5.7191  -5.7191  -5.5392  -5.5392
    -5.4834  -5.4833  -5.4444  -5.4443  -4.8870  -4.8869  -4.8286  -4.8286
    -4.7851  -4.7851  -4.7223  -4.7223  -4.5117  -4.5117  -4.4159  -4.4158
    -4.1916  -4.1916  -4.0685  -4.0685  -3.9874  -3.9873  -3.9336  -3.9334
    -3.6603  -3.6603  -3.4897  -3.4897  -3.4561  -3.4561  -3.2781  -3.2780
    -3.2041  -3.2040  -3.1416  -3.1416  -3.0156  -3.0156  -2.9711  -2.9711
    -2.9032  -2.9030  -2.8693  -2.8692  -2.7976  -2.7975  -2.6863  -2.6862
    -2.5365  -2.5364  -2.5168  -2.5168  -2.4144  -2.4144  -2.3235  -2.3235
    -2.2811  -2.2810  -2.1263  -2.1262  -2.0816  -2.0816  -1.8951  -1.8951
    -1.8354  -1.8353  -1.7720  -1.7720  -1.3818  -1.3817  -1.3491  -1.3489
    -1.2993  -1.2992  -1.1979  -1.1979  -1.1437  -1.1437  -1.1281  -1.1280
    -1.1172  -1.1171  -1.0724  -1.0723  -1.0545  -1.0543  -1.0458  -1.0458
    -0.9478  -0.9478  -0.9037  -0.9037  -0.7742  -0.7734  -0.7278  -0.7270
    -0.6908  -0.6908  -0.6834  -0.6834   0.3735   0.3735   0.3968   0.3968
     0.6808   0.6809   0.7182   0.7182   4.0301   4.0302   4.0660   4.0660
     4.3414   4.3415   4.3631   4.3632   6.1243   6.1243   6.4293   6.4294
     6.7374   6.7375   7.0183   7.0184   7.0747   7.0747   7.3367   7.3368
     7.4928   7.4928   7.6167   7.6167   7.7300   7.7301   7.7831   7.7832
     7.8644   7.8644   7.8920   7.8920   8.0059   8.0060   8.1147   8.1147
     8.2467   8.2467   8.3271   8.3271   8.3796   8.3797   8.4307   8.4316
     8.4626

          k = 0.0000-0.4689-0.4260 (158880 PWs)   bands (ev):

   -24.9458 -24.9458 -24.9443 -24.9443 -24.5597 -24.5596 -24.5594 -24.5593
   -19.6106 -19.6104 -19.6096 -19.6095 -19.3271 -19.3269 -19.2638 -19.2636
   -19.1356 -19.1353 -19.1347 -19.1344 -19.0261 -19.0247 -19.0101 -19.0087
   -18.5176 -18.5175 -18.4736 -18.4736 -17.8867 -17.8866 -17.8850 -17.8849
   -14.5629 -14.5628 -14.5537 -14.5536 -14.0050 -14.0049 -13.9953 -13.9953
   -12.4856 -12.4855 -12.4846 -12.4846 -11.3342 -11.3340 -11.2537 -11.2536
   -11.1418 -11.1418 -11.0854 -11.0853 -10.8759 -10.8757 -10.8633 -10.8631
    -9.7185  -9.7184  -9.6115  -9.6114  -9.0001  -9.0000  -8.9666  -8.9665
    -8.7897  -8.7895  -8.7540  -8.7537  -8.6894  -8.6893  -8.5581  -8.5578
    -8.0016  -8.0015  -7.8777  -7.8777  -7.4987  -7.4987  -7.4407  -7.4406
    -7.2834  -7.2833  -7.2439  -7.2438  -7.1936  -7.1935  -7.1785  -7.1785
    -7.0968  -7.0967  -7.0821  -7.0820  -6.7644  -6.7644  -6.7024  -6.7024
    -6.5670  -6.5669  -6.3850  -6.3850  -6.2948  -6.2947  -6.2624  -6.2623
    -6.2538  -6.2537  -6.2054  -6.2052  -6.1457  -6.1457  -6.0892  -6.0890
    -6.0326  -6.0326  -5.9183  -5.9183  -5.6925  -5.6925  -5.5840  -5.5840
    -5.4569  -5.4567  -5.4523  -5.4521  -4.8716  -4.8715  -4.8442  -4.8441
    -4.7619  -4.7618  -4.7507  -4.7506  -4.5231  -4.5231  -4.4111  -4.4110
    -4.1672  -4.1672  -4.0644  -4.0643  -3.9969  -3.9968  -3.9388  -3.9386
    -3.6257  -3.6254  -3.5407  -3.5405  -3.4401  -3.4400  -3.2771  -3.2770
    -3.1975  -3.1973  -3.1268  -3.1268  -3.0154  -3.0153  -3.0061  -3.0061
    -2.9207  -2.9206  -2.8270  -2.8270  -2.8016  -2.8015  -2.7071  -2.7070
    -2.5386  -2.5385  -2.4752  -2.4752  -2.4424  -2.4423  -2.2921  -2.2921
    -2.2061  -2.2059  -2.1828  -2.1827  -2.0409  -2.0409  -2.0082  -2.0081
    -1.8345  -1.8343  -1.7866  -1.7865  -1.3809  -1.3809  -1.3466  -1.3464
    -1.2675  -1.2674  -1.1840  -1.1840  -1.1606  -1.1606  -1.1227  -1.1227
    -1.1069  -1.1068  -1.0755  -1.0752  -1.0598  -1.0597  -1.0391  -1.0390
    -0.9516  -0.9516  -0.9043  -0.9043  -0.7779  -0.7771  -0.7266  -0.7259
    -0.6928  -0.6925  -0.6812  -0.6810   0.3830   0.3830   0.3843   0.3843
     0.6977   0.6978   0.7029   0.7031   4.0214   4.0215   4.0746   4.0747
     4.3451   4.3455   4.3545   4.3548   6.2237   6.2237   6.3995   6.3995
     6.6489   6.6490   7.0050   7.0051   7.2733   7.2733   7.3324   7.3325
     7.4531   7.4532   7.5114   7.5115   7.6822   7.6823   7.7469   7.7469
     7.8792   7.8792   7.9052   7.9053   7.9810   7.9811   8.0926   8.0926
     8.1841   8.1843   8.2218   8.2222   8.4112   8.4114   8.4558   8.4559
     8.5363

          k =-0.5000 0.0000-0.2066 (158966 PWs)   bands (ev):

   -24.9459 -24.9459 -24.9442 -24.9442 -24.5600 -24.5599 -24.5591 -24.5590
   -19.6107 -19.6106 -19.6094 -19.6093 -19.3282 -19.3280 -19.2625 -19.2623
   -19.1363 -19.1363 -19.1339 -19.1338 -19.0323 -19.0315 -19.0026 -19.0018
   -18.5185 -18.5184 -18.4735 -18.4735 -17.8986 -17.8986 -17.8730 -17.8730
   -14.5636 -14.5635 -14.5530 -14.5529 -14.0025 -14.0025 -13.9976 -13.9976
   -12.5020 -12.5020 -12.4678 -12.4678 -11.2998 -11.2997 -11.2907 -11.2906
   -11.1181 -11.1181 -11.1021 -11.1021 -10.9042 -10.9040 -10.8406 -10.8404
    -9.7335  -9.7333  -9.5896  -9.5895  -9.0544  -9.0543  -8.9347  -8.9346
    -8.8265  -8.8263  -8.7122  -8.7120  -8.6806  -8.6804  -8.5344  -8.5343
    -8.0299  -8.0298  -7.8916  -7.8916  -7.5019  -7.5018  -7.4344  -7.4344
    -7.2673  -7.2672  -7.2347  -7.2346  -7.2224  -7.2224  -7.1584  -7.1583
    -7.0929  -7.0928  -7.0757  -7.0757  -6.7848  -6.7847  -6.6922  -6.6921
    -6.5469  -6.5469  -6.3735  -6.3735  -6.3123  -6.3122  -6.2554  -6.2553
    -6.2183  -6.2182  -6.1811  -6.1811  -6.1618  -6.1618  -6.0916  -6.0914
    -6.0700  -6.0699  -5.9529  -5.9529  -5.6807  -5.6806  -5.5940  -5.5940
    -5.4938  -5.4937  -5.4146  -5.4145  -4.8622  -4.8622  -4.8428  -4.8428
    -4.8113  -4.8112  -4.7046  -4.7046  -4.4862  -4.4862  -4.4312  -4.4311
    -4.1774  -4.1773  -4.0866  -4.0866  -4.0614  -4.0613  -3.8676  -3.8674
    -3.6067  -3.6064  -3.4909  -3.4907  -3.4632  -3.4632  -3.2647  -3.2646
    -3.2113  -3.2113  -3.1304  -3.1302  -3.0686  -3.0685  -2.9922  -2.9921
    -2.8640  -2.8639  -2.8274  -2.8273  -2.7824  -2.7824  -2.7715  -2.7715
    -2.5307  -2.5306  -2.5099  -2.5098  -2.3706  -2.3706  -2.3605  -2.3604
    -2.1918  -2.1918  -2.1547  -2.1546  -2.0734  -2.0734  -2.0145  -2.0145
    -1.8758  -1.8757  -1.7642  -1.7640  -1.3766  -1.3765  -1.3119  -1.3119
    -1.2660  -1.2659  -1.2119  -1.2119  -1.1479  -1.1479  -1.1359  -1.1359
    -1.1163  -1.1162  -1.0668  -1.0666  -1.0494  -1.0493  -1.0185  -1.0184
    -0.9893  -0.9892  -0.8756  -0.8756  -0.7682  -0.7674  -0.7244  -0.7237
    -0.7055  -0.7054  -0.6761  -0.6761   0.3721   0.3721   0.3956   0.3956
     0.6820   0.6820   0.7187   0.7187   4.0308   4.0309   4.0666   4.0666
     4.3475   4.3479   4.3484   4.3487   6.0836   6.0836   6.5420   6.5420
     6.8513   6.8514   6.9878   6.9878   7.1318   7.1318   7.2374   7.2374
     7.4101   7.4102   7.5897   7.5898   7.6284   7.6284   7.7457   7.7457
     7.8782   7.8784   7.9690   7.9691   8.0449   8.0449   8.1572   8.1573
     8.1784   8.1785   8.3013   8.3013   8.3646   8.3646   8.4409   8.4412
     8.5179

          k =-0.5000 0.0000-0.6326 (158820 PWs)   bands (ev):

   -24.9459 -24.9457 -24.9443 -24.9442 -24.5602 -24.5597 -24.5591 -24.5590
   -19.6107 -19.6103 -19.6096 -19.6094 -19.3278 -19.3263 -19.2641 -19.2634
   -19.1372 -19.1356 -19.1347 -19.1325 -19.0433 -19.0160 -19.0069 -19.0021
   -18.5201 -18.5160 -18.4776 -18.4697 -17.9080 -17.8902 -17.8800 -17.8653
   -14.5704 -14.5674 -14.5545 -14.5401 -14.0113 -14.0037 -13.9932 -13.9929
   -12.5104 -12.4867 -12.4789 -12.4627 -11.3438 -11.3325 -11.2433 -11.2328
   -11.1383 -11.1332 -11.1017 -11.0885 -10.9383 -10.8766 -10.8588 -10.8225
    -9.7929  -9.6706  -9.6029  -9.5853  -9.0634  -8.9705  -8.9541  -8.9307
    -8.8755  -8.8231  -8.7390  -8.7103  -8.7091  -8.5789  -8.5714  -8.5555
    -8.1481  -7.9338  -7.8885  -7.8236  -7.5239  -7.4870  -7.4712  -7.4639
    -7.3063  -7.2434  -7.2391  -7.2297  -7.2204  -7.2042  -7.1754  -7.1425
    -7.1108  -7.1041  -7.0615  -7.0364  -6.7574  -6.7419  -6.7416  -6.6806
    -6.5686  -6.5546  -6.3760  -6.3733  -6.3181  -6.2880  -6.2557  -6.2531
    -6.2420  -6.2268  -6.2070  -6.1983  -6.1957  -6.1098  -6.0957  -6.0932
    -6.0744  -6.0144  -5.9683  -5.9327  -5.7167  -5.6771  -5.6046  -5.5572
    -5.5446  -5.4768  -5.4059  -5.4047  -4.8756  -4.8565  -4.8524  -4.8485
    -4.8281  -4.7258  -4.7152  -4.7101  -4.4911  -4.4717  -4.4484  -4.4238
    -4.2141  -4.1607  -4.1361  -4.0709  -4.0394  -4.0363  -3.9044  -3.8262
    -3.6565  -3.5542  -3.5432  -3.4865  -3.4488  -3.4317  -3.3042  -3.2479
    -3.2131  -3.1885  -3.1818  -3.1607  -3.0301  -3.0147  -3.0083  -2.9920
    -2.8816  -2.8475  -2.8459  -2.8432  -2.8002  -2.7791  -2.7701  -2.7287
    -2.5677  -2.5552  -2.5218  -2.4716  -2.4410  -2.3915  -2.3328  -2.2987
    -2.2695  -2.2078  -2.1533  -2.1491  -2.1284  -2.0347  -1.9293  -1.8985
    -1.8719  -1.8458  -1.8034  -1.7497  -1.3963  -1.3439  -1.3388  -1.3255
    -1.3008  -1.2640  -1.2270  -1.1768  -1.1730  -1.1610  -1.1368  -1.1302
    -1.1026  -1.0880  -1.0845  -1.0789  -1.0597  -1.0563  -1.0545  -1.0375
    -0.9902  -0.9426  -0.8807  -0.8611  -0.7725  -0.7563  -0.7355  -0.7187
    -0.7096  -0.6974  -0.6804  -0.6781   0.3821   0.3859   0.3866   0.3867
     0.6582   0.7055   0.7058   0.7292   4.0110   4.0317   4.0720   4.0775
     4.3298   4.3335   4.3625   4.3630   6.0036   6.2286   6.4374   6.6577
     6.8228   6.8286   6.9228   6.9824   7.1797   7.2050   7.2171   7.3364
     7.3680   7.4396   7.4669   7.6144   7.6406   7.7128   7.7168   7.7391
     7.7677   7.8980   7.9563   7.9689   7.9996   8.0328   8.0781   8.1186
     8.2549   8.2738   8.3136   8.3570   8.3741   8.3947   8.4387   8.4522
     8.5022

          k =-0.5000-0.4689-0.2066 (158928 PWs)   bands (ev):

   -24.9459 -24.9459 -24.9442 -24.9442 -24.5597 -24.5596 -24.5594 -24.5593
   -19.6107 -19.6106 -19.6094 -19.6093 -19.3281 -19.3279 -19.2625 -19.2623
   -19.1357 -19.1352 -19.1348 -19.1344 -19.0262 -19.0248 -19.0102 -19.0088
   -18.5192 -18.5192 -18.4721 -18.4720 -17.8876 -17.8875 -17.8842 -17.8840
   -14.5738 -14.5737 -14.5425 -14.5424 -14.0062 -14.0061 -13.9945 -13.9944
   -12.4871 -12.4871 -12.4827 -12.4827 -11.3233 -11.3232 -11.2649 -11.2648
   -11.1170 -11.1170 -11.1033 -11.1033 -10.8873 -10.8871 -10.8589 -10.8586
    -9.7135  -9.7133  -9.6162  -9.6160  -9.0323  -9.0322  -8.9513  -8.9513
    -8.8847  -8.8845  -8.6884  -8.6881  -8.5963  -8.5962  -8.5866  -8.5863
    -8.0072  -8.0071  -7.8971  -7.8970  -7.5138  -7.5137  -7.4371  -7.4371
    -7.2584  -7.2583  -7.2541  -7.2539  -7.2149  -7.2148  -7.1574  -7.1573
    -7.0980  -7.0979  -7.0544  -7.0544  -6.7830  -6.7829  -6.7099  -6.7098
    -6.5586  -6.5586  -6.3724  -6.3724  -6.3043  -6.3041  -6.2985  -6.2984
    -6.2006  -6.2005  -6.1969  -6.1968  -6.1708  -6.1707  -6.1083  -6.1081
    -5.9733  -5.9733  -5.9697  -5.9697  -5.6387  -5.6386  -5.6222  -5.6222
    -5.4902  -5.4901  -5.4203  -5.4201  -4.8890  -4.8890  -4.8486  -4.8485
    -4.7627  -4.7625  -4.7560  -4.7559  -4.5105  -4.5105  -4.4151  -4.4151
    -4.2252  -4.2251  -4.0721  -4.0720  -3.9605  -3.9604  -3.9014  -3.9013
    -3.5828  -3.5827  -3.5413  -3.5411  -3.4337  -3.4336  -3.2477  -3.2475
    -3.2335  -3.2333  -3.1370  -3.1370  -3.0609  -3.0609  -3.0498  -3.0497
    -2.8844  -2.8844  -2.8194  -2.8193  -2.7961  -2.7960  -2.7137  -2.7136
    -2.5539  -2.5538  -2.4730  -2.4729  -2.3693  -2.3691  -2.3333  -2.3332
    -2.2073  -2.2071  -2.1749  -2.1747  -2.0956  -2.0955  -1.9556  -1.9555
    -1.8860  -1.8859  -1.7295  -1.7293  -1.4352  -1.4350  -1.3085  -1.3085
    -1.2324  -1.2323  -1.2174  -1.2173  -1.1543  -1.1541  -1.1425  -1.1424
    -1.1197  -1.1195  -1.0788  -1.0785  -1.0467  -1.0466  -1.0397  -1.0395
    -0.9464  -0.9464  -0.8952  -0.8952  -0.7719  -0.7711  -0.7275  -0.7267
    -0.6911  -0.6908  -0.6894  -0.6891   0.3719   0.3720   0.3957   0.3957
     0.6968   0.6970   0.7028   0.7030   4.0298   4.0299   4.0664   4.0664
     4.3434   4.3438   4.3573   4.3576   6.2250   6.2250   6.4514   6.4514
     6.8146   6.8147   6.9167   6.9168   7.0099   7.0100   7.3018   7.3019
     7.4886   7.4886   7.5414   7.5415   7.7405   7.7406   7.8066   7.8066
     7.9169   7.9169   7.9403   7.9406   8.0459   8.0462   8.0974   8.0976
     8.2390   8.2391   8.2594   8.2597   8.2807   8.2811   8.4482   8.4671
     8.4676

          k =-0.5000-0.4689-0.6326 (158908 PWs)   bands (ev):

   -24.9458 -24.9458 -24.9443 -24.9443 -24.5597 -24.5597 -24.5594 -24.5593
   -19.6106 -19.6105 -19.6096 -19.6095 -19.3271 -19.3269 -19.2638 -19.2636
   -19.1361 -19.1360 -19.1338 -19.1337 -19.0279 -19.0267 -19.0082 -19.0070
   -18.5193 -18.5192 -18.4719 -18.4718 -17.8943 -17.8942 -17.8776 -17.8776
   -14.5770 -14.5769 -14.5390 -14.5389 -14.0099 -14.0098 -13.9912 -13.9912
   -12.4872 -12.4872 -12.4821 -12.4821 -11.3456 -11.3456 -11.2289 -11.2288
   -11.1347 -11.1346 -11.0947 -11.0947 -10.9136 -10.9135 -10.8368 -10.8367
    -9.7279  -9.7278  -9.6039  -9.6039  -9.0230  -9.0230  -8.9454  -8.9453
    -8.8485  -8.8483  -8.7640  -8.7637  -8.6038  -8.6037  -8.5524  -8.5522
    -8.0611  -8.0611  -7.8247  -7.8247  -7.5349  -7.5348  -7.4455  -7.4455
    -7.2829  -7.2829  -7.2134  -7.2133  -7.2084  -7.2084  -7.1478  -7.1478
    -7.1150  -7.1150  -7.0603  -7.0602  -6.7672  -6.7672  -6.7114  -6.7113
    -6.5676  -6.5676  -6.3592  -6.3591  -6.3157  -6.3155  -6.2950  -6.2949
    -6.2345  -6.2345  -6.2026  -6.2025  -6.1400  -6.1399  -6.1117  -6.1116
    -5.9916  -5.9915  -5.9413  -5.9413  -5.6937  -5.6937  -5.5623  -5.5622
    -5.5023  -5.5022  -5.4250  -5.4248  -4.8917  -4.8917  -4.8496  -4.8496
    -4.7771  -4.7770  -4.7290  -4.7289  -4.4966  -4.4966  -4.4239  -4.4238
    -4.2408  -4.2407  -4.0739  -4.0737  -3.9686  -3.9685  -3.8703  -3.8702
    -3.6385  -3.6385  -3.4890  -3.4890  -3.4410  -3.4408  -3.2604  -3.2604
    -3.2061  -3.2060  -3.1652  -3.1652  -3.0737  -3.0735  -3.0060  -3.0060
    -2.8919  -2.8919  -2.8489  -2.8487  -2.7728  -2.7728  -2.7199  -2.7199
    -2.5699  -2.5697  -2.4727  -2.4726  -2.3844  -2.3841  -2.2760  -2.2760
    -2.2746  -2.2745  -2.1439  -2.1439  -2.0933  -2.0932  -1.9622  -1.9621
    -1.8725  -1.8725  -1.7248  -1.7246  -1.4471  -1.4470  -1.3102  -1.3102
    -1.2273  -1.2273  -1.2089  -1.2088  -1.1615  -1.1614  -1.1410  -1.1410
    -1.1065  -1.1063  -1.0634  -1.0634  -1.0444  -1.0444  -1.0402  -1.0400
    -0.9561  -0.9560  -0.9115  -0.9115  -0.7698  -0.7690  -0.7294  -0.7286
    -0.6975  -0.6972  -0.6877  -0.6875   0.3829   0.3830   0.3867   0.3867
     0.6802   0.6803   0.7180   0.7181   4.0208   4.0209   4.0746   4.0746
     4.3350   4.3351   4.3637   4.3638   6.2209   6.2209   6.5454   6.5454
     6.5949   6.5949   6.9937   6.9937   7.1856   7.1856   7.2920   7.2921
     7.5422   7.5422   7.5976   7.5976   7.6606   7.6606   7.7768   7.7768
     7.8425   7.8425   7.9198   7.9198   7.9917   7.9917   8.0400   8.0401
     8.1290   8.1291   8.2644   8.2645   8.3413   8.3413   8.4331   8.4333
     8.5224

     highest occupied, lowest unoccupied level (ev):     0.7292    4.0110

!    total energy              =   -2218.97438662 Ry
     Harris-Foulkes estimate   =   -2218.97438662 Ry
     estimated scf accuracy    <          3.1E-09 Ry

     total all-electron energy =     -8211.587893 Ry

     The total energy is the sum of the following terms:

     one-electron contribution =   -1349.34898403 Ry
     hartree contribution      =     846.54536318 Ry
     xc contribution           =    -476.92978058 Ry
     ewald contribution        =    -638.13033067 Ry
     Dispersion Correction     =      -0.76114515 Ry
     one-center paw contrib.   =    -600.34950936 Ry

     convergence has been achieved in  18 iterations

     Forces acting on atoms (cartesian axes, Ry/au):

     atom    1 type  2   force =    -0.00005910    0.00047632   -0.00050691
     atom    2 type  2   force =     0.00005956    0.00046934    0.00050931
     atom    3 type  2   force =     0.00005910   -0.00047632    0.00050691
     atom    4 type  2   force =    -0.00005956   -0.00046934   -0.00050931
     atom    5 type  3   force =    -0.00005528   -0.00026342    0.00085536
     atom    6 type  3   force =     0.00005241   -0.00026221   -0.00085407
     atom    7 type  3   force =     0.00005528    0.00026342   -0.00085536
     atom    8 type  3   force =    -0.00005241    0.00026221    0.00085407
     atom    9 type  3   force =     0.00010998   -0.00018706   -0.00082827
     atom   10 type  3   force =    -0.00011095   -0.00018557    0.00083300
     atom   11 type  3   force =    -0.00010998    0.00018706    0.00082827
     atom   12 type  3   force =     0.00011095    0.00018557   -0.00083300
     atom   13 type  2   force =    -0.00027652   -0.00006516    0.00041043
     atom   14 type  2   force =     0.00025331   -0.00002102   -0.00046670
     atom   15 type  2   force =     0.00027652    0.00006516   -0.00041043
     atom   16 type  2   force =    -0.00025331    0.00002102    0.00046670
     atom   17 type  3   force =    -0.00020936   -0.00026065    0.00026068
     atom   18 type  3   force =     0.00022466   -0.00025974   -0.00025271
     atom   19 type  3   force =     0.00020936    0.00026065   -0.00026068
     atom   20 type  3   force =    -0.00022466    0.00025974    0.00025271
     atom   21 type  3   force =     0.00011317    0.00027908   -0.00031491
     atom   22 type  3   force =    -0.00011464    0.00025211    0.00032262
     atom   23 type  3   force =    -0.00011317   -0.00027908    0.00031491
     atom   24 type  3   force =     0.00011464   -0.00025211   -0.00032262
     atom   25 type  3   force =     0.00045904    0.00021962    0.00062012
     atom   26 type  3   force =    -0.00045311    0.00020537   -0.00057716
     atom   27 type  3   force =    -0.00045904   -0.00021962   -0.00062012
     atom   28 type  3   force =     0.00045311   -0.00020537    0.00057716
     atom   29 type  1   force =    -0.00038825    0.00032746    0.00007061
     atom   30 type  1   force =     0.00036730    0.00034074   -0.00008008
     atom   31 type  1   force =     0.00038825   -0.00032746   -0.00007061
     atom   32 type  1   force =    -0.00036730   -0.00034074    0.00008008
     atom   33 type  1   force =     0.00016749   -0.00020244    0.00040874
     atom   34 type  1   force =    -0.00016657   -0.00020101   -0.00038865
     atom   35 type  1   force =    -0.00016749    0.00020244   -0.00040874
     atom   36 type  1   force =     0.00016657    0.00020101    0.00038865
     atom   37 type  3   force =     0.00048374   -0.00007324   -0.00014155
     atom   38 type  3   force =    -0.00048125   -0.00007270    0.00014049
     atom   39 type  3   force =    -0.00048374    0.00007324    0.00014155
     atom   40 type  3   force =     0.00048125    0.00007270   -0.00014049
     atom   41 type  3   force =    -0.00027599    0.00009025    0.00037515
     atom   42 type  3   force =     0.00027551    0.00008684   -0.00037451
     atom   43 type  3   force =     0.00027599   -0.00009025   -0.00037515
     atom   44 type  3   force =    -0.00027551   -0.00008684    0.00037451
     atom   45 type  1   force =    -0.00015004   -0.00032516   -0.00016754
     atom   46 type  1   force =     0.00015414   -0.00031707    0.00019706
     atom   47 type  1   force =     0.00015004    0.00032516    0.00016754
     atom   48 type  1   force =    -0.00015414    0.00031707   -0.00019706
     atom   49 type  3   force =     0.00086499    0.00076798   -0.00073288
     atom   50 type  3   force =    -0.00086514    0.00077270    0.00072417
     atom   51 type  3   force =    -0.00086499   -0.00076798    0.00073288
     atom   52 type  3   force =     0.00086514   -0.00077270   -0.00072417
     atom   53 type  1   force =    -0.00000584   -0.00018635    0.00027226
     atom   54 type  1   force =     0.00000047   -0.00016822   -0.00027784
     atom   55 type  1   force =     0.00000584    0.00018635   -0.00027226
     atom   56 type  1   force =    -0.00000047    0.00016822    0.00027784
     atom   57 type  3   force =    -0.00005199   -0.00007471    0.00040172
     atom   58 type  3   force =     0.00005047   -0.00007593   -0.00039610
     atom   59 type  3   force =     0.00005199    0.00007471   -0.00040172
     atom   60 type  3   force =    -0.00005047    0.00007593    0.00039610
     atom   61 type  3   force =     0.00008964    0.00010771   -0.00020294
     atom   62 type  3   force =    -0.00009018    0.00010634    0.00020966
     atom   63 type  3   force =    -0.00008964   -0.00010771    0.00020294
     atom   64 type  3   force =     0.00009018   -0.00010634   -0.00020966
     atom   65 type  1   force =    -0.00014467    0.00039815   -0.00004943
     atom   66 type  1   force =     0.00014628    0.00037675    0.00003698
     atom   67 type  1   force =     0.00014467   -0.00039815    0.00004943
     atom   68 type  1   force =    -0.00014628   -0.00037675   -0.00003698
     atom   69 type  1   force =    -0.00033922    0.00035859   -0.00014410
     atom   70 type  1   force =     0.00035089    0.00035910    0.00012244
     atom   71 type  1   force =     0.00033922   -0.00035859    0.00014410
     atom   72 type  1   force =    -0.00035089   -0.00035910   -0.00012244
     atom   73 type  3   force =     0.00039962    0.00014061    0.00019734
     atom   74 type  3   force =    -0.00039995    0.00014293   -0.00019963
     atom   75 type  3   force =    -0.00039962   -0.00014061   -0.00019734
     atom   76 type  3   force =     0.00039995   -0.00014293    0.00019963
     atom   77 type  3   force =     0.00020134   -0.00009836    0.00005098
     atom   78 type  3   force =    -0.00020038   -0.00009970   -0.00005156
     atom   79 type  3   force =    -0.00020134    0.00009836   -0.00005098
     atom   80 type  3   force =     0.00020038    0.00009970    0.00005156
     atom   81 type  3   force =    -0.00019243    0.00020376   -0.00001489
     atom   82 type  3   force =     0.00019324    0.00020343    0.00001689
     atom   83 type  3   force =     0.00019243   -0.00020376    0.00001489
     atom   84 type  3   force =    -0.00019324   -0.00020343   -0.00001689
     atom   85 type  1   force =    -0.00009440   -0.00003839   -0.00050905
     atom   86 type  1   force =     0.00008222   -0.00002798    0.00053918
     atom   87 type  1   force =     0.00009440    0.00003839    0.00050905
     atom   88 type  1   force =    -0.00008222    0.00002798   -0.00053918
     atom   89 type  3   force =     0.00005554    0.00008569   -0.00049708
     atom   90 type  3   force =    -0.00005373    0.00008512    0.00049867
     atom   91 type  3   force =    -0.00005554   -0.00008569    0.00049708
     atom   92 type  3   force =     0.00005373   -0.00008512   -0.00049867
     atom   93 type  3   force =     0.00008164   -0.00040824   -0.00009932
     atom   94 type  3   force =    -0.00007966   -0.00040801    0.00009732
     atom   95 type  3   force =    -0.00008164    0.00040824    0.00009932
     atom   96 type  3   force =     0.00007966    0.00040801   -0.00009732
     atom   97 type  3   force =    -0.00049207    0.00023202    0.00051002
     atom   98 type  3   force =     0.00049452    0.00023170   -0.00051270
     atom   99 type  3   force =     0.00049207   -0.00023202   -0.00051002
     atom  100 type  3   force =    -0.00049452   -0.00023170    0.00051270
     atom  101 type  1   force =     0.00002750   -0.00011521   -0.00036901
     atom  102 type  1   force =    -0.00003450   -0.00010496    0.00035851
     atom  103 type  1   force =    -0.00002750    0.00011521    0.00036901
     atom  104 type  1   force =     0.00003450    0.00010496   -0.00035851
     atom  105 type  3   force =     0.00013021   -0.00022278    0.00045905
     atom  106 type  3   force =    -0.00012758   -0.00022063   -0.00045980
     atom  107 type  3   force =    -0.00013021    0.00022278   -0.00045905
     atom  108 type  3   force =     0.00012758    0.00022063    0.00045980
     atom  109 type  3   force =    -0.00016587    0.00011414   -0.00089810
     atom  110 type  3   force =     0.00016462    0.00011369    0.00090094
     atom  111 type  3   force =     0.00016587   -0.00011414    0.00089810
     atom  112 type  3   force =    -0.00016462   -0.00011369   -0.00090094
     atom  113 type  3   force =    -0.00020835    0.00033246   -0.00017212
     atom  114 type  3   force =     0.00021055    0.00033206    0.00017608
     atom  115 type  3   force =     0.00020835   -0.00033246    0.00017212
     atom  116 type  3   force =    -0.00021055   -0.00033206   -0.00017608
     atom  117 type  1   force =     0.00057427   -0.00015200   -0.00018489
     atom  118 type  1   force =    -0.00057818   -0.00015576    0.00017634
     atom  119 type  1   force =    -0.00057427    0.00015200    0.00018489
     atom  120 type  1   force =     0.00057818    0.00015576   -0.00017634
     atom  121 type  3   force =     0.00006007   -0.00054034    0.00013330
     atom  122 type  3   force =    -0.00005912   -0.00053955   -0.00013129
     atom  123 type  3   force =    -0.00006007    0.00054034   -0.00013330
     atom  124 type  3   force =     0.00005912    0.00053955    0.00013129
     atom  125 type  3   force =     0.00018704    0.00020344   -0.00079419
     atom  126 type  3   force =    -0.00018707    0.00020413    0.00079367
     atom  127 type  3   force =    -0.00018704   -0.00020344    0.00079419
     atom  128 type  3   force =     0.00018707   -0.00020413   -0.00079367
     atom  129 type  3   force =    -0.00031526   -0.00009108    0.00038105
     atom  130 type  3   force =     0.00031540   -0.00008770   -0.00037796
     atom  131 type  3   force =     0.00031526    0.00009108   -0.00038105
     atom  132 type  3   force =    -0.00031540    0.00008770    0.00037796
     atom  133 type  2   force =    -0.00006291   -0.00000593   -0.00032421
     atom  134 type  2   force =     0.00019892    0.00014944    0.00030159
     atom  135 type  2   force =     0.00006291    0.00000593    0.00032421
     atom  136 type  2   force =    -0.00019892   -0.00014944   -0.00030159
     atom  137 type  4   force =    -0.00040620    0.00032081    0.00013652
     atom  138 type  4   force =     0.00038534    0.00031007   -0.00012534
     atom  139 type  4   force =     0.00040620   -0.00032081   -0.00013652
     atom  140 type  4   force =    -0.00038534   -0.00031007    0.00012534
     atom  141 type  4   force =     0.00039786   -0.00081632    0.00009413
     atom  142 type  4   force =    -0.00042894   -0.00088034   -0.00012840
     atom  143 type  4   force =    -0.00039786    0.00081632   -0.00009413
     atom  144 type  4   force =     0.00042894    0.00088034    0.00012840
     atom  145 type  4   force =    -0.00047984    0.00089894   -0.00084844
     atom  146 type  4   force =     0.00039426    0.00081807    0.00088592
     atom  147 type  4   force =     0.00047984   -0.00089894    0.00084844
     atom  148 type  4   force =    -0.00039426   -0.00081807   -0.00088592
     atom  149 type  2   force =    -0.00021764   -0.00032445   -0.00012415
     atom  150 type  2   force =     0.00003809   -0.00013794   -0.00009074
     atom  151 type  2   force =     0.00021764    0.00032445    0.00012415
     atom  152 type  2   force =    -0.00003809    0.00013794    0.00009074
     atom  153 type  4   force =     0.00039153   -0.00013752    0.00021785
     atom  154 type  4   force =    -0.00035699   -0.00013261   -0.00015226
     atom  155 type  4   force =    -0.00039153    0.00013752   -0.00021785
     atom  156 type  4   force =     0.00035699    0.00013261    0.00015226
     atom  157 type  4   force =     0.00002385    0.00037096    0.00019635
     atom  158 type  4   force =     0.00000989    0.00029137   -0.00018187
     atom  159 type  4   force =    -0.00002385   -0.00037096   -0.00019635
     atom  160 type  4   force =    -0.00000989   -0.00029137    0.00018187
     atom  161 type  4   force =    -0.00027737    0.00002249   -0.00043773
     atom  162 type  4   force =     0.00039206   -0.00009349    0.00057993
     atom  163 type  4   force =     0.00027737   -0.00002249    0.00043773
     atom  164 type  4   force =    -0.00039206    0.00009349   -0.00057993

     Total force =     0.007903     Total SCF correction =     0.000078


     Computing stress (Cartesian axis) and pressure

          total   stress  (Ry/bohr**3)                   (kbar)     P=   -7.03
  -0.00004102   0.00000001  -0.00001223         -6.03      0.00     -1.80
   0.00000001  -0.00004981   0.00000002          0.00     -7.33      0.00
  -0.00001223   0.00000002  -0.00005249         -1.80      0.00     -7.72


     Writing output data file scf.save
 
     init_run     :    120.77s CPU    125.20s WALL (       1 calls)
     electrons    :   5031.96s CPU   5207.85s WALL (       1 calls)
     forces       :     61.36s CPU     61.76s WALL (       1 calls)
     stress       :    290.86s CPU    291.49s WALL (       1 calls)

     Called by init_run:
     wfcinit      :    105.60s CPU    109.78s WALL (       1 calls)
     potinit      :      5.41s CPU      5.47s WALL (       1 calls)

     Called by electrons:
     c_bands      :   4575.63s CPU   4725.10s WALL (      18 calls)
     sum_band     :    430.32s CPU    453.72s WALL (      18 calls)
     v_of_rho     :      3.37s CPU      3.73s WALL (      19 calls)
     newd         :     10.32s CPU     12.88s WALL (      19 calls)
     PAW_pot      :     11.42s CPU     11.44s WALL (      19 calls)
     mix_rho      :      0.76s CPU      0.83s WALL (      18 calls)

     Called by c_bands:
     init_us_2    :     17.69s CPU     17.76s WALL (     312 calls)
     cegterg      :   4508.22s CPU   4657.58s WALL (     144 calls)

     Called by sum_band:
     sum_band:bec :      0.18s CPU      0.18s WALL (     144 calls)
     addusdens    :     10.17s CPU     12.61s WALL (      18 calls)

     Called by *egterg:
     h_psi        :   2284.08s CPU   2405.22s WALL (     697 calls)
     s_psi        :    599.85s CPU    599.93s WALL (     697 calls)
     g_psi        :      8.87s CPU      8.87s WALL (     545 calls)
     cdiaghg      :    268.91s CPU    268.95s WALL (     689 calls)

     Called by h_psi:
     h_psi:pot    :   2271.90s CPU   2392.85s WALL (     697 calls)
     h_psi:calbec :    582.07s CPU    582.77s WALL (     697 calls)
     vloc_psi     :   1091.32s CPU   1211.48s WALL (     697 calls)
     add_vuspsi   :    598.50s CPU    598.60s WALL (     697 calls)

     General routines
     calbec       :    841.32s CPU    842.30s WALL (     881 calls)
     fft          :      2.27s CPU      2.91s WALL (     271 calls)
     fftw         :   1178.75s CPU   1319.20s WALL (  261402 calls)
 
     Parallel routines
     fft_scatter  :    192.29s CPU    330.94s WALL (  261673 calls)
 
     PWSCF        :     1h32m CPU        1h36m WALL

 
   This run was terminated on:  11:17:49  12Nov2017            

=------------------------------------------------------------------------------=
   JOB DONE.
=------------------------------------------------------------------------------=
