
     Program PWSCF v.6.1 (svn rev. 13369) starts on  4Nov2017 at  4:58:54 

     This program is part of the open-source Quantum ESPRESSO suite
     for quantum simulation of materials; please cite
         "P. Giannozzi et al., J. Phys.:Condens. Matter 21 395502 (2009);
          URL http://www.quantum-espresso.org", 
     in publications or presentations arising from this work. More details at
     http://www.quantum-espresso.org/quote

     Parallel version (MPI), running on     8 processors
     R & G space division:  proc/nbgrp/npool/nimage =       8
     Waiting for input...
     Reading input from standard input

     Current dimensions of program PWSCF are:
     Max number of different atomic species (ntypx) = 10
     Max number of k-points (npk) =  40000
     Max angular momentum in pseudopotentials (lmaxx) =  3
               file C.pbe-n-kjpaw_psl.0.1.UPF: wavefunction(s)  2P renormalized
               file N.pbe-n-kjpaw_psl.0.1.UPF: wavefunction(s)  2P renormalized
               file H.pbe-kjpaw_psl.0.1.UPF: wavefunction(s)  1S renormalized
               file O.pbe-n-kjpaw_psl.0.1.UPF: wavefunction(s)  2P renormalized

     -------------------------------------
     Parameters for Dispersion Correction:
     -------------------------------------
       atom      VdW radius       C_6     

        C          2.744         60.710
        N          2.640         42.670
        H          1.892          4.857
        O          2.536         24.284

     Subspace diagonalization in iterative solution of the eigenvalue problem:
     a serial algorithm will be used

 
     Parallelization info
     --------------------
     sticks:   dense  smooth     PW     G-vecs:    dense   smooth      PW
     Min        1750    1750    463                81454    81454   11076
     Max        1752    1752    465                81455    81455   11077
     Sum       14013   14013   3709               651633   651633   88615
 


     bravais-lattice index     =            0
     lattice parameter (alat)  =      23.3041  a.u.
     unit-cell volume          =    4823.9173 (a.u.)^3
     number of atoms/cell      =           84
     number of atomic types    =            4
     number of electrons       =       248.00
     number of Kohn-Sham states=          148
     kinetic-energy cutoff     =     100.0000  Ry
     charge density cutoff     =     400.0000  Ry
     convergence threshold     =      1.0E-08
     mixing beta               =       0.5000
     number of iterations used =            8  plain     mixing
     Exchange-correlation      =  SLA  PW   PBX  PBC ( 1  4  3  4 0 0)

     celldm(1)=  23.304103  celldm(2)=   0.000000  celldm(3)=   0.000000
     celldm(4)=   0.000000  celldm(5)=   0.000000  celldm(6)=   0.000000

     crystal axes: (cart. coord. in units of alat)
               a(1) = (   1.000000   0.000000   0.000000 )  
               a(2) = (   0.000000   0.810112   0.000000 )  
               a(3) = (   0.000000   0.000000   0.470498 )  

     reciprocal axes: (cart. coord. in units 2 pi/alat)
               b(1) = (  1.000000  0.000000  0.000000 )  
               b(2) = (  0.000000  1.234397  0.000000 )  
               b(3) = (  0.000000  0.000000  2.125408 )  


     PseudoPot. # 1 for  C read from file:
     /scratch/ahofstet/pseudo/C.pbe-n-kjpaw_psl.0.1.UPF
     MD5 check sum: 430fe95172b1e11ef3f8ed03bac87931
     Pseudo is Projector augmented-wave + core cor, Zval =  4.0
     Generated using "atomic" code by A. Dal Corso  v.5.0.99 svn rev. 10869
     Shape of augmentation charge: BESSEL
     Using radial grid of 1073 points,  4 beta functions with: 
                l(1) =   0
                l(2) =   0
                l(3) =   1
                l(4) =   1
     Q(r) pseudized with 0 coefficients 


     PseudoPot. # 2 for  N read from file:
     /scratch/ahofstet/pseudo/N.pbe-n-kjpaw_psl.0.1.UPF
     MD5 check sum: f73187c8b701007e77325f868c9291d7
     Pseudo is Projector augmented-wave + core cor, Zval =  5.0
     Generated using "atomic" code by A. Dal Corso  v.5.0.99 svn rev. 10869
     Shape of augmentation charge: PSQ
     Using radial grid of 1085 points,  4 beta functions with: 
                l(1) =   0
                l(2) =   0
                l(3) =   1
                l(4) =   1
     Q(r) pseudized with 0 coefficients 


     PseudoPot. # 3 for  H read from file:
     /scratch/ahofstet/pseudo/H.pbe-kjpaw_psl.0.1.UPF
     MD5 check sum: 94e484f906d9e9773b2f6e52662335b2
     Pseudo is Projector augmented-wave, Zval =  1.0
     Generated using "atomic" code by A. Dal Corso  v.5.0.99 svn rev. 10869
     Shape of augmentation charge: PSQ
     Using radial grid of  929 points,  2 beta functions with: 
                l(1) =   0
                l(2) =   0
     Q(r) pseudized with 0 coefficients 


     PseudoPot. # 4 for  O read from file:
     /scratch/ahofstet/pseudo/O.pbe-n-kjpaw_psl.0.1.UPF
     MD5 check sum: 3f94a2996a3169367d6eb21d9b593f20
     Pseudo is Projector augmented-wave + core cor, Zval =  6.0
     Generated using "atomic" code by A. Dal Corso  v.5.0.99 svn rev. 10869
     Shape of augmentation charge: BESSEL
     Using radial grid of 1095 points,  4 beta functions with: 
                l(1) =   0
                l(2) =   0
                l(3) =   1
                l(4) =   1
     Q(r) pseudized with 0 coefficients 


     atomic species   valence    mass     pseudopotential
        C              4.00    12.01070      C( 1.00)
        N              5.00    14.00670      N( 1.00)
        H              1.00     1.00794      H( 1.00)
        O              6.00    15.99940      O( 1.00)

      2 Sym. Ops. (no inversion) found
          (note:  2 additional sym.ops. were found but ignored
           their fractional translations are incommensurate with FFT grid)


   Cartesian axes

     site n.     atom                  positions (alat units)
         1           N   tau(   1) = (   0.2640992   0.8089856   0.1659372  )
         2           N   tau(   2) = (   0.7359008   0.0011263   0.1659372  )
         3           N   tau(   3) = (   0.7640992   0.4061822   0.3045607  )
         4           N   tau(   4) = (   0.2359008   0.4039297   0.3045607  )
         5           O   tau(   5) = (   0.0590764   0.5920255   0.1670236  )
         6           O   tau(   6) = (   0.9409236   0.2180864   0.1670236  )
         7           O   tau(   7) = (   0.5590764   0.6231424   0.3034743  )
         8           O   tau(   8) = (   0.4409236   0.1869695   0.3034743  )
         9           O   tau(   9) = (   0.0954840   0.7217378   0.2902547  )
        10           O   tau(  10) = (   0.9045160   0.0883741   0.2902547  )
        11           O   tau(  11) = (   0.5954840   0.4934300   0.1802432  )
        12           O   tau(  12) = (   0.4045160   0.3166819   0.1802432  )
        13           C   tau(  13) = (   0.1871422   0.7267332   0.1173401  )
        14           C   tau(  14) = (   0.8128578   0.0833787   0.1173401  )
        15           C   tau(  15) = (   0.6871422   0.4884347   0.3531578  )
        16           C   tau(  16) = (   0.3128578   0.3216773   0.3531578  )
        17           H   tau(  17) = (   0.2385334   0.6646827   0.0799025  )
        18           H   tau(  18) = (   0.7614666   0.1454292   0.0799025  )
        19           H   tau(  19) = (   0.7385334   0.5504851   0.3905954  )
        20           H   tau(  20) = (   0.2614666   0.2596268   0.3905954  )
        21           H   tau(  21) = (   0.1406473   0.7696697   0.0544359  )
        22           H   tau(  22) = (   0.8593527   0.0404422   0.0544359  )
        23           H   tau(  23) = (   0.6406473   0.4454982   0.4160620  )
        24           H   tau(  24) = (   0.3593527   0.3646137   0.4160620  )
        25           C   tau(  25) = (   0.3459261   0.7550993   0.2379091  )
        26           C   tau(  26) = (   0.6540739   0.0550126   0.2379091  )
        27           C   tau(  27) = (   0.8459261   0.4600685   0.2325888  )
        28           C   tau(  28) = (   0.1540739   0.3500434   0.2325888  )
        29           H   tau(  29) = (   0.3943069   0.8202774   0.2738599  )
        30           H   tau(  30) = (   0.6056931  -0.0101655   0.2738599  )
        31           H   tau(  31) = (   0.8943069   0.3948905   0.1966380  )
        32           H   tau(  32) = (   0.1056931   0.4152214   0.1966380  )
        33           H   tau(  33) = (   0.3954014   0.7012791   0.1873989  )
        34           H   tau(  34) = (   0.6045986   0.1088328   0.1873989  )
        35           H   tau(  35) = (   0.8954014   0.5138887   0.2830990  )
        36           H   tau(  36) = (   0.1045986   0.2962232   0.2830990  )
        37           H   tau(  37) = (   0.3024670   0.7084609   0.2994869  )
        38           H   tau(  38) = (   0.6975330   0.1016510   0.2994869  )
        39           H   tau(  39) = (   0.8024670   0.5067070   0.1710110  )
        40           H   tau(  40) = (   0.1975330   0.3034049   0.1710110  )
        41           C   tau(  41) = (   0.3197601   0.0602097   0.0777873  )
        42           C   tau(  42) = (   0.6802399   0.7499022   0.0777873  )
        43           C   tau(  43) = (   0.8197601   0.3448462   0.3927105  )
        44           C   tau(  44) = (   0.1802399   0.4652657   0.3927105  )
        45           H   tau(  45) = (   0.3650624   0.0010361   0.0291944  )
        46           H   tau(  46) = (   0.6349376   0.8090758   0.0291944  )
        47           H   tau(  47) = (   0.8650624   0.4040198   0.4413035  )
        48           H   tau(  48) = (   0.1349376   0.4060921   0.4413035  )
        49           H   tau(  49) = (   0.3744984   0.1186720   0.1161735  )
        50           H   tau(  50) = (   0.6255016   0.6914399   0.1161735  )
        51           H   tau(  51) = (   0.8744984   0.2863840   0.3543244  )
        52           H   tau(  52) = (   0.1255016   0.5237279   0.3543244  )
        53           H   tau(  53) = (   0.2569970   0.1002530   0.0294417  )
        54           H   tau(  54) = (   0.7430030   0.7098589   0.0294417  )
        55           H   tau(  55) = (   0.7569970   0.3048029   0.4410562  )
        56           H   tau(  56) = (   0.2430030   0.5053090   0.4410562  )
        57           C   tau(  57) = (   0.1077295   0.6753339   0.1987190  )
        58           C   tau(  58) = (   0.8922705   0.1347780   0.1987190  )
        59           C   tau(  59) = (   0.6077295   0.5398340   0.2717789  )
        60           C   tau(  60) = (   0.3922705   0.2702779   0.2717789  )
        61           O   tau(  61) = (   0.2052632   0.0784303   0.2266442  )
        62           O   tau(  62) = (   0.7947368   0.7316816   0.2266442  )
        63           O   tau(  63) = (   0.7052632   0.3266257   0.2438537  )
        64           O   tau(  64) = (   0.2947368   0.4834862   0.2438537  )
        65           H   tau(  65) = (   0.1566724   0.0308820   0.2730732  )
        66           H   tau(  66) = (   0.8433276   0.7792299   0.2730732  )
        67           H   tau(  67) = (   0.6566724   0.3741740   0.1974247  )
        68           H   tau(  68) = (   0.3433276   0.4359379   0.1974247  )
        69           O   tau(  69) = (   0.9301781   0.6978988   0.4289325  )
        70           O   tau(  70) = (   0.0698219   0.1122131   0.4289325  )
        71           O   tau(  71) = (   0.4301781   0.5172690   0.0415654  )
        72           O   tau(  72) = (   0.5698219   0.2928429   0.0415654  )
        73           H   tau(  73) = (   0.9917148   0.7001641   0.3753853  )
        74           H   tau(  74) = (   0.0082852   0.1099478   0.3753853  )
        75           H   tau(  75) = (   0.4917148   0.5150038   0.0951126  )
        76           H   tau(  76) = (   0.5082852   0.2951081   0.0951126  )
        77           O   tau(  77) = (   0.9309596   0.5841234   0.4622948  )
        78           O   tau(  78) = (   0.0690404   0.2259885   0.4622948  )
        79           O   tau(  79) = (   0.4309596   0.6310445   0.0082031  )
        80           O   tau(  80) = (   0.5690404   0.1790674   0.0082031  )
        81           H   tau(  81) = (   0.9793638   0.5874975   0.0570408  )
        82           H   tau(  82) = (   0.0206362   0.2226144   0.0570408  )
        83           H   tau(  83) = (   0.4793638   0.6276704   0.4134571  )
        84           H   tau(  84) = (   0.5206362   0.1824415   0.4134571  )

     number of k points=     8
                       cart. coord. in units 2pi/alat
        k(    1) = (   0.0000000   0.0000000   0.0000000), wk =   0.1666667
        k(    2) = (   0.0000000   0.0000000   0.7084693), wk =   0.3333333
        k(    3) = (   0.0000000  -0.6171987   0.0000000), wk =   0.1666667
        k(    4) = (   0.0000000  -0.6171987   0.7084693), wk =   0.3333333
        k(    5) = (  -0.5000000   0.0000000   0.0000000), wk =   0.1666667
        k(    6) = (  -0.5000000   0.0000000   0.7084693), wk =   0.3333333
        k(    7) = (  -0.5000000  -0.6171987   0.0000000), wk =   0.1666667
        k(    8) = (  -0.5000000  -0.6171987   0.7084693), wk =   0.3333333

     Dense  grid:   651633 G-vectors     FFT dimensions: ( 150, 125,  72)

     Estimated max dynamical RAM per process >     513.85MB

     Estimated total allocated dynamical RAM >    4110.77MB

     Check: negative/imaginary core charge=   -0.000003    0.000000

     Initial potential from superposition of free atoms

     starting charge  247.99886, renormalised to  248.00000
     Starting wfc are  204 randomized atomic wfcs
     Checking if some PAW data can be deallocated... 

     total cpu time spent up to now is       24.8 secs

     per-process dynamical memory:   360.7 Mb

     Self-consistent Calculation

     iteration #  1     ecut=   100.00 Ry     beta=0.50
     Davidson diagonalization with overlap
     ethr =  1.00E-02,  avg # of iterations =  3.1

     total cpu time spent up to now is       93.9 secs

     total energy              =   -1291.24311003 Ry
     Harris-Foulkes estimate   =   -1295.04648171 Ry
     estimated scf accuracy    <       7.41965278 Ry

     iteration #  2     ecut=   100.00 Ry     beta=0.50
     Davidson diagonalization with overlap
     ethr =  2.99E-03,  avg # of iterations =  2.8

     total cpu time spent up to now is      139.0 secs

     total energy              =   -1292.28728146 Ry
     Harris-Foulkes estimate   =   -1292.73164452 Ry
     estimated scf accuracy    <       1.04404131 Ry

     iteration #  3     ecut=   100.00 Ry     beta=0.50
     Davidson diagonalization with overlap
     ethr =  4.21E-04,  avg # of iterations =  7.8

     total cpu time spent up to now is      209.3 secs

     total energy              =   -1292.61457828 Ry
     Harris-Foulkes estimate   =   -1292.74599656 Ry
     estimated scf accuracy    <       0.33634302 Ry

     iteration #  4     ecut=   100.00 Ry     beta=0.50
     Davidson diagonalization with overlap
     ethr =  1.36E-04,  avg # of iterations =  2.4

     total cpu time spent up to now is      248.8 secs

     total energy              =   -1292.61991911 Ry
     Harris-Foulkes estimate   =   -1292.64696517 Ry
     estimated scf accuracy    <       0.06409743 Ry

     iteration #  5     ecut=   100.00 Ry     beta=0.50
     Davidson diagonalization with overlap
     ethr =  2.58E-05,  avg # of iterations =  6.4

     total cpu time spent up to now is      330.9 secs

     total energy              =   -1292.65483642 Ry
     Harris-Foulkes estimate   =   -1292.68280557 Ry
     estimated scf accuracy    <       0.09011298 Ry

     iteration #  6     ecut=   100.00 Ry     beta=0.50
     Davidson diagonalization with overlap
     ethr =  2.58E-05,  avg # of iterations =  1.9

     total cpu time spent up to now is      368.5 secs

     total energy              =   -1292.64551774 Ry
     Harris-Foulkes estimate   =   -1292.65917892 Ry
     estimated scf accuracy    <       0.03513934 Ry

     iteration #  7     ecut=   100.00 Ry     beta=0.50
     Davidson diagonalization with overlap
     ethr =  1.42E-05,  avg # of iterations =  5.5

     total cpu time spent up to now is      430.1 secs

     total energy              =   -1292.65579514 Ry
     Harris-Foulkes estimate   =   -1292.65582616 Ry
     estimated scf accuracy    <       0.00031186 Ry

     iteration #  8     ecut=   100.00 Ry     beta=0.50
     Davidson diagonalization with overlap
     ethr =  1.26E-07,  avg # of iterations =  4.5

     total cpu time spent up to now is      498.3 secs

     total energy              =   -1292.65582286 Ry
     Harris-Foulkes estimate   =   -1292.65595961 Ry
     estimated scf accuracy    <       0.00028351 Ry

     iteration #  9     ecut=   100.00 Ry     beta=0.50
     Davidson diagonalization with overlap
     ethr =  1.14E-07,  avg # of iterations =  2.4

     total cpu time spent up to now is      537.5 secs

     total energy              =   -1292.65584770 Ry
     Harris-Foulkes estimate   =   -1292.65585750 Ry
     estimated scf accuracy    <       0.00002462 Ry

     iteration # 10     ecut=   100.00 Ry     beta=0.50
     Davidson diagonalization with overlap
     ethr =  9.93E-09,  avg # of iterations =  4.0

     total cpu time spent up to now is      611.6 secs

     total energy              =   -1292.65589131 Ry
     Harris-Foulkes estimate   =   -1292.65590841 Ry
     estimated scf accuracy    <       0.00005620 Ry

     iteration # 11     ecut=   100.00 Ry     beta=0.50
     Davidson diagonalization with overlap
     ethr =  9.93E-09,  avg # of iterations =  2.0

     total cpu time spent up to now is      649.7 secs

     total energy              =   -1292.65588313 Ry
     Harris-Foulkes estimate   =   -1292.65589275 Ry
     estimated scf accuracy    <       0.00002378 Ry

     iteration # 12     ecut=   100.00 Ry     beta=0.50
     Davidson diagonalization with overlap
     ethr =  9.59E-09,  avg # of iterations =  3.0

     total cpu time spent up to now is      705.9 secs

     total energy              =   -1292.65589135 Ry
     Harris-Foulkes estimate   =   -1292.65589139 Ry
     estimated scf accuracy    <       0.00000034 Ry

     iteration # 13     ecut=   100.00 Ry     beta=0.50
     Davidson diagonalization with overlap
     ethr =  1.38E-10,  avg # of iterations =  2.2

     total cpu time spent up to now is      748.0 secs

     total energy              =   -1292.65589129 Ry
     Harris-Foulkes estimate   =   -1292.65589139 Ry
     estimated scf accuracy    <       0.00000022 Ry

     iteration # 14     ecut=   100.00 Ry     beta=0.50
     Davidson diagonalization with overlap
     ethr =  8.95E-11,  avg # of iterations =  3.0

     total cpu time spent up to now is      790.0 secs

     total energy              =   -1292.65589131 Ry
     Harris-Foulkes estimate   =   -1292.65589132 Ry
     estimated scf accuracy    <       0.00000002 Ry

     iteration # 15     ecut=   100.00 Ry     beta=0.50
     Davidson diagonalization with overlap
     ethr =  8.21E-12,  avg # of iterations =  4.0

     total cpu time spent up to now is      855.1 secs

     End of self-consistent calculation

          k = 0.0000 0.0000 0.0000 ( 81421 PWs)   bands (ev):

   -21.8921 -21.8836 -21.8725 -21.8671 -20.9733 -20.9680 -20.9531 -20.9519
   -20.3298 -20.3216 -20.3119 -20.3042 -18.2101 -18.2015 -18.1779 -18.1730
   -16.7346 -16.7284 -16.7034 -16.7025 -15.2524 -15.2477 -15.1936 -15.1892
   -12.6919 -12.6614 -12.6592 -12.6583 -12.2943 -12.2817 -12.2773 -12.2612
    -9.9167  -9.9127  -9.8670  -9.7697  -8.3863  -8.3028  -8.2937  -8.2439
    -7.3141  -7.2729  -7.2211  -7.1553  -6.8316  -6.8133  -6.8023  -6.6701
    -6.6515  -6.6326  -6.6196  -6.5785  -5.9013  -5.8900  -5.7827  -5.6937
    -5.6862  -5.6542  -5.6035  -5.5250  -5.3445  -5.2899  -5.2019  -5.1726
    -4.8631  -4.7969  -4.7731  -4.7633  -4.6719  -4.5153  -4.4607  -4.4577
    -4.2152  -4.2143  -4.2031  -4.1017  -4.0313  -4.0285  -3.9319  -3.9005
    -3.7415  -3.7319  -3.6706  -3.6279  -3.5316  -3.5118  -3.4927  -3.4032
    -3.4019  -3.3973  -3.3889  -3.2224  -3.1476  -3.0602  -2.9848  -2.9625
    -2.9223  -2.8926  -2.8295  -2.7712  -1.2371  -1.1702  -1.0053  -0.9976
    -0.8633  -0.7979  -0.7234  -0.6976  -0.6560  -0.6465  -0.5976  -0.5925
    -0.1987  -0.1899  -0.1819  -0.1604   0.0018   0.0591   0.1094   0.1560
     0.2303   0.2395   0.2665   0.3047   5.0342   5.0730   5.4387   5.5041
     5.5339   5.5809   5.7529   5.8491   5.9189   6.0990   6.4600   6.4649
     6.5331   6.9800   7.0625   7.2059   7.2394   7.5291   7.5491   7.7190
     8.0118   8.2165   8.2854   8.3057

          k = 0.0000 0.0000 0.7085 ( 81431 PWs)   bands (ev):

   -21.8882 -21.8820 -21.8703 -21.8661 -20.9530 -20.9509 -20.9330 -20.9327
   -20.3651 -20.3515 -20.3461 -20.3342 -18.1834 -18.1754 -18.1610 -18.1575
   -16.7384 -16.7301 -16.7059 -16.7021 -15.2742 -15.2657 -15.2052 -15.2016
   -12.7098 -12.6877 -12.6395 -12.6349 -12.3360 -12.3228 -12.3085 -12.2877
    -9.8644  -9.8292  -9.8111  -9.7569  -8.3391  -8.3080  -8.2703  -8.2344
    -7.2750  -7.1067  -7.1015  -7.0024  -6.9423  -6.8384  -6.8000  -6.7922
    -6.7240  -6.5834  -6.5750  -6.5530  -6.1873  -6.1819  -6.0664  -6.0554
    -5.6673  -5.5499  -5.5158  -5.4289  -5.1134  -5.0611  -4.9800  -4.9609
    -4.8811  -4.8719  -4.8039  -4.7672  -4.6524  -4.6207  -4.4361  -4.4210
    -4.2726  -4.2280  -4.2013  -4.0255  -4.0059  -4.0043  -3.8798  -3.8783
    -3.8491  -3.8006  -3.7021  -3.6769  -3.6157  -3.4786  -3.4622  -3.3797
    -3.3500  -3.3103  -3.3020  -3.2239  -3.1838  -3.1746  -3.0005  -2.9460
    -2.9186  -2.8975  -2.8219  -2.7010  -1.2348  -1.1961  -1.0161  -1.0074
    -0.9462  -0.8504  -0.7311  -0.6677  -0.6564  -0.6205  -0.5895  -0.5789
    -0.2278  -0.1690  -0.1506  -0.1106   0.0124   0.0638   0.1410   0.1702
     0.1971   0.2088   0.2380   0.2597   5.0100   5.1534   5.3371   5.3742
     5.3963   5.4264   5.7973   5.8560   5.9761   6.0252   6.3539   6.4441
     6.7773   6.9156   7.0545   7.1503   7.2365   7.4859   7.6040   7.8603
     8.0013   8.0206   8.0544   8.0957

          k = 0.0000-0.6172 0.0000 ( 81532 PWs)   bands (ev):

   -21.8824 -21.8824 -21.8754 -21.8754 -20.9704 -20.9704 -20.9527 -20.9527
   -20.3207 -20.3206 -20.3130 -20.3130 -18.2052 -18.2052 -18.1760 -18.1760
   -16.7197 -16.7197 -16.7148 -16.7148 -15.2483 -15.2483 -15.1933 -15.1933
   -12.6774 -12.6774 -12.6574 -12.6574 -12.2879 -12.2879 -12.2716 -12.2716
    -9.8961  -9.8961  -9.8324  -9.8324  -8.3514  -8.3514  -8.2683  -8.2683
    -7.2806  -7.2806  -7.1879  -7.1879  -6.8403  -6.8403  -6.7313  -6.7313
    -6.6889  -6.6889  -6.5484  -6.5484  -5.8433  -5.8433  -5.8043  -5.8043
    -5.6251  -5.6251  -5.6054  -5.6054  -5.3222  -5.3222  -5.2044  -5.2044
    -4.8205  -4.8205  -4.7673  -4.7673  -4.6002  -4.6002  -4.3459  -4.3459
    -4.2282  -4.2282  -4.1902  -4.1902  -4.0406  -4.0406  -3.9939  -3.9939
    -3.8061  -3.8061  -3.6337  -3.6337  -3.5145  -3.5145  -3.3965  -3.3965
    -3.3482  -3.3482  -3.2633  -3.2633  -3.0691  -3.0691  -3.0046  -3.0046
    -2.9067  -2.9067  -2.8485  -2.8485  -1.1451  -1.1451  -1.0668  -1.0667
    -0.8368  -0.8368  -0.6811  -0.6811  -0.6315  -0.6315  -0.6272  -0.6272
    -0.1869  -0.1869  -0.1800  -0.1800   0.0244   0.0244   0.1440   0.1440
     0.2221   0.2221   0.2875   0.2875   5.1283   5.1283   5.3812   5.3812
     5.6044   5.6044   5.6131   5.6131   6.2560   6.2560   6.3240   6.3240
     6.7808   6.7809   7.1307   7.1307   7.3499   7.3499   7.7262   7.7262
     8.0030   8.0030   8.2492   8.2492

          k = 0.0000-0.6172 0.7085 ( 81450 PWs)   bands (ev):

   -21.8793 -21.8793 -21.8741 -21.8741 -20.9516 -20.9516 -20.9331 -20.9331
   -20.3554 -20.3554 -20.3430 -20.3430 -18.1789 -18.1789 -18.1597 -18.1597
   -16.7226 -16.7225 -16.7157 -16.7157 -15.2679 -15.2679 -15.2056 -15.2056
   -12.6770 -12.6770 -12.6604 -12.6604 -12.3228 -12.3228 -12.3041 -12.3041
    -9.8455  -9.8455  -9.7818  -9.7818  -8.3109  -8.3109  -8.2716  -8.2716
    -7.2177  -7.2176  -7.0146  -7.0146  -6.8857  -6.8857  -6.7959  -6.7959
    -6.7080  -6.7080  -6.5270  -6.5270  -6.1720  -6.1720  -6.0666  -6.0666
    -5.6104  -5.6104  -5.4553  -5.4553  -5.0841  -5.0841  -4.9604  -4.9604
    -4.9152  -4.9152  -4.8443  -4.8443  -4.5422  -4.5422  -4.4094  -4.4094
    -4.2536  -4.2536  -4.1358  -4.1358  -4.0328  -4.0328  -3.9701  -3.9701
    -3.7407  -3.7406  -3.6758  -3.6758  -3.5672  -3.5672  -3.4334  -3.4334
    -3.3893  -3.3893  -3.2714  -3.2714  -3.0642  -3.0642  -2.9470  -2.9470
    -2.8806  -2.8806  -2.8306  -2.8306  -1.1551  -1.1551  -1.0891  -1.0891
    -0.8823  -0.8822  -0.7045  -0.7044  -0.6194  -0.6194  -0.5921  -0.5921
    -0.1888  -0.1888  -0.1361  -0.1360   0.0361   0.0361   0.1529   0.1529
     0.1972   0.1972   0.2504   0.2504   5.1455   5.1455   5.3301   5.3301
     5.5081   5.5081   5.6085   5.6085   6.1551   6.1551   6.2704   6.2704
     6.8354   6.8354   7.0557   7.0557   7.4624   7.4624   7.7079   7.7079
     7.8970   7.8970   8.1129   8.1129

          k =-0.5000 0.0000 0.0000 ( 81482 PWs)   bands (ev):

   -21.8884 -21.8884 -21.8693 -21.8693 -20.9706 -20.9706 -20.9525 -20.9525
   -20.3266 -20.3266 -20.3072 -20.3072 -18.2062 -18.2062 -18.1751 -18.1751
   -16.7317 -16.7316 -16.7029 -16.7029 -15.2502 -15.2502 -15.1913 -15.1913
   -12.6770 -12.6770 -12.6583 -12.6583 -12.2904 -12.2903 -12.2671 -12.2671
    -9.9237  -9.9237  -9.8091  -9.8091  -8.3565  -8.3565  -8.2582  -8.2582
    -7.2586  -7.2586  -7.2232  -7.2232  -6.8652  -6.8651  -6.6736  -6.6736
    -6.6600  -6.6600  -6.5981  -6.5981  -5.8614  -5.8614  -5.8045  -5.8045
    -5.6530  -5.6530  -5.5675  -5.5675  -5.2638  -5.2638  -5.2327  -5.2327
    -4.8282  -4.8282  -4.7552  -4.7552  -4.6113  -4.6113  -4.4023  -4.4023
    -4.2849  -4.2849  -4.1441  -4.1441  -4.0317  -4.0317  -3.9112  -3.9112
    -3.7083  -3.7083  -3.6844  -3.6843  -3.5575  -3.5575  -3.4171  -3.4171
    -3.3731  -3.3730  -3.2893  -3.2893  -3.1125  -3.1125  -2.9933  -2.9933
    -2.9121  -2.9121  -2.7853  -2.7853  -1.2011  -1.2011  -1.0005  -1.0005
    -0.8344  -0.8344  -0.6968  -0.6968  -0.6620  -0.6620  -0.6004  -0.6004
    -0.1920  -0.1920  -0.1762  -0.1762   0.0321   0.0321   0.1460   0.1460
     0.2217   0.2217   0.2882   0.2882   5.0571   5.0571   5.4790   5.4790
     5.5352   5.5352   5.8103   5.8103   6.0612   6.0612   6.4662   6.4662
     6.6150   6.6150   7.1495   7.1495   7.2618   7.2618   7.8804   7.8804
     8.1913   8.1913   8.2708   8.2708

          k =-0.5000 0.0000 0.7085 ( 81472 PWs)   bands (ev):

   -21.8854 -21.8854 -21.8679 -21.8679 -20.9519 -20.9519 -20.9328 -20.9328
   -20.3603 -20.3603 -20.3381 -20.3381 -18.1798 -18.1798 -18.1589 -18.1589
   -16.7343 -16.7343 -16.7040 -16.7040 -15.2700 -15.2700 -15.2033 -15.2033
   -12.6994 -12.6994 -12.6367 -12.6367 -12.3307 -12.3307 -12.2967 -12.2967
    -9.8530  -9.8529  -9.7780  -9.7780  -8.3260  -8.3260  -8.2509  -8.2509
    -7.1796  -7.1796  -7.0827  -7.0827  -6.8852  -6.8852  -6.7738  -6.7738
    -6.6856  -6.6856  -6.5462  -6.5462  -6.1362  -6.1362  -6.1042  -6.1042
    -5.6196  -5.6196  -5.4775  -5.4775  -5.0579  -5.0579  -4.9478  -4.9477
    -4.8792  -4.8792  -4.8286  -4.8286  -4.6028  -4.6028  -4.4740  -4.4740
    -4.2360  -4.2360  -4.1100  -4.1100  -3.9748  -3.9748  -3.9427  -3.9427
    -3.7986  -3.7986  -3.6478  -3.6478  -3.5464  -3.5464  -3.4870  -3.4870
    -3.3024  -3.3024  -3.2791  -3.2791  -3.1601  -3.1601  -2.9602  -2.9602
    -2.9054  -2.9054  -2.7716  -2.7716  -1.2129  -1.2129  -1.0116  -1.0116
    -0.9055  -0.9055  -0.6938  -0.6938  -0.6320  -0.6320  -0.5941  -0.5941
    -0.2170  -0.2170  -0.1112  -0.1112   0.0324   0.0324   0.1654   0.1654
     0.2086   0.2086   0.2411   0.2411   5.0784   5.0785   5.3557   5.3557
     5.4141   5.4141   5.8285   5.8285   6.0051   6.0051   6.4036   6.4036
     6.8424   6.8424   7.0891   7.0891   7.3107   7.3107   7.7411   7.7411
     7.9413   7.9413   8.1960   8.1960

          k =-0.5000-0.6172 0.0000 ( 81564 PWs)   bands (ev):

   -21.8820 -21.8820 -21.8758 -21.8758 -20.9704 -20.9704 -20.9527 -20.9527
   -20.3206 -20.3206 -20.3131 -20.3131 -18.2051 -18.2051 -18.1761 -18.1761
   -16.7191 -16.7190 -16.7155 -16.7155 -15.2483 -15.2483 -15.1933 -15.1933
   -12.6713 -12.6712 -12.6635 -12.6634 -12.2882 -12.2882 -12.2715 -12.2715
    -9.8937  -9.8937  -9.8347  -9.8347  -8.3469  -8.3469  -8.2745  -8.2745
    -7.2393  -7.2393  -7.2228  -7.2228  -6.8132  -6.8132  -6.8058  -6.8058
    -6.6546  -6.6546  -6.5358  -6.5358  -5.8343  -5.8343  -5.8127  -5.8127
    -5.6505  -5.6505  -5.6040  -5.6040  -5.2762  -5.2762  -5.2343  -5.2343
    -4.8252  -4.8252  -4.7797  -4.7797  -4.5391  -4.5391  -4.4073  -4.4073
    -4.2208  -4.2208  -4.1364  -4.1364  -4.0548  -4.0548  -4.0098  -4.0098
    -3.8300  -3.8300  -3.6527  -3.6527  -3.4720  -3.4720  -3.4145  -3.4145
    -3.3169  -3.3169  -3.2876  -3.2876  -3.0500  -3.0500  -3.0231  -3.0231
    -2.9221  -2.9221  -2.8328  -2.8328  -1.1278  -1.1278  -1.0861  -1.0861
    -0.8261  -0.8261  -0.6897  -0.6897  -0.6336  -0.6336  -0.6276  -0.6276
    -0.1851  -0.1851  -0.1821  -0.1821   0.0275   0.0275   0.1385   0.1385
     0.2466   0.2466   0.2673   0.2674   5.1330   5.1330   5.3866   5.3866
     5.5990   5.5990   5.6165   5.6166   6.2378   6.2378   6.3382   6.3382
     6.8528   6.8528   7.0154   7.0154   7.3480   7.3480   7.6753   7.6753
     8.1244   8.1244   8.1970   8.1970

          k =-0.5000-0.6172 0.7085 ( 81468 PWs)   bands (ev):

   -21.8790 -21.8790 -21.8744 -21.8744 -20.9516 -20.9516 -20.9332 -20.9332
   -20.3554 -20.3553 -20.3430 -20.3430 -18.1789 -18.1788 -18.1598 -18.1598
   -16.7192 -16.7192 -16.7191 -16.7191 -15.2678 -15.2678 -15.2056 -15.2056
   -12.6745 -12.6745 -12.6631 -12.6631 -12.3221 -12.3221 -12.3046 -12.3046
    -9.8433  -9.8433  -9.7842  -9.7842  -8.3051  -8.3051  -8.2783  -8.2783
    -7.1395  -7.1395  -7.1292  -7.1292  -6.8455  -6.8455  -6.8015  -6.8015
    -6.6816  -6.6816  -6.5531  -6.5531  -6.1551  -6.1551  -6.0900  -6.0900
    -5.5711  -5.5711  -5.5036  -5.5036  -5.0286  -5.0286  -4.9579  -4.9579
    -4.9307  -4.9307  -4.8709  -4.8708  -4.5417  -4.5417  -4.4422  -4.4421
    -4.1764  -4.1764  -4.1475  -4.1475  -4.0180  -4.0180  -3.9957  -3.9957
    -3.7776  -3.7776  -3.6971  -3.6971  -3.5124  -3.5124  -3.4840  -3.4840
    -3.3368  -3.3368  -3.2903  -3.2902  -3.0187  -3.0187  -3.0048  -3.0048
    -2.8593  -2.8593  -2.8389  -2.8389  -1.1377  -1.1377  -1.1059  -1.1059
    -0.8826  -0.8826  -0.6988  -0.6988  -0.6206  -0.6206  -0.6010  -0.6010
    -0.1845  -0.1845  -0.1416  -0.1415   0.0381   0.0382   0.1509   0.1509
     0.2151   0.2151   0.2374   0.2374   5.1576   5.1576   5.3194   5.3194
     5.5130   5.5130   5.6019   5.6019   6.1916   6.1916   6.2309   6.2309
     6.8452   6.8452   7.0492   7.0492   7.4792   7.4792   7.6393   7.6393
     7.9344   7.9344   8.2106   8.2106

     highest occupied, lowest unoccupied level (ev):     0.3047    5.0100

!    total energy              =   -1292.65589132 Ry
     Harris-Foulkes estimate   =   -1292.65589133 Ry
     estimated scf accuracy    <          2.8E-09 Ry

     total all-electron energy =     -4719.014376 Ry

     The total energy is the sum of the following terms:

     one-electron contribution =    -697.83545503 Ry
     hartree contribution      =     447.12845652 Ry
     xc contribution           =    -267.17923988 Ry
     ewald contribution        =    -444.48639921 Ry
     Dispersion Correction     =      -0.35992533 Ry
     one-center paw contrib.   =    -329.92332840 Ry

     convergence has been achieved in  15 iterations

     Forces acting on atoms (cartesian axes, Ry/au):

     atom    1 type  2   force =    -0.00112189    0.00015183    0.00151002
     atom    2 type  2   force =     0.00112189   -0.00015183    0.00151002
     atom    3 type  2   force =    -0.00112166   -0.00015168   -0.00150914
     atom    4 type  2   force =     0.00112166    0.00015168   -0.00150914
     atom    5 type  4   force =    -0.00061290    0.00217130   -0.00024904
     atom    6 type  4   force =     0.00061290   -0.00217130   -0.00024904
     atom    7 type  4   force =    -0.00060931   -0.00217782    0.00024747
     atom    8 type  4   force =     0.00060931    0.00217782    0.00024747
     atom    9 type  4   force =     0.00689316    0.00045225    0.00117453
     atom   10 type  4   force =    -0.00689316   -0.00045225    0.00117453
     atom   11 type  4   force =     0.00689228   -0.00045542   -0.00118068
     atom   12 type  4   force =    -0.00689228    0.00045542   -0.00118068
     atom   13 type  1   force =    -0.00317524    0.00239395   -0.00099828
     atom   14 type  1   force =     0.00317524   -0.00239395   -0.00099828
     atom   15 type  1   force =    -0.00317545   -0.00238719    0.00099877
     atom   16 type  1   force =     0.00317545    0.00238719    0.00099877
     atom   17 type  3   force =     0.00043088   -0.00183180   -0.00018569
     atom   18 type  3   force =    -0.00043088    0.00183180   -0.00018569
     atom   19 type  3   force =     0.00043079    0.00183206    0.00018614
     atom   20 type  3   force =    -0.00043079   -0.00183206    0.00018614
     atom   21 type  3   force =    -0.00136967   -0.00050676    0.00144093
     atom   22 type  3   force =     0.00136967    0.00050676    0.00144093
     atom   23 type  3   force =    -0.00136952    0.00050685   -0.00144058
     atom   24 type  3   force =     0.00136952   -0.00050685   -0.00144058
     atom   25 type  1   force =     0.00094034    0.00065279   -0.00104565
     atom   26 type  1   force =    -0.00094034   -0.00065279   -0.00104565
     atom   27 type  1   force =     0.00093985   -0.00065471    0.00104582
     atom   28 type  1   force =    -0.00093985    0.00065471    0.00104582
     atom   29 type  3   force =    -0.00005870   -0.00131309   -0.00058443
     atom   30 type  3   force =     0.00005870    0.00131309   -0.00058443
     atom   31 type  3   force =    -0.00005855    0.00131294    0.00058486
     atom   32 type  3   force =     0.00005855   -0.00131294    0.00058486
     atom   33 type  3   force =    -0.00011342    0.00051884    0.00127818
     atom   34 type  3   force =     0.00011342   -0.00051884    0.00127818
     atom   35 type  3   force =    -0.00011333   -0.00051897   -0.00127746
     atom   36 type  3   force =     0.00011333    0.00051897   -0.00127746
     atom   37 type  3   force =    -0.00029065   -0.00007400    0.00054993
     atom   38 type  3   force =     0.00029065    0.00007400    0.00054993
     atom   39 type  3   force =    -0.00029083    0.00007409   -0.00054964
     atom   40 type  3   force =     0.00029083   -0.00007409   -0.00054964
     atom   41 type  1   force =     0.00106166   -0.00036988   -0.00125195
     atom   42 type  1   force =    -0.00106166    0.00036988   -0.00125195
     atom   43 type  1   force =     0.00106180    0.00037864    0.00125240
     atom   44 type  1   force =    -0.00106180   -0.00037864    0.00125240
     atom   45 type  3   force =    -0.00134550    0.00149496    0.00224125
     atom   46 type  3   force =     0.00134550   -0.00149496    0.00224125
     atom   47 type  3   force =    -0.00134537   -0.00149497   -0.00224058
     atom   48 type  3   force =     0.00134537    0.00149497   -0.00224058
     atom   49 type  3   force =     0.00010333   -0.00061234   -0.00156981
     atom   50 type  3   force =    -0.00010333    0.00061234   -0.00156981
     atom   51 type  3   force =     0.00010324    0.00061221    0.00157045
     atom   52 type  3   force =    -0.00010324   -0.00061221    0.00157045
     atom   53 type  3   force =    -0.00033652   -0.00008020    0.00015289
     atom   54 type  3   force =     0.00033652    0.00008020    0.00015289
     atom   55 type  3   force =    -0.00033651    0.00008002   -0.00015236
     atom   56 type  3   force =     0.00033651   -0.00008002   -0.00015236
     atom   57 type  1   force =    -0.00313069   -0.00177343   -0.00212823
     atom   58 type  1   force =     0.00313069    0.00177343   -0.00212823
     atom   59 type  1   force =    -0.00313043    0.00178780    0.00212996
     atom   60 type  1   force =     0.00313043   -0.00178780    0.00212996
     atom   61 type  4   force =     0.00131079   -0.00114211   -0.00057635
     atom   62 type  4   force =    -0.00131079    0.00114211   -0.00057635
     atom   63 type  4   force =     0.00131078    0.00113958    0.00057724
     atom   64 type  4   force =    -0.00131078   -0.00113958    0.00057724
     atom   65 type  3   force =    -0.00021568   -0.00006962   -0.00074604
     atom   66 type  3   force =     0.00021568    0.00006962   -0.00074604
     atom   67 type  3   force =    -0.00021562    0.00006959    0.00074669
     atom   68 type  3   force =     0.00021562   -0.00006959    0.00074669
     atom   69 type  4   force =    -0.00040191    0.00014963   -0.00019792
     atom   70 type  4   force =     0.00040191   -0.00014963   -0.00019792
     atom   71 type  4   force =    -0.00040289   -0.00014993    0.00019745
     atom   72 type  4   force =     0.00040289    0.00014993    0.00019745
     atom   73 type  3   force =    -0.00088932   -0.00033873   -0.00031210
     atom   74 type  3   force =     0.00088932    0.00033873   -0.00031210
     atom   75 type  3   force =    -0.00089037    0.00033865    0.00031187
     atom   76 type  3   force =     0.00089037   -0.00033865    0.00031187
     atom   77 type  4   force =     0.00029601   -0.00077474    0.00034500
     atom   78 type  4   force =    -0.00029601    0.00077474    0.00034500
     atom   79 type  4   force =     0.00029695    0.00077255   -0.00034550
     atom   80 type  4   force =    -0.00029695   -0.00077255   -0.00034550
     atom   81 type  3   force =    -0.00040827    0.00058291   -0.00102730
     atom   82 type  3   force =     0.00040827   -0.00058291   -0.00102730
     atom   83 type  3   force =    -0.00040739   -0.00058289    0.00102684
     atom   84 type  3   force =     0.00040739    0.00058289    0.00102684

     Total force =     0.022728     Total SCF correction =     0.000106


     Computing stress (Cartesian axis) and pressure

          total   stress  (Ry/bohr**3)                   (kbar)     P=   -6.54
  -0.00004538  -0.00000000   0.00000000         -6.68     -0.00      0.00
  -0.00000000  -0.00003815   0.00000000         -0.00     -5.61      0.00
   0.00000000   0.00000000  -0.00004976          0.00      0.00     -7.32


     Writing output data file scf.save
 
     init_run     :     23.00s CPU     24.11s WALL (       1 calls)
     electrons    :    796.91s CPU    830.52s WALL (       1 calls)
     forces       :     11.47s CPU     11.59s WALL (       1 calls)
     stress       :     43.89s CPU     44.03s WALL (       1 calls)

     Called by init_run:
     wfcinit      :     18.62s CPU     19.57s WALL (       1 calls)
     potinit      :      1.60s CPU      1.66s WALL (       1 calls)

     Called by electrons:
     c_bands      :    713.63s CPU    741.69s WALL (      15 calls)
     sum_band     :     73.37s CPU     78.01s WALL (      15 calls)
     v_of_rho     :      1.33s CPU      1.50s WALL (      16 calls)
     newd         :      2.71s CPU      3.35s WALL (      16 calls)
     PAW_pot      :      5.38s CPU      5.38s WALL (      16 calls)
     mix_rho      :      0.29s CPU      0.32s WALL (      15 calls)

     Called by c_bands:
     init_us_2    :      4.57s CPU      4.60s WALL (     264 calls)
     cegterg      :    697.85s CPU    725.86s WALL (     120 calls)

     Called by sum_band:
     sum_band:bec :      0.05s CPU      0.05s WALL (     120 calls)
     addusdens    :      2.66s CPU      3.30s WALL (      15 calls)

     Called by *egterg:
     h_psi        :    391.16s CPU    412.39s WALL (     567 calls)
     s_psi        :     76.26s CPU     76.31s WALL (     567 calls)
     g_psi        :      2.17s CPU      2.17s WALL (     439 calls)
     cdiaghg      :     43.05s CPU     43.12s WALL (     559 calls)

     Called by h_psi:
     h_psi:pot    :    388.22s CPU    409.40s WALL (     567 calls)
     h_psi:calbec :     75.65s CPU     75.89s WALL (     567 calls)
     vloc_psi     :    236.35s CPU    257.22s WALL (     567 calls)
     add_vuspsi   :     76.23s CPU     76.29s WALL (     567 calls)

     General routines
     calbec       :    110.96s CPU    111.30s WALL (     727 calls)
     fft          :      1.03s CPU      1.32s WALL (     232 calls)
     fftw         :    255.15s CPU    278.19s WALL (  121546 calls)
 
     Parallel routines
     fft_scatter  :     59.12s CPU     75.23s WALL (  121778 calls)
 
     PWSCF        : 14m42.31s CPU    15m52.93s WALL

 
   This run was terminated on:   5:14:47   4Nov2017            

=------------------------------------------------------------------------------=
   JOB DONE.
=------------------------------------------------------------------------------=
