
     Program PWSCF v.6.1 (svn rev. 13369) starts on  7Dec2017 at  3:34: 0 

     This program is part of the open-source Quantum ESPRESSO suite
     for quantum simulation of materials; please cite
         "P. Giannozzi et al., J. Phys.:Condens. Matter 21 395502 (2009);
          URL http://www.quantum-espresso.org", 
     in publications or presentations arising from this work. More details at
     http://www.quantum-espresso.org/quote

     Parallel version (MPI), running on     8 processors
     R & G space division:  proc/nbgrp/npool/nimage =       8
     Waiting for input...
     Reading input from standard input

     Current dimensions of program PWSCF are:
     Max number of different atomic species (ntypx) = 10
     Max number of k-points (npk) =  40000
     Max angular momentum in pseudopotentials (lmaxx) =  3
               file C.pbe-n-kjpaw_psl.0.1.UPF: wavefunction(s)  2P renormalized
               file N.pbe-n-kjpaw_psl.0.1.UPF: wavefunction(s)  2P renormalized
               file H.pbe-kjpaw_psl.0.1.UPF: wavefunction(s)  1S renormalized
               file O.pbe-n-kjpaw_psl.0.1.UPF: wavefunction(s)  2P renormalized

     -------------------------------------
     Parameters for Dispersion Correction:
     -------------------------------------
       atom      VdW radius       C_6     

        C          2.744         60.710
        N          2.640         42.670
        H          1.892          4.857
        O          2.536         24.284

     Subspace diagonalization in iterative solution of the eigenvalue problem:
     a serial algorithm will be used

 
     Parallelization info
     --------------------
     sticks:   dense  smooth     PW     G-vecs:    dense   smooth      PW
     Min         727     727    192                64163    64163    8680
     Max         728     728    193                64168    64168    8683
     Sum        5819    5819   1539               513327   513327   69449
 


     bravais-lattice index     =            0
     lattice parameter (alat)  =      13.4133  a.u.
     unit-cell volume          =    3799.9055 (a.u.)^3
     number of atoms/cell      =           60
     number of atomic types    =            4
     number of electrons       =       168.00
     number of Kohn-Sham states=          100
     kinetic-energy cutoff     =     100.0000  Ry
     charge density cutoff     =     400.0000  Ry
     convergence threshold     =      1.0E-08
     mixing beta               =       0.5000
     number of iterations used =            8  plain     mixing
     Exchange-correlation      =  SLA  PW   PBX  PBC ( 1  4  3  4 0 0)

     celldm(1)=  13.413276  celldm(2)=   0.000000  celldm(3)=   0.000000
     celldm(4)=   0.000000  celldm(5)=   0.000000  celldm(6)=   0.000000

     crystal axes: (cart. coord. in units of alat)
               a(1) = (   1.000000   0.000000   0.000000 )  
               a(2) = (   0.000000   1.017892   0.000000 )  
               a(3) = (   0.000000   0.000000   1.546915 )  

     reciprocal axes: (cart. coord. in units 2 pi/alat)
               b(1) = (  1.000000  0.000000  0.000000 )  
               b(2) = (  0.000000  0.982422  0.000000 )  
               b(3) = (  0.000000  0.000000  0.646448 )  


     PseudoPot. # 1 for  C read from file:
     /scratch/ahofstet/pseudo/C.pbe-n-kjpaw_psl.0.1.UPF
     MD5 check sum: 430fe95172b1e11ef3f8ed03bac87931
     Pseudo is Projector augmented-wave + core cor, Zval =  4.0
     Generated using "atomic" code by A. Dal Corso  v.5.0.99 svn rev. 10869
     Shape of augmentation charge: BESSEL
     Using radial grid of 1073 points,  4 beta functions with: 
                l(1) =   0
                l(2) =   0
                l(3) =   1
                l(4) =   1
     Q(r) pseudized with 0 coefficients 


     PseudoPot. # 2 for  N read from file:
     /scratch/ahofstet/pseudo/N.pbe-n-kjpaw_psl.0.1.UPF
     MD5 check sum: f73187c8b701007e77325f868c9291d7
     Pseudo is Projector augmented-wave + core cor, Zval =  5.0
     Generated using "atomic" code by A. Dal Corso  v.5.0.99 svn rev. 10869
     Shape of augmentation charge: PSQ
     Using radial grid of 1085 points,  4 beta functions with: 
                l(1) =   0
                l(2) =   0
                l(3) =   1
                l(4) =   1
     Q(r) pseudized with 0 coefficients 


     PseudoPot. # 3 for  H read from file:
     /scratch/ahofstet/pseudo/H.pbe-kjpaw_psl.0.1.UPF
     MD5 check sum: 94e484f906d9e9773b2f6e52662335b2
     Pseudo is Projector augmented-wave, Zval =  1.0
     Generated using "atomic" code by A. Dal Corso  v.5.0.99 svn rev. 10869
     Shape of augmentation charge: PSQ
     Using radial grid of  929 points,  2 beta functions with: 
                l(1) =   0
                l(2) =   0
     Q(r) pseudized with 0 coefficients 


     PseudoPot. # 4 for  O read from file:
     /scratch/ahofstet/pseudo/O.pbe-n-kjpaw_psl.0.1.UPF
     MD5 check sum: 3f94a2996a3169367d6eb21d9b593f20
     Pseudo is Projector augmented-wave + core cor, Zval =  6.0
     Generated using "atomic" code by A. Dal Corso  v.5.0.99 svn rev. 10869
     Shape of augmentation charge: BESSEL
     Using radial grid of 1095 points,  4 beta functions with: 
                l(1) =   0
                l(2) =   0
                l(3) =   1
                l(4) =   1
     Q(r) pseudized with 0 coefficients 


     atomic species   valence    mass     pseudopotential
        C              4.00    12.01070      C( 1.00)
        N              5.00    14.00670      N( 1.00)
        H              1.00     1.00794      H( 1.00)
        O              6.00    15.99940      O( 1.00)

      2 Sym. Ops. (no inversion) found ( 1 have fractional translation)
          (note:  2 additional sym.ops. were found but ignored
           their fractional translations are incommensurate with FFT grid)


   Cartesian axes

     site n.     atom                  positions (alat units)
         1           N   tau(   1) = (   0.2328633   0.4895281   0.0974603  )
         2           N   tau(   2) = (   0.7328633   0.0194180   1.4494544  )
         3           N   tau(   3) = (   0.7671367   0.9984743   0.6759970  )
         4           N   tau(   4) = (   0.2671367   0.5283642   0.8709176  )
         5           N   tau(   5) = (   0.1428033   0.3436219   0.3658149  )
         6           N   tau(   6) = (   0.6428033   0.1653243   1.1810998  )
         7           N   tau(   7) = (   0.8571967   0.8525681   0.4076425  )
         8           N   tau(   8) = (   0.3571967   0.6742705   1.1392722  )
         9           N   tau(   9) = (   0.3764747   0.5472922  -0.0149874  )
        10           N   tau(  10) = (   0.8764747   0.9795463   1.5619020  )
        11           N   tau(  11) = (   0.6235253   0.0383461   0.7884447  )
        12           N   tau(  12) = (   0.1235253   0.4706001   0.7584699  )
        13           C   tau(  13) = (   0.4886405   0.4116049   0.2584521  )
        14           C   tau(  14) = (   0.9886405   0.0973413   1.2884625  )
        15           C   tau(  15) = (   0.5113595   0.9205511   0.5150052  )
        16           C   tau(  16) = (   0.0113595   0.6062874   1.0319095  )
        17           C   tau(  17) = (   0.5312865   0.5006661   0.0845816  )
        18           C   tau(  18) = (   1.0312865   1.0261724   1.4623331  )
        19           C   tau(  19) = (   0.4687135  -0.0082801   0.6888757  )
        20           C   tau(  20) = (  -0.0312865   0.5172263   0.8580389  )
        21           C   tau(  21) = (   0.0282254   0.4939751   0.0769587  )
        22           C   tau(  22) = (   0.5282254   0.0149711   1.4699559  )
        23           C   tau(  23) = (   0.9717746   1.0029213   0.6964986  )
        24           C   tau(  24) = (   0.4717746   0.5239173   0.8504160  )
        25           C   tau(  25) = (   0.9667859   0.4018947   0.2680022  )
        26           C   tau(  26) = (   0.4667859   0.1070515   1.2789124  )
        27           C   tau(  27) = (   0.0332141   0.9108408   0.5054551  )
        28           C   tau(  28) = (   0.5332141   0.6159977   1.0414595  )
        29           C   tau(  29) = (   0.2915541   0.4071506   0.2599421  )
        30           C   tau(  30) = (   0.7915541   0.1017956   1.2869725  )
        31           C   tau(  31) = (   0.7084459   0.9160968   0.5135152  )
        32           C   tau(  32) = (   0.2084459   0.6107417   1.0333994  )
        33           H   tau(  33) = (   0.5842236   0.3579927   0.3644353  )
        34           H   tau(  34) = (   0.0842236   0.1509535   1.1824793  )
        35           H   tau(  35) = (   0.4157764   0.8669389   0.4090220  )
        36           H   tau(  36) = (   0.9157764   0.6598997   1.1378927  )
        37           H   tau(  37) = (   0.6694010   0.5326515   0.0260337  )
        38           H   tau(  38) = (   0.1694010   0.9941870   1.5208810  )
        39           H   tau(  39) = (   0.3305990   0.0237054   0.7474236  )
        40           H   tau(  40) = (   0.8305990   0.4852408   0.7994910  )
        41           H   tau(  41) = (  -0.0159563   0.4086954   1.5020685  )
        42           H   tau(  42) = (   0.4840437   0.1002507   0.0448461  )
        43           H   tau(  43) = (   1.0159563   0.9176416   0.8183034  )
        44           H   tau(  44) = (   0.5159563   0.6091969   0.7286112  )
        45           H   tau(  45) = (   0.9768558   0.6392731   0.0609852  )
        46           H   tau(  46) = (   0.4768558  -0.1303270  -0.0609852  )
        47           H   tau(  47) = (   0.0231442   0.1303270   0.7124721  )
        48           H   tau(  48) = (   0.5231442   0.3786192   0.8344425  )
        49           H   tau(  49) = (   0.8773188   0.2783852   0.2411907  )
        50           H   tau(  50) = (   0.3773188   0.2305610   1.3057239  )
        51           H   tau(  51) = (   0.1226812   0.7873314   0.5322666  )
        52           H   tau(  52) = (   0.6226812   0.7395072   1.0146480  )
        53           H   tau(  53) = (   0.8887461   0.5043617   0.3543580  )
        54           H   tau(  54) = (   0.3887461   0.0045845   1.1925566  )
        55           H   tau(  55) = (   0.1112539   1.0133079   0.4190993  )
        56           H   tau(  56) = (   0.6112539   0.5135306   1.1278153  )
        57           H   tau(  57) = (   0.1462228   0.3783829   0.5077269  )
        58           H   tau(  58) = (   0.6462228   0.1305633   1.0391877  )
        59           H   tau(  59) = (   0.8537772   0.8873290   0.2657304  )
        60           H   tau(  60) = (   0.3537772   0.6395095   1.2811842  )

     number of k points=     8
                       cart. coord. in units 2pi/alat
        k(    1) = (   0.0000000   0.0000000   0.0000000), wk =   0.1111111
        k(    2) = (   0.0000000   0.0000000  -0.3232240), wk =   0.1111111
        k(    3) = (   0.0000000   0.3274740   0.0000000), wk =   0.2222222
        k(    4) = (   0.0000000   0.3274740  -0.3232240), wk =   0.2222222
        k(    5) = (   0.3333333   0.0000000   0.0000000), wk =   0.2222222
        k(    6) = (   0.3333333   0.0000000  -0.3232240), wk =   0.2222222
        k(    7) = (   0.3333333   0.3274740   0.0000000), wk =   0.4444444
        k(    8) = (   0.3333333   0.3274740  -0.3232240), wk =   0.4444444

     Dense  grid:   513327 G-vectors     FFT dimensions: (  90,  90, 135)

     Estimated max dynamical RAM per process >     289.70MB

     Estimated total allocated dynamical RAM >    2317.62MB

     Check: negative/imaginary core charge=   -0.000002    0.000000

     Initial potential from superposition of free atoms

     starting charge  167.99881, renormalised to  168.00000
     Starting wfc are  156 randomized atomic wfcs
     Checking if some PAW data can be deallocated... 

     total cpu time spent up to now is       14.9 secs

     per-process dynamical memory:   252.8 Mb

     Self-consistent Calculation

     iteration #  1     ecut=   100.00 Ry     beta=0.50
     Davidson diagonalization with overlap
     ethr =  1.00E-02,  avg # of iterations =  4.0

     total cpu time spent up to now is       51.1 secs

     total energy              =    -739.67185387 Ry
     Harris-Foulkes estimate   =    -742.45246274 Ry
     estimated scf accuracy    <       5.53159536 Ry

     iteration #  2     ecut=   100.00 Ry     beta=0.50
     Davidson diagonalization with overlap
     ethr =  3.29E-03,  avg # of iterations =  3.0

     total cpu time spent up to now is       70.0 secs

     total energy              =    -739.81474810 Ry
     Harris-Foulkes estimate   =    -740.13778931 Ry
     estimated scf accuracy    <       0.68199901 Ry

     iteration #  3     ecut=   100.00 Ry     beta=0.50
     Davidson diagonalization with overlap
     ethr =  4.06E-04,  avg # of iterations =  5.0

     total cpu time spent up to now is      110.5 secs

     total energy              =    -740.42629882 Ry
     Harris-Foulkes estimate   =    -740.69306651 Ry
     estimated scf accuracy    <       0.74364007 Ry

     iteration #  4     ecut=   100.00 Ry     beta=0.50
     Davidson diagonalization with overlap
     ethr =  4.06E-04,  avg # of iterations =  1.8

     total cpu time spent up to now is      128.1 secs

     total energy              =    -740.24694725 Ry
     Harris-Foulkes estimate   =    -740.45038470 Ry
     estimated scf accuracy    <       0.28403422 Ry

     iteration #  5     ecut=   100.00 Ry     beta=0.50
     Davidson diagonalization with overlap
     ethr =  1.69E-04,  avg # of iterations =  4.2

     total cpu time spent up to now is      166.0 secs

     total energy              =    -740.46046595 Ry
     Harris-Foulkes estimate   =    -740.60614549 Ry
     estimated scf accuracy    <       0.48459880 Ry

     iteration #  6     ecut=   100.00 Ry     beta=0.50
     Davidson diagonalization with overlap
     ethr =  1.69E-04,  avg # of iterations =  1.0

     total cpu time spent up to now is      183.2 secs

     total energy              =    -740.37914476 Ry
     Harris-Foulkes estimate   =    -740.47169193 Ry
     estimated scf accuracy    <       0.22369097 Ry

     iteration #  7     ecut=   100.00 Ry     beta=0.50
     Davidson diagonalization with overlap
     ethr =  1.33E-04,  avg # of iterations =  3.5

     total cpu time spent up to now is      209.3 secs

     total energy              =    -740.44318811 Ry
     Harris-Foulkes estimate   =    -740.44402147 Ry
     estimated scf accuracy    <       0.00191351 Ry

     iteration #  8     ecut=   100.00 Ry     beta=0.50
     Davidson diagonalization with overlap
     c_bands:  2 eigenvalues not converged
     c_bands:  2 eigenvalues not converged
     c_bands:  2 eigenvalues not converged
     ethr =  1.14E-06,  avg # of iterations = 14.1

     total cpu time spent up to now is      258.9 secs

     total energy              =    -740.44469839 Ry
     Harris-Foulkes estimate   =    -740.44626475 Ry
     estimated scf accuracy    <       0.00282796 Ry

     iteration #  9     ecut=   100.00 Ry     beta=0.50
     Davidson diagonalization with overlap
     ethr =  1.14E-06,  avg # of iterations =  8.0

     total cpu time spent up to now is      289.1 secs

     total energy              =    -740.44537489 Ry
     Harris-Foulkes estimate   =    -740.44542678 Ry
     estimated scf accuracy    <       0.00013643 Ry

     iteration # 10     ecut=   100.00 Ry     beta=0.50
     Davidson diagonalization with overlap
     ethr =  8.12E-08,  avg # of iterations =  4.5

     total cpu time spent up to now is      315.1 secs

     total energy              =    -740.44541812 Ry
     Harris-Foulkes estimate   =    -740.44543692 Ry
     estimated scf accuracy    <       0.00003768 Ry

     iteration # 11     ecut=   100.00 Ry     beta=0.50
     Davidson diagonalization with overlap
     ethr =  2.24E-08,  avg # of iterations =  4.2

     total cpu time spent up to now is      342.3 secs

     total energy              =    -740.44543568 Ry
     Harris-Foulkes estimate   =    -740.44543660 Ry
     estimated scf accuracy    <       0.00000227 Ry

     iteration # 12     ecut=   100.00 Ry     beta=0.50
     Davidson diagonalization with overlap
     ethr =  1.35E-09,  avg # of iterations =  3.9

     total cpu time spent up to now is      369.5 secs

     total energy              =    -740.44543628 Ry
     Harris-Foulkes estimate   =    -740.44543683 Ry
     estimated scf accuracy    <       0.00000093 Ry

     iteration # 13     ecut=   100.00 Ry     beta=0.50
     Davidson diagonalization with overlap
     ethr =  5.55E-10,  avg # of iterations =  3.9

     total cpu time spent up to now is      395.8 secs

     total energy              =    -740.44543672 Ry
     Harris-Foulkes estimate   =    -740.44543677 Ry
     estimated scf accuracy    <       0.00000015 Ry

     iteration # 14     ecut=   100.00 Ry     beta=0.50
     Davidson diagonalization with overlap
     ethr =  8.65E-11,  avg # of iterations =  2.8

     total cpu time spent up to now is      420.2 secs

     total energy              =    -740.44543671 Ry
     Harris-Foulkes estimate   =    -740.44543677 Ry
     estimated scf accuracy    <       0.00000010 Ry

     iteration # 15     ecut=   100.00 Ry     beta=0.50
     Davidson diagonalization with overlap
     ethr =  6.06E-11,  avg # of iterations =  4.0

     total cpu time spent up to now is      447.6 secs

     total energy              =    -740.44543675 Ry
     Harris-Foulkes estimate   =    -740.44543676 Ry
     estimated scf accuracy    <       0.00000002 Ry

     iteration # 16     ecut=   100.00 Ry     beta=0.50
     Davidson diagonalization with overlap
     ethr =  1.36E-11,  avg # of iterations =  3.5

     total cpu time spent up to now is      471.9 secs

     End of self-consistent calculation

          k = 0.0000 0.0000 0.0000 ( 64187 PWs)   bands (ev):

   -20.1885 -20.1627 -20.1599 -20.1443 -17.2038 -17.1413 -17.0717 -17.0528
   -14.4309 -14.3695 -14.3469 -14.3033 -12.8918 -12.8156 -12.7350 -12.7140
   -11.7981 -11.7855 -11.7592 -11.6817  -9.3768  -9.3113  -9.3094  -9.2787
    -8.8566  -8.8545  -8.8227  -8.7894  -7.5043  -7.4330  -7.3355  -7.2782
    -6.7800  -6.7066  -6.4282  -6.2554  -6.2365  -5.8410  -5.8234  -5.6746
    -5.2045  -5.0525  -5.0456  -5.0222  -4.9803  -4.9516  -4.7214  -4.6714
    -4.3005  -4.2010  -4.0759  -3.7875  -3.7513  -3.7292  -3.6927  -3.6558
    -3.6484  -3.6214  -3.5761  -3.5344  -3.2106  -3.0860  -2.9039  -2.8813
    -2.7546  -2.6451  -2.6395  -2.5381  -1.4868  -1.2501  -1.1185  -1.0442
    -0.9866  -0.8225  -0.6868  -0.5854   0.0253   0.2234   0.2849   0.4371
     1.2939   1.4813   1.5032   1.6591   5.6848   5.8067   5.8919   5.9911
     6.0613   6.4880   6.6815   6.7032   6.8783   6.9375   6.9635   7.0759
     7.7075   7.8740   8.1332   8.1513

          k = 0.0000 0.0000-0.3232 ( 64182 PWs)   bands (ev):

   -20.1746 -20.1746 -20.1533 -20.1532 -17.1420 -17.1420 -17.0946 -17.0946
   -14.3985 -14.3985 -14.3228 -14.3228 -12.8228 -12.8228 -12.7593 -12.7593
   -11.7954 -11.7953 -11.7188 -11.7187  -9.3405  -9.3405  -9.2886  -9.2886
    -8.8650  -8.8650  -8.8099  -8.8099  -7.4069  -7.4069  -7.3443  -7.3443
    -6.6216  -6.6216  -6.5003  -6.5003  -6.1016  -6.1016  -5.7477  -5.7477
    -5.0692  -5.0692  -5.0342  -5.0342  -4.8574  -4.8574  -4.7892  -4.7892
    -4.2801  -4.2801  -3.9176  -3.9176  -3.7104  -3.7104  -3.6948  -3.6948
    -3.5913  -3.5913  -3.5747  -3.5747  -3.1860  -3.1860  -2.8926  -2.8926
    -2.7038  -2.7038  -2.5477  -2.5477  -1.3752  -1.3752  -1.0222  -1.0222
    -0.8478  -0.8478  -0.7712  -0.7712   0.0971   0.0972   0.3883   0.3883
     1.4003   1.4003   1.5733   1.5733   5.7400   5.7400   5.9357   5.9357
     6.2448   6.2448   6.7266   6.7266   6.9821   6.9821   7.0300   7.0300
     7.7429   7.7429   8.0682   8.0683

          k = 0.0000 0.3275 0.0000 ( 64154 PWs)   bands (ev):

   -20.1823 -20.1699 -20.1552 -20.1478 -17.1886 -17.1574 -17.0666 -17.0570
   -14.4105 -14.3700 -14.3519 -14.3202 -12.8734 -12.8356 -12.7298 -12.7190
   -11.7973 -11.7906 -11.7395 -11.7003  -9.3766  -9.3542  -9.2789  -9.2736
    -8.8740  -8.8522  -8.8130  -8.7849  -7.4922  -7.4579  -7.3203  -7.2918
    -6.7587  -6.7179  -6.3554  -6.2614  -6.1566  -5.9085  -5.8073  -5.7619
    -5.1514  -5.0652  -5.0432  -5.0364  -4.9813  -4.9564  -4.7005  -4.6673
    -4.2485  -4.1606  -3.9298  -3.8599  -3.7951  -3.7333  -3.6915  -3.6677
    -3.6408  -3.6034  -3.5972  -3.5756  -3.1416  -3.1086  -3.0290  -2.9496
    -2.7165  -2.6688  -2.6219  -2.5995  -1.4040  -1.2219  -1.1144  -1.0363
    -1.0158  -0.8930  -0.6845  -0.6355   0.0658   0.1573   0.3531   0.4363
     1.2556   1.3359   1.6067   1.7198   5.7139   5.7894   5.9106   5.9403
     6.3279   6.6533   6.6558   6.8748   6.9341   6.9707   7.0276   7.1372
     7.4819   7.7204   7.7583   8.0089

          k = 0.0000 0.3275-0.3232 ( 64182 PWs)   bands (ev):

   -20.1702 -20.1701 -20.1577 -20.1576 -17.1318 -17.1318 -17.1048 -17.1048
   -14.3811 -14.3811 -14.3410 -14.3410 -12.8101 -12.8101 -12.7728 -12.7728
   -11.7913 -11.7913 -11.7244 -11.7244  -9.3538  -9.3538  -9.2785  -9.2785
    -8.8718  -8.8718  -8.8038  -8.8038  -7.3983  -7.3983  -7.3587  -7.3587
    -6.6002  -6.6002  -6.4925  -6.4925  -6.0434  -6.0434  -5.8147  -5.8147
    -5.0663  -5.0663  -5.0458  -5.0458  -4.8579  -4.8579  -4.7713  -4.7713
    -4.2099  -4.2099  -3.8839  -3.8839  -3.7387  -3.7387  -3.6730  -3.6730
    -3.6412  -3.6412  -3.5958  -3.5958  -3.1458  -3.1458  -2.9714  -2.9713
    -2.7001  -2.7001  -2.5904  -2.5904  -1.2920  -1.2920  -1.0549  -1.0549
    -0.8615  -0.8614  -0.8200  -0.8200   0.1039   0.1039   0.4048   0.4048
     1.3241   1.3241   1.6403   1.6403   5.7466   5.7466   5.9246   5.9246
     6.4799   6.4799   6.7575   6.7575   7.0111   7.0111   7.0725   7.0725
     7.5856   7.5856   8.0121   8.0121

          k = 0.3333 0.0000 0.0000 ( 64165 PWs)   bands (ev):

   -20.1806 -20.1677 -20.1545 -20.1466 -17.1959 -17.1659 -17.0675 -17.0594
   -14.4397 -14.4014 -14.3759 -14.3423 -12.9046 -12.8698 -12.7561 -12.7471
   -11.5976 -11.5716 -11.5568 -11.5087  -9.4551  -9.4113  -9.3541  -9.3355
    -8.8852  -8.8464  -8.8224  -8.8199  -7.7578  -7.7266  -7.6182  -7.5918
    -6.7968  -6.7690  -6.3900  -6.2848  -6.1611  -5.9595  -5.7598  -5.6822
    -5.1262  -5.0958  -4.8316  -4.8253  -4.6896  -4.6854  -4.6446  -4.6386
    -4.2417  -4.1243  -4.1159  -3.9627  -3.9522  -3.8742  -3.8558  -3.7486
    -3.6023  -3.5212  -3.4986  -3.4723  -3.0540  -2.9341  -2.9052  -2.8202
    -2.6344  -2.6061  -2.5558  -2.5061  -1.4428  -1.3361  -1.0521  -1.0117
    -0.9721  -0.8910  -0.6417  -0.5953   0.1450   0.2740   0.3149   0.4126
     1.3332   1.3901   1.6796   1.7266   5.5379   5.5924   5.6136   5.7053
     6.0954   6.4125   6.4710   6.6618   6.8319   6.8822   6.9934   7.0844
     7.5003   7.6120   7.7506   7.7509

          k = 0.3333 0.0000-0.3232 ( 64158 PWs)   bands (ev):

   -20.1679 -20.1679 -20.1570 -20.1570 -17.1463 -17.1463 -17.0998 -17.0998
   -14.4134 -14.4134 -14.3622 -14.3622 -12.8408 -12.8408 -12.8025 -12.8025
   -11.5849 -11.5848 -11.5336 -11.5336  -9.4058  -9.4058  -9.3685  -9.3685
    -8.8710  -8.8710  -8.8232  -8.8232  -7.6914  -7.6914  -7.6434  -7.6434
    -6.6244  -6.6244  -6.5196  -6.5196  -6.0774  -6.0774  -5.7639  -5.7639
    -4.9642  -4.9642  -4.8896  -4.8896  -4.6874  -4.6874  -4.6580  -4.6580
    -4.2049  -4.2048  -3.9979  -3.9979  -3.9143  -3.9143  -3.8080  -3.8080
    -3.5677  -3.5677  -3.4921  -3.4921  -3.0078  -3.0078  -2.8586  -2.8586
    -2.6077  -2.6077  -2.5209  -2.5209  -1.3306  -1.3306  -1.0505  -1.0505
    -0.8803  -0.8803  -0.7298  -0.7298   0.1926   0.1926   0.3819   0.3819
     1.3873   1.3873   1.6810   1.6810   5.5640   5.5640   5.6523   5.6523
     6.3091   6.3091   6.5859   6.5859   6.8019   6.8019   7.0537   7.0537
     7.6068   7.6068   7.7966   7.7966

          k = 0.3333 0.3275 0.0000 ( 64120 PWs)   bands (ev):

   -20.1774 -20.1710 -20.1524 -20.1485 -17.1861 -17.1706 -17.0685 -17.0638
   -14.4261 -14.4068 -14.3718 -14.3551 -12.8955 -12.8780 -12.7556 -12.7510
   -11.5887 -11.5776 -11.5481 -11.5234  -9.4498  -9.4289  -9.3468  -9.3378
    -8.8817  -8.8580  -8.8249  -8.8109  -7.7490  -7.7310  -7.6189  -7.6031
    -6.8091  -6.7885  -6.3545  -6.3011  -6.0439  -5.8995  -5.7939  -5.7292
    -5.1033  -5.0715  -4.8233  -4.8084  -4.6896  -4.6866  -4.6537  -4.6374
    -4.2327  -4.1372  -4.0365  -3.9989  -3.9494  -3.9077  -3.8658  -3.8126
    -3.5932  -3.5440  -3.4950  -3.4747  -3.0350  -2.9956  -2.9288  -2.8781
    -2.6117  -2.5878  -2.5535  -2.5265  -1.3763  -1.2993  -1.0436  -1.0115
    -0.9942  -0.9090  -0.6690  -0.6414   0.1731   0.2626   0.2959   0.3599
     1.3590   1.4254   1.6570   1.7331   5.5564   5.5916   5.6113   5.6695
     6.4077   6.5848   6.6676   6.7804   6.8304   6.9004   6.9836   7.0763
     7.3846   7.4837   7.6053   7.7207

          k = 0.3333 0.3275-0.3232 ( 64200 PWs)   bands (ev):

   -20.1656 -20.1656 -20.1592 -20.1592 -17.1352 -17.1352 -17.1111 -17.1111
   -14.4011 -14.4011 -14.3747 -14.3747 -12.8323 -12.8323 -12.8123 -12.8123
   -11.5777 -11.5777 -11.5423 -11.5423  -9.4109  -9.4109  -9.3669  -9.3669
    -8.8721  -8.8721  -8.8232  -8.8232  -7.6862  -7.6861  -7.6530  -7.6530
    -6.6127  -6.6127  -6.5465  -6.5465  -5.9771  -5.9771  -5.7994  -5.7993
    -4.9380  -4.9380  -4.8831  -4.8831  -4.6883  -4.6883  -4.6673  -4.6673
    -4.1805  -4.1805  -4.0248  -4.0248  -3.9157  -3.9157  -3.8381  -3.8381
    -3.5556  -3.5556  -3.5054  -3.5054  -3.0027  -3.0027  -2.9172  -2.9172
    -2.5910  -2.5910  -2.5366  -2.5365  -1.2452  -1.2452  -1.0845  -1.0845
    -0.8679  -0.8679  -0.7976  -0.7976   0.2067   0.2067   0.3399   0.3399
     1.4495   1.4495   1.6458   1.6459   5.5757   5.5757   5.6401   5.6401
     6.5452   6.5452   6.7253   6.7253   6.8821   6.8821   7.0272   7.0272
     7.4293   7.4293   7.6634   7.6634

     highest occupied, lowest unoccupied level (ev):     1.7331    5.5379

!    total energy              =    -740.44543675 Ry
     Harris-Foulkes estimate   =    -740.44543675 Ry
     estimated scf accuracy    <          4.8E-09 Ry

     total all-electron energy =     -2871.312957 Ry

     The total energy is the sum of the following terms:

     one-electron contribution =    -437.05310044 Ry
     hartree contribution      =     279.52911632 Ry
     xc contribution           =    -168.24592726 Ry
     ewald contribution        =    -182.08862227 Ry
     Dispersion Correction     =      -0.25580394 Ry
     one-center paw contrib.   =    -232.33109915 Ry

     convergence has been achieved in  16 iterations

     Forces acting on atoms (cartesian axes, Ry/au):

     atom    1 type  2   force =    -0.00226483   -0.00400520    0.00786907
     atom    2 type  2   force =    -0.00226483    0.00400520   -0.00786907
     atom    3 type  2   force =     0.00226553   -0.00400660   -0.00787188
     atom    4 type  2   force =     0.00226553    0.00400660    0.00787188
     atom    5 type  2   force =    -0.00306725   -0.00485122    0.00492727
     atom    6 type  2   force =    -0.00306725    0.00485122   -0.00492727
     atom    7 type  2   force =     0.00306654   -0.00485067   -0.00492759
     atom    8 type  2   force =     0.00306654    0.00485067    0.00492759
     atom    9 type  2   force =     0.00062327   -0.00157466    0.00183492
     atom   10 type  2   force =     0.00062327    0.00157466   -0.00183492
     atom   11 type  2   force =    -0.00062408   -0.00157399   -0.00183353
     atom   12 type  2   force =    -0.00062408    0.00157399    0.00183353
     atom   13 type  1   force =    -0.00739592    0.00415750   -0.00641605
     atom   14 type  1   force =    -0.00739592   -0.00415750    0.00641605
     atom   15 type  1   force =     0.00739581    0.00415798    0.00640370
     atom   16 type  1   force =     0.00739581   -0.00415798   -0.00640370
     atom   17 type  1   force =     0.00029626   -0.00123004    0.00344062
     atom   18 type  1   force =     0.00029626    0.00123004   -0.00344062
     atom   19 type  1   force =    -0.00029634   -0.00123049   -0.00342567
     atom   20 type  1   force =    -0.00029634    0.00123049    0.00342567
     atom   21 type  1   force =     0.00641661   -0.00437827    0.00237984
     atom   22 type  1   force =     0.00641661    0.00437827   -0.00237984
     atom   23 type  1   force =    -0.00641615   -0.00437798   -0.00239356
     atom   24 type  1   force =    -0.00641615    0.00437798    0.00239356
     atom   25 type  1   force =    -0.00106430    0.00191515   -0.00360512
     atom   26 type  1   force =    -0.00106430   -0.00191515    0.00360512
     atom   27 type  1   force =     0.00106461    0.00191479    0.00361186
     atom   28 type  1   force =     0.00106461   -0.00191479   -0.00361186
     atom   29 type  1   force =     0.00643292    0.00699582   -0.01022952
     atom   30 type  1   force =     0.00643292   -0.00699582    0.01022952
     atom   31 type  1   force =    -0.00643215    0.00699532    0.01020795
     atom   32 type  1   force =    -0.00643215   -0.00699532   -0.01020795
     atom   33 type  3   force =    -0.00018715    0.00015863   -0.00078971
     atom   34 type  3   force =    -0.00018715   -0.00015863    0.00078971
     atom   35 type  3   force =     0.00018684    0.00015845    0.00078897
     atom   36 type  3   force =     0.00018684   -0.00015845   -0.00078897
     atom   37 type  3   force =    -0.00400489   -0.00020139    0.00154776
     atom   38 type  3   force =    -0.00400489    0.00020139   -0.00154776
     atom   39 type  3   force =     0.00400463   -0.00020139   -0.00154805
     atom   40 type  3   force =     0.00400463    0.00020139    0.00154805
     atom   41 type  3   force =     0.00072499    0.00037673    0.00088015
     atom   42 type  3   force =     0.00072499   -0.00037673   -0.00088015
     atom   43 type  3   force =    -0.00072497    0.00037690   -0.00088030
     atom   44 type  3   force =    -0.00072497   -0.00037690    0.00088030
     atom   45 type  3   force =     0.00052411    0.00072436   -0.00030975
     atom   46 type  3   force =     0.00052411   -0.00072436    0.00030975
     atom   47 type  3   force =    -0.00052398    0.00072467    0.00030988
     atom   48 type  3   force =    -0.00052398   -0.00072467   -0.00030988
     atom   49 type  3   force =     0.00167793    0.00050338    0.00008468
     atom   50 type  3   force =     0.00167793   -0.00050338   -0.00008468
     atom   51 type  3   force =    -0.00167795    0.00050337   -0.00008504
     atom   52 type  3   force =    -0.00167795   -0.00050337    0.00008504
     atom   53 type  3   force =     0.00157394    0.00025757   -0.00109278
     atom   54 type  3   force =     0.00157394   -0.00025757    0.00109278
     atom   55 type  3   force =    -0.00157400    0.00025757    0.00109267
     atom   56 type  3   force =    -0.00157400   -0.00025757   -0.00109267
     atom   57 type  3   force =    -0.00004551    0.00072685   -0.00036809
     atom   58 type  3   force =    -0.00004551   -0.00072685    0.00036809
     atom   59 type  3   force =     0.00004547    0.00072678    0.00036744
     atom   60 type  3   force =     0.00004547   -0.00072678   -0.00036744

     Total force =     0.048191     Total SCF correction =     0.000146


     Computing stress (Cartesian axis) and pressure

          total   stress  (Ry/bohr**3)                   (kbar)     P=   -9.22
  -0.00004488   0.00000000   0.00000000         -6.60      0.00      0.00
   0.00000000  -0.00005736  -0.00000000          0.00     -8.44     -0.00
   0.00000000  -0.00000000  -0.00008574          0.00     -0.00    -12.61


     Writing output data file scf.save
 
     init_run     :     13.98s CPU     14.28s WALL (       1 calls)
     electrons    :    443.47s CPU    457.04s WALL (       1 calls)
     forces       :      6.46s CPU      6.55s WALL (       1 calls)
     stress       :     20.34s CPU     20.50s WALL (       1 calls)

     Called by init_run:
     wfcinit      :     10.46s CPU     10.68s WALL (       1 calls)
     potinit      :      1.29s CPU      1.31s WALL (       1 calls)

     Called by electrons:
     c_bands      :    395.60s CPU    407.26s WALL (      16 calls)
     sum_band     :     40.04s CPU     41.40s WALL (      16 calls)
     v_of_rho     :      1.19s CPU      1.29s WALL (      17 calls)
     newd         :      1.98s CPU      2.42s WALL (      17 calls)
     PAW_pot      :      4.24s CPU      4.24s WALL (      17 calls)
     mix_rho      :      0.28s CPU      0.30s WALL (      16 calls)

     Called by c_bands:
     init_us_2    :      3.17s CPU      3.18s WALL (     280 calls)
     cegterg      :    384.79s CPU    396.39s WALL (     128 calls)

     Called by sum_band:
     sum_band:bec :      0.03s CPU      0.03s WALL (     128 calls)
     addusdens    :      2.11s CPU      2.51s WALL (      16 calls)

     Called by *egterg:
     h_psi        :    228.50s CPU    236.02s WALL (     707 calls)
     s_psi        :     39.76s CPU     39.77s WALL (     707 calls)
     g_psi        :      1.46s CPU      1.46s WALL (     571 calls)
     cdiaghg      :     18.91s CPU     18.90s WALL (     699 calls)

     Called by h_psi:
     h_psi:pot    :    226.68s CPU    234.16s WALL (     707 calls)
     h_psi:calbec :     39.14s CPU     39.24s WALL (     707 calls)
     vloc_psi     :    147.73s CPU    155.11s WALL (     707 calls)
     add_vuspsi   :     39.80s CPU     39.80s WALL (     707 calls)

     General routines
     calbec       :     54.36s CPU     54.50s WALL (     875 calls)
     fft          :      0.78s CPU      0.95s WALL (     245 calls)
     fftw         :    156.01s CPU    163.73s WALL (   94978 calls)
 
     Parallel routines
     fft_scatter  :     34.27s CPU     38.86s WALL (   95223 calls)
 
     PWSCF        :  8m 8.47s CPU     8m23.48s WALL

 
   This run was terminated on:   3:42:24   7Dec2017            

=------------------------------------------------------------------------------=
   JOB DONE.
=------------------------------------------------------------------------------=
