
     Program PWSCF v.6.1 (svn rev. 13369) starts on 21Dec2017 at  6:13:53 

     This program is part of the open-source Quantum ESPRESSO suite
     for quantum simulation of materials; please cite
         "P. Giannozzi et al., J. Phys.:Condens. Matter 21 395502 (2009);
          URL http://www.quantum-espresso.org", 
     in publications or presentations arising from this work. More details at
     http://www.quantum-espresso.org/quote

     Parallel version (MPI), running on     8 processors
     R & G space division:  proc/nbgrp/npool/nimage =       8
     Waiting for input...
     Reading input from standard input

     Current dimensions of program PWSCF are:
     Max number of different atomic species (ntypx) = 10
     Max number of k-points (npk) =  40000
     Max angular momentum in pseudopotentials (lmaxx) =  3
               file C.pbe-n-kjpaw_psl.0.1.UPF: wavefunction(s)  2P renormalized
               file N.pbe-n-kjpaw_psl.0.1.UPF: wavefunction(s)  2P renormalized
               file H.pbe-kjpaw_psl.0.1.UPF: wavefunction(s)  1S renormalized
               file O.pbe-n-kjpaw_psl.0.1.UPF: wavefunction(s)  2P renormalized

     -------------------------------------
     Parameters for Dispersion Correction:
     -------------------------------------
       atom      VdW radius       C_6     

        C          2.744         60.710
        N          2.640         42.670
        H          1.892          4.857
        O          2.536         24.284

     Subspace diagonalization in iterative solution of the eigenvalue problem:
     a serial algorithm will be used

 
     Parallelization info
     --------------------
     sticks:   dense  smooth     PW     G-vecs:    dense   smooth      PW
     Min        1258    1258    331                75310    75310   10201
     Max        1259    1259    332                75312    75312   10202
     Sum       10065   10065   2653               602485   602485   81613
 


     bravais-lattice index     =            0
     lattice parameter (alat)  =      11.0284  a.u.
     unit-cell volume          =    4460.2899 (a.u.)^3
     number of atoms/cell      =           72
     number of atomic types    =            4
     number of electrons       =       224.00
     number of Kohn-Sham states=          134
     kinetic-energy cutoff     =     100.0000  Ry
     charge density cutoff     =     400.0000  Ry
     convergence threshold     =      1.0E-08
     mixing beta               =       0.5000
     number of iterations used =            8  plain     mixing
     Exchange-correlation      =  SLA  PW   PBX  PBC ( 1  4  3  4 0 0)

     celldm(1)=  11.028442  celldm(2)=   0.000000  celldm(3)=   0.000000
     celldm(4)=   0.000000  celldm(5)=   0.000000  celldm(6)=   0.000000

     crystal axes: (cart. coord. in units of alat)
               a(1) = (   1.000000   0.000000   0.000000 )  
               a(2) = (   0.000000   2.598355   0.000000 )  
               a(3) = (   0.129991   0.000000   1.279741 )  

     reciprocal axes: (cart. coord. in units 2 pi/alat)
               b(1) = (  1.000000  0.000000 -0.101576 )  
               b(2) = (  0.000000  0.384859  0.000000 )  
               b(3) = (  0.000000  0.000000  0.781408 )  


     PseudoPot. # 1 for  C read from file:
     /scratch/ahofstet/pseudo/C.pbe-n-kjpaw_psl.0.1.UPF
     MD5 check sum: 430fe95172b1e11ef3f8ed03bac87931
     Pseudo is Projector augmented-wave + core cor, Zval =  4.0
     Generated using "atomic" code by A. Dal Corso  v.5.0.99 svn rev. 10869
     Shape of augmentation charge: BESSEL
     Using radial grid of 1073 points,  4 beta functions with: 
                l(1) =   0
                l(2) =   0
                l(3) =   1
                l(4) =   1
     Q(r) pseudized with 0 coefficients 


     PseudoPot. # 2 for  N read from file:
     /scratch/ahofstet/pseudo/N.pbe-n-kjpaw_psl.0.1.UPF
     MD5 check sum: f73187c8b701007e77325f868c9291d7
     Pseudo is Projector augmented-wave + core cor, Zval =  5.0
     Generated using "atomic" code by A. Dal Corso  v.5.0.99 svn rev. 10869
     Shape of augmentation charge: PSQ
     Using radial grid of 1085 points,  4 beta functions with: 
                l(1) =   0
                l(2) =   0
                l(3) =   1
                l(4) =   1
     Q(r) pseudized with 0 coefficients 


     PseudoPot. # 3 for  H read from file:
     /scratch/ahofstet/pseudo/H.pbe-kjpaw_psl.0.1.UPF
     MD5 check sum: 94e484f906d9e9773b2f6e52662335b2
     Pseudo is Projector augmented-wave, Zval =  1.0
     Generated using "atomic" code by A. Dal Corso  v.5.0.99 svn rev. 10869
     Shape of augmentation charge: PSQ
     Using radial grid of  929 points,  2 beta functions with: 
                l(1) =   0
                l(2) =   0
     Q(r) pseudized with 0 coefficients 


     PseudoPot. # 4 for  O read from file:
     /scratch/ahofstet/pseudo/O.pbe-n-kjpaw_psl.0.1.UPF
     MD5 check sum: 3f94a2996a3169367d6eb21d9b593f20
     Pseudo is Projector augmented-wave + core cor, Zval =  6.0
     Generated using "atomic" code by A. Dal Corso  v.5.0.99 svn rev. 10869
     Shape of augmentation charge: BESSEL
     Using radial grid of 1095 points,  4 beta functions with: 
                l(1) =   0
                l(2) =   0
                l(3) =   1
                l(4) =   1
     Q(r) pseudized with 0 coefficients 


     atomic species   valence    mass     pseudopotential
        C              4.00    12.01070      C( 1.00)
        N              5.00    14.00670      N( 1.00)
        H              1.00     1.00794      H( 1.00)
        O              6.00    15.99940      O( 1.00)

      4 Sym. Ops., with inversion, found ( 2 have fractional translation)



   Cartesian axes

     site n.     atom                  positions (alat units)
         1           O   tau(   1) = (   0.4138987   0.1008400   1.0652689  )
         2           O   tau(   2) = (   0.7810884   1.4000175   0.8543429  )
         3           O   tau(   3) = (   0.7160927   2.4975151   0.2144723  )
         4           O   tau(   4) = (   0.3489030   1.1983376   0.4253983  )
         5           O   tau(   5) = (   0.3989109   1.3395647   1.1060540  )
         6           O   tau(   6) = (   0.7960761   0.0403872   0.8135577  )
         7           O   tau(   7) = (   0.7310804   1.2587903   0.1736872  )
         8           O   tau(   8) = (   0.3339152   2.5579678   0.4661834  )
         9           N   tau(   9) = (   0.2110204   1.0118257   1.2292852  )
        10           N   tau(  10) = (   0.9839666   2.3110032   0.6903266  )
        11           N   tau(  11) = (   0.9189709   1.5865293   0.0504560  )
        12           N   tau(  12) = (   0.1460248   0.2873518   0.5894146  )
        13           C   tau(  13) = (   0.3580403   0.3232094   1.1067102  )
        14           C   tau(  14) = (   0.8369468   1.6223869   0.8129015  )
        15           C   tau(  15) = (   0.7719511   2.2751456   0.1730310  )
        16           C   tau(  16) = (   0.2930446   0.9759681   0.4668396  )
        17           C   tau(  17) = (   0.1632919   0.3691915   1.2391315  )
        18           C   tau(  18) = (   1.0316952   1.6683690   0.6804802  )
        19           C   tau(  19) = (   0.9666995   2.2291635   0.0406097  )
        20           C   tau(  20) = (   0.0982962   0.9299860   0.5992609  )
        21           C   tau(  21) = (   1.0999031   0.5953181   1.2893853  )
        22           C   tau(  22) = (   0.0950840   1.8944956   0.6302265  )
        23           C   tau(  23) = (   0.0300883   2.0030369  -0.0096441  )
        24           C   tau(  24) = (   1.0349074   0.7038594   0.6495147  )
        25           C   tau(  25) = (   0.2349278   0.7719593   1.2029357  )
        26           C   tau(  26) = (   0.9600592   2.0711368   0.7166760  )
        27           C   tau(  27) = (   0.8950636   1.8263957   0.0768054  )
        28           C   tau(  28) = (   0.1699321   0.5272182   0.5630651  )
        29           C   tau(  29) = (   0.4284389   0.7274394   1.0690423  )
        30           C   tau(  30) = (   0.7665481   2.0266170   0.8505694  )
        31           C   tau(  31) = (   0.7015524   1.8709156   0.2106989  )
        32           C   tau(  32) = (   0.3634432   0.5717381   0.4291717  )
        33           C   tau(  33) = (   0.4926601   0.5039364   1.0201189  )
        34           C   tau(  34) = (   0.7023270   1.8031139   0.8994929  )
        35           C   tau(  35) = (   0.6373313   2.0944187   0.2596223  )
        36           C   tau(  36) = (   0.4276644   0.7952411   0.3802483  )
        37           C   tau(  37) = (   0.5332279   0.9517168   1.0019669  )
        38           C   tau(  38) = (   0.6617591   2.2508943   0.9176449  )
        39           C   tau(  39) = (   0.5967635   1.6466383   0.2777743  )
        40           C   tau(  40) = (   0.4682322   0.3474607   0.3620963  )
        41           C   tau(  41) = (   0.3769990   1.1257153   1.1155940  )
        42           C   tau(  42) = (   0.8179880   2.4248928   0.8040178  )
        43           C   tau(  43) = (   0.7529924   1.4726398   0.1641472  )
        44           C   tau(  44) = (   0.3120033   0.1734622   0.4757234  )
        45           H   tau(  45) = (   0.5585199   0.0934059   0.9732571  )
        46           H   tau(  46) = (   0.6364672   1.3925834   0.9463547  )
        47           H   tau(  47) = (   0.5714715   2.5049492   0.3064841  )
        48           H   tau(  48) = (   0.4935242   1.2057716   0.3333865  )
        49           H   tau(  49) = (   0.9534828   1.0938637   0.0428095  )
        50           H   tau(  50) = (   0.1115129   2.3930412   0.5970611  )
        51           H   tau(  51) = (   0.1765086   1.5044913   1.2369317  )
        52           H   tau(  52) = (   1.0184785   0.2053138   0.6826801  )
        53           H   tau(  53) = (   1.0617483   0.2262637   1.3041665  )
        54           H   tau(  54) = (   0.1332387   1.5254412   0.6154452  )
        55           H   tau(  55) = (   0.0682430   2.3720914  -0.0244254  )
        56           H   tau(  56) = (   0.9967526   1.0729139   0.6642959  )
        57           H   tau(  57) = (   0.8228453   0.6289340   0.1193189  )
        58           H   tau(  58) = (   0.2421504   1.9281115   0.5205517  )
        59           H   tau(  59) = (   0.3071460   1.9694210   1.1604223  )
        60           H   tau(  60) = (   0.8878410   0.6702435   0.7591895  )
        61           H   tau(  61) = (   0.6410628   0.4653450   0.9136784  )
        62           H   tau(  62) = (   0.5539242   1.7645225   1.0059333  )
        63           H   tau(  63) = (   0.4889285   2.1330101   0.3660627  )
        64           H   tau(  64) = (   0.5760671   0.8338326   0.2738078  )
        65           H   tau(  65) = (   0.7111151   0.9765323   1.0614866  )
        66           H   tau(  66) = (   0.4838719   2.2757098   0.8581252  )
        67           H   tau(  67) = (   0.4188762   1.6218227   0.2182546  )
        68           H   tau(  68) = (   0.6461195   0.3226452   0.4216160  )
        69           H   tau(  69) = (   0.5356812   0.9806402   0.8156713  )
        70           H   tau(  70) = (   0.6593058   2.2798177   1.1039405  )
        71           H   tau(  71) = (   0.5943101   1.6177149   0.4640699  )
        72           H   tau(  72) = (   0.4706856   0.3185374   0.1758007  )

     number of k points=    10
                       cart. coord. in units 2pi/alat
        k(    1) = (   0.0000000   0.0000000   0.0000000), wk =   0.1111111
        k(    2) = (   0.0000000   0.0000000   0.2604693), wk =   0.2222222
        k(    3) = (   0.0000000  -0.1924294   0.0000000), wk =   0.1111111
        k(    4) = (   0.0000000  -0.1924294   0.2604693), wk =   0.2222222
        k(    5) = (   0.3333333   0.0000000  -0.0338588), wk =   0.2222222
        k(    6) = (   0.3333333   0.0000000   0.2266106), wk =   0.2222222
        k(    7) = (   0.3333333   0.0000000  -0.2943281), wk =   0.2222222
        k(    8) = (   0.3333333  -0.1924294  -0.0338588), wk =   0.2222222
        k(    9) = (   0.3333333  -0.1924294   0.2266106), wk =   0.2222222
        k(   10) = (   0.3333333  -0.1924294  -0.2943281), wk =   0.2222222

     Dense  grid:   602485 G-vectors     FFT dimensions: (  72, 192,  96)

     Estimated max dynamical RAM per process >     478.98MB

     Estimated total allocated dynamical RAM >    3831.85MB

     Check: negative/imaginary core charge=   -0.000002    0.000000

     Initial potential from superposition of free atoms

     starting charge  223.99836, renormalised to  224.00000
     Starting wfc are  204 randomized atomic wfcs
     Checking if some PAW data can be deallocated... 

     total cpu time spent up to now is       28.9 secs

     per-process dynamical memory:   387.0 Mb

     Self-consistent Calculation

     iteration #  1     ecut=   100.00 Ry     beta=0.50
     Davidson diagonalization with overlap
     ethr =  1.00E-02,  avg # of iterations =  4.0

     total cpu time spent up to now is       95.8 secs

     total energy              =   -1068.45905037 Ry
     Harris-Foulkes estimate   =   -1072.42401347 Ry
     estimated scf accuracy    <       7.46083394 Ry

     iteration #  2     ecut=   100.00 Ry     beta=0.50
     Davidson diagonalization with overlap
     ethr =  3.33E-03,  avg # of iterations =  2.0

     total cpu time spent up to now is      132.2 secs

     total energy              =   -1068.84244818 Ry
     Harris-Foulkes estimate   =   -1069.26553506 Ry
     estimated scf accuracy    <       0.87797754 Ry

     iteration #  3     ecut=   100.00 Ry     beta=0.50
     Davidson diagonalization with overlap
     ethr =  3.92E-04,  avg # of iterations =  5.0

     total cpu time spent up to now is      208.5 secs

     total energy              =   -1069.64549242 Ry
     Harris-Foulkes estimate   =   -1070.03948992 Ry
     estimated scf accuracy    <       1.08204232 Ry

     iteration #  4     ecut=   100.00 Ry     beta=0.50
     Davidson diagonalization with overlap
     ethr =  3.92E-04,  avg # of iterations =  2.2

     total cpu time spent up to now is      243.2 secs

     total energy              =   -1069.49172218 Ry
     Harris-Foulkes estimate   =   -1069.69723393 Ry
     estimated scf accuracy    <       0.35992940 Ry

     iteration #  5     ecut=   100.00 Ry     beta=0.50
     Davidson diagonalization with overlap
     ethr =  1.61E-04,  avg # of iterations =  5.9

     total cpu time spent up to now is      314.2 secs

     total energy              =   -1069.72343277 Ry
     Harris-Foulkes estimate   =   -1069.77932940 Ry
     estimated scf accuracy    <       0.21746895 Ry

     iteration #  6     ecut=   100.00 Ry     beta=0.50
     Davidson diagonalization with overlap
     ethr =  9.71E-05,  avg # of iterations =  1.0

     total cpu time spent up to now is      347.8 secs

     total energy              =   -1069.66998604 Ry
     Harris-Foulkes estimate   =   -1069.73080315 Ry
     estimated scf accuracy    <       0.11238300 Ry

     iteration #  7     ecut=   100.00 Ry     beta=0.50
     Davidson diagonalization with overlap
     ethr =  5.02E-05,  avg # of iterations =  4.9

     total cpu time spent up to now is      403.7 secs

     total energy              =   -1069.71050542 Ry
     Harris-Foulkes estimate   =   -1069.71631839 Ry
     estimated scf accuracy    <       0.01254633 Ry

     iteration #  8     ecut=   100.00 Ry     beta=0.50
     Davidson diagonalization with overlap
     ethr =  5.60E-06,  avg # of iterations =  2.4

     total cpu time spent up to now is      440.4 secs

     total energy              =   -1069.71056454 Ry
     Harris-Foulkes estimate   =   -1069.71181851 Ry
     estimated scf accuracy    <       0.00206587 Ry

     iteration #  9     ecut=   100.00 Ry     beta=0.50
     Davidson diagonalization with overlap
     ethr =  9.22E-07,  avg # of iterations =  4.7

     total cpu time spent up to now is      514.0 secs

     total energy              =   -1069.71294660 Ry
     Harris-Foulkes estimate   =   -1069.71405348 Ry
     estimated scf accuracy    <       0.00322735 Ry

     iteration # 10     ecut=   100.00 Ry     beta=0.50
     Davidson diagonalization with overlap
     ethr =  9.22E-07,  avg # of iterations =  1.0

     total cpu time spent up to now is      547.5 secs

     total energy              =   -1069.71243492 Ry
     Harris-Foulkes estimate   =   -1069.71305453 Ry
     estimated scf accuracy    <       0.00116763 Ry

     iteration # 11     ecut=   100.00 Ry     beta=0.50
     Davidson diagonalization with overlap
     ethr =  5.21E-07,  avg # of iterations =  5.5

     total cpu time spent up to now is      609.1 secs

     total energy              =   -1069.71308950 Ry
     Harris-Foulkes estimate   =   -1069.71319603 Ry
     estimated scf accuracy    <       0.00036827 Ry

     iteration # 12     ecut=   100.00 Ry     beta=0.50
     Davidson diagonalization with overlap
     ethr =  1.64E-07,  avg # of iterations =  1.1

     total cpu time spent up to now is      642.8 secs

     total energy              =   -1069.71301811 Ry
     Harris-Foulkes estimate   =   -1069.71309890 Ry
     estimated scf accuracy    <       0.00017493 Ry

     iteration # 13     ecut=   100.00 Ry     beta=0.50
     Davidson diagonalization with overlap
     ethr =  7.81E-08,  avg # of iterations =  3.2

     total cpu time spent up to now is      694.5 secs

     total energy              =   -1069.71308603 Ry
     Harris-Foulkes estimate   =   -1069.71308897 Ry
     estimated scf accuracy    <       0.00000969 Ry

     iteration # 14     ecut=   100.00 Ry     beta=0.50
     Davidson diagonalization with overlap
     ethr =  4.32E-09,  avg # of iterations =  2.2

     total cpu time spent up to now is      730.9 secs

     total energy              =   -1069.71308486 Ry
     Harris-Foulkes estimate   =   -1069.71308691 Ry
     estimated scf accuracy    <       0.00000395 Ry

     iteration # 15     ecut=   100.00 Ry     beta=0.50
     Davidson diagonalization with overlap
     ethr =  1.76E-09,  avg # of iterations =  4.0

     total cpu time spent up to now is      787.0 secs

     total energy              =   -1069.71308701 Ry
     Harris-Foulkes estimate   =   -1069.71308694 Ry
     estimated scf accuracy    <       0.00000051 Ry

     iteration # 16     ecut=   100.00 Ry     beta=0.50
     Davidson diagonalization with overlap
     ethr =  2.27E-10,  avg # of iterations =  1.9

     total cpu time spent up to now is      821.9 secs

     total energy              =   -1069.71308669 Ry
     Harris-Foulkes estimate   =   -1069.71308703 Ry
     estimated scf accuracy    <       0.00000070 Ry

     iteration # 17     ecut=   100.00 Ry     beta=0.50
     Davidson diagonalization with overlap
     ethr =  2.27E-10,  avg # of iterations =  4.1

     total cpu time spent up to now is      863.4 secs

     total energy              =   -1069.71308677 Ry
     Harris-Foulkes estimate   =   -1069.71308679 Ry
     estimated scf accuracy    <       0.00000006 Ry

     iteration # 18     ecut=   100.00 Ry     beta=0.50
     Davidson diagonalization with overlap
     ethr =  2.49E-11,  avg # of iterations =  4.4

     total cpu time spent up to now is      915.9 secs

     total energy              =   -1069.71308679 Ry
     Harris-Foulkes estimate   =   -1069.71308679 Ry
     estimated scf accuracy    <       0.00000001 Ry

     iteration # 19     ecut=   100.00 Ry     beta=0.50
     Davidson diagonalization with overlap
     ethr =  4.71E-12,  avg # of iterations =  3.5

     total cpu time spent up to now is      958.9 secs

     End of self-consistent calculation

          k = 0.0000 0.0000 0.0000 ( 75337 PWs)   bands (ev):

   -19.5895 -19.5814 -19.4101 -19.4042 -18.9811 -18.9764 -18.9669 -18.9656
   -17.1979 -17.1842 -17.0875 -17.0480 -14.1011 -14.0567 -13.9510 -13.9217
   -12.6699 -12.6269 -12.5965 -12.5014 -11.2319 -11.1862 -11.1847 -11.0777
   -10.7620 -10.7409 -10.6701 -10.6503  -8.6829  -8.6276  -8.5870  -8.5853
    -8.2687  -8.2566  -8.0044  -7.8401  -7.6940  -7.5981  -7.3102  -7.2909
    -6.6109  -6.5472  -6.3592  -6.2409  -6.2173  -6.1962  -5.8882  -5.8466
    -5.0920  -5.0564  -5.0167  -4.9778  -4.9391  -4.8282  -4.7450  -4.6079
    -4.4816  -4.2399  -4.0538  -3.9816  -3.9366  -3.9304  -3.8581  -3.7424
    -3.5150  -3.3961  -3.3537  -3.2744  -3.1942  -3.1138  -3.0139  -2.8524
    -2.7964  -2.7684  -2.7470  -2.7100  -2.6934  -2.6857  -2.6784  -2.6750
    -2.6283  -2.5479  -2.4637  -2.4629  -1.9745  -1.9203  -1.8900  -1.8190
    -1.6348  -1.6281  -1.5511  -1.4285  -1.3344  -1.0789  -0.9192  -0.8451
    -0.1004  -0.0310   0.0133   0.0508   0.0894   0.2525   0.3446   0.4988
     0.5540   0.6212   0.6277   0.6498   2.0003   2.1165   2.1701   2.2022
     5.3242   5.3835   5.4555   5.5590   5.8299   5.8468   5.9434   6.2082
     6.6011   6.7011   7.0973   7.2201   7.2318   7.3601   7.4814   7.8885
     8.0424   8.8113   8.9163   8.9582   8.9799   9.1188

          k = 0.0000 0.0000 0.2605 ( 75358 PWs)   bands (ev):

   -19.5823 -19.5780 -19.4152 -19.4120 -18.9824 -18.9805 -18.9626 -18.9624
   -17.1956 -17.1887 -17.0763 -17.0567 -14.0694 -14.0264 -13.9951 -13.9591
   -12.6478 -12.6116 -12.5888 -12.5267 -11.2320 -11.2069 -11.1546 -11.1044
   -10.7343 -10.7075 -10.6918 -10.6613  -8.6612  -8.6157  -8.6147  -8.5907
    -8.2765  -8.2694  -7.9717  -7.8950  -7.6535  -7.6113  -7.3031  -7.2935
    -6.6013  -6.5663  -6.3727  -6.3212  -6.1903  -6.1695  -5.8819  -5.8629
    -5.0105  -5.0048  -4.9417  -4.9351  -4.8900  -4.7805  -4.7388  -4.6288
    -4.4193  -4.2957  -4.0065  -3.9808  -3.9464  -3.8945  -3.7760  -3.6979
    -3.5642  -3.5226  -3.3638  -3.3166  -3.2025  -3.2011  -3.1544  -3.0537
    -3.0002  -2.9860  -2.9686  -2.8674  -2.7368  -2.7252  -2.7231  -2.5836
    -2.4063  -2.3268  -2.3119  -2.2406  -1.8986  -1.8612  -1.8264  -1.7640
    -1.7080  -1.6012  -1.5893  -1.4976  -1.2479  -1.1061  -0.9426  -0.8855
    -0.1514  -0.1091   0.0616   0.0866   0.0948   0.1812   0.3767   0.4517
     0.6283   0.6519   0.6799   0.6818   2.0320   2.0985   2.1891   2.2086
     5.3585   5.4430   5.4964   5.6278   5.8172   5.8215   5.8809   6.0928
     6.6431   6.8262   6.9121   7.1465   7.6496   7.6612   7.7715   8.0662
     8.1934   8.3514   8.4359   8.5509   8.9421   8.9770

          k = 0.0000-0.1924 0.0000 ( 75312 PWs)   bands (ev):

   -19.5855 -19.5855 -19.4072 -19.4072 -18.9741 -18.9741 -18.9708 -18.9708
   -17.1924 -17.1924 -17.0664 -17.0664 -14.0791 -14.0791 -13.9365 -13.9365
   -12.6599 -12.6599 -12.5368 -12.5368 -11.2118 -11.2118 -11.1331 -11.1331
   -10.7512 -10.7512 -10.6564 -10.6564  -8.6709  -8.6709  -8.5775  -8.5775
    -8.1557  -8.1557  -8.0624  -8.0624  -7.5935  -7.5935  -7.3690  -7.3690
    -6.4324  -6.4324  -6.3060  -6.3060  -6.1335  -6.1335  -6.0497  -6.0497
    -5.0921  -5.0921  -4.9641  -4.9641  -4.8838  -4.8838  -4.6856  -4.6856
    -4.3936  -4.3936  -3.9900  -3.9900  -3.9567  -3.9567  -3.6409  -3.6409
    -3.5661  -3.5661  -3.3309  -3.3309  -3.1200  -3.1200  -3.0171  -3.0171
    -2.7297  -2.7297  -2.7097  -2.7097  -2.6968  -2.6968  -2.6566  -2.6566
    -2.5596  -2.5596  -2.4868  -2.4868  -1.9929  -1.9929  -1.8351  -1.8351
    -1.6526  -1.6526  -1.4774  -1.4774  -1.2455  -1.2455  -0.8370  -0.8370
    -0.0467  -0.0467   0.0679   0.0679   0.1241   0.1241   0.4152   0.4152
     0.5848   0.5848   0.6374   0.6374   2.1076   2.1076   2.1450   2.1450
     5.3285   5.3285   5.5384   5.5384   5.7786   5.7786   6.1409   6.1409
     6.6414   6.6414   7.1784   7.1784   7.2730   7.2730   7.5850   7.5850
     8.5067   8.5067   8.9389   8.9389   9.0302   9.0302

          k = 0.0000-0.1924 0.2605 ( 75354 PWs)   bands (ev):

   -19.5802 -19.5802 -19.4137 -19.4137 -18.9791 -18.9791 -18.9648 -18.9648
   -17.1923 -17.1923 -17.0664 -17.0664 -14.0482 -14.0482 -13.9773 -13.9773
   -12.6353 -12.6353 -12.5514 -12.5514 -11.2036 -11.2036 -11.1507 -11.1507
   -10.7203 -10.7203 -10.6724 -10.6724  -8.6619  -8.6619  -8.5869  -8.5869
    -8.1661  -8.1661  -8.0622  -8.0622  -7.5926  -7.5926  -7.3666  -7.3666
    -6.4218  -6.4218  -6.3325  -6.3325  -6.1437  -6.1437  -6.0540  -6.0540
    -4.9987  -4.9987  -4.9419  -4.9419  -4.8385  -4.8385  -4.6756  -4.6756
    -4.3678  -4.3678  -4.0177  -4.0177  -3.8514  -3.8514  -3.6724  -3.6724
    -3.5612  -3.5612  -3.4425  -3.4425  -3.1678  -3.1678  -3.0769  -3.0769
    -3.0405  -3.0405  -2.9332  -2.9332  -2.7318  -2.7318  -2.5971  -2.5971
    -2.3563  -2.3563  -2.2776  -2.2776  -1.9116  -1.9116  -1.7746  -1.7746
    -1.6799  -1.6799  -1.5590  -1.5590  -1.1829  -1.1829  -0.8940  -0.8940
    -0.0434  -0.0434   0.0517   0.0517   0.0959   0.0959   0.3987   0.3987
     0.6494   0.6494   0.6708   0.6708   2.1022   2.1022   2.1690   2.1690
     5.3758   5.3758   5.5636   5.5636   5.8110   5.8110   6.0268   6.0268
     6.7178   6.7178   7.0217   7.0217   7.6763   7.6763   7.8565   7.8565
     8.3320   8.3320   8.4991   8.4991   8.9534   8.9534

          k = 0.3333 0.0000-0.0339 ( 75355 PWs)   bands (ev):

   -19.5470 -19.5446 -19.4443 -19.4426 -18.9985 -18.9866 -18.9618 -18.9510
   -17.2093 -17.1795 -17.0671 -17.0500 -14.0809 -14.0434 -13.9585 -13.9130
   -12.6854 -12.6504 -12.5904 -12.5833 -11.2530 -11.2020 -11.1544 -11.1269
   -10.7529 -10.7315 -10.7255 -10.6694  -8.6653  -8.6158  -8.5690  -8.4902
    -8.2141  -8.1926  -7.9167  -7.9004  -7.6940  -7.6056  -7.3292  -7.2913
    -6.5656  -6.5445  -6.3576  -6.2603  -6.1700  -6.1201  -5.8646  -5.8574
    -5.1857  -5.0646  -4.9998  -4.9855  -4.9646  -4.9004  -4.8642  -4.6472
    -4.4288  -4.3189  -4.0178  -3.9539  -3.9483  -3.9075  -3.7678  -3.6790
    -3.6045  -3.5514  -3.4382  -3.3506  -3.2317  -3.1622  -2.9450  -2.9079
    -2.7791  -2.7543  -2.7485  -2.7367  -2.7286  -2.6906  -2.6348  -2.6073
    -2.5123  -2.4937  -2.4046  -2.3930  -1.9481  -1.9044  -1.8402  -1.7507
    -1.6534  -1.6273  -1.5335  -1.4480  -1.2658  -1.0978  -0.9188  -0.8987
    -0.1054  -0.0629   0.0042   0.0426   0.0598   0.1348   0.3774   0.4493
     0.7215   0.7527   0.8086   0.8178   2.0501   2.1194   2.1508   2.1547
     5.2131   5.2935   5.3611   5.5295   5.6393   5.7764   5.7859   5.9355
     6.5838   6.6856   6.6972   7.0561   7.6332   7.7640   7.9350   7.9882
     8.1238   8.2856   8.6024   8.6138   9.1034   9.1248

          k = 0.3333 0.0000 0.2266 ( 75308 PWs)   bands (ev):

   -19.5510 -19.5448 -19.4415 -19.4365 -18.9950 -18.9937 -18.9574 -18.9570
   -17.1971 -17.1898 -17.0690 -17.0499 -14.0587 -14.0151 -13.9842 -13.9479
   -12.6823 -12.6460 -12.6132 -12.5568 -11.2393 -11.2177 -11.1772 -11.1262
   -10.7513 -10.7173 -10.7116 -10.6727  -8.6304  -8.5875  -8.5628  -8.5464
    -8.2146  -8.2088  -7.9459  -7.8648  -7.6772  -7.6327  -7.3130  -7.3063
    -6.5731  -6.5404  -6.3285  -6.2837  -6.1616  -6.1400  -5.8717  -5.8506
    -5.0658  -5.0202  -4.9972  -4.9792  -4.9219  -4.8425  -4.8346  -4.6763
    -4.4470  -4.3090  -4.0279  -3.9693  -3.9314  -3.8976  -3.8035  -3.6947
    -3.5771  -3.5187  -3.4192  -3.3511  -3.2288  -3.2113  -3.1090  -3.0316
    -3.0269  -2.9973  -2.9088  -2.8242  -2.7763  -2.7324  -2.7245  -2.5939
    -2.2782  -2.2605  -2.2240  -2.2038  -1.8919  -1.8575  -1.8263  -1.7772
    -1.6330  -1.6119  -1.5698  -1.5058  -1.2588  -1.1120  -0.9355  -0.8745
    -0.0915  -0.0845  -0.0362   0.0359   0.0373   0.0869   0.3872   0.4579
     0.7540   0.7864   0.8477   0.8677   2.1028   2.1090   2.1448   2.1779
     5.1914   5.2914   5.3246   5.4818   5.6483   5.7930   5.8377   5.9116
     6.5929   6.7168   6.7753   7.0377   7.6781   7.8694   7.9135   8.0181
     8.4037   8.4298   8.6693   8.7275   9.0537   9.2847

          k = 0.3333 0.0000-0.2943 ( 75377 PWs)   bands (ev):

   -19.5448 -19.5405 -19.4494 -19.4420 -19.0006 -18.9914 -18.9589 -18.9492
   -17.2053 -17.1828 -17.0598 -17.0578 -14.0465 -14.0136 -13.9991 -13.9508
   -12.6644 -12.6632 -12.6086 -12.5584 -11.2420 -11.2133 -11.1625 -11.1363
   -10.7426 -10.7239 -10.6968 -10.6884  -8.6904  -8.6306  -8.5557  -8.4847
    -8.2050  -8.1909  -7.9379  -7.8698  -7.7275  -7.5899  -7.3347  -7.2888
    -6.5857  -6.5364  -6.3426  -6.1991  -6.1758  -6.1555  -5.8729  -5.8411
    -5.0668  -5.0413  -5.0006  -4.9890  -4.9357  -4.8307  -4.8300  -4.6749
    -4.5037  -4.2591  -4.0845  -3.9376  -3.9283  -3.9254  -3.8697  -3.7166
    -3.5127  -3.4851  -3.4206  -3.3009  -3.2437  -3.1785  -3.0770  -3.0668
    -2.9963  -2.9832  -2.8585  -2.8536  -2.7730  -2.7382  -2.7252  -2.5014
    -2.3507  -2.2824  -2.2579  -2.1503  -1.9638  -1.8726  -1.8201  -1.8158
    -1.7067  -1.5731  -1.5500  -1.4529  -1.3637  -1.0637  -0.9067  -0.8561
    -0.1326  -0.1167   0.0239   0.0302   0.0564   0.0656   0.3408   0.4854
     0.7823   0.8135   0.8314   0.8375   2.0541   2.1162   2.1756   2.1960
     5.2458   5.2658   5.4391   5.4948   5.7107   5.7725   5.8234   5.8679
     6.6429   6.6546   6.8286   6.9425   7.6743   7.7653   7.8505   8.0247
     8.0591   8.5201   8.6973   8.7755   8.9810   9.0188

          k = 0.3333-0.1924-0.0339 ( 75362 PWs)   bands (ev):

   -19.5457 -19.5457 -19.4435 -19.4435 -18.9925 -18.9925 -18.9564 -18.9564
   -17.1952 -17.1952 -17.0577 -17.0577 -14.0625 -14.0625 -13.9360 -13.9360
   -12.6669 -12.6669 -12.5871 -12.5871 -11.2120 -11.2120 -11.1610 -11.1610
   -10.7401 -10.7401 -10.6958 -10.6958  -8.6542  -8.6542  -8.5113  -8.5113
    -8.1235  -8.1235  -8.0172  -8.0172  -7.6130  -7.6130  -7.3796  -7.3796
    -6.3797  -6.3797  -6.3088  -6.3088  -6.1334  -6.1334  -6.0181  -6.0181
    -5.1248  -5.1248  -4.9908  -4.9908  -4.9422  -4.9422  -4.7211  -4.7211
    -4.4001  -4.4001  -4.0191  -4.0191  -3.8577  -3.8577  -3.6882  -3.6882
    -3.5589  -3.5589  -3.4907  -3.4907  -3.1005  -3.1005  -3.0479  -3.0479
    -2.7783  -2.7783  -2.7168  -2.7168  -2.6538  -2.6538  -2.6111  -2.6111
    -2.5002  -2.5002  -2.4017  -2.4017  -1.9224  -1.9224  -1.7934  -1.7934
    -1.6974  -1.6974  -1.4845  -1.4845  -1.1879  -1.1879  -0.8882  -0.8882
    -0.0706  -0.0706   0.0362   0.0362   0.0916   0.0916   0.3994   0.3994
     0.7343   0.7343   0.8168   0.8168   2.0819   2.0819   2.1558   2.1558
     5.2371   5.2371   5.4648   5.4648   5.6690   5.6690   5.8859   5.8859
     6.6356   6.6356   6.8793   6.8793   7.6807   7.6807   8.0135   8.0135
     8.1363   8.1363   8.7229   8.7229   8.9545   8.9545

          k = 0.3333-0.1924 0.2266 ( 75314 PWs)   bands (ev):

   -19.5479 -19.5479 -19.4391 -19.4391 -18.9933 -18.9933 -18.9582 -18.9582
   -17.1935 -17.1935 -17.0594 -17.0594 -14.0371 -14.0371 -13.9663 -13.9663
   -12.6701 -12.6701 -12.5783 -12.5783 -11.2110 -11.2110 -11.1725 -11.1725
   -10.7436 -10.7436 -10.6807 -10.6807  -8.6195  -8.6195  -8.5438  -8.5438
    -8.1230  -8.1230  -8.0198  -8.0198  -7.6147  -7.6147  -7.3822  -7.3822
    -6.3807  -6.3807  -6.3077  -6.3077  -6.1250  -6.1250  -6.0300  -6.0300
    -5.0316  -5.0316  -4.9665  -4.9665  -4.9316  -4.9316  -4.7125  -4.7125
    -4.4018  -4.4018  -4.0241  -4.0241  -3.8701  -3.8701  -3.6762  -3.6762
    -3.5694  -3.5694  -3.4662  -3.4662  -3.1388  -3.1388  -3.0983  -3.0983
    -3.0224  -3.0224  -2.9466  -2.9466  -2.7159  -2.7159  -2.6078  -2.6078
    -2.2540  -2.2540  -2.2247  -2.2247  -1.9077  -1.9077  -1.7462  -1.7462
    -1.6775  -1.6775  -1.5492  -1.5492  -1.1840  -1.1840  -0.8919  -0.8919
    -0.0996  -0.0996   0.0262   0.0262   0.0672   0.0672   0.4094   0.4094
     0.7696   0.7696   0.8599   0.8599   2.0852   2.0852   2.1811   2.1811
     5.2229   5.2229   5.4155   5.4155   5.7048   5.7048   5.8885   5.8885
     6.6803   6.6803   6.8801   6.8801   7.7408   7.7408   8.0138   8.0138
     8.3723   8.3723   8.8458   8.8458   9.0376   9.0376

          k = 0.3333-0.1924-0.2943 ( 75246 PWs)   bands (ev):

   -19.5427 -19.5427 -19.4457 -19.4457 -18.9956 -18.9956 -18.9543 -18.9543
   -17.1942 -17.1942 -17.0586 -17.0586 -14.0304 -14.0304 -13.9751 -13.9751
   -12.6649 -12.6649 -12.5816 -12.5816 -11.2054 -11.2054 -11.1756 -11.1756
   -10.7308 -10.7308 -10.6921 -10.6921  -8.6716  -8.6716  -8.5034  -8.5034
    -8.1023  -8.1023  -8.0413  -8.0413  -7.6114  -7.6114  -7.3771  -7.3771
    -6.3995  -6.3995  -6.2914  -6.2914  -6.1312  -6.1312  -6.0033  -6.0033
    -5.0462  -5.0462  -4.9774  -4.9774  -4.9099  -4.9099  -4.7245  -4.7245
    -4.4274  -4.4274  -3.9869  -3.9869  -3.9697  -3.9697  -3.6419  -3.6419
    -3.5757  -3.5757  -3.3884  -3.3884  -3.1641  -3.1641  -3.1073  -3.1073
    -2.9704  -2.9704  -2.9305  -2.9305  -2.6984  -2.6984  -2.5933  -2.5933
    -2.3282  -2.3282  -2.2056  -2.2056  -1.9683  -1.9683  -1.7054  -1.7054
    -1.6717  -1.6717  -1.5504  -1.5504  -1.2553  -1.2553  -0.8320  -0.8320
    -0.0847  -0.0847  -0.0016  -0.0016   0.0613   0.0613   0.4059   0.4059
     0.7934   0.7934   0.8408   0.8408   2.1033   2.1033   2.1683   2.1683
     5.2704   5.2704   5.4384   5.4384   5.7643   5.7643   5.8280   5.8280
     6.7336   6.7336   6.8036   6.8036   7.7723   7.7723   7.8028   7.8028
     8.3774   8.3774   8.7159   8.7159   9.0875   9.0875

     highest occupied, lowest unoccupied level (ev):     2.2086    5.1914

!    total energy              =   -1069.71308679 Ry
     Harris-Foulkes estimate   =   -1069.71308679 Ry
     estimated scf accuracy    <          3.4E-09 Ry

     total all-electron energy =     -4114.134554 Ry

     The total energy is the sum of the following terms:

     one-electron contribution =    -511.08572923 Ry
     hartree contribution      =     345.31442755 Ry
     xc contribution           =    -233.78966122 Ry
     ewald contribution        =    -347.72706130 Ry
     Dispersion Correction     =      -0.35221501 Ry
     one-center paw contrib.   =    -322.07284758 Ry

     convergence has been achieved in  19 iterations

     Forces acting on atoms (cartesian axes, Ry/au):

     atom    1 type  4   force =    -0.00131212   -0.00157157    0.00063713
     atom    2 type  4   force =     0.00131212   -0.00157157   -0.00063713
     atom    3 type  4   force =     0.00131212    0.00157157   -0.00063713
     atom    4 type  4   force =    -0.00131212    0.00157157    0.00063713
     atom    5 type  4   force =     0.00002543   -0.00111381   -0.00026048
     atom    6 type  4   force =    -0.00002543   -0.00111381    0.00026048
     atom    7 type  4   force =    -0.00002543    0.00111381    0.00026048
     atom    8 type  4   force =     0.00002543    0.00111381   -0.00026048
     atom    9 type  2   force =    -0.00087670   -0.00642008   -0.00268651
     atom   10 type  2   force =     0.00087670   -0.00642008    0.00268651
     atom   11 type  2   force =     0.00087670    0.00642008    0.00268651
     atom   12 type  2   force =    -0.00087670    0.00642008   -0.00268651
     atom   13 type  1   force =     0.00385941   -0.00071323   -0.00657626
     atom   14 type  1   force =    -0.00385941   -0.00071323    0.00657626
     atom   15 type  1   force =    -0.00385941    0.00071323    0.00657626
     atom   16 type  1   force =     0.00385941    0.00071323   -0.00657626
     atom   17 type  1   force =    -0.00647654    0.00437048    0.00298107
     atom   18 type  1   force =     0.00647654    0.00437048   -0.00298107
     atom   19 type  1   force =     0.00647654   -0.00437048   -0.00298107
     atom   20 type  1   force =    -0.00647654   -0.00437048    0.00298107
     atom   21 type  1   force =     0.00497699    0.00136455   -0.00124805
     atom   22 type  1   force =    -0.00497699    0.00136455    0.00124805
     atom   23 type  1   force =    -0.00497699   -0.00136455    0.00124805
     atom   24 type  1   force =     0.00497699   -0.00136455   -0.00124805
     atom   25 type  1   force =    -0.00693556    0.00247353    0.00570091
     atom   26 type  1   force =     0.00693556    0.00247353   -0.00570091
     atom   27 type  1   force =     0.00693556   -0.00247353   -0.00570091
     atom   28 type  1   force =    -0.00693556   -0.00247353    0.00570091
     atom   29 type  1   force =     0.00735851   -0.00658015   -0.00316044
     atom   30 type  1   force =    -0.00735851   -0.00658015    0.00316044
     atom   31 type  1   force =    -0.00735851    0.00658015    0.00316044
     atom   32 type  1   force =     0.00735851    0.00658015   -0.00316044
     atom   33 type  1   force =    -0.00465192    0.00288430    0.00222459
     atom   34 type  1   force =     0.00465192    0.00288430   -0.00222459
     atom   35 type  1   force =     0.00465192   -0.00288430   -0.00222459
     atom   36 type  1   force =    -0.00465192   -0.00288430    0.00222459
     atom   37 type  1   force =     0.00852104    0.00012962   -0.00089856
     atom   38 type  1   force =    -0.00852104    0.00012962    0.00089856
     atom   39 type  1   force =    -0.00852104   -0.00012962    0.00089856
     atom   40 type  1   force =     0.00852104   -0.00012962   -0.00089856
     atom   41 type  1   force =    -0.00011180    0.00271116    0.00086835
     atom   42 type  1   force =     0.00011180    0.00271116   -0.00086835
     atom   43 type  1   force =     0.00011180   -0.00271116   -0.00086835
     atom   44 type  1   force =    -0.00011180   -0.00271116    0.00086835
     atom   45 type  3   force =    -0.00063754   -0.00035974   -0.00005211
     atom   46 type  3   force =     0.00063754   -0.00035974    0.00005211
     atom   47 type  3   force =     0.00063754    0.00035974    0.00005211
     atom   48 type  3   force =    -0.00063754    0.00035974   -0.00005211
     atom   49 type  3   force =    -0.00055257    0.00030846   -0.00087381
     atom   50 type  3   force =     0.00055257    0.00030846    0.00087381
     atom   51 type  3   force =     0.00055257   -0.00030846    0.00087381
     atom   52 type  3   force =    -0.00055257   -0.00030846   -0.00087381
     atom   53 type  3   force =     0.00085756   -0.00022276    0.00004170
     atom   54 type  3   force =    -0.00085756   -0.00022276   -0.00004170
     atom   55 type  3   force =    -0.00085756    0.00022276   -0.00004170
     atom   56 type  3   force =     0.00085756    0.00022276    0.00004170
     atom   57 type  3   force =    -0.00069938    0.00013519   -0.00215425
     atom   58 type  3   force =     0.00069938    0.00013519    0.00215425
     atom   59 type  3   force =     0.00069938   -0.00013519    0.00215425
     atom   60 type  3   force =    -0.00069938   -0.00013519   -0.00215425
     atom   61 type  3   force =     0.00087495   -0.00090408    0.00202548
     atom   62 type  3   force =    -0.00087495   -0.00090408   -0.00202548
     atom   63 type  3   force =    -0.00087495    0.00090408   -0.00202548
     atom   64 type  3   force =     0.00087495    0.00090408    0.00202548
     atom   65 type  3   force =    -0.00362785   -0.00043231    0.00125021
     atom   66 type  3   force =     0.00362785   -0.00043231   -0.00125021
     atom   67 type  3   force =     0.00362785    0.00043231   -0.00125021
     atom   68 type  3   force =    -0.00362785    0.00043231    0.00125021
     atom   69 type  3   force =    -0.00058896   -0.00000771    0.00122639
     atom   70 type  3   force =     0.00058896   -0.00000771   -0.00122639
     atom   71 type  3   force =     0.00058896    0.00000771   -0.00122639
     atom   72 type  3   force =    -0.00058896    0.00000771    0.00122639

     Total force =     0.047014     Total SCF correction =     0.000109


     Computing stress (Cartesian axis) and pressure

          total   stress  (Ry/bohr**3)                   (kbar)     P=   -3.56
  -0.00002264   0.00000000  -0.00000000         -3.33      0.00     -0.00
   0.00000000  -0.00003366   0.00000000          0.00     -4.95      0.00
  -0.00000000   0.00000000  -0.00001622         -0.00      0.00     -2.39


     Writing output data file scf.save
 
     init_run     :     27.44s CPU     28.30s WALL (       1 calls)
     electrons    :    890.96s CPU    930.07s WALL (       1 calls)
     forces       :     12.97s CPU     13.09s WALL (       1 calls)
     stress       :     65.69s CPU     65.93s WALL (       1 calls)

     Called by init_run:
     wfcinit      :     19.13s CPU     19.87s WALL (       1 calls)
     potinit      :      2.94s CPU      2.97s WALL (       1 calls)

     Called by electrons:
     c_bands      :    786.79s CPU    820.31s WALL (      19 calls)
     sum_band     :     92.46s CPU     96.97s WALL (      19 calls)
     v_of_rho     :      1.82s CPU      1.99s WALL (      20 calls)
     newd         :      3.81s CPU      4.68s WALL (      20 calls)
     PAW_pot      :      5.40s CPU      5.40s WALL (      20 calls)
     mix_rho      :      0.48s CPU      0.55s WALL (      19 calls)

     Called by c_bands:
     init_us_2    :      7.08s CPU      7.11s WALL (     410 calls)
     cegterg      :    760.57s CPU    794.03s WALL (     190 calls)

     Called by sum_band:
     sum_band:bec :      0.07s CPU      0.06s WALL (     190 calls)
     addusdens    :      4.21s CPU      5.00s WALL (      19 calls)

     Called by *egterg:
     h_psi        :    480.06s CPU    504.07s WALL (     830 calls)
     s_psi        :     61.86s CPU     61.86s WALL (     830 calls)
     g_psi        :      2.97s CPU      2.97s WALL (     630 calls)
     cdiaghg      :     33.30s CPU     33.30s WALL (     820 calls)

     Called by h_psi:
     h_psi:pot    :    476.09s CPU    500.03s WALL (     830 calls)
     h_psi:calbec :     66.83s CPU     67.04s WALL (     830 calls)
     vloc_psi     :    346.76s CPU    370.48s WALL (     830 calls)
     add_vuspsi   :     62.49s CPU     62.50s WALL (     830 calls)

     General routines
     calbec       :    101.12s CPU    101.44s WALL (    1070 calls)
     fft          :      3.64s CPU      3.92s WALL (     284 calls)
     fftw         :    373.99s CPU    401.10s WALL (  172694 calls)
 
     Parallel routines
     fft_scatter  :    123.66s CPU    143.73s WALL (  172978 calls)
 
     PWSCF        : 16m43.47s CPU    18m 2.70s WALL

 
   This run was terminated on:   6:31:55  21Dec2017            

=------------------------------------------------------------------------------=
   JOB DONE.
=------------------------------------------------------------------------------=
