
     Program PWSCF v.6.1 (svn rev. 13369) starts on 21Dec2017 at 18:19:10 

     This program is part of the open-source Quantum ESPRESSO suite
     for quantum simulation of materials; please cite
         "P. Giannozzi et al., J. Phys.:Condens. Matter 21 395502 (2009);
          URL http://www.quantum-espresso.org", 
     in publications or presentations arising from this work. More details at
     http://www.quantum-espresso.org/quote

     Parallel version (MPI), running on     8 processors
     R & G space division:  proc/nbgrp/npool/nimage =       8
     Waiting for input...
     Reading input from standard input

     Current dimensions of program PWSCF are:
     Max number of different atomic species (ntypx) = 10
     Max number of k-points (npk) =  40000
     Max angular momentum in pseudopotentials (lmaxx) =  3
               file C.pbe-n-kjpaw_psl.0.1.UPF: wavefunction(s)  2P renormalized
               file N.pbe-n-kjpaw_psl.0.1.UPF: wavefunction(s)  2P renormalized
               file H.pbe-kjpaw_psl.0.1.UPF: wavefunction(s)  1S renormalized
               file O.pbe-n-kjpaw_psl.0.1.UPF: wavefunction(s)  2P renormalized

     -------------------------------------
     Parameters for Dispersion Correction:
     -------------------------------------
       atom      VdW radius       C_6     

        C          2.744         60.710
        N          2.640         42.670
        H          1.892          4.857
        O          2.536         24.284

     Subspace diagonalization in iterative solution of the eigenvalue problem:
     a serial algorithm will be used

 
     Parallelization info
     --------------------
     sticks:   dense  smooth     PW     G-vecs:    dense   smooth      PW
     Min         982     982    263                43350    43350    6025
     Max         983     983    264                43352    43352    6027
     Sum        7863    7863   2107               346809   346809   48207
 


     bravais-lattice index     =            0
     lattice parameter (alat)  =      10.1824  a.u.
     unit-cell volume          =    2565.7686 (a.u.)^3
     number of atoms/cell      =           44
     number of atomic types    =            4
     number of electrons       =       132.00
     number of Kohn-Sham states=           79
     kinetic-energy cutoff     =     100.0000  Ry
     charge density cutoff     =     400.0000  Ry
     convergence threshold     =      1.0E-08
     mixing beta               =       0.5000
     number of iterations used =            8  plain     mixing
     Exchange-correlation      =  SLA  PW   PBX  PBC ( 1  4  3  4 0 0)

     celldm(1)=  10.182411  celldm(2)=   0.000000  celldm(3)=   0.000000
     celldm(4)=   0.000000  celldm(5)=   0.000000  celldm(6)=   0.000000

     crystal axes: (cart. coord. in units of alat)
               a(1) = (   1.000000   0.000000   0.000000 )  
               a(2) = (   0.000000   2.377744   0.000000 )  
               a(3) = (  -0.461933   0.000000   1.022117 )  

     reciprocal axes: (cart. coord. in units 2 pi/alat)
               b(1) = (  1.000000  0.000000  0.451938 )  
               b(2) = (  0.000000  0.420567  0.000000 )  
               b(3) = (  0.000000  0.000000  0.978362 )  


     PseudoPot. # 1 for  C read from file:
     /scratch/ahofstet/pseudo/C.pbe-n-kjpaw_psl.0.1.UPF
     MD5 check sum: 430fe95172b1e11ef3f8ed03bac87931
     Pseudo is Projector augmented-wave + core cor, Zval =  4.0
     Generated using "atomic" code by A. Dal Corso  v.5.0.99 svn rev. 10869
     Shape of augmentation charge: BESSEL
     Using radial grid of 1073 points,  4 beta functions with: 
                l(1) =   0
                l(2) =   0
                l(3) =   1
                l(4) =   1
     Q(r) pseudized with 0 coefficients 


     PseudoPot. # 2 for  N read from file:
     /scratch/ahofstet/pseudo/N.pbe-n-kjpaw_psl.0.1.UPF
     MD5 check sum: f73187c8b701007e77325f868c9291d7
     Pseudo is Projector augmented-wave + core cor, Zval =  5.0
     Generated using "atomic" code by A. Dal Corso  v.5.0.99 svn rev. 10869
     Shape of augmentation charge: PSQ
     Using radial grid of 1085 points,  4 beta functions with: 
                l(1) =   0
                l(2) =   0
                l(3) =   1
                l(4) =   1
     Q(r) pseudized with 0 coefficients 


     PseudoPot. # 3 for  H read from file:
     /scratch/ahofstet/pseudo/H.pbe-kjpaw_psl.0.1.UPF
     MD5 check sum: 94e484f906d9e9773b2f6e52662335b2
     Pseudo is Projector augmented-wave, Zval =  1.0
     Generated using "atomic" code by A. Dal Corso  v.5.0.99 svn rev. 10869
     Shape of augmentation charge: PSQ
     Using radial grid of  929 points,  2 beta functions with: 
                l(1) =   0
                l(2) =   0
     Q(r) pseudized with 0 coefficients 


     PseudoPot. # 4 for  O read from file:
     /scratch/ahofstet/pseudo/O.pbe-n-kjpaw_psl.0.1.UPF
     MD5 check sum: 3f94a2996a3169367d6eb21d9b593f20
     Pseudo is Projector augmented-wave + core cor, Zval =  6.0
     Generated using "atomic" code by A. Dal Corso  v.5.0.99 svn rev. 10869
     Shape of augmentation charge: BESSEL
     Using radial grid of 1095 points,  4 beta functions with: 
                l(1) =   0
                l(2) =   0
                l(3) =   1
                l(4) =   1
     Q(r) pseudized with 0 coefficients 


     atomic species   valence    mass     pseudopotential
        C              4.00    12.01070      C( 1.00)
        N              5.00    14.00670      N( 1.00)
        H              1.00     1.00794      H( 1.00)
        O              6.00    15.99940      O( 1.00)

      2 Sym. Ops. (no inversion) found ( 1 have fractional translation)



   Cartesian axes

     site n.     atom                  positions (alat units)
         1           O   tau(   1) = (  -0.4667111   0.8875515   0.9679748  )
         2           O   tau(   2) = (   1.0047782   2.0764237   0.0541417  )
         3           O   tau(   3) = (  -0.2755491   1.3858803   0.8715612  )
         4           O   tau(   4) = (   0.8136161   0.1970081   0.1505554  )
         5           O   tau(   5) = (  -0.0024663   1.2403282   0.2046727  )
         6           O   tau(   6) = (   0.5405334   0.0514560   0.8174439  )
         7           O   tau(   7) = (   0.6765519   0.8527853   0.5787166  )
         8           O   tau(   8) = (  -0.1384848   2.0416574   0.4434000  )
         9           C   tau(   9) = (   0.2932384   1.0859479   0.6646528  )
        10           C   tau(  10) = (   0.2448286   2.2748200   0.3574637  )
        11           H   tau(  11) = (   0.1422579   0.9565858   0.6096836  )
        12           H   tau(  12) = (   0.3958091   2.1454580   0.4124329  )
        13           H   tau(  13) = (   0.3162153   1.2084372   0.5043199  )
        14           H   tau(  14) = (   0.2218517   2.3973094   0.5177966  )
        15           C   tau(  15) = (  -0.1559493   1.0650823   0.0824645  )
        16           C   tau(  16) = (   0.6940164   2.2539545   0.9396520  )
        17           H   tau(  17) = (  -0.2533195   0.9578658   0.2263141  )
        18           H   tau(  18) = (   0.7913866   2.1467379   0.7958025  )
        19           C   tau(  19) = (   0.5219250   0.9380369   0.7195942  )
        20           C   tau(  20) = (   0.0161421   2.1269091   0.3025223  )
        21           C   tau(  21) = (   0.6886560   1.2110872  -0.1125188  )
        22           C   tau(  22) = (  -0.1505889   2.3999594   1.1346353  )
        23           H   tau(  23) = (   0.4899072   1.1956133  -0.0778774  )
        24           H   tau(  24) = (   0.0481599   2.3844855   1.0999940  )
        25           C   tau(  25) = (   0.0218020   1.4476234   0.0470938  )
        26           C   tau(  26) = (   0.5162651   0.2587512   0.9750227  )
        27           H   tau(  27) = (   0.0916514   1.6028555   0.1595643  )
        28           H   tau(  28) = (   0.4464157   0.4139834   0.8625522  )
        29           C   tau(  29) = (   0.3140082   1.4844862   0.9387184  )
        30           C   tau(  30) = (   0.2240589   0.2956140   0.0833981  )
        31           H   tau(  31) = (   0.6462672   1.5913343   0.0303159  )
        32           H   tau(  32) = (  -0.1082001   0.4024621   0.9918006  )
        33           C   tau(  33) = (   0.6598495   1.5243325   0.6540650  )
        34           C   tau(  34) = (  -0.1217825   0.3354603   0.3680515  )
        35           H   tau(  35) = (  -0.3231264   1.3954295   0.4978046  )
        36           H   tau(  36) = (   0.8611935   0.2065573   0.5243119  )
        37           H   tau(  37) = (   0.7943619   1.6764746   0.6265180  )
        38           H   tau(  38) = (  -0.2562949   0.4876024   0.3955985  )
        39           C   tau(  39) = (   0.3912195   1.6239695   0.7001890  )
        40           C   tau(  40) = (   0.1468476   0.4350973   0.3219275  )
        41           H   tau(  41) = (   0.2645163   1.5896216   0.5441707  )
        42           H   tau(  42) = (   0.2735508   0.4007494   0.4779458  )
        43           H   tau(  43) = (   0.3930963   1.8235558   0.7369574  )
        44           H   tau(  44) = (   0.1449707   0.6346836   0.2851591  )

     number of k points=    14
                       cart. coord. in units 2pi/alat
        k(    1) = (   0.0000000   0.0000000   0.0000000), wk =   0.0833333
        k(    2) = (   0.0000000   0.0000000   0.3261207), wk =   0.1666667
        k(    3) = (   0.0000000  -0.2102833   0.0000000), wk =   0.0833333
        k(    4) = (   0.0000000  -0.2102833   0.3261207), wk =   0.1666667
        k(    5) = (   0.2500000   0.0000000   0.1129844), wk =   0.1666667
        k(    6) = (   0.2500000   0.0000000   0.4391051), wk =   0.1666667
        k(    7) = (   0.2500000   0.0000000  -0.2131363), wk =   0.1666667
        k(    8) = (   0.2500000  -0.2102833   0.1129844), wk =   0.1666667
        k(    9) = (   0.2500000  -0.2102833   0.4391051), wk =   0.1666667
        k(   10) = (   0.2500000  -0.2102833  -0.2131363), wk =   0.1666667
        k(   11) = (  -0.5000000   0.0000000  -0.2259688), wk =   0.0833333
        k(   12) = (  -0.5000000   0.0000000   0.1001519), wk =   0.1666667
        k(   13) = (  -0.5000000  -0.2102833  -0.2259688), wk =   0.0833333
        k(   14) = (  -0.5000000  -0.2102833   0.1001519), wk =   0.1666667

     Dense  grid:   346809 G-vectors     FFT dimensions: (  72, 160,  75)

     Estimated max dynamical RAM per process >     199.92MB

     Estimated total allocated dynamical RAM >    1599.35MB

     Check: negative/imaginary core charge=   -0.000002    0.000000

     Initial potential from superposition of free atoms

     starting charge  131.99913, renormalised to  132.00000
     Starting wfc are  116 randomized atomic wfcs
     Checking if some PAW data can be deallocated... 

     total cpu time spent up to now is       12.5 secs

     per-process dynamical memory:   217.3 Mb

     Self-consistent Calculation

     iteration #  1     ecut=   100.00 Ry     beta=0.50
     Davidson diagonalization with overlap
     ethr =  1.00E-02,  avg # of iterations =  3.6

     total cpu time spent up to now is       39.6 secs

     total energy              =    -651.38426132 Ry
     Harris-Foulkes estimate   =    -653.39471724 Ry
     estimated scf accuracy    <       3.99529405 Ry

     iteration #  2     ecut=   100.00 Ry     beta=0.50
     Davidson diagonalization with overlap
     ethr =  3.03E-03,  avg # of iterations =  2.1

     total cpu time spent up to now is       54.3 secs

     total energy              =    -651.61103411 Ry
     Harris-Foulkes estimate   =    -651.84783372 Ry
     estimated scf accuracy    <       0.52022276 Ry

     iteration #  3     ecut=   100.00 Ry     beta=0.50
     Davidson diagonalization with overlap
     ethr =  3.94E-04,  avg # of iterations =  5.1

     total cpu time spent up to now is       83.2 secs

     total energy              =    -651.97933261 Ry
     Harris-Foulkes estimate   =    -652.18160607 Ry
     estimated scf accuracy    <       0.55391106 Ry

     iteration #  4     ecut=   100.00 Ry     beta=0.50
     Davidson diagonalization with overlap
     ethr =  3.94E-04,  avg # of iterations =  1.4

     total cpu time spent up to now is       97.1 secs

     total energy              =    -651.87785998 Ry
     Harris-Foulkes estimate   =    -652.00728921 Ry
     estimated scf accuracy    <       0.18297076 Ry

     iteration #  5     ecut=   100.00 Ry     beta=0.50
     Davidson diagonalization with overlap
     ethr =  1.39E-04,  avg # of iterations =  4.9

     total cpu time spent up to now is      126.2 secs

     total energy              =    -652.01192056 Ry
     Harris-Foulkes estimate   =    -652.14920397 Ry
     estimated scf accuracy    <       0.41985530 Ry

     iteration #  6     ecut=   100.00 Ry     beta=0.50
     Davidson diagonalization with overlap
     ethr =  1.39E-04,  avg # of iterations =  1.1

     total cpu time spent up to now is      139.9 secs

     total energy              =    -651.93196717 Ry
     Harris-Foulkes estimate   =    -652.02360295 Ry
     estimated scf accuracy    <       0.17523380 Ry

     iteration #  7     ecut=   100.00 Ry     beta=0.50
     Davidson diagonalization with overlap
     ethr =  1.33E-04,  avg # of iterations =  5.1

     total cpu time spent up to now is      165.7 secs

     total energy              =    -652.01627439 Ry
     Harris-Foulkes estimate   =    -652.02525597 Ry
     estimated scf accuracy    <       0.02757979 Ry

     iteration #  8     ecut=   100.00 Ry     beta=0.50
     Davidson diagonalization with overlap
     ethr =  2.09E-05,  avg # of iterations =  1.9

     total cpu time spent up to now is      179.8 secs

     total energy              =    -652.01146543 Ry
     Harris-Foulkes estimate   =    -652.01708921 Ry
     estimated scf accuracy    <       0.01161061 Ry

     iteration #  9     ecut=   100.00 Ry     beta=0.50
     Davidson diagonalization with overlap
     ethr =  8.80E-06,  avg # of iterations =  5.4

     total cpu time spent up to now is      204.9 secs

     total energy              =    -652.01719736 Ry
     Harris-Foulkes estimate   =    -652.01739089 Ry
     estimated scf accuracy    <       0.00129864 Ry

     iteration # 10     ecut=   100.00 Ry     beta=0.50
     Davidson diagonalization with overlap
     ethr =  9.84E-07,  avg # of iterations =  1.4

     total cpu time spent up to now is      218.6 secs

     total energy              =    -652.01667256 Ry
     Harris-Foulkes estimate   =    -652.01721555 Ry
     estimated scf accuracy    <       0.00094720 Ry

     iteration # 11     ecut=   100.00 Ry     beta=0.50
     Davidson diagonalization with overlap
     ethr =  7.18E-07,  avg # of iterations =  3.0

     total cpu time spent up to now is      239.2 secs

     total energy              =    -652.01700203 Ry
     Harris-Foulkes estimate   =    -652.01702962 Ry
     estimated scf accuracy    <       0.00010002 Ry

     iteration # 12     ecut=   100.00 Ry     beta=0.50
     Davidson diagonalization with overlap
     ethr =  7.58E-08,  avg # of iterations =  1.0

     total cpu time spent up to now is      253.0 secs

     total energy              =    -652.01697051 Ry
     Harris-Foulkes estimate   =    -652.01700538 Ry
     estimated scf accuracy    <       0.00005290 Ry

     iteration # 13     ecut=   100.00 Ry     beta=0.50
     Davidson diagonalization with overlap
     ethr =  4.01E-08,  avg # of iterations =  4.0

     total cpu time spent up to now is      277.1 secs

     total energy              =    -652.01699859 Ry
     Harris-Foulkes estimate   =    -652.01700810 Ry
     estimated scf accuracy    <       0.00002576 Ry

     iteration # 14     ecut=   100.00 Ry     beta=0.50
     Davidson diagonalization with overlap
     ethr =  1.95E-08,  avg # of iterations =  1.0

     total cpu time spent up to now is      290.9 secs

     total energy              =    -652.01699402 Ry
     Harris-Foulkes estimate   =    -652.01699942 Ry
     estimated scf accuracy    <       0.00000955 Ry

     iteration # 15     ecut=   100.00 Ry     beta=0.50
     Davidson diagonalization with overlap
     ethr =  7.23E-09,  avg # of iterations =  4.0

     total cpu time spent up to now is      315.2 secs

     total energy              =    -652.01700043 Ry
     Harris-Foulkes estimate   =    -652.01700139 Ry
     estimated scf accuracy    <       0.00000397 Ry

     iteration # 16     ecut=   100.00 Ry     beta=0.50
     Davidson diagonalization with overlap
     ethr =  3.01E-09,  avg # of iterations =  1.0

     total cpu time spent up to now is      328.7 secs

     total energy              =    -652.01699929 Ry
     Harris-Foulkes estimate   =    -652.01700048 Ry
     estimated scf accuracy    <       0.00000231 Ry

     iteration # 17     ecut=   100.00 Ry     beta=0.50
     Davidson diagonalization with overlap
     ethr =  1.75E-09,  avg # of iterations =  3.9

     total cpu time spent up to now is      350.1 secs

     total energy              =    -652.01700016 Ry
     Harris-Foulkes estimate   =    -652.01700022 Ry
     estimated scf accuracy    <       0.00000017 Ry

     iteration # 18     ecut=   100.00 Ry     beta=0.50
     Davidson diagonalization with overlap
     ethr =  1.29E-10,  avg # of iterations =  1.1

     total cpu time spent up to now is      363.8 secs

     total energy              =    -652.01700013 Ry
     Harris-Foulkes estimate   =    -652.01700017 Ry
     estimated scf accuracy    <       0.00000007 Ry

     iteration # 19     ecut=   100.00 Ry     beta=0.50
     Davidson diagonalization with overlap
     ethr =  5.35E-11,  avg # of iterations =  4.0

     total cpu time spent up to now is      387.2 secs

     total energy              =    -652.01700017 Ry
     Harris-Foulkes estimate   =    -652.01700018 Ry
     estimated scf accuracy    <       0.00000002 Ry

     iteration # 20     ecut=   100.00 Ry     beta=0.50
     Davidson diagonalization with overlap
     ethr =  1.16E-11,  avg # of iterations =  2.0

     total cpu time spent up to now is      401.5 secs

     End of self-consistent calculation

          k = 0.0000 0.0000 0.0000 ( 43297 PWs)   bands (ev):

   -21.2220 -21.2101 -20.2767 -20.2573 -19.0488 -19.0446 -18.5020 -18.5004
   -13.6101 -13.5886 -12.1718 -12.1318 -11.6838 -11.6135 -11.0077 -10.9523
    -8.8625  -8.8099  -7.9899  -7.9285  -7.5912  -7.5746  -7.3288  -7.2118
    -6.5586  -6.4665  -5.8179  -5.7510  -5.2630  -4.9856  -4.9842  -4.8085
    -4.7481  -4.5837  -4.4196  -4.2452  -4.0437  -3.9480  -3.6147  -3.4301
    -3.4112  -3.2861  -2.7745  -2.7316  -2.5063  -2.4385  -2.2552  -2.0223
    -1.7084  -1.7077  -1.5577  -1.5399  -1.3056  -1.2438  -1.0263  -0.9710
    -0.9646  -0.8670  -0.7052  -0.6479  -0.3614  -0.3116   0.2127   0.2808
     0.7954   0.8425   5.7779   5.7943   6.4689   7.0277   7.7014   7.8814
     8.3978   8.6636   8.6858   8.7756   8.7901   8.9416   9.2671

          k = 0.0000 0.0000 0.3261 ( 43321 PWs)   bands (ev):

   -21.2042 -21.1943 -20.2784 -20.2657 -19.0867 -19.0697 -18.5056 -18.4909
   -13.6407 -13.6086 -12.1669 -12.0928 -11.6680 -11.6249 -10.9065 -10.8754
    -8.7513  -8.7280  -7.9808  -7.9046  -7.5697  -7.5587  -7.1887  -7.1308
    -6.8197  -6.6678  -5.8359  -5.7603  -5.3529  -5.3435  -4.9697  -4.9298
    -4.7923  -4.6236  -4.3915  -4.3021  -4.0949  -3.9130  -3.5901  -3.5107
    -3.1979  -3.1499  -2.9331  -2.8389  -2.6528  -2.2647  -2.1557  -1.9713
    -1.7154  -1.7116  -1.5564  -1.5030  -1.2965  -1.1576  -1.1212  -1.0393
    -1.0153  -0.9639  -0.8292  -0.6547  -0.1827  -0.1353   0.4863   0.5357
     0.8341   0.8595   5.7848   5.8058   6.5335   6.9083   7.3445   7.8617
     8.0373   8.1950   8.3566   8.6003   8.9099   8.9923   9.0614

          k = 0.0000-0.2103 0.0000 ( 43354 PWs)   bands (ev):

   -21.2161 -21.2161 -20.2670 -20.2670 -19.0467 -19.0467 -18.5012 -18.5012
   -13.5995 -13.5995 -12.1518 -12.1518 -11.6498 -11.6498 -10.9785 -10.9785
    -8.8386  -8.8386  -7.9570  -7.9570  -7.5869  -7.5869  -7.2650  -7.2650
    -6.5206  -6.5206  -5.7835  -5.7835  -5.1234  -5.1234  -4.8874  -4.8874
    -4.6766  -4.6766  -4.3399  -4.3399  -4.0000  -4.0000  -3.5164  -3.5164
    -3.3534  -3.3534  -2.7414  -2.7414  -2.4643  -2.4643  -2.1437  -2.1437
    -1.7165  -1.7165  -1.5352  -1.5352  -1.2789  -1.2789  -1.0205  -1.0205
    -0.8721  -0.8721  -0.6937  -0.6937  -0.3418  -0.3418   0.2473   0.2473
     0.8200   0.8200   5.7866   5.7866   6.6965   6.6965   7.8358   7.8358
     8.4973   8.4973   8.7482   8.7482   8.9439   8.9439   9.3569

          k = 0.0000-0.2103 0.3261 ( 43314 PWs)   bands (ev):

   -21.1993 -21.1993 -20.2720 -20.2720 -19.0783 -19.0783 -18.4981 -18.4981
   -13.6249 -13.6249 -12.1298 -12.1298 -11.6467 -11.6467 -10.8904 -10.8904
    -8.7404  -8.7404  -7.9425  -7.9425  -7.5659  -7.5659  -7.1580  -7.1580
    -6.7469  -6.7469  -5.8008  -5.8008  -5.3315  -5.3315  -4.9244  -4.9244
    -4.7568  -4.7568  -4.3668  -4.3668  -3.9714  -3.9714  -3.5596  -3.5596
    -3.1783  -3.1783  -2.8652  -2.8652  -2.4904  -2.4904  -2.0604  -2.0604
    -1.7007  -1.7007  -1.5299  -1.5299  -1.2279  -1.2279  -1.0882  -1.0882
    -0.9836  -0.9836  -0.7277  -0.7277  -0.1596  -0.1596   0.5113   0.5113
     0.8450   0.8450   5.7946   5.7946   6.7050   6.7050   7.5374   7.5374
     8.1282   8.1282   8.6034   8.6034   8.8657   8.8657   9.2653

          k = 0.2500 0.0000 0.1130 ( 43320 PWs)   bands (ev):

   -21.2167 -21.2051 -20.2743 -20.2554 -19.0510 -19.0473 -18.5019 -18.5006
   -13.6979 -13.6656 -12.1667 -12.0896 -11.6983 -11.6246 -10.9779 -10.8927
    -8.8466  -8.8028  -8.0655  -7.9903  -7.4997  -7.4683  -7.1634  -7.0547
    -6.5468  -6.4392  -5.8073  -5.7464  -5.2292  -5.0606  -4.9911  -4.8814
    -4.7352  -4.6182  -4.5616  -4.3098  -4.1995  -4.0913  -3.4837  -3.4493
    -3.3061  -3.2723  -2.8914  -2.7832  -2.7268  -2.3973  -2.0862  -1.9164
    -1.7947  -1.6534  -1.5987  -1.5339  -1.2944  -1.1955  -1.1374  -1.0738
    -0.8486  -0.7893  -0.6477  -0.5041  -0.2610  -0.2523   0.2020   0.2470
     0.7637   0.8048   5.5753   5.5757   6.7566   7.2250   7.8608   7.9844
     8.2154   8.2816   8.5764   8.6145   8.7735   9.0012   9.0167

          k = 0.2500 0.0000 0.4391 ( 43306 PWs)   bands (ev):

   -21.2001 -21.1903 -20.2755 -20.2632 -19.0883 -19.0717 -18.5054 -18.4909
   -13.7103 -13.6746 -12.1559 -12.0672 -11.6726 -11.6262 -10.8998 -10.8377
    -8.7526  -8.7263  -8.0265  -7.9462  -7.5234  -7.4826  -7.0667  -7.0208
    -6.7892  -6.6238  -5.8626  -5.7903  -5.3686  -5.2630  -5.0584  -4.9013
    -4.7635  -4.6498  -4.4821  -4.3848  -4.1232  -3.9495  -3.4943  -3.4012
    -3.2611  -3.1752  -2.9794  -2.8967  -2.8024  -2.3498  -2.0473  -1.9138
    -1.7691  -1.7217  -1.6370  -1.5893  -1.3466  -1.1591  -1.0926  -1.0099
    -0.8290  -0.7993  -0.7320  -0.6050  -0.1805  -0.1235   0.5004   0.5456
     0.7676   0.8139   5.5893   5.6102   6.8961   6.9562   7.3913   7.7038
     7.9963   8.2190   8.4734   8.5613   8.6681   8.8415   9.0558

          k = 0.2500 0.0000-0.2131 ( 43344 PWs)   bands (ev):

   -21.2036 -21.1935 -20.2745 -20.2613 -19.0861 -19.0701 -18.5049 -18.4909
   -13.6661 -13.6449 -12.1455 -12.1079 -11.6394 -11.6011 -10.9458 -10.9222
    -8.8099  -8.7447  -7.9964  -7.9159  -7.5149  -7.4548  -7.2550  -7.1556
    -6.8218  -6.6458  -5.8692  -5.7563  -5.3460  -5.2680  -4.9097  -4.8184
    -4.7783  -4.5993  -4.2768  -4.2148  -4.0134  -3.9553  -3.5480  -3.4782
    -3.3077  -3.2104  -2.9851  -2.9227  -2.6389  -2.3632  -2.0614  -1.9395
    -1.7865  -1.7334  -1.5849  -1.5421  -1.3753  -1.3420  -1.1561  -1.1006
    -0.8380  -0.7476  -0.6644  -0.5552  -0.2002  -0.1547   0.4281   0.5006
     0.7917   0.8156   5.6145   5.6320   6.6863   7.1478   7.5665   7.9081
     8.1410   8.2791   8.3669   8.5860   8.7259   8.9104   9.0224

          k = 0.2500-0.2103 0.1130 ( 43318 PWs)   bands (ev):

   -21.2110 -21.2110 -20.2648 -20.2648 -19.0491 -19.0491 -18.5012 -18.5012
   -13.6821 -13.6821 -12.1281 -12.1281 -11.6635 -11.6635 -10.9331 -10.9331
    -8.8262  -8.8262  -8.0276  -8.0276  -7.4853  -7.4853  -7.1064  -7.1064
    -6.4948  -6.4948  -5.7878  -5.7878  -5.0752  -5.0752  -4.9739  -4.9739
    -4.7436  -4.7436  -4.3941  -4.3941  -4.1572  -4.1572  -3.4172  -3.4172
    -3.3328  -3.3328  -2.8330  -2.8330  -2.5657  -2.5657  -2.0066  -2.0066
    -1.7114  -1.7114  -1.5786  -1.5786  -1.2257  -1.2257  -1.1134  -1.1134
    -0.8116  -0.8116  -0.5759  -0.5759  -0.2591  -0.2591   0.2227   0.2227
     0.7856   0.7856   5.5756   5.5756   6.9529   6.9529   7.9279   7.9279
     8.3610   8.3610   8.5877   8.5877   8.7451   8.7451   9.1433

          k = 0.2500-0.2103 0.4391 ( 43288 PWs)   bands (ev):

   -21.1952 -21.1952 -20.2693 -20.2693 -19.0801 -19.0801 -18.4980 -18.4980
   -13.6929 -13.6929 -12.1115 -12.1115 -11.6502 -11.6502 -10.8677 -10.8677
    -8.7399  -8.7399  -7.9870  -7.9870  -7.5028  -7.5028  -7.0468  -7.0468
    -6.7044  -6.7044  -5.8327  -5.8327  -5.2977  -5.2977  -4.9604  -4.9604
    -4.7636  -4.7636  -4.4308  -4.4308  -4.0153  -4.0153  -3.4521  -3.4521
    -3.2261  -3.2261  -2.9334  -2.9334  -2.5736  -2.5736  -1.9984  -1.9984
    -1.7589  -1.7589  -1.5898  -1.5898  -1.2264  -1.2264  -1.0700  -1.0700
    -0.8112  -0.8112  -0.6607  -0.6607  -0.1525  -0.1525   0.5245   0.5245
     0.7887   0.7887   5.5999   5.5999   6.9271   6.9271   7.5598   7.5598
     8.0169   8.0169   8.5602   8.5602   8.7479   8.7479   9.2857

          k = 0.2500-0.2103-0.2131 ( 43354 PWs)   bands (ev):

   -21.1986 -21.1986 -20.2679 -20.2679 -19.0782 -19.0782 -18.4978 -18.4978
   -13.6556 -13.6556 -12.1267 -12.1267 -11.6203 -11.6203 -10.9338 -10.9338
    -8.7798  -8.7798  -7.9560  -7.9560  -7.4824  -7.4824  -7.2095  -7.2095
    -6.7346  -6.7346  -5.8131  -5.8131  -5.2918  -5.2918  -4.8501  -4.8501
    -4.7264  -4.7264  -4.2301  -4.2301  -3.9961  -3.9961  -3.5106  -3.5106
    -3.2650  -3.2650  -2.9493  -2.9493  -2.5165  -2.5165  -1.9514  -1.9514
    -1.7570  -1.7570  -1.5942  -1.5942  -1.3573  -1.3573  -1.1415  -1.1415
    -0.7824  -0.7824  -0.6039  -0.6039  -0.1776  -0.1776   0.4638   0.4638
     0.8025   0.8025   5.6236   5.6236   6.8679   6.8679   7.7399   7.7399
     8.1921   8.1921   8.5837   8.5837   8.8165   8.8166   9.1458

          k =-0.5000 0.0000-0.2260 ( 43360 PWs)   bands (ev):

   -21.2115 -21.2001 -20.2718 -20.2536 -19.0531 -19.0501 -18.5017 -18.5008
   -13.7787 -13.7395 -12.1608 -12.0546 -11.7134 -11.6361 -10.9447 -10.8334
    -8.8254  -8.8116  -8.1388  -8.0434  -7.4273  -7.4070  -6.9659  -6.8155
    -6.5093  -6.3823  -5.8539  -5.8058  -5.2090  -5.0567  -5.0399  -4.8537
    -4.7394  -4.6753  -4.5614  -4.5454  -4.3315  -4.0827  -3.5118  -3.3828
    -3.3769  -3.2701  -3.0760  -2.9806  -2.7344  -2.4072  -1.9085  -1.8882
    -1.7582  -1.7200  -1.5120  -1.4975  -1.4013  -1.1280  -1.1043  -1.0676
    -0.7054  -0.6743  -0.6099  -0.4512  -0.2204  -0.2099   0.1659   0.1982
     0.7595   0.7764   5.3807   5.4010   7.1858   7.3340   7.6620   7.8871
     7.9926   8.1058   8.5349   8.6037   8.7170   8.8106   9.1105

          k =-0.5000 0.0000 0.1002 ( 43373 PWs)   bands (ev):

   -21.1995 -21.1896 -20.2716 -20.2589 -19.0877 -19.0720 -18.5048 -18.4909
   -13.7347 -13.7080 -12.1400 -12.0820 -11.6438 -11.6020 -10.9397 -10.8802
    -8.8250  -8.7537  -8.0341  -7.9487  -7.4914  -7.3930  -7.1035  -7.0187
    -6.8012  -6.6377  -5.8708  -5.7734  -5.3185  -5.1549  -4.9875  -4.7562
    -4.6796  -4.6203  -4.4098  -4.3652  -4.0536  -3.9711  -3.5183  -3.4584
    -3.3587  -3.3241  -3.1214  -3.0815  -2.6966  -2.3645  -1.9432  -1.8874
    -1.7151  -1.6334  -1.6031  -1.5364  -1.3590  -1.3051  -1.1960  -1.1661
    -0.7259  -0.6834  -0.5900  -0.5014  -0.1817  -0.1185   0.4301   0.4973
     0.7303   0.7668   5.4251   5.4371   7.0964   7.3017   7.5522   7.8640
     8.0658   8.2263   8.3072   8.4493   8.5872   8.7624   8.9403

          k =-0.5000-0.2103-0.2260 ( 43312 PWs)   bands (ev):

   -21.2058 -21.2058 -20.2627 -20.2627 -19.0516 -19.0516 -18.5013 -18.5013
   -13.7596 -13.7596 -12.1079 -12.1079 -11.6774 -11.6774 -10.8861 -10.8861
    -8.8188  -8.8188  -8.0919  -8.0919  -7.4185  -7.4185  -6.8926  -6.8926
    -6.4414  -6.4414  -5.8381  -5.8381  -5.0968  -5.0968  -4.9330  -4.9330
    -4.7976  -4.7976  -4.5153  -4.5153  -4.2263  -4.2263  -3.4150  -3.4150
    -3.3248  -3.3248  -3.0104  -3.0104  -2.5949  -2.5949  -1.9210  -1.9210
    -1.7393  -1.7393  -1.5094  -1.5094  -1.2452  -1.2452  -1.0726  -1.0726
    -0.6848  -0.6848  -0.5381  -0.5381  -0.2135  -0.2135   0.1823   0.1823
     0.7682   0.7682   5.3910   5.3910   7.2548   7.2548   7.7681   7.7681
     8.1284   8.1284   8.4958   8.4958   8.7032   8.7032   9.1178

          k =-0.5000-0.2103 0.1002 ( 43354 PWs)   bands (ev):

   -21.1946 -21.1946 -20.2652 -20.2652 -19.0800 -19.0800 -18.4977 -18.4977
   -13.7216 -13.7216 -12.1108 -12.1108 -11.6237 -11.6237 -10.9092 -10.9092
    -8.7918  -8.7918  -7.9918  -7.9918  -7.4392  -7.4392  -7.0688  -7.0688
    -6.7136  -6.7136  -5.8263  -5.8263  -5.2391  -5.2391  -4.8413  -4.8413
    -4.6929  -4.6929  -4.3637  -4.3637  -4.0277  -4.0277  -3.4639  -3.4639
    -3.3660  -3.3660  -3.1023  -3.1023  -2.5320  -2.5320  -1.8839  -1.8839
    -1.6751  -1.6751  -1.5918  -1.5918  -1.3211  -1.3211  -1.1897  -1.1897
    -0.7108  -0.7108  -0.5363  -0.5363  -0.1484  -0.1484   0.4642   0.4642
     0.7466   0.7466   5.4317   5.4317   7.1976   7.1976   7.6501   7.6501
     8.1648   8.1648   8.3359   8.3359   8.8294   8.8294   9.1041

     highest occupied, lowest unoccupied level (ev):     0.8595    5.3807

!    total energy              =    -652.01700017 Ry
     Harris-Foulkes estimate   =    -652.01700017 Ry
     estimated scf accuracy    <          2.7E-09 Ry

     total all-electron energy =     -2447.017676 Ry

     The total energy is the sum of the following terms:

     one-electron contribution =    -404.00372333 Ry
     hartree contribution      =     255.75193495 Ry
     xc contribution           =    -140.28845079 Ry
     ewald contribution        =    -180.72998911 Ry
     Dispersion Correction     =      -0.20765957 Ry
     one-center paw contrib.   =    -182.53911232 Ry

     convergence has been achieved in  20 iterations

     Forces acting on atoms (cartesian axes, Ry/au):

     atom    1 type  4   force =     0.00438744    0.00995583   -0.00394812
     atom    2 type  4   force =    -0.00438744    0.00995583    0.00394812
     atom    3 type  4   force =     0.00783521    0.00544852    0.00811666
     atom    4 type  4   force =    -0.00783521    0.00544852   -0.00811666
     atom    5 type  4   force =     0.00281925   -0.00604566   -0.00196384
     atom    6 type  4   force =    -0.00281925   -0.00604566    0.00196384
     atom    7 type  4   force =    -0.00621466   -0.00042644    0.00665557
     atom    8 type  4   force =     0.00621466   -0.00042644   -0.00665557
     atom    9 type  1   force =    -0.01212405   -0.00644188   -0.00784999
     atom   10 type  1   force =     0.01212405   -0.00644188    0.00784999
     atom   11 type  3   force =     0.01104749    0.00231078    0.00373274
     atom   12 type  3   force =    -0.01104749    0.00231078   -0.00373274
     atom   13 type  3   force =     0.00293998   -0.00235864    0.00400534
     atom   14 type  3   force =    -0.00293998   -0.00235864   -0.00400534
     atom   15 type  1   force =    -0.00927321    0.00102635    0.00036969
     atom   16 type  1   force =     0.00927321    0.00102635   -0.00036969
     atom   17 type  3   force =     0.00163344    0.00855474   -0.00739643
     atom   18 type  3   force =    -0.00163344    0.00855474    0.00739643
     atom   19 type  1   force =     0.00539233   -0.01601532    0.00221213
     atom   20 type  1   force =    -0.00539233   -0.01601532   -0.00221213
     atom   21 type  1   force =     0.00253470   -0.00531834    0.00592015
     atom   22 type  1   force =    -0.00253470   -0.00531834   -0.00592015
     atom   23 type  3   force =     0.00558185    0.00151341    0.00278476
     atom   24 type  3   force =    -0.00558185    0.00151341   -0.00278476
     atom   25 type  1   force =    -0.00151633   -0.00468789    0.00175822
     atom   26 type  1   force =     0.00151633   -0.00468789   -0.00175822
     atom   27 type  3   force =     0.00001270    0.00185293    0.00081387
     atom   28 type  3   force =    -0.00001270    0.00185293   -0.00081387
     atom   29 type  1   force =    -0.00183003    0.00816837   -0.01568777
     atom   30 type  1   force =     0.00183003    0.00816837    0.01568777
     atom   31 type  3   force =    -0.00536086    0.00124483    0.00016864
     atom   32 type  3   force =     0.00536086    0.00124483   -0.00016864
     atom   33 type  1   force =    -0.00859074    0.01937246   -0.00192416
     atom   34 type  1   force =     0.00859074    0.01937246    0.00192416
     atom   35 type  3   force =    -0.00367303    0.00094502   -0.00437883
     atom   36 type  3   force =     0.00367303    0.00094502    0.00437883
     atom   37 type  3   force =    -0.00803343   -0.00418753    0.00091592
     atom   38 type  3   force =     0.00803343   -0.00418753   -0.00091592
     atom   39 type  1   force =     0.00445454   -0.01458614    0.00587525
     atom   40 type  1   force =    -0.00445454   -0.01458614   -0.00587525
     atom   41 type  3   force =     0.00154747   -0.00169770    0.00057609
     atom   42 type  3   force =    -0.00154747   -0.00169770   -0.00057609
     atom   43 type  3   force =     0.00087730    0.00137232   -0.00016830
     atom   44 type  3   force =    -0.00087730    0.00137232    0.00016830

     Total force =     0.073292     Total SCF correction =     0.000094


     Computing stress (Cartesian axis) and pressure

          total   stress  (Ry/bohr**3)                   (kbar)     P=    8.42
   0.00007587   0.00000000   0.00001240         11.16      0.00      1.82
   0.00000000   0.00003239   0.00000000          0.00      4.76      0.00
   0.00001240   0.00000000   0.00006339          1.82      0.00      9.33


     Writing output data file scf.save
 
     init_run     :     11.64s CPU     12.02s WALL (       1 calls)
     electrons    :    376.96s CPU    388.98s WALL (       1 calls)
     forces       :      5.46s CPU      5.49s WALL (       1 calls)
     stress       :     18.67s CPU     18.70s WALL (       1 calls)

     Called by init_run:
     wfcinit      :      7.54s CPU      7.88s WALL (       1 calls)
     potinit      :      1.47s CPU      1.48s WALL (       1 calls)

     Called by electrons:
     c_bands      :    325.63s CPU    336.38s WALL (      20 calls)
     sum_band     :     44.33s CPU     45.45s WALL (      20 calls)
     v_of_rho     :      1.11s CPU      1.22s WALL (      21 calls)
     newd         :      1.89s CPU      1.92s WALL (      21 calls)
     PAW_pot      :      3.54s CPU      3.54s WALL (      21 calls)
     mix_rho      :      0.28s CPU      0.31s WALL (      20 calls)

     Called by c_bands:
     init_us_2    :      3.88s CPU      3.89s WALL (     602 calls)
     cegterg      :    313.41s CPU    324.12s WALL (     280 calls)

     Called by sum_band:
     sum_band:bec :      0.04s CPU      0.04s WALL (     280 calls)
     addusdens    :      2.09s CPU      2.10s WALL (      20 calls)

     Called by *egterg:
     h_psi        :    222.22s CPU    232.95s WALL (    1090 calls)
     s_psi        :     19.26s CPU     19.25s WALL (    1090 calls)
     g_psi        :      1.59s CPU      1.58s WALL (     796 calls)
     cdiaghg      :     13.24s CPU     13.23s WALL (    1076 calls)

     Called by h_psi:
     h_psi:pot    :    220.46s CPU    231.17s WALL (    1090 calls)
     h_psi:calbec :     18.69s CPU     18.78s WALL (    1090 calls)
     vloc_psi     :    182.62s CPU    193.22s WALL (    1090 calls)
     add_vuspsi   :     19.15s CPU     19.16s WALL (    1090 calls)

     General routines
     calbec       :     27.88s CPU     28.01s WALL (    1440 calls)
     fft          :      1.00s CPU      1.19s WALL (     297 calls)
     fftw         :    196.75s CPU    207.90s WALL (  149888 calls)
 
     Parallel routines
     fft_scatter  :     46.38s CPU     52.68s WALL (  150185 calls)
 
     PWSCF        :  6m56.17s CPU     7m 9.87s WALL

 
   This run was terminated on:  18:26:20  21Dec2017            

=------------------------------------------------------------------------------=
   JOB DONE.
=------------------------------------------------------------------------------=
