
     Program PWSCF v.6.1 (svn rev. 13369) starts on  4Nov2017 at 18:25:22 

     This program is part of the open-source Quantum ESPRESSO suite
     for quantum simulation of materials; please cite
         "P. Giannozzi et al., J. Phys.:Condens. Matter 21 395502 (2009);
          URL http://www.quantum-espresso.org", 
     in publications or presentations arising from this work. More details at
     http://www.quantum-espresso.org/quote

     Parallel version (MPI), running on     8 processors
     R & G space division:  proc/nbgrp/npool/nimage =       8
     Waiting for input...
     Reading input from standard input

     Current dimensions of program PWSCF are:
     Max number of different atomic species (ntypx) = 10
     Max number of k-points (npk) =  40000
     Max angular momentum in pseudopotentials (lmaxx) =  3
               file C.pbe-n-kjpaw_psl.0.1.UPF: wavefunction(s)  2P renormalized
               file N.pbe-n-kjpaw_psl.0.1.UPF: wavefunction(s)  2P renormalized
               file H.pbe-kjpaw_psl.0.1.UPF: wavefunction(s)  1S renormalized
               file O.pbe-n-kjpaw_psl.0.1.UPF: wavefunction(s)  2P renormalized

     -------------------------------------
     Parameters for Dispersion Correction:
     -------------------------------------
       atom      VdW radius       C_6     

        C          2.744         60.710
        N          2.640         42.670
        H          1.892          4.857
        O          2.536         24.284

     Subspace diagonalization in iterative solution of the eigenvalue problem:
     a serial algorithm will be used

 
     Parallelization info
     --------------------
     sticks:   dense  smooth     PW     G-vecs:    dense   smooth      PW
     Min        1180    1180    311               130091   130091   17603
     Max        1182    1182    312               130094   130094   17607
     Sum        9445    9445   2491              1040739  1040739  140839
 


     bravais-lattice index     =            0
     lattice parameter (alat)  =      26.3806  a.u.
     unit-cell volume          =    7703.6346 (a.u.)^3
     number of atoms/cell      =          112
     number of atomic types    =            4
     number of electrons       =       352.00
     number of Kohn-Sham states=          211
     kinetic-energy cutoff     =     100.0000  Ry
     charge density cutoff     =     400.0000  Ry
     convergence threshold     =      1.0E-08
     mixing beta               =       0.5000
     number of iterations used =            8  plain     mixing
     Exchange-correlation      =  SLA  PW   PBX  PBC ( 1  4  3  4 0 0)

     celldm(1)=  26.380577  celldm(2)=   0.000000  celldm(3)=   0.000000
     celldm(4)=   0.000000  celldm(5)=   0.000000  celldm(6)=   0.000000

     crystal axes: (cart. coord. in units of alat)
               a(1) = (   1.000000   0.000000   0.000000 )  
               a(2) = (   0.000000   0.426504   0.000000 )  
               a(3) = (  -0.252970   0.000000   0.983829 )  

     reciprocal axes: (cart. coord. in units 2 pi/alat)
               b(1) = (  1.000000  0.000000  0.257128 )  
               b(2) = (  0.000000  2.344642  0.000000 )  
               b(3) = (  0.000000  0.000000  1.016437 )  


     PseudoPot. # 1 for  C read from file:
     /scratch/ahofstet/pseudo/C.pbe-n-kjpaw_psl.0.1.UPF
     MD5 check sum: 430fe95172b1e11ef3f8ed03bac87931
     Pseudo is Projector augmented-wave + core cor, Zval =  4.0
     Generated using "atomic" code by A. Dal Corso  v.5.0.99 svn rev. 10869
     Shape of augmentation charge: BESSEL
     Using radial grid of 1073 points,  4 beta functions with: 
                l(1) =   0
                l(2) =   0
                l(3) =   1
                l(4) =   1
     Q(r) pseudized with 0 coefficients 


     PseudoPot. # 2 for  N read from file:
     /scratch/ahofstet/pseudo/N.pbe-n-kjpaw_psl.0.1.UPF
     MD5 check sum: f73187c8b701007e77325f868c9291d7
     Pseudo is Projector augmented-wave + core cor, Zval =  5.0
     Generated using "atomic" code by A. Dal Corso  v.5.0.99 svn rev. 10869
     Shape of augmentation charge: PSQ
     Using radial grid of 1085 points,  4 beta functions with: 
                l(1) =   0
                l(2) =   0
                l(3) =   1
                l(4) =   1
     Q(r) pseudized with 0 coefficients 


     PseudoPot. # 3 for  H read from file:
     /scratch/ahofstet/pseudo/H.pbe-kjpaw_psl.0.1.UPF
     MD5 check sum: 94e484f906d9e9773b2f6e52662335b2
     Pseudo is Projector augmented-wave, Zval =  1.0
     Generated using "atomic" code by A. Dal Corso  v.5.0.99 svn rev. 10869
     Shape of augmentation charge: PSQ
     Using radial grid of  929 points,  2 beta functions with: 
                l(1) =   0
                l(2) =   0
     Q(r) pseudized with 0 coefficients 


     PseudoPot. # 4 for  O read from file:
     /scratch/ahofstet/pseudo/O.pbe-n-kjpaw_psl.0.1.UPF
     MD5 check sum: 3f94a2996a3169367d6eb21d9b593f20
     Pseudo is Projector augmented-wave + core cor, Zval =  6.0
     Generated using "atomic" code by A. Dal Corso  v.5.0.99 svn rev. 10869
     Shape of augmentation charge: BESSEL
     Using radial grid of 1095 points,  4 beta functions with: 
                l(1) =   0
                l(2) =   0
                l(3) =   1
                l(4) =   1
     Q(r) pseudized with 0 coefficients 


     atomic species   valence    mass     pseudopotential
        C              4.00    12.01070      C( 1.00)
        N              5.00    14.00670      N( 1.00)
        H              1.00     1.00794      H( 1.00)
        O              6.00    15.99940      O( 1.00)

      2 Sym. Ops., with inversion, found



   Cartesian axes

     site n.     atom                  positions (alat units)
         1           C   tau(   1) = (   0.4915384   0.1670536   0.6541900  )
         2           C   tau(   2) = (  -0.0084338   0.3802932   0.6542139  )
         3           C   tau(   3) = (   0.6180106   0.2594462   0.1622755  )
         4           C   tau(   4) = (   0.1180625   0.0462025   0.1622793  )
         5           C   tau(   5) = (   0.2554913   0.2594507   0.3296385  )
         6           C   tau(   6) = (   0.7554635   0.0462111   0.3296146  )
         7           C   tau(   7) = (   0.1290191   0.1670581   0.8215530  )
         8           C   tau(   8) = (   0.6289672   0.3803018   0.8215492  )
         9           H   tau(   9) = (   0.4694213   0.2330977   0.6891744  )
        10           H   tau(  10) = (  -0.0305466   0.0198366   0.6891956  )
        11           H   tau(  11) = (   0.5958943   0.1933975   0.1972542  )
        12           H   tau(  12) = (   0.0959508   0.4066564   0.1972543  )
        13           H   tau(  13) = (   0.2776084   0.1934066   0.2946541  )
        14           H   tau(  14) = (   0.7775763   0.4066677   0.2946329  )
        15           H   tau(  15) = (   0.1511353   0.2331068   0.7865744  )
        16           H   tau(  16) = (   0.6510789   0.0198479   0.7865742  )
        17           C   tau(  17) = (   0.4333298   0.0986509   0.6158715  )
        18           C   tau(  18) = (  -0.0666278   0.3118854   0.6159021  )
        19           C   tau(  19) = (   0.5598030   0.3278545   0.1239691  )
        20           C   tau(  20) = (   0.0598671   0.1146154   0.1239766  )
        21           C   tau(  21) = (   0.3136999   0.3278534   0.3679571  )
        22           C   tau(  22) = (   0.8136575   0.1146189   0.3679264  )
        23           C   tau(  23) = (   0.1872267   0.0986498   0.8598594  )
        24           C   tau(  24) = (   0.6871626   0.3118889   0.8598519  )
        25           H   tau(  25) = (   0.3557784   0.0980989   0.6110145  )
        26           H   tau(  26) = (  -0.1441811   0.3113264   0.6110410  )
        27           H   tau(  27) = (   0.4822515   0.3284056   0.1191052  )
        28           H   tau(  28) = (  -0.0176858   0.1151746   0.1191111  )
        29           H   tau(  29) = (   0.3912513   0.3284054   0.3728140  )
        30           H   tau(  30) = (   0.8912108   0.1151779   0.3727875  )
        31           H   tau(  31) = (   0.2647782   0.0980987   0.8647233  )
        32           H   tau(  32) = (   0.7647154   0.3113297   0.8647174  )
        33           C   tau(  33) = (   0.4927160   0.0197853   0.5775472  )
        34           C   tau(  34) = (  -0.0072371   0.2330287   0.5775839  )
        35           C   tau(  35) = (   0.6191903   0.4067153   0.0856592  )
        36           C   tau(  36) = (   0.1192560   0.1934887   0.0856665  )
        37           C   tau(  37) = (   0.2543137   0.4067190   0.4062813  )
        38           C   tau(  38) = (   0.7542668   0.1934756   0.4062446  )
        39           C   tau(  39) = (   0.1278394   0.0197890   0.8981693  )
        40           C   tau(  40) = (   0.6277737   0.2330156   0.8981620  )
        41           O   tau(  41) = (   0.4704950   0.3697359   0.5413571  )
        42           O   tau(  42) = (  -0.0294609   0.1564616   0.5413878  )
        43           O   tau(  43) = (   0.5969662   0.0567827   0.0494656  )
        44           O   tau(  44) = (   0.0970360   0.2700406   0.0494881  )
        45           O   tau(  45) = (   0.2765347   0.0567684   0.4424714  )
        46           O   tau(  46) = (   0.7764906   0.2700427   0.4424407  )
        47           O   tau(  47) = (   0.1500635   0.3697216   0.9343629  )
        48           O   tau(  48) = (   0.6499936   0.1564637   0.9343404  )
        49           N   tau(  49) = (   0.5893659   0.0506855   0.5940019  )
        50           N   tau(  50) = (   0.0894112   0.2639267   0.5940339  )
        51           N   tau(  51) = (   0.7158383   0.3758212   0.1021015  )
        52           N   tau(  52) = (   0.2159073   0.1625765   0.1021113  )
        53           N   tau(  53) = (   0.1576637   0.3758188   0.3898266  )
        54           N   tau(  54) = (   0.6576185   0.1625776   0.3897946  )
        55           N   tau(  55) = (   0.0311914   0.0506831   0.8817270  )
        56           N   tau(  56) = (   0.5311224   0.2639278   0.8817172  )
        57           C   tau(  57) = (   0.6816469   0.0205168   0.5745795  )
        58           C   tau(  58) = (   0.1816918   0.2337762   0.5746088  )
        59           C   tau(  59) = (   0.8081167   0.4059929   0.0826807  )
        60           C   tau(  60) = (   0.3081890   0.1927286   0.0826931  )
        61           C   tau(  61) = (   0.0653828   0.4059875   0.4092490  )
        62           C   tau(  62) = (   0.5653378   0.1927281   0.4092197  )
        63           C   tau(  63) = (  -0.0610870   0.0205114   0.9011478  )
        64           C   tau(  64) = (   0.4388407   0.2337757   0.9011354  )
        65           H   tau(  65) = (   0.6961191   0.3825615   0.5335644  )
        66           H   tau(  66) = (   0.1961719   0.1693129   0.5335912  )
        67           H   tau(  67) = (   0.8225886   0.0439465   0.0416641  )
        68           H   tau(  68) = (   0.3226683   0.2571972   0.0416764  )
        69           H   tau(  69) = (   0.0509106   0.0439428   0.4502641  )
        70           H   tau(  70) = (   0.5508578   0.2571914   0.4502373  )
        71           H   tau(  71) = (  -0.0755589   0.3825578   0.9421644  )
        72           H   tau(  72) = (   0.4243614   0.1693071   0.9421521  )
        73           C   tau(  73) = (   0.7425229   0.0887557   0.6126963  )
        74           C   tau(  74) = (   0.2425590   0.3020285   0.6127121  )
        75           C   tau(  75) = (   0.8689955   0.3377506   0.1207906  )
        76           C   tau(  76) = (   0.3690542   0.1244798   0.1207933  )
        77           C   tau(  77) = (   0.0045067   0.3377486   0.3711322  )
        78           C   tau(  78) = (   0.5044706   0.1244758   0.3711164  )
        79           C   tau(  79) = (  -0.1219658   0.0887537   0.8630379  )
        80           C   tau(  80) = (   0.3779754   0.3020245   0.8630352  )
        81           H   tau(  81) = (   0.8200637   0.0881054   0.6073120  )
        82           H   tau(  82) = (   0.3201015   0.3013887   0.6073142  )
        83           H   tau(  83) = (   0.9465350   0.3384023   0.1154048  )
        84           H   tau(  84) = (   0.4465987   0.1251208   0.1154015  )
        85           H   tau(  85) = (  -0.0730341   0.3383989   0.3765165  )
        86           H   tau(  86) = (   0.4269282   0.1251156   0.3765144  )
        87           H   tau(  87) = (  -0.1995053   0.0881020   0.8684237  )
        88           H   tau(  88) = (   0.3004310   0.3013835   0.8684270  )
        89           C   tau(  89) = (   0.6853547   0.1628108   0.6554513  )
        90           C   tau(  90) = (   0.1853723   0.3760635   0.6554570  )
        91           C   tau(  91) = (   0.8118287   0.2636913   0.1635413  )
        92           C   tau(  92) = (   0.3118681   0.0504397   0.1635313  )
        93           C   tau(  93) = (   0.0616750   0.2636935   0.3283772  )
        94           C   tau(  94) = (   0.5616574   0.0504408   0.3283715  )
        95           C   tau(  95) = (  -0.0647990   0.1628130   0.8202872  )
        96           C   tau(  96) = (   0.4351615   0.3760646   0.8202972  )
        97           H   tau(  97) = (   0.7103200   0.2268458   0.6918030  )
        98           H   tau(  98) = (   0.2103446   0.0136199   0.6918092  )
        99           H   tau(  99) = (   0.8367972   0.1996547   0.1998856  )
       100           H   tau( 100) = (   0.3368405   0.4128824   0.1998833  )
       101           H   tau( 101) = (   0.0367097   0.1996585   0.2920255  )
       102           H   tau( 102) = (   0.5366851   0.4128844   0.2920193  )
       103           H   tau( 103) = (  -0.0897675   0.2268496   0.7839429  )
       104           H   tau( 104) = (   0.4101892   0.0136219   0.7839452  )
       105           C   tau( 105) = (   0.5905172   0.1373842   0.6413188  )
       106           C   tau( 106) = (   0.0905646   0.3506359   0.6413460  )
       107           C   tau( 107) = (   0.7169890   0.2891174   0.1494103  )
       108           C   tau( 108) = (   0.2170625   0.0758638   0.1494174  )
       109           C   tau( 109) = (   0.1565125   0.2891201   0.3425097  )
       110           C   tau( 110) = (   0.6564651   0.0758684   0.3424825  )
       111           C   tau( 111) = (   0.0300407   0.1373869   0.8344182  )
       112           C   tau( 112) = (   0.5299672   0.3506405   0.8344111  )

     number of k points=     8
                       cart. coord. in units 2pi/alat
        k(    1) = (   0.0000000   0.0000000   0.0000000), wk =   0.1666667
        k(    2) = (   0.0000000   0.0000000  -0.5082187), wk =   0.1666667
        k(    3) = (   0.0000000   0.7815474   0.0000000), wk =   0.3333333
        k(    4) = (   0.0000000   0.7815474  -0.5082187), wk =   0.3333333
        k(    5) = (  -0.5000000   0.0000000  -0.1285642), wk =   0.1666667
        k(    6) = (  -0.5000000   0.0000000  -0.6367829), wk =   0.1666667
        k(    7) = (  -0.5000000   0.7815474  -0.1285642), wk =   0.3333333
        k(    8) = (  -0.5000000   0.7815474  -0.6367829), wk =   0.3333333

     Dense  grid:  1040739 G-vectors     FFT dimensions: ( 180,  72, 180)

     Estimated max dynamical RAM per process >    1155.17MB

     Estimated total allocated dynamical RAM >    9241.34MB

     Check: negative/imaginary core charge=   -0.000002    0.000000

     Initial potential from superposition of free atoms

     starting charge  351.99722, renormalised to  352.00000
     Starting wfc are  328 randomized atomic wfcs
     Checking if some PAW data can be deallocated... 

     total cpu time spent up to now is       78.8 secs

     per-process dynamical memory:   783.9 Mb

     Self-consistent Calculation

     iteration #  1     ecut=   100.00 Ry     beta=0.50
     Davidson diagonalization with overlap
     ethr =  1.00E-02,  avg # of iterations =  4.8

     total cpu time spent up to now is      300.5 secs

     total energy              =   -1636.55722375 Ry
     Harris-Foulkes estimate   =   -1642.80055590 Ry
     estimated scf accuracy    <      11.80326391 Ry

     iteration #  2     ecut=   100.00 Ry     beta=0.50
     Davidson diagonalization with overlap
     ethr =  3.35E-03,  avg # of iterations =  2.8

     total cpu time spent up to now is      413.6 secs

     total energy              =   -1636.61142577 Ry
     Harris-Foulkes estimate   =   -1637.66443338 Ry
     estimated scf accuracy    <       1.92158719 Ry

     iteration #  3     ecut=   100.00 Ry     beta=0.50
     Davidson diagonalization with overlap
     ethr =  5.46E-04,  avg # of iterations =  5.0

     total cpu time spent up to now is      679.4 secs

     total energy              =   -1638.28339419 Ry
     Harris-Foulkes estimate   =   -1639.27222907 Ry
     estimated scf accuracy    <       2.83014371 Ry

     iteration #  4     ecut=   100.00 Ry     beta=0.50
     Davidson diagonalization with overlap
     ethr =  5.46E-04,  avg # of iterations =  1.0

     total cpu time spent up to now is      785.3 secs

     total energy              =   -1638.01250984 Ry
     Harris-Foulkes estimate   =   -1638.44305042 Ry
     estimated scf accuracy    <       0.88960084 Ry

     iteration #  5     ecut=   100.00 Ry     beta=0.50
     Davidson diagonalization with overlap
     ethr =  2.53E-04,  avg # of iterations =  6.1

     total cpu time spent up to now is     1012.2 secs

     total energy              =   -1638.47474583 Ry
     Harris-Foulkes estimate   =   -1638.50373126 Ry
     estimated scf accuracy    <       0.16016921 Ry

     iteration #  6     ecut=   100.00 Ry     beta=0.50
     Davidson diagonalization with overlap
     ethr =  4.55E-05,  avg # of iterations =  1.9

     total cpu time spent up to now is     1120.3 secs

     total energy              =   -1638.43295614 Ry
     Harris-Foulkes estimate   =   -1638.48419288 Ry
     estimated scf accuracy    <       0.09314138 Ry

     iteration #  7     ecut=   100.00 Ry     beta=0.50
     Davidson diagonalization with overlap
     ethr =  2.65E-05,  avg # of iterations =  3.5

     total cpu time spent up to now is     1258.3 secs

     total energy              =   -1638.45325295 Ry
     Harris-Foulkes estimate   =   -1638.45541193 Ry
     estimated scf accuracy    <       0.00692090 Ry

     iteration #  8     ecut=   100.00 Ry     beta=0.50
     Davidson diagonalization with overlap
     c_bands:  2 eigenvalues not converged
     c_bands:  3 eigenvalues not converged
     ethr =  1.97E-06,  avg # of iterations = 10.4

     total cpu time spent up to now is     1525.0 secs

     total energy              =   -1638.45985068 Ry
     Harris-Foulkes estimate   =   -1638.46255766 Ry
     estimated scf accuracy    <       0.00885475 Ry

     iteration #  9     ecut=   100.00 Ry     beta=0.50
     Davidson diagonalization with overlap
     c_bands:  1 eigenvalues not converged
     c_bands:  1 eigenvalues not converged
     c_bands:  2 eigenvalues not converged
     c_bands:  2 eigenvalues not converged
     c_bands:  1 eigenvalues not converged
     ethr =  1.97E-06,  avg # of iterations = 15.4

     total cpu time spent up to now is     1663.5 secs

     total energy              =   -1638.45878376 Ry
     Harris-Foulkes estimate   =   -1638.46035071 Ry
     estimated scf accuracy    <       0.00305493 Ry

     iteration # 10     ecut=   100.00 Ry     beta=0.50
     Davidson diagonalization with overlap
     ethr =  8.68E-07,  avg # of iterations =  8.5

     total cpu time spent up to now is     1868.2 secs

     total energy              =   -1638.46009001 Ry
     Harris-Foulkes estimate   =   -1638.46024240 Ry
     estimated scf accuracy    <       0.00039103 Ry

     iteration # 11     ecut=   100.00 Ry     beta=0.50
     Davidson diagonalization with overlap
     ethr =  1.11E-07,  avg # of iterations =  1.1

     total cpu time spent up to now is     1974.2 secs

     total energy              =   -1638.46004588 Ry
     Harris-Foulkes estimate   =   -1638.46011390 Ry
     estimated scf accuracy    <       0.00012337 Ry

     iteration # 12     ecut=   100.00 Ry     beta=0.50
     Davidson diagonalization with overlap
     ethr =  3.50E-08,  avg # of iterations =  4.0

     total cpu time spent up to now is     2177.0 secs

     total energy              =   -1638.46012564 Ry
     Harris-Foulkes estimate   =   -1638.46015099 Ry
     estimated scf accuracy    <       0.00005173 Ry

     iteration # 13     ecut=   100.00 Ry     beta=0.50
     Davidson diagonalization with overlap
     ethr =  1.47E-08,  avg # of iterations =  1.0

     total cpu time spent up to now is     2282.8 secs

     total energy              =   -1638.46012367 Ry
     Harris-Foulkes estimate   =   -1638.46012928 Ry
     estimated scf accuracy    <       0.00001037 Ry

     iteration # 14     ecut=   100.00 Ry     beta=0.50
     Davidson diagonalization with overlap
     ethr =  2.94E-09,  avg # of iterations =  4.0

     total cpu time spent up to now is     2501.7 secs

     total energy              =   -1638.46013462 Ry
     Harris-Foulkes estimate   =   -1638.46013706 Ry
     estimated scf accuracy    <       0.00000838 Ry

     iteration # 15     ecut=   100.00 Ry     beta=0.50
     Davidson diagonalization with overlap
     ethr =  2.38E-09,  avg # of iterations =  1.1

     total cpu time spent up to now is     2607.5 secs

     total energy              =   -1638.46013305 Ry
     Harris-Foulkes estimate   =   -1638.46013481 Ry
     estimated scf accuracy    <       0.00000405 Ry

     iteration # 16     ecut=   100.00 Ry     beta=0.50
     Davidson diagonalization with overlap
     ethr =  1.15E-09,  avg # of iterations =  3.0

     total cpu time spent up to now is     2772.8 secs

     total energy              =   -1638.46013441 Ry
     Harris-Foulkes estimate   =   -1638.46013441 Ry
     estimated scf accuracy    <       0.00000006 Ry

     iteration # 17     ecut=   100.00 Ry     beta=0.50
     Davidson diagonalization with overlap
     ethr =  1.57E-11,  avg # of iterations =  4.0

     total cpu time spent up to now is     3017.0 secs

     total energy              =   -1638.46013442 Ry
     Harris-Foulkes estimate   =   -1638.46013446 Ry
     estimated scf accuracy    <       0.00000009 Ry

     iteration # 18     ecut=   100.00 Ry     beta=0.50
     Davidson diagonalization with overlap
     ethr =  1.57E-11,  avg # of iterations =  1.0

     total cpu time spent up to now is     3122.7 secs

     total energy              =   -1638.46013442 Ry
     Harris-Foulkes estimate   =   -1638.46013442 Ry
     estimated scf accuracy    <       0.00000003 Ry

     iteration # 19     ecut=   100.00 Ry     beta=0.50
     Davidson diagonalization with overlap
     ethr =  8.00E-12,  avg # of iterations =  4.1

     total cpu time spent up to now is     3246.0 secs

     total energy              =   -1638.46013442 Ry
     Harris-Foulkes estimate   =   -1638.46013443 Ry
     estimated scf accuracy    <       0.00000002 Ry

     iteration # 20     ecut=   100.00 Ry     beta=0.50
     Davidson diagonalization with overlap
     ethr =  4.68E-12,  avg # of iterations =  4.2

     total cpu time spent up to now is     3444.3 secs

     End of self-consistent calculation

          k = 0.0000 0.0000 0.0000 (130009 PWs)   bands (ev):

   -20.0672 -20.0618 -20.0416 -20.0406 -20.0362 -20.0358 -20.0173 -20.0122
   -18.4809 -18.4780 -18.4670 -18.4651 -18.4280 -18.4213 -18.4138 -18.4062
   -14.4624 -14.4439 -14.4207 -14.4131 -14.4056 -14.3877 -14.3711 -14.3491
   -12.9914 -12.9582 -12.9527 -12.9165 -12.9066 -12.9034 -12.8824 -12.8573
   -11.1190 -11.1096 -11.0999 -11.0892 -11.0456 -11.0431 -11.0168 -11.0119
    -9.9269  -9.9053  -9.8869  -9.8530  -9.8292  -9.8291  -9.8079  -9.7932
    -8.3936  -8.3529  -8.3500  -8.2895  -8.1719  -8.1542  -8.1479  -8.1393
    -7.9388  -7.9326  -7.9242  -7.9184  -7.8885  -7.8812  -7.8792  -7.8579
    -6.7784  -6.7579  -6.7459  -6.7353  -6.6610  -6.6566  -6.6461  -6.6392
    -5.7151  -5.6405  -5.6014  -5.5546  -5.2915  -5.2696  -5.2645  -5.2346
    -5.2315  -5.2180  -5.1664  -5.1179  -4.9585  -4.7579  -4.7305  -4.6929
    -4.6874  -4.6449  -4.6418  -4.5573  -4.5439  -4.5431  -4.5369  -4.5231
    -4.4951  -4.4636  -4.3703  -4.3679  -4.3628  -4.3347  -4.2486  -4.2474
    -4.0535  -3.9986  -3.8980  -3.8920  -3.8819  -3.7888  -3.7527  -3.7481
    -3.6638  -3.4757  -3.4345  -3.3176  -3.3162  -3.2593  -3.2276  -3.1920
    -3.1680  -3.1373  -3.1301  -3.0850  -3.0840  -3.0664  -3.0638  -3.0029
    -2.8876  -2.8818  -2.8496  -2.8395  -2.8218  -2.8141  -2.7588  -2.7439
    -2.6724  -2.6649  -2.6436  -2.6288  -2.6194  -2.5965  -2.5675  -2.5465
    -1.3916  -1.3900  -1.1768  -1.1417  -1.1212  -1.1162  -0.9046  -0.8940
    -0.1924  -0.0727  -0.0516  -0.0415  -0.0377  -0.0319  -0.0080  -0.0054
     0.0596   0.0810   0.1035   0.1066   0.1433   0.1655   0.2037   0.2096
     1.1833   1.1948   1.2168   1.2384   1.2397   1.2680   1.2873   1.3172
     3.2016   3.2770   3.2999   3.3432   3.4778   3.4896   3.5047   3.6042
     6.1834   6.3294   6.3441   6.3496   6.5280   6.5834   6.5911   6.6289
     6.9400   7.0351   7.0600   7.1345   7.1860   7.1983   7.2282   7.3141
     7.3190   7.3302   7.3552   7.5132   7.5408   7.5631   7.5718   7.6041
     7.8908   7.8909   7.9395

          k = 0.0000 0.0000-0.5082 (130000 PWs)   bands (ev):

   -20.0649 -20.0643 -20.0412 -20.0410 -20.0360 -20.0360 -20.0148 -20.0144
   -18.4749 -18.4747 -18.4725 -18.4724 -18.4201 -18.4199 -18.4130 -18.4128
   -14.4492 -14.4492 -14.4308 -14.4307 -14.3845 -14.3844 -14.3625 -14.3624
   -12.9784 -12.9783 -12.9388 -12.9387 -12.8959 -12.8958 -12.8713 -12.8712
   -11.1157 -11.1156 -11.0932 -11.0932 -11.0446 -11.0446 -11.0141 -11.0141
    -9.9172  -9.9172  -9.8747  -9.8746  -9.8175  -9.8175  -9.8065  -9.8064
    -8.3836  -8.3836  -8.3095  -8.3094  -8.1629  -8.1628  -8.1439  -8.1438
    -7.9359  -7.9359  -7.9218  -7.9218  -7.8844  -7.8844  -7.8685  -7.8685
    -6.7691  -6.7691  -6.7410  -6.7410  -6.6523  -6.6522  -6.6471  -6.6470
    -5.6575  -5.6574  -5.5763  -5.5763  -5.3369  -5.3369  -5.3119  -5.3119
    -5.1711  -5.1711  -5.1125  -5.1125  -4.8417  -4.8417  -4.7219  -4.7219
    -4.6856  -4.6854  -4.6001  -4.6000  -4.5701  -4.5701  -4.4821  -4.4820
    -4.4389  -4.4388  -4.3903  -4.3902  -4.3492  -4.3491  -4.2529  -4.2527
    -4.0308  -4.0306  -3.8939  -3.8937  -3.8670  -3.8668  -3.7511  -3.7509
    -3.5467  -3.5466  -3.3804  -3.3804  -3.2652  -3.2651  -3.2173  -3.2173
    -3.1576  -3.1576  -3.1087  -3.1087  -3.0928  -3.0928  -3.0296  -3.0295
    -2.8694  -2.8692  -2.8584  -2.8584  -2.7817  -2.7815  -2.7741  -2.7741
    -2.6748  -2.6747  -2.6300  -2.6298  -2.6123  -2.6122  -2.5555  -2.5553
    -1.3229  -1.3228  -1.3157  -1.3156  -0.9702  -0.9702  -0.9577  -0.9577
    -0.1473  -0.1472  -0.0426  -0.0424  -0.0283  -0.0283   0.0115   0.0116
     0.0531   0.0531   0.0936   0.0937   0.1839   0.1840   0.1905   0.1907
     1.1898   1.1898   1.2270   1.2271   1.2544   1.2545   1.3010   1.3010
     3.2555   3.2556   3.2881   3.2882   3.4974   3.4975   3.5579   3.5580
     6.2567   6.2568   6.3401   6.3401   6.5818   6.5819   6.5838   6.5838
     7.0141   7.0141   7.0702   7.0702   7.1876   7.1876   7.2127   7.2128
     7.3984   7.3985   7.4082   7.4082   7.5232   7.5234   7.6381   7.6381
     7.9552   7.9555   7.9750

          k = 0.0000 0.7815 0.0000 (130110 PWs)   bands (ev):

   -20.0572 -20.0544 -20.0452 -20.0428 -20.0287 -20.0260 -20.0177 -20.0153
   -18.4860 -18.4848 -18.4789 -18.4786 -18.4204 -18.4176 -18.4134 -18.4099
   -14.4630 -14.4499 -14.4356 -14.4337 -14.3997 -14.3814 -14.3720 -14.3648
   -12.9702 -12.9436 -12.9335 -12.9279 -12.9255 -12.8986 -12.8879 -12.8834
   -11.1141 -11.1116 -11.0872 -11.0817 -11.0783 -11.0653 -11.0561 -11.0370
    -9.8768  -9.8542  -9.8513  -9.8262  -9.8238  -9.8174  -9.7973  -9.7953
    -8.3380  -8.3075  -8.2777  -8.2393  -8.2273  -8.2234  -8.1723  -8.1626
    -7.9131  -7.9056  -7.9026  -7.8943  -7.8923  -7.8785  -7.8765  -7.8577
    -6.7684  -6.7614  -6.7508  -6.7421  -6.6250  -6.6106  -6.6084  -6.5972
    -5.6625  -5.6515  -5.6397  -5.6190  -5.4533  -5.4218  -5.3894  -5.3572
    -5.2842  -5.2287  -5.2117  -5.1899  -4.8633  -4.7930  -4.7349  -4.7134
    -4.6930  -4.6696  -4.6297  -4.6131  -4.6093  -4.5591  -4.5240  -4.4843
    -4.4629  -4.4498  -4.4156  -4.3870  -4.3849  -4.3500  -4.3387  -4.3342
    -3.9403  -3.9157  -3.8520  -3.8396  -3.7679  -3.6858  -3.6814  -3.6578
    -3.5317  -3.4425  -3.4066  -3.3442  -3.3086  -3.2851  -3.2765  -3.2441
    -3.1913  -3.1852  -3.1700  -3.1510  -3.1292  -3.1266  -3.1169  -3.0775
    -2.9055  -2.8613  -2.8593  -2.8421  -2.7507  -2.7498  -2.7314  -2.6975
    -2.6555  -2.6509  -2.6456  -2.6340  -2.6221  -2.5992  -2.5615  -2.5394
    -1.2011  -1.1916  -1.1103  -1.0757  -0.9870  -0.9731  -0.8865  -0.8760
    -0.1222  -0.0969  -0.0956  -0.0381  -0.0244  -0.0063   0.0175   0.0236
     0.0359   0.0704   0.0907   0.1052   0.1213   0.1408   0.1946   0.2458
     1.2327   1.2371   1.2917   1.3071   1.3121   1.3157   1.3179   1.3403
     3.1134   3.1774   3.2167   3.2390   3.2820   3.3016   3.3416   3.3965
     6.2242   6.2459   6.3065   6.3592   6.4472   6.4935   6.5416   6.5902
     6.9889   7.0827   7.1248   7.1309   7.1818   7.2084   7.3225   7.3301
     7.3333   7.3750   7.4325   7.4632   7.5497   7.5503   7.6287   7.6985
     7.7515   7.7790   7.8228

          k = 0.0000 0.7815-0.5082 (130088 PWs)   bands (ev):

   -20.0562 -20.0556 -20.0442 -20.0439 -20.0275 -20.0269 -20.0166 -20.0164
   -18.4828 -18.4826 -18.4820 -18.4818 -18.4168 -18.4167 -18.4137 -18.4135
   -14.4522 -14.4521 -14.4428 -14.4427 -14.3830 -14.3829 -14.3722 -14.3721
   -12.9585 -12.9585 -12.9371 -12.9370 -12.9001 -12.9000 -12.8897 -12.8897
   -11.1132 -11.1131 -11.0825 -11.0824 -11.0762 -11.0761 -11.0439 -11.0438
    -9.8683  -9.8682  -9.8425  -9.8425  -9.8068  -9.8067  -9.8037  -9.8037
    -8.3266  -8.3265  -8.2548  -8.2547  -8.2259  -8.2258  -8.1671  -8.1669
    -7.9102  -7.9101  -7.8991  -7.8990  -7.8847  -7.8846  -7.8663  -7.8662
    -6.7604  -6.7604  -6.7519  -6.7519  -6.6104  -6.6104  -6.6094  -6.6094
    -5.6610  -5.6609  -5.6409  -5.6408  -5.3869  -5.3869  -5.3760  -5.3759
    -5.2707  -5.2706  -5.2350  -5.2349  -4.7643  -4.7641  -4.7546  -4.7545
    -4.6724  -4.6724  -4.6396  -4.6395  -4.5914  -4.5913  -4.4991  -4.4990
    -4.4903  -4.4901  -4.3864  -4.3862  -4.3730  -4.3729  -4.3208  -4.3207
    -3.9266  -3.9265  -3.8420  -3.8419  -3.7221  -3.7220  -3.6750  -3.6749
    -3.5017  -3.5017  -3.3873  -3.3873  -3.2734  -3.2733  -3.2725  -3.2724
    -3.1780  -3.1779  -3.1549  -3.1548  -3.1288  -3.1287  -3.0921  -3.0920
    -2.8853  -2.8852  -2.8612  -2.8611  -2.7374  -2.7372  -2.7248  -2.7246
    -2.6467  -2.6466  -2.6434  -2.6433  -2.6124  -2.6123  -2.5499  -2.5497
    -1.1564  -1.1563  -1.1524  -1.1523  -0.9242  -0.9242  -0.9169  -0.9169
    -0.1072  -0.1071  -0.0743  -0.0742  -0.0271  -0.0270   0.0470   0.0471
     0.0513   0.0514   0.0730   0.0731   0.1666   0.1668   0.2004   0.2004
     1.2615   1.2615   1.2674   1.2675   1.3184   1.3185   1.3296   1.3297
     3.1605   3.1606   3.1923   3.1924   3.3167   3.3168   3.3651   3.3651
     6.2594   6.2595   6.3001   6.3001   6.5167   6.5167   6.5201   6.5202
     7.0420   7.0421   7.0966   7.0967   7.2562   7.2563   7.2862   7.2863
     7.3923   7.3923   7.3960   7.3960   7.5958   7.5959   7.6643   7.6643
     7.7883   7.7883   7.8394

          k =-0.5000 0.0000-0.1286 (130136 PWs)   bands (ev):

   -20.0594 -20.0587 -20.0546 -20.0543 -20.0240 -20.0230 -20.0195 -20.0192
   -18.4795 -18.4795 -18.4663 -18.4662 -18.4245 -18.4245 -18.4099 -18.4099
   -14.4536 -14.4536 -14.4099 -14.4098 -14.4040 -14.4039 -14.3599 -14.3599
   -12.9729 -12.9728 -12.9309 -12.9307 -12.9112 -12.9111 -12.8687 -12.8686
   -11.0820 -11.0820 -11.0802 -11.0800 -11.0563 -11.0561 -11.0552 -11.0552
    -9.9012  -9.9009  -9.8896  -9.8896  -9.8172  -9.8171  -9.8026  -9.8024
    -8.2793  -8.2793  -8.2776  -8.2774  -8.2372  -8.2372  -8.2175  -8.2173
    -7.9340  -7.9338  -7.9220  -7.9217  -7.8770  -7.8767  -7.8735  -7.8733
    -6.7629  -6.7628  -6.7571  -6.7570  -6.6531  -6.6530  -6.6526  -6.6526
    -5.6621  -5.6621  -5.5521  -5.5520  -5.2868  -5.2865  -5.2653  -5.2653
    -5.1852  -5.1849  -5.1438  -5.1438  -4.8515  -4.8513  -4.6855  -4.6855
    -4.6839  -4.6839  -4.6054  -4.6052  -4.5721  -4.5720  -4.5039  -4.5038
    -4.4553  -4.4552  -4.4458  -4.4455  -4.3278  -4.3278  -4.3238  -4.3236
    -3.8962  -3.8961  -3.8537  -3.8535  -3.8488  -3.8485  -3.8362  -3.8360
    -3.5989  -3.5985  -3.4191  -3.4190  -3.2980  -3.2971  -3.2226  -3.2222
    -3.1276  -3.1274  -3.0872  -3.0866  -3.0670  -3.0668  -3.0386  -3.0379
    -2.9210  -2.9209  -2.8164  -2.8162  -2.7387  -2.7385  -2.7038  -2.7038
    -2.6790  -2.6784  -2.6543  -2.6536  -2.6128  -2.6124  -2.6085  -2.6084
    -1.3871  -1.3871  -1.1441  -1.1441  -1.1299  -1.1299  -0.9007  -0.9007
    -0.1168  -0.1166  -0.0523  -0.0520  -0.0346  -0.0343  -0.0026  -0.0023
     0.0683   0.0684   0.1188   0.1189   0.1529   0.1532   0.1778   0.1782
     1.2049   1.2050   1.2144   1.2146   1.2567   1.2567   1.2941   1.2941
     3.2385   3.2386   3.3094   3.3098   3.4972   3.4976   3.5552   3.5552
     6.3580   6.3581   6.3898   6.3901   6.4727   6.4727   6.4829   6.4831
     7.0096   7.0096   7.1524   7.1528   7.2468   7.2469   7.2618   7.2619
     7.3568   7.3569   7.4263   7.4265   7.4405   7.4406   7.6816   7.6818
     7.8943   7.8948   7.9819

          k =-0.5000 0.0000-0.6368 (130034 PWs)   bands (ev):

   -20.0598 -20.0572 -20.0560 -20.0540 -20.0243 -20.0222 -20.0208 -20.0184
   -18.4746 -18.4745 -18.4729 -18.4728 -18.4172 -18.4171 -18.4156 -18.4155
   -14.4412 -14.4406 -14.4393 -14.4389 -14.3748 -14.3744 -14.3729 -14.3724
   -12.9587 -12.9584 -12.9583 -12.9579 -12.8840 -12.8836 -12.8831 -12.8828
   -11.0840 -11.0836 -11.0779 -11.0775 -11.0598 -11.0594 -11.0526 -11.0521
    -9.9052  -9.9051  -9.8837  -9.8834  -9.8220  -9.8217  -9.7998  -9.7997
    -8.2892  -8.2889  -8.2592  -8.2592  -8.2453  -8.2453  -8.2186  -8.2182
    -7.9294  -7.9290  -7.9248  -7.9244  -7.8846  -7.8842  -7.8678  -7.8674
    -6.7633  -6.7633  -6.7567  -6.7567  -6.6551  -6.6551  -6.6498  -6.6497
    -5.5972  -5.5972  -5.5966  -5.5966  -5.3445  -5.3445  -5.2975  -5.2975
    -5.1846  -5.1846  -5.0889  -5.0889  -4.7870  -4.7868  -4.7391  -4.7390
    -4.6874  -4.6872  -4.6196  -4.6196  -4.5372  -4.5371  -4.5059  -4.5058
    -4.4606  -4.4605  -4.4157  -4.4155  -4.3440  -4.3439  -4.3429  -4.3428
    -3.8910  -3.8906  -3.8727  -3.8723  -3.8566  -3.8563  -3.8404  -3.8402
    -3.5103  -3.5102  -3.4905  -3.4903  -3.2610  -3.2610  -3.2442  -3.2440
    -3.1440  -3.1438  -3.0983  -3.0979  -3.0563  -3.0558  -3.0465  -3.0463
    -2.8689  -2.8678  -2.8600  -2.8594  -2.7252  -2.7251  -2.7073  -2.7068
    -2.6685  -2.6684  -2.6664  -2.6663  -2.6254  -2.6250  -2.5972  -2.5968
    -1.3195  -1.3193  -1.3108  -1.3105  -0.9690  -0.9689  -0.9607  -0.9606
    -0.0928  -0.0926  -0.0722  -0.0719  -0.0450  -0.0444  -0.0104  -0.0103
     0.0897   0.0898   0.1033   0.1034   0.1646   0.1649   0.1725   0.1731
     1.1984   1.1986   1.2175   1.2179   1.2723   1.2725   1.2815   1.2817
     3.2390   3.2398   3.3081   3.3089   3.4917   3.4924   3.5605   3.5611
     6.3166   6.3169   6.4485   6.4488   6.4492   6.4495   6.4920   6.4923
     7.0370   7.0373   7.0943   7.0946   7.2236   7.2239   7.3262   7.3264
     7.3573   7.3573   7.4236   7.4237   7.5004   7.5006   7.5714   7.5717
     7.9536   7.9659   7.9661

          k =-0.5000 0.7815-0.1286 (130136 PWs)   bands (ev):

   -20.0562 -20.0556 -20.0443 -20.0440 -20.0272 -20.0266 -20.0168 -20.0166
   -18.4854 -18.4854 -18.4787 -18.4786 -18.4206 -18.4205 -18.4103 -18.4102
   -14.4608 -14.4607 -14.4300 -14.4299 -14.3912 -14.3912 -14.3682 -14.3682
   -12.9577 -12.9576 -12.9286 -12.9281 -12.9155 -12.9150 -12.8839 -12.8837
   -11.1293 -11.1292 -11.0944 -11.0942 -11.0554 -11.0553 -11.0367 -11.0366
    -9.8684  -9.8682  -9.8446  -9.8444  -9.8181  -9.8178  -9.7873  -9.7871
    -8.3051  -8.3050  -8.2471  -8.2470  -8.2395  -8.2394  -8.2177  -8.2176
    -7.9294  -7.9293  -7.9185  -7.9182  -7.8433  -7.8432  -7.8401  -7.8399
    -6.7551  -6.7551  -6.7448  -6.7448  -6.6140  -6.6140  -6.5965  -6.5965
    -5.6544  -5.6543  -5.6024  -5.6023  -5.4580  -5.4579  -5.3974  -5.3974
    -5.2622  -5.2621  -5.2117  -5.2116  -4.8553  -4.8552  -4.8084  -4.8083
    -4.7003  -4.7003  -4.6347  -4.6345  -4.5667  -4.5666  -4.4662  -4.4661
    -4.4349  -4.4347  -4.3786  -4.3785  -4.3508  -4.3506  -4.2926  -4.2925
    -3.8332  -3.8331  -3.8079  -3.8078  -3.7703  -3.7700  -3.7322  -3.7321
    -3.4813  -3.4810  -3.3892  -3.3890  -3.3326  -3.3321  -3.2595  -3.2590
    -3.1701  -3.1690  -3.1613  -3.1604  -3.1420  -3.1414  -3.0911  -3.0904
    -2.8718  -2.8717  -2.8018  -2.8017  -2.7775  -2.7773  -2.7288  -2.7287
    -2.6925  -2.6924  -2.6472  -2.6469  -2.6016  -2.6015  -2.5357  -2.5354
    -1.1956  -1.1956  -1.0906  -1.0906  -0.9820  -0.9820  -0.8807  -0.8806
    -0.1285  -0.1284  -0.0658  -0.0657  -0.0004  -0.0001   0.0109   0.0111
     0.0417   0.0418   0.0966   0.0967   0.1554   0.1558   0.2206   0.2207
     1.2670   1.2671   1.2813   1.2818   1.2870   1.2872   1.3436   1.3439
     3.1469   3.1470   3.2079   3.2083   3.3185   3.3188   3.3604   3.3606
     6.3326   6.3329   6.3525   6.3528   6.4160   6.4164   6.4753   6.4754
     7.0205   7.0207   7.1643   7.1643   7.1921   7.1925   7.3259   7.3259
     7.4048   7.4053   7.4572   7.4576   7.4922   7.4922   7.7309   7.7310
     7.7354   7.7354   7.8697

          k =-0.5000 0.7815-0.6368 (130158 PWs)   bands (ev):

   -20.0563 -20.0555 -20.0444 -20.0439 -20.0274 -20.0266 -20.0170 -20.0163
   -18.4830 -18.4829 -18.4816 -18.4814 -18.4189 -18.4187 -18.4117 -18.4115
   -14.4578 -14.4576 -14.4368 -14.4365 -14.3806 -14.3803 -14.3753 -14.3751
   -12.9511 -12.9509 -12.9437 -12.9433 -12.9018 -12.9014 -12.8891 -12.8888
   -11.1293 -11.1292 -11.0945 -11.0943 -11.0549 -11.0548 -11.0371 -11.0370
    -9.8694  -9.8693  -9.8403  -9.8397  -9.8232  -9.8227  -9.7857  -9.7857
    -8.3053  -8.3052  -8.2501  -8.2499  -8.2326  -8.2324  -8.2215  -8.2214
    -7.9269  -7.9268  -7.9207  -7.9205  -7.8453  -7.8452  -7.8383  -7.8381
    -6.7566  -6.7565  -6.7433  -6.7433  -6.6100  -6.6099  -6.6007  -6.6007
    -5.6624  -5.6623  -5.6100  -5.6099  -5.4294  -5.4294  -5.3820  -5.3820
    -5.2664  -5.2663  -5.2461  -5.2461  -4.8328  -4.8326  -4.7914  -4.7912
    -4.7204  -4.7202  -4.6364  -4.6362  -4.5883  -4.5882  -4.4599  -4.4598
    -4.4307  -4.4306  -4.3801  -4.3800  -4.3578  -4.3577  -4.2805  -4.2804
    -3.8332  -3.8329  -3.8081  -3.8077  -3.7768  -3.7762  -3.7127  -3.7121
    -3.4865  -3.4865  -3.4311  -3.4310  -3.3097  -3.3096  -3.2616  -3.2615
    -3.1630  -3.1628  -3.1486  -3.1484  -3.1393  -3.1391  -3.0933  -3.0932
    -2.8735  -2.8732  -2.8123  -2.8116  -2.7552  -2.7550  -2.7379  -2.7374
    -2.7040  -2.7038  -2.6454  -2.6453  -2.6004  -2.6002  -2.5348  -2.5346
    -1.1619  -1.1618  -1.1427  -1.1426  -0.9330  -0.9330  -0.9106  -0.9105
    -0.1307  -0.1306  -0.0458  -0.0456  -0.0248  -0.0247   0.0128   0.0131
     0.0473   0.0474   0.0918   0.0919   0.1634   0.1639   0.2152   0.2155
     1.2626   1.2627   1.2843   1.2844   1.3119   1.3121   1.3206   1.3209
     3.1466   3.1474   3.2136   3.2144   3.3070   3.3077   3.3660   3.3667
     6.3116   6.3117   6.3750   6.3752   6.4202   6.4206   6.4705   6.4705
     7.0249   7.0250   7.1470   7.1474   7.2028   7.2030   7.3057   7.3058
     7.3861   7.3861   7.4725   7.4727   7.5764   7.5765   7.6978   7.6979
     7.7568   7.7569   7.8192

     highest occupied, lowest unoccupied level (ev):     1.3439    3.1134

!    total energy              =   -1638.46013443 Ry
     Harris-Foulkes estimate   =   -1638.46013443 Ry
     estimated scf accuracy    <          2.9E-09 Ry

     total all-electron energy =     -6394.415188 Ry

     The total energy is the sum of the following terms:

     one-electron contribution =    -889.51865620 Ry
     hartree contribution      =     576.90977303 Ry
     xc contribution           =    -362.04759119 Ry
     ewald contribution        =    -448.31106624 Ry
     Dispersion Correction     =      -0.51945971 Ry
     one-center paw contrib.   =    -514.97313411 Ry

     convergence has been achieved in  20 iterations

     Forces acting on atoms (cartesian axes, Ry/au):

     atom    1 type  1   force =     0.00176740   -0.00618426    0.00267076
     atom    2 type  1   force =     0.00209255   -0.00606783    0.00274396
     atom    3 type  1   force =     0.00179220    0.00612023    0.00273407
     atom    4 type  1   force =     0.00208738    0.00613967    0.00272955
     atom    5 type  1   force =    -0.00176740    0.00618426   -0.00267076
     atom    6 type  1   force =    -0.00209255    0.00606783   -0.00274396
     atom    7 type  1   force =    -0.00179220   -0.00612023   -0.00273407
     atom    8 type  1   force =    -0.00208738   -0.00613967   -0.00272955
     atom    9 type  3   force =     0.00043597    0.00017198   -0.00115525
     atom   10 type  3   force =     0.00041008    0.00015882   -0.00116815
     atom   11 type  3   force =     0.00044097   -0.00015694   -0.00117281
     atom   12 type  3   force =     0.00040369   -0.00017650   -0.00116101
     atom   13 type  3   force =    -0.00043597   -0.00017198    0.00115525
     atom   14 type  3   force =    -0.00041008   -0.00015882    0.00116815
     atom   15 type  3   force =    -0.00044097    0.00015694    0.00117281
     atom   16 type  3   force =    -0.00040369    0.00017650    0.00116101
     atom   17 type  1   force =     0.00088899    0.00282269    0.00340565
     atom   18 type  1   force =     0.00074012    0.00277731    0.00335762
     atom   19 type  1   force =     0.00083454   -0.00283245    0.00339389
     atom   20 type  1   force =     0.00078847   -0.00275620    0.00335474
     atom   21 type  1   force =    -0.00088899   -0.00282269   -0.00340565
     atom   22 type  1   force =    -0.00074012   -0.00277731   -0.00335762
     atom   23 type  1   force =    -0.00083454    0.00283245   -0.00339389
     atom   24 type  1   force =    -0.00078847    0.00275620   -0.00335474
     atom   25 type  3   force =     0.00039877    0.00044215   -0.00023060
     atom   26 type  3   force =     0.00042909    0.00043593   -0.00023033
     atom   27 type  3   force =     0.00041150   -0.00043753   -0.00022512
     atom   28 type  3   force =     0.00042156   -0.00044417   -0.00022055
     atom   29 type  3   force =    -0.00039877   -0.00044215    0.00023060
     atom   30 type  3   force =    -0.00042909   -0.00043593    0.00023033
     atom   31 type  3   force =    -0.00041150    0.00043753    0.00022512
     atom   32 type  3   force =    -0.00042156    0.00044417    0.00022055
     atom   33 type  1   force =     0.00442841   -0.00317556   -0.00688398
     atom   34 type  1   force =     0.00438399   -0.00373049   -0.00715057
     atom   35 type  1   force =     0.00428190    0.00383341   -0.00724048
     atom   36 type  1   force =     0.00457407    0.00293262   -0.00680542
     atom   37 type  1   force =    -0.00442841    0.00317556    0.00688398
     atom   38 type  1   force =    -0.00438399    0.00373049    0.00715057
     atom   39 type  1   force =    -0.00428190   -0.00383341    0.00724048
     atom   40 type  1   force =    -0.00457407   -0.00293262    0.00680542
     atom   41 type  4   force =     0.00179111    0.00479849    0.00293758
     atom   42 type  4   force =     0.00191027    0.00527822    0.00316214
     atom   43 type  4   force =     0.00194817   -0.00535397    0.00320992
     atom   44 type  4   force =     0.00171595   -0.00460175    0.00284099
     atom   45 type  4   force =    -0.00179111   -0.00479849   -0.00293758
     atom   46 type  4   force =    -0.00191027   -0.00527822   -0.00316214
     atom   47 type  4   force =    -0.00194817    0.00535397   -0.00320992
     atom   48 type  4   force =    -0.00171595    0.00460175   -0.00284099
     atom   49 type  2   force =    -0.00373643   -0.00131178   -0.00199400
     atom   50 type  2   force =    -0.00388839   -0.00120743   -0.00193475
     atom   51 type  2   force =    -0.00378134    0.00126218   -0.00195969
     atom   52 type  2   force =    -0.00387748    0.00123460   -0.00194093
     atom   53 type  2   force =     0.00373643    0.00131178    0.00199400
     atom   54 type  2   force =     0.00388839    0.00120743    0.00193475
     atom   55 type  2   force =     0.00378134   -0.00126218    0.00195969
     atom   56 type  2   force =     0.00387748   -0.00123460    0.00194093
     atom   57 type  1   force =    -0.00016357    0.00335551    0.00424676
     atom   58 type  1   force =    -0.00005636    0.00315455    0.00410896
     atom   59 type  1   force =    -0.00010997   -0.00338146    0.00424430
     atom   60 type  1   force =    -0.00010752   -0.00301107    0.00403262
     atom   61 type  1   force =     0.00016357   -0.00335551   -0.00424676
     atom   62 type  1   force =     0.00005636   -0.00315455   -0.00410896
     atom   63 type  1   force =     0.00010997    0.00338146   -0.00424430
     atom   64 type  1   force =     0.00010752    0.00301107   -0.00403262
     atom   65 type  3   force =     0.00058219   -0.00149399    0.00067367
     atom   66 type  3   force =     0.00056701   -0.00140535    0.00073399
     atom   67 type  3   force =     0.00057817    0.00150435    0.00067656
     atom   68 type  3   force =     0.00056044    0.00134961    0.00077129
     atom   69 type  3   force =    -0.00058219    0.00149399   -0.00067367
     atom   70 type  3   force =    -0.00056701    0.00140535   -0.00073399
     atom   71 type  3   force =    -0.00057817   -0.00150435   -0.00067656
     atom   72 type  3   force =    -0.00056044   -0.00134961   -0.00077129
     atom   73 type  1   force =     0.00108919   -0.00234377   -0.00164650
     atom   74 type  1   force =     0.00119706   -0.00251890   -0.00174351
     atom   75 type  1   force =     0.00103673    0.00235955   -0.00165052
     atom   76 type  1   force =     0.00129577    0.00244502   -0.00170084
     atom   77 type  1   force =    -0.00108919    0.00234377    0.00164650
     atom   78 type  1   force =    -0.00119706    0.00251890    0.00174351
     atom   79 type  1   force =    -0.00103673   -0.00235955    0.00165052
     atom   80 type  1   force =    -0.00129577   -0.00244502    0.00170084
     atom   81 type  3   force =     0.00086393   -0.00009778   -0.00031508
     atom   82 type  3   force =     0.00080331   -0.00007880   -0.00029373
     atom   83 type  3   force =     0.00088492    0.00010056   -0.00031483
     atom   84 type  3   force =     0.00077135    0.00007757   -0.00029902
     atom   85 type  3   force =    -0.00086393    0.00009778    0.00031508
     atom   86 type  3   force =    -0.00080331    0.00007880    0.00029373
     atom   87 type  3   force =    -0.00088492   -0.00010056    0.00031483
     atom   88 type  3   force =    -0.00077135   -0.00007757    0.00029902
     atom   89 type  1   force =    -0.00386128   -0.00074108   -0.00273965
     atom   90 type  1   force =    -0.00313149    0.00002042   -0.00230872
     atom   91 type  1   force =    -0.00389537    0.00077196   -0.00277011
     atom   92 type  1   force =    -0.00308846   -0.00005193   -0.00228718
     atom   93 type  1   force =     0.00386128    0.00074108    0.00273965
     atom   94 type  1   force =     0.00313149   -0.00002042    0.00230872
     atom   95 type  1   force =     0.00389537   -0.00077196    0.00277011
     atom   96 type  1   force =     0.00308846    0.00005193    0.00228718
     atom   97 type  3   force =     0.00115684    0.00060189   -0.00097467
     atom   98 type  3   force =     0.00100677    0.00025448   -0.00116906
     atom   99 type  3   force =     0.00115909   -0.00061873   -0.00096311
     atom  100 type  3   force =     0.00100468   -0.00024561   -0.00117622
     atom  101 type  3   force =    -0.00115684   -0.00060189    0.00097467
     atom  102 type  3   force =    -0.00100677   -0.00025448    0.00116906
     atom  103 type  3   force =    -0.00115909    0.00061873    0.00096311
     atom  104 type  3   force =    -0.00100468    0.00024561    0.00117622
     atom  105 type  1   force =    -0.00551302    0.00318819    0.00253596
     atom  106 type  1   force =    -0.00637225    0.00295426    0.00239574
     atom  107 type  1   force =    -0.00544238   -0.00320313    0.00254640
     atom  108 type  1   force =    -0.00646911   -0.00292291    0.00237570
     atom  109 type  1   force =     0.00551302   -0.00318819   -0.00253596
     atom  110 type  1   force =     0.00637225   -0.00295426   -0.00239574
     atom  111 type  1   force =     0.00544238    0.00320313   -0.00254640
     atom  112 type  1   force =     0.00646911    0.00292291   -0.00237570

     Total force =     0.050858     Total SCF correction =     0.000138


     Computing stress (Cartesian axis) and pressure

          total   stress  (Ry/bohr**3)                   (kbar)     P=   -7.16
  -0.00004804  -0.00000004  -0.00000540         -7.07     -0.01     -0.79
  -0.00000004  -0.00005284  -0.00000004         -0.01     -7.77     -0.01
  -0.00000540  -0.00000004  -0.00004511         -0.79     -0.01     -6.64


     Writing output data file scf.save
 
     init_run     :     75.15s CPU     78.05s WALL (       1 calls)
     electrons    :   3243.49s CPU   3365.65s WALL (       1 calls)
     forces       :     36.47s CPU     36.75s WALL (       1 calls)
     stress       :    163.44s CPU    163.90s WALL (       1 calls)

     Called by init_run:
     wfcinit      :     62.79s CPU     65.45s WALL (       1 calls)
     potinit      :      4.38s CPU      4.45s WALL (       1 calls)

     Called by electrons:
     c_bands      :   2954.78s CPU   3060.66s WALL (      20 calls)
     sum_band     :    268.18s CPU    282.29s WALL (      20 calls)
     v_of_rho     :      3.10s CPU      3.42s WALL (      21 calls)
     newd         :      7.96s CPU      9.73s WALL (      21 calls)
     PAW_pot      :      8.82s CPU      8.83s WALL (      21 calls)
     mix_rho      :      0.71s CPU      0.77s WALL (      20 calls)

     Called by c_bands:
     init_us_2    :     13.05s CPU     13.09s WALL (     344 calls)
     cegterg      :   2900.59s CPU   3006.41s WALL (     160 calls)

     Called by sum_band:
     sum_band:bec :      0.16s CPU      0.16s WALL (     160 calls)
     addusdens    :      8.07s CPU      9.76s WALL (      20 calls)

     Called by *egterg:
     h_psi        :   1499.10s CPU   1585.35s WALL (     863 calls)
     s_psi        :    381.94s CPU    382.04s WALL (     863 calls)
     g_psi        :      6.83s CPU      6.84s WALL (     695 calls)
     cdiaghg      :    148.00s CPU    148.08s WALL (     855 calls)

     Called by h_psi:
     h_psi:pot    :   1489.67s CPU   1575.79s WALL (     863 calls)
     h_psi:calbec :    369.20s CPU    369.74s WALL (     863 calls)
     vloc_psi     :    737.60s CPU    823.10s WALL (     863 calls)
     add_vuspsi   :    382.88s CPU    382.95s WALL (     863 calls)

     General routines
     calbec       :    520.72s CPU    521.51s WALL (    1063 calls)
     fft          :      1.95s CPU      2.52s WALL (     297 calls)
     fftw         :    779.44s CPU    876.66s WALL (  235330 calls)
 
     Parallel routines
     fft_scatter  :    141.96s CPU    231.56s WALL (  235627 calls)
 
     PWSCF        :     0h58m CPU        1h 1m WALL

 
   This run was terminated on:  19:27: 9   4Nov2017            

=------------------------------------------------------------------------------=
   JOB DONE.
=------------------------------------------------------------------------------=
