
     Program PWSCF v.6.1 (svn rev. 13369) starts on  4Nov2017 at  0:14: 3 

     This program is part of the open-source Quantum ESPRESSO suite
     for quantum simulation of materials; please cite
         "P. Giannozzi et al., J. Phys.:Condens. Matter 21 395502 (2009);
          URL http://www.quantum-espresso.org", 
     in publications or presentations arising from this work. More details at
     http://www.quantum-espresso.org/quote

     Parallel version (MPI), running on     8 processors
     R & G space division:  proc/nbgrp/npool/nimage =       8
     Waiting for input...
     Reading input from standard input

     Current dimensions of program PWSCF are:
     Max number of different atomic species (ntypx) = 10
     Max number of k-points (npk) =  40000
     Max angular momentum in pseudopotentials (lmaxx) =  3
               file C.pbe-n-kjpaw_psl.0.1.UPF: wavefunction(s)  2P renormalized
               file N.pbe-n-kjpaw_psl.0.1.UPF: wavefunction(s)  2P renormalized
               file H.pbe-kjpaw_psl.0.1.UPF: wavefunction(s)  1S renormalized
               file O.pbe-n-kjpaw_psl.0.1.UPF: wavefunction(s)  2P renormalized

     -------------------------------------
     Parameters for Dispersion Correction:
     -------------------------------------
       atom      VdW radius       C_6     

        C          2.744         60.710
        N          2.640         42.670
        H          1.892          4.857
        O          2.536         24.284

     Subspace diagonalization in iterative solution of the eigenvalue problem:
     a serial algorithm will be used

 
     Parallelization info
     --------------------
     sticks:   dense  smooth     PW     G-vecs:    dense   smooth      PW
     Min         726     726    191                40562    40562    5566
     Max         727     727    192                40564    40564    5570
     Sum        5811    5811   1533               324503   324503   44541
 


     bravais-lattice index     =            0
     lattice parameter (alat)  =      12.7273  a.u.
     unit-cell volume          =    2401.8185 (a.u.)^3
     number of atoms/cell      =           36
     number of atomic types    =            4
     number of electrons       =       128.00
     number of Kohn-Sham states=           76
     kinetic-energy cutoff     =     100.0000  Ry
     charge density cutoff     =     400.0000  Ry
     convergence threshold     =      1.0E-08
     mixing beta               =       0.5000
     number of iterations used =            8  plain     mixing
     Exchange-correlation      =  SLA  PW   PBX  PBC ( 1  4  3  4 0 0)

     celldm(1)=  12.727306  celldm(2)=   0.000000  celldm(3)=   0.000000
     celldm(4)=   0.000000  celldm(5)=   0.000000  celldm(6)=   0.000000

     crystal axes: (cart. coord. in units of alat)
               a(1) = (   1.000000   0.000000   0.000000 )  
               a(2) = (   0.391558   1.126935   0.000000 )  
               a(3) = (   0.394176   0.228660   1.033789 )  

     reciprocal axes: (cart. coord. in units 2 pi/alat)
               b(1) = (  1.000000 -0.347454 -0.304440 )  
               b(2) = (  0.000000  0.887363 -0.196273 )  
               b(3) = (  0.000000  0.000000  0.967315 )  


     PseudoPot. # 1 for  C read from file:
     /scratch/ahofstet/pseudo/C.pbe-n-kjpaw_psl.0.1.UPF
     MD5 check sum: 430fe95172b1e11ef3f8ed03bac87931
     Pseudo is Projector augmented-wave + core cor, Zval =  4.0
     Generated using "atomic" code by A. Dal Corso  v.5.0.99 svn rev. 10869
     Shape of augmentation charge: BESSEL
     Using radial grid of 1073 points,  4 beta functions with: 
                l(1) =   0
                l(2) =   0
                l(3) =   1
                l(4) =   1
     Q(r) pseudized with 0 coefficients 


     PseudoPot. # 2 for  N read from file:
     /scratch/ahofstet/pseudo/N.pbe-n-kjpaw_psl.0.1.UPF
     MD5 check sum: f73187c8b701007e77325f868c9291d7
     Pseudo is Projector augmented-wave + core cor, Zval =  5.0
     Generated using "atomic" code by A. Dal Corso  v.5.0.99 svn rev. 10869
     Shape of augmentation charge: PSQ
     Using radial grid of 1085 points,  4 beta functions with: 
                l(1) =   0
                l(2) =   0
                l(3) =   1
                l(4) =   1
     Q(r) pseudized with 0 coefficients 


     PseudoPot. # 3 for  H read from file:
     /scratch/ahofstet/pseudo/H.pbe-kjpaw_psl.0.1.UPF
     MD5 check sum: 94e484f906d9e9773b2f6e52662335b2
     Pseudo is Projector augmented-wave, Zval =  1.0
     Generated using "atomic" code by A. Dal Corso  v.5.0.99 svn rev. 10869
     Shape of augmentation charge: PSQ
     Using radial grid of  929 points,  2 beta functions with: 
                l(1) =   0
                l(2) =   0
     Q(r) pseudized with 0 coefficients 


     PseudoPot. # 4 for  O read from file:
     /scratch/ahofstet/pseudo/O.pbe-n-kjpaw_psl.0.1.UPF
     MD5 check sum: 3f94a2996a3169367d6eb21d9b593f20
     Pseudo is Projector augmented-wave + core cor, Zval =  6.0
     Generated using "atomic" code by A. Dal Corso  v.5.0.99 svn rev. 10869
     Shape of augmentation charge: BESSEL
     Using radial grid of 1095 points,  4 beta functions with: 
                l(1) =   0
                l(2) =   0
                l(3) =   1
                l(4) =   1
     Q(r) pseudized with 0 coefficients 


     atomic species   valence    mass     pseudopotential
        C              4.00    12.01070      C( 1.00)
        N              5.00    14.00670      N( 1.00)
        H              1.00     1.00794      H( 1.00)
        O              6.00    15.99940      O( 1.00)

      2 Sym. Ops., with inversion, found



   Cartesian axes

     site n.     atom                  positions (alat units)
         1           C   tau(   1) = (   0.7140661   1.0147797   0.3509794  )
         2           C   tau(   2) = (   1.0716680   0.3408157   0.6828096  )
         3           O   tau(   3) = (   0.8064918   1.0875673   0.5309727  )
         4           O   tau(   4) = (   0.9792424   0.2680282   0.5028163  )
         5           N   tau(   5) = (   0.9792431   0.9881362   0.5708960  )
         6           N   tau(   6) = (   0.8064910   0.3674592   0.4628931  )
         7           C   tau(   7) = (   1.0487964   1.0314584   0.7443540  )
         8           C   tau(   8) = (   0.7369377   0.3241370   0.2894350  )
         9           C   tau(   9) = (   1.2390743   0.9415003   0.8144934  )
        10           C   tau(  10) = (   0.5466598   0.4140952   0.2192957  )
        11           O   tau(  11) = (   1.3134867   0.8083086   0.6936914  )
        12           O   tau(  12) = (   0.4722474   0.5472869   0.3400977  )
        13           O   tau(  13) = (   1.3083151   0.9968312   0.9749026  )
        14           O   tau(  14) = (   0.4774191   0.3587642   0.0588864  )
        15           C   tau(  15) = (   0.9407940   1.1747211   0.8797629  )
        16           C   tau(  16) = (   0.8449401   0.1808743   0.1540261  )
        17           O   tau(  17) = (   0.5882925   0.2265623   0.8798342  )
        18           O   tau(  18) = (   1.1974417   1.1290331   0.1539548  )
        19           O   tau(  19) = (   0.8027789   1.0885517   0.9879408  )
        20           O   tau(  20) = (   0.9829552   0.2670438   0.0458482  )
        21           O   tau(  21) = (   1.1272881   0.6785174   0.2854931  )
        22           O   tau(  22) = (   0.6584460   0.6770780   0.7482960  )
        23           H   tau(  23) = (   0.5827878   1.1094227   0.3348825  )
        24           H   tau(  24) = (   1.2029463   0.2461727   0.6989066  )
        25           H   tau(  25) = (   0.6698671   0.8591466   0.3709387  )
        26           H   tau(  26) = (   1.1158670   0.4964489   0.6628504  )
        27           H   tau(  27) = (   0.8155763   1.0318328   0.2244444  )
        28           H   tau(  28) = (   0.9701578   0.3237626   0.8093446  )
        29           H   tau(  29) = (   1.4552735   0.7546294   0.7345200  )
        30           H   tau(  30) = (   0.3304606   0.6009660   0.2992690  )
        31           H   tau(  31) = (   0.3296035   0.9630939   0.0319351  )
        32           H   tau(  32) = (   1.4561306   0.3925015   1.0018540  )
        33           H   tau(  33) = (   1.0665910   0.7040407   0.1549065  )
        34           H   tau(  34) = (   0.7191431   0.6515547   0.8788825  )
        35           H   tau(  35) = (   1.0953149   0.7916754   0.3725391  )
        36           H   tau(  36) = (   0.6904192   0.5639201   0.6612499  )

     number of k points=    14
                       cart. coord. in units 2pi/alat
        k(    1) = (   0.0000000   0.0000000   0.0000000), wk =   0.0740741
        k(    2) = (   0.0000000   0.0000000   0.3224384), wk =   0.1481481
        k(    3) = (   0.0000000   0.2957875  -0.0654243), wk =   0.1481481
        k(    4) = (   0.0000000   0.2957875   0.2570142), wk =   0.1481481
        k(    5) = (   0.0000000   0.2957875  -0.3878627), wk =   0.1481481
        k(    6) = (   0.3333333  -0.1158181  -0.1014800), wk =   0.1481481
        k(    7) = (   0.3333333  -0.1158181   0.2209584), wk =   0.1481481
        k(    8) = (   0.3333333  -0.1158181  -0.4239185), wk =   0.1481481
        k(    9) = (   0.3333333   0.1799695  -0.1669043), wk =   0.1481481
        k(   10) = (   0.3333333   0.1799695   0.1555342), wk =   0.1481481
        k(   11) = (   0.3333333   0.1799695  -0.4893427), wk =   0.1481481
        k(   12) = (   0.3333333  -0.4116056  -0.0360557), wk =   0.1481481
        k(   13) = (   0.3333333  -0.4116056   0.2863827), wk =   0.1481481
        k(   14) = (   0.3333333  -0.4116056  -0.3584942), wk =   0.1481481

     Dense  grid:   324503 G-vectors     FFT dimensions: (  81, 100,  96)

     Estimated max dynamical RAM per process >     178.82MB

     Estimated total allocated dynamical RAM >    1430.53MB

     Check: negative/imaginary core charge=   -0.000003    0.000000

     Initial potential from superposition of free atoms

     starting charge  127.99950, renormalised to  128.00000
     Starting wfc are  102 randomized atomic wfcs
     Checking if some PAW data can be deallocated... 

     total cpu time spent up to now is       11.8 secs

     per-process dynamical memory:   201.1 Mb

     Self-consistent Calculation

     iteration #  1     ecut=   100.00 Ry     beta=0.50
     Davidson diagonalization with overlap
     ethr =  1.00E-02,  avg # of iterations =  3.1

     total cpu time spent up to now is       33.8 secs

     total energy              =    -719.66353662 Ry
     Harris-Foulkes estimate   =    -721.55658386 Ry
     estimated scf accuracy    <       3.43736805 Ry

     iteration #  2     ecut=   100.00 Ry     beta=0.50
     Davidson diagonalization with overlap
     ethr =  2.69E-03,  avg # of iterations =  3.0

     total cpu time spent up to now is       49.7 secs

     total energy              =    -720.29064009 Ry
     Harris-Foulkes estimate   =    -720.60476809 Ry
     estimated scf accuracy    <       0.66860418 Ry

     iteration #  3     ecut=   100.00 Ry     beta=0.50
     Davidson diagonalization with overlap
     ethr =  5.22E-04,  avg # of iterations =  5.7

     total cpu time spent up to now is       67.1 secs

     total energy              =    -720.43658400 Ry
     Harris-Foulkes estimate   =    -720.48254757 Ry
     estimated scf accuracy    <       0.12011624 Ry

     iteration #  4     ecut=   100.00 Ry     beta=0.50
     Davidson diagonalization with overlap
     ethr =  9.38E-05,  avg # of iterations =  5.4

     total cpu time spent up to now is       83.3 secs

     total energy              =    -720.45181873 Ry
     Harris-Foulkes estimate   =    -720.46414180 Ry
     estimated scf accuracy    <       0.03204730 Ry

     iteration #  5     ecut=   100.00 Ry     beta=0.50
     Davidson diagonalization with overlap
     ethr =  2.50E-05,  avg # of iterations =  6.0

     total cpu time spent up to now is       99.3 secs

     total energy              =    -720.45830499 Ry
     Harris-Foulkes estimate   =    -720.45965567 Ry
     estimated scf accuracy    <       0.00440932 Ry

     iteration #  6     ecut=   100.00 Ry     beta=0.50
     Davidson diagonalization with overlap
     ethr =  3.44E-06,  avg # of iterations =  6.5

     total cpu time spent up to now is      117.6 secs

     total energy              =    -720.45925884 Ry
     Harris-Foulkes estimate   =    -720.45954985 Ry
     estimated scf accuracy    <       0.00072761 Ry

     iteration #  7     ecut=   100.00 Ry     beta=0.50
     Davidson diagonalization with overlap
     ethr =  5.68E-07,  avg # of iterations =  3.1

     total cpu time spent up to now is      132.4 secs

     total energy              =    -720.45940093 Ry
     Harris-Foulkes estimate   =    -720.45944315 Ry
     estimated scf accuracy    <       0.00013629 Ry

     iteration #  8     ecut=   100.00 Ry     beta=0.50
     Davidson diagonalization with overlap
     ethr =  1.06E-07,  avg # of iterations =  3.6

     total cpu time spent up to now is      150.9 secs

     total energy              =    -720.45943584 Ry
     Harris-Foulkes estimate   =    -720.45945223 Ry
     estimated scf accuracy    <       0.00004342 Ry

     iteration #  9     ecut=   100.00 Ry     beta=0.50
     Davidson diagonalization with overlap
     ethr =  3.39E-08,  avg # of iterations =  2.0

     total cpu time spent up to now is      163.6 secs

     total energy              =    -720.45943511 Ry
     Harris-Foulkes estimate   =    -720.45943967 Ry
     estimated scf accuracy    <       0.00000920 Ry

     iteration # 10     ecut=   100.00 Ry     beta=0.50
     Davidson diagonalization with overlap
     ethr =  7.19E-09,  avg # of iterations =  4.0

     total cpu time spent up to now is      184.3 secs

     total energy              =    -720.45944197 Ry
     Harris-Foulkes estimate   =    -720.45944400 Ry
     estimated scf accuracy    <       0.00000632 Ry

     iteration # 11     ecut=   100.00 Ry     beta=0.50
     Davidson diagonalization with overlap
     ethr =  4.94E-09,  avg # of iterations =  1.0

     total cpu time spent up to now is      196.5 secs

     total energy              =    -720.45944102 Ry
     Harris-Foulkes estimate   =    -720.45944220 Ry
     estimated scf accuracy    <       0.00000235 Ry

     iteration # 12     ecut=   100.00 Ry     beta=0.50
     Davidson diagonalization with overlap
     ethr =  1.84E-09,  avg # of iterations =  4.0

     total cpu time spent up to now is      215.8 secs

     total energy              =    -720.45944215 Ry
     Harris-Foulkes estimate   =    -720.45944223 Ry
     estimated scf accuracy    <       0.00000031 Ry

     iteration # 13     ecut=   100.00 Ry     beta=0.50
     Davidson diagonalization with overlap
     ethr =  2.45E-10,  avg # of iterations =  1.0

     total cpu time spent up to now is      227.9 secs

     total energy              =    -720.45944209 Ry
     Harris-Foulkes estimate   =    -720.45944216 Ry
     estimated scf accuracy    <       0.00000016 Ry

     iteration # 14     ecut=   100.00 Ry     beta=0.50
     Davidson diagonalization with overlap
     ethr =  1.23E-10,  avg # of iterations =  4.0

     total cpu time spent up to now is      245.2 secs

     End of self-consistent calculation

          k = 0.0000 0.0000 0.0000 ( 40541 PWs)   bands (ev):

   -22.1829 -22.0193 -21.7856 -21.6350 -21.1730 -21.1409 -19.8026 -19.4870
   -19.1439 -19.0557 -18.7098 -18.6092 -16.1301 -16.0903 -11.9597 -11.8121
   -10.8398 -10.4331  -9.7255  -9.7228  -8.3604  -8.1808  -7.3851  -7.3211
    -7.0331  -7.0320  -6.6079  -6.4069  -6.3343  -5.9419  -5.7943  -5.5487
    -5.4917  -5.3473  -5.2793  -4.9805  -4.8507  -4.8244  -4.7468  -4.5409
    -4.1753  -4.1328  -3.5291  -3.2488  -3.1336  -3.0928  -3.0495  -2.8421
    -2.2961  -1.9921  -1.9664  -1.7880  -1.4248  -1.4009  -1.3866  -1.3012
    -1.0480  -0.9402  -0.8976  -0.6368  -0.4071  -0.3950  -0.2615   0.0427
     3.3630   3.4477   4.3944   4.6510   6.3304   6.4991   6.7599   7.0293
     7.4005   8.4580   8.5777   8.6886

          k = 0.0000 0.0000 0.3224 ( 40563 PWs)   bands (ev):

   -22.1654 -22.0389 -21.7860 -21.6331 -21.1648 -21.1487 -19.8022 -19.4870
   -19.1828 -19.0229 -18.7349 -18.5777 -16.1168 -16.0956 -11.9695 -11.8427
   -10.7933 -10.4332  -9.7566  -9.7050  -8.4055  -8.1311  -7.3560  -7.2755
    -7.0427  -6.9489  -6.8530  -6.6661  -6.2777  -5.9462  -5.6222  -5.5534
    -5.4216  -5.2346  -5.1990  -5.0582  -4.9350  -4.7303  -4.6245  -4.5591
    -4.2039  -4.1461  -3.5459  -3.2966  -3.1539  -3.0792  -2.9836  -2.8440
    -2.3435  -2.0270  -1.9736  -1.8125  -1.5396  -1.5161  -1.2915  -1.2469
    -1.0949  -0.9411  -0.8578  -0.6358  -0.4552  -0.2910  -0.1865   0.0164
     3.3046   3.5251   4.4085   4.6464   6.4454   6.5570   6.6700   6.8434
     7.5128   7.8647   8.4179   8.5815

          k = 0.0000 0.2958-0.0654 ( 40557 PWs)   bands (ev):

   -22.1784 -22.0242 -21.7857 -21.6356 -21.1723 -21.1407 -19.8048 -19.4861
   -19.1425 -19.0547 -18.7086 -18.6108 -16.1279 -16.0931 -11.9660 -11.8055
   -10.8399 -10.4359  -9.7299  -9.7147  -8.4337  -8.0696  -7.3563  -7.3205
    -7.2057  -6.9146  -6.6230  -6.5397  -6.2369  -5.9105  -5.7466  -5.6417
    -5.4434  -5.3196  -5.2056  -5.0102  -4.9318  -4.8037  -4.7129  -4.6342
    -4.2093  -4.0277  -3.5198  -3.2038  -3.1461  -3.0846  -3.0116  -2.9295
    -2.3504  -2.0729  -1.9538  -1.7716  -1.4333  -1.4189  -1.3434  -1.2841
    -0.9960  -0.9522  -0.8415  -0.6950  -0.4201  -0.3952  -0.2024   0.0184
     3.3684   3.4354   4.3851   4.6578   6.4113   6.6810   6.7673   7.0251
     7.4255   7.6935   8.4144   8.6420

          k = 0.0000 0.2958 0.2570 ( 40585 PWs)   bands (ev):

   -22.1620 -22.0415 -21.7876 -21.6332 -21.1631 -21.1496 -19.8044 -19.4863
   -19.1812 -19.0224 -18.7333 -18.5791 -16.1126 -16.1003 -11.9728 -11.8376
   -10.8066 -10.4242  -9.8004  -9.6486  -8.4281  -8.1089  -7.3536  -7.2685
    -7.1017  -6.9140  -6.8589  -6.6841  -6.2812  -5.9445  -5.6142  -5.5534
    -5.3806  -5.2397  -5.2007  -5.0642  -4.8313  -4.7386  -4.6846  -4.5854
    -4.2691  -4.0644  -3.5147  -3.2859  -3.1536  -3.0944  -2.9502  -2.9216
    -2.4469  -2.0989  -1.9315  -1.7758  -1.4989  -1.4670  -1.3134  -1.2631
    -1.1291  -0.8694  -0.8367  -0.6571  -0.4433  -0.3350  -0.1586   0.0093
     3.3476   3.4900   4.4122   4.6547   6.3850   6.5776   6.6571   7.0261
     7.5322   8.0410   8.1872   8.2640

          k = 0.0000 0.2958-0.3879 ( 40571 PWs)   bands (ev):

   -22.1625 -22.0401 -21.7890 -21.6330 -21.1657 -21.1467 -19.8044 -19.4865
   -19.1808 -19.0225 -18.7337 -18.5789 -16.1178 -16.0950 -11.9704 -11.8394
   -10.8185 -10.4137  -9.7980  -9.6449  -8.3823  -8.1859  -7.3476  -7.2035
    -7.1271  -7.0008  -6.8621  -6.5472  -6.3409  -5.9503  -5.6104  -5.5082
    -5.4317  -5.2560  -5.1224  -5.0911  -4.8982  -4.7278  -4.6464  -4.5975
    -4.3092  -4.0339  -3.5370  -3.3184  -3.1234  -3.0864  -2.9334  -2.9038
    -2.4603  -2.1079  -1.9522  -1.7646  -1.4633  -1.4253  -1.3004  -1.2529
    -1.1874  -0.8858  -0.8600  -0.6028  -0.4502  -0.3458  -0.1759   0.0083
     3.3790   3.4556   4.4112   4.6456   6.4817   6.6376   6.6676   7.0593
     7.4883   7.6342   7.9132   8.6126

          k = 0.3333-0.1158-0.1015 ( 40560 PWs)   bands (ev):

   -22.1654 -22.0366 -21.7880 -21.6298 -21.1752 -21.1439 -19.8048 -19.4855
   -19.1432 -19.0534 -18.7097 -18.6126 -16.1254 -16.0890 -11.9552 -11.8146
   -10.8425 -10.4490  -9.7381  -9.6893  -8.4239  -8.1124  -7.3371  -7.3097
    -7.2051  -6.8709  -6.6248  -6.5413  -6.2379  -5.9764  -5.7881  -5.6929
    -5.5530  -5.2472  -5.1487  -4.9871  -4.9378  -4.7652  -4.6716  -4.5518
    -4.1881  -4.0496  -3.5191  -3.2346  -3.1593  -3.0875  -3.0194  -2.8770
    -2.3681  -2.0501  -2.0213  -1.7844  -1.5073  -1.4110  -1.3703  -1.2481
    -1.0158  -0.9349  -0.8481  -0.6513  -0.4703  -0.3363  -0.2121  -0.0010
     3.3950   3.4786   4.4018   4.6557   6.5023   6.6394   6.7165   6.9474
     7.3532   7.8698   8.4670   8.6356

          k = 0.3333-0.1158 0.2210 ( 40572 PWs)   bands (ev):

   -22.1716 -22.0244 -21.7858 -21.6384 -21.1681 -21.1499 -19.8055 -19.4855
   -19.1812 -19.0212 -18.7382 -18.5779 -16.1096 -16.0975 -11.9680 -11.8396
   -10.8173 -10.4175  -9.7817  -9.6534  -8.4420  -8.0945  -7.4245  -7.2915
    -7.0936  -6.9362  -6.8147  -6.5709  -6.3143  -5.9102  -5.7018  -5.5644
    -5.4329  -5.2554  -5.1481  -5.0496  -4.9067  -4.7391  -4.6125  -4.5057
    -4.2818  -4.0834  -3.5192  -3.2720  -3.1379  -3.1354  -3.0133  -2.8510
    -2.3894  -2.0741  -2.0142  -1.7876  -1.5234  -1.3788  -1.3396  -1.3022
    -1.0146  -0.9380  -0.7593  -0.6672  -0.4568  -0.4293  -0.1948   0.0291
     3.3754   3.4946   4.3520   4.6942   6.4310   6.6670   6.7139   6.9863
     7.4243   8.0291   8.2150   8.4940

          k = 0.3333-0.1158-0.4239 ( 40552 PWs)   bands (ev):

   -22.1593 -22.0402 -21.7877 -21.6331 -21.1673 -21.1509 -19.8049 -19.4857
   -19.1814 -19.0212 -18.7364 -18.5793 -16.1157 -16.0909 -11.9708 -11.8347
   -10.8345 -10.4142  -9.7553  -9.6641  -8.3786  -8.2143  -7.3509  -7.2219
    -7.0952  -7.0198  -6.8267  -6.5705  -6.3073  -5.9398  -5.7097  -5.5846
    -5.4434  -5.2067  -5.1095  -5.0685  -4.8974  -4.7453  -4.6138  -4.5032
    -4.2502  -4.0855  -3.5039  -3.3120  -3.1520  -3.1118  -2.9793  -2.8722
    -2.4294  -2.0724  -2.0057  -1.8072  -1.5347  -1.4125  -1.3474  -1.2537
    -1.0252  -0.9207  -0.8324  -0.6236  -0.4598  -0.3845  -0.1713   0.0039
     3.3449   3.5357   4.3922   4.6647   6.4480   6.6791   6.7345   7.0626
     7.4416   7.8095   8.0226   8.2976

          k = 0.3333 0.1800-0.1669 ( 40519 PWs)   bands (ev):

   -22.1682 -22.0331 -21.7879 -21.6295 -21.1742 -21.1461 -19.8033 -19.4862
   -19.1462 -19.0541 -18.7079 -18.6116 -16.1249 -16.0888 -11.9526 -11.8181
   -10.8307 -10.4576  -9.7487  -9.6870  -8.4128  -8.1152  -7.3598  -7.3169
    -7.2170  -6.8539  -6.5937  -6.4952  -6.2903  -5.9933  -5.8351  -5.5921
    -5.5198  -5.2751  -5.2171  -4.9680  -4.8709  -4.8014  -4.6681  -4.5818
    -4.1764  -4.0731  -3.5451  -3.2456  -3.1172  -3.0708  -3.0350  -2.9344
    -2.2944  -2.0688  -1.9381  -1.8062  -1.5550  -1.3839  -1.3826  -1.2232
    -1.1320  -0.9291  -0.7995  -0.6262  -0.4324  -0.3846  -0.1914  -0.0196
     3.3948   3.4718   4.4005   4.6564   6.4917   6.6124   6.8419   7.1003
     7.4109   7.8255   8.1532   8.5217

          k = 0.3333 0.1800 0.1555 ( 40567 PWs)   bands (ev):

   -22.1737 -22.0228 -21.7839 -21.6385 -21.1688 -21.1506 -19.8038 -19.4862
   -19.1848 -19.0213 -18.7362 -18.5772 -16.1143 -16.0921 -11.9758 -11.8262
   -10.8312 -10.4114  -9.7533  -9.6813  -8.3709  -8.2024  -7.3589  -7.2315
    -7.1386  -7.0096  -6.8491  -6.5284  -6.3061  -5.9397  -5.6865  -5.4923
    -5.4259  -5.3056  -5.1573  -5.0530  -4.7802  -4.7554  -4.6453  -4.5561
    -4.2383  -4.0858  -3.5402  -3.3475  -3.1339  -3.1048  -3.0456  -2.8992
    -2.3038  -2.0630  -1.9908  -1.8149  -1.5408  -1.4522  -1.3292  -1.2697
    -0.9997  -0.8733  -0.7656  -0.7003  -0.4759  -0.3902  -0.2050   0.0152
     3.3570   3.5162   4.3749   4.6867   6.3693   6.6213   6.7402   7.0526
     7.4724   8.1613   8.2175   8.3850

          k = 0.3333 0.1800-0.4893 ( 40559 PWs)   bands (ev):

   -22.1615 -22.0384 -21.7862 -21.6329 -21.1655 -21.1542 -19.8033 -19.4862
   -19.1846 -19.0216 -18.7349 -18.5784 -16.1101 -16.0959 -11.9699 -11.8369
   -10.8099 -10.4346  -9.7409  -9.6956  -8.4166  -8.1321  -7.3637  -7.2909
    -7.1194  -6.9272  -6.8054  -6.6349  -6.2927  -5.9795  -5.6492  -5.5725
    -5.3726  -5.2423  -5.2021  -5.0413  -4.8392  -4.7471  -4.5904  -4.5657
    -4.2214  -4.1155  -3.5331  -3.3226  -3.1561  -3.0950  -2.9733  -2.9271
    -2.3245  -2.0607  -1.9825  -1.8265  -1.6050  -1.4477  -1.3331  -1.2189
    -1.1018  -0.8851  -0.8029  -0.6296  -0.4341  -0.3661  -0.1859  -0.0036
     3.3571   3.5216   4.3911   4.6712   6.4632   6.5689   6.7608   7.1492
     7.6354   7.8372   8.0118   8.1631

          k = 0.3333-0.4116-0.0361 ( 40550 PWs)   bands (ev):

   -22.1647 -22.0365 -21.7886 -21.6299 -21.1771 -21.1421 -19.8051 -19.4854
   -19.1440 -19.0536 -18.7081 -18.6127 -16.1278 -16.0864 -11.9505 -11.8184
   -10.8576 -10.4357  -9.7265  -9.6927  -8.3697  -8.2086  -7.3684  -7.3148
    -7.0444  -6.9783  -6.6422  -6.4916  -6.2705  -5.9516  -5.8569  -5.5962
    -5.5038  -5.2681  -5.1997  -5.0028  -4.9201  -4.7480  -4.6855  -4.5802
    -4.1496  -4.0943  -3.4893  -3.2641  -3.1219  -3.0502  -2.9971  -2.9641
    -2.3597  -2.1268  -2.0170  -1.7878  -1.4930  -1.3849  -1.3260  -1.2596
    -1.0306  -0.9364  -0.7995  -0.6397  -0.5043  -0.3525  -0.1737  -0.0296
     3.3864   3.4839   4.4081   4.6460   6.4308   6.6808   6.8955   7.0698
     7.3842   7.8670   8.0890   8.4704

          k = 0.3333-0.4116 0.2864 ( 40565 PWs)   bands (ev):

   -22.1705 -22.0258 -21.7849 -21.6389 -21.1685 -21.1498 -19.8058 -19.4853
   -19.1822 -19.0213 -18.7365 -18.5780 -16.1145 -16.0926 -11.9661 -11.8419
   -10.8201 -10.4138  -9.7519  -9.6837  -8.4412  -8.1071  -7.4272  -7.2547
    -7.0912  -6.9378  -6.8038  -6.6520  -6.2942  -5.9168  -5.6143  -5.5662
    -5.4785  -5.2424  -5.1720  -5.0503  -4.8496  -4.7306  -4.6280  -4.5709
    -4.2058  -4.1440  -3.5044  -3.2643  -3.1375  -3.0773  -3.0238  -2.9284
    -2.3655  -2.1131  -2.0149  -1.8018  -1.5424  -1.4156  -1.3139  -1.2649
    -1.0220  -0.8733  -0.7568  -0.7085  -0.4597  -0.4008  -0.1964   0.0210
     3.3703   3.4980   4.3596   4.6934   6.3750   6.7009   6.8494   7.1236
     7.4429   7.8041   8.0611   8.3378

          k = 0.3333-0.4116-0.3585 ( 40575 PWs)   bands (ev):

   -22.1595 -22.0393 -21.7886 -21.6327 -21.1682 -21.1505 -19.8053 -19.4855
   -19.1820 -19.0215 -18.7348 -18.5795 -16.1152 -16.0913 -11.9569 -11.8544
   -10.8100 -10.4277  -9.7449  -9.6882  -8.4339  -8.1193  -7.4166  -7.2631
    -7.0763  -6.9426  -6.7757  -6.6483  -6.3089  -5.9762  -5.6573  -5.5795
    -5.3881  -5.2694  -5.1760  -5.0488  -4.7575  -4.7367  -4.6157  -4.5976
    -4.2168  -4.1574  -3.5046  -3.2561  -3.1545  -3.0936  -3.0053  -2.8893
    -2.4136  -2.1161  -2.0062  -1.7746  -1.4794  -1.4515  -1.3249  -1.2773
    -1.1475  -0.9090  -0.7850  -0.6012  -0.4497  -0.3839  -0.1515  -0.0126
     3.4183   3.4709   4.3894   4.6795   6.4788   6.5980   6.7658   7.2083
     7.4047   7.8237   7.8785   8.3737

     highest occupied, lowest unoccupied level (ev):     0.0427    3.3046

!    total energy              =    -720.45944214 Ry
     Harris-Foulkes estimate   =    -720.45944214 Ry
     estimated scf accuracy    <          6.4E-09 Ry

     total all-electron energy =     -2651.332504 Ry

     The total energy is the sum of the following terms:

     one-electron contribution =    -369.56716351 Ry
     hartree contribution      =     235.84461808 Ry
     xc contribution           =    -142.60521722 Ry
     ewald contribution        =    -260.05131424 Ry
     Dispersion Correction     =      -0.13896689 Ry
     one-center paw contrib.   =    -183.94139835 Ry

     convergence has been achieved in  14 iterations

     Forces acting on atoms (cartesian axes, Ry/au):

     atom    1 type  1   force =     0.00326474   -0.00044646    0.00117944
     atom    2 type  1   force =    -0.00326474    0.00044646   -0.00117944
     atom    3 type  4   force =     0.00003738   -0.00078369   -0.00034001
     atom    4 type  4   force =    -0.00003738    0.00078369    0.00034001
     atom    5 type  2   force =    -0.00083892   -0.00027809    0.00089053
     atom    6 type  2   force =     0.00083892    0.00027809   -0.00089053
     atom    7 type  1   force =    -0.00302601   -0.00083691   -0.00061368
     atom    8 type  1   force =     0.00302601    0.00083691    0.00061368
     atom    9 type  1   force =    -0.00236296    0.00040634   -0.00265381
     atom   10 type  1   force =     0.00236296   -0.00040634    0.00265381
     atom   11 type  4   force =     0.00200363    0.00222310    0.00024611
     atom   12 type  4   force =    -0.00200363   -0.00222310   -0.00024611
     atom   13 type  4   force =     0.00155085   -0.00015549    0.00241735
     atom   14 type  4   force =    -0.00155085    0.00015549   -0.00241735
     atom   15 type  1   force =     0.00125987   -0.00041191    0.00215284
     atom   16 type  1   force =    -0.00125987    0.00041191   -0.00215284
     atom   17 type  4   force =    -0.00067313    0.00158411   -0.00068878
     atom   18 type  4   force =     0.00067313   -0.00158411    0.00068878
     atom   19 type  4   force =     0.00087283    0.00124261   -0.00065387
     atom   20 type  4   force =    -0.00087283   -0.00124261    0.00065387
     atom   21 type  4   force =     0.00009527    0.00084206    0.00000118
     atom   22 type  4   force =    -0.00009527   -0.00084206   -0.00000118
     atom   23 type  3   force =    -0.00020748   -0.00043653   -0.00193518
     atom   24 type  3   force =     0.00020748    0.00043653    0.00193518
     atom   25 type  3   force =     0.00019333    0.00093863   -0.00016602
     atom   26 type  3   force =    -0.00019333   -0.00093863    0.00016602
     atom   27 type  3   force =    -0.00048834    0.00041767    0.00068281
     atom   28 type  3   force =     0.00048834   -0.00041767   -0.00068281
     atom   29 type  3   force =    -0.00020611    0.00001334   -0.00015953
     atom   30 type  3   force =     0.00020611   -0.00001334    0.00015953
     atom   31 type  3   force =     0.00015393    0.00055312    0.00032831
     atom   32 type  3   force =    -0.00015393   -0.00055312   -0.00032831
     atom   33 type  3   force =    -0.00072579   -0.00031310    0.00016367
     atom   34 type  3   force =     0.00072579    0.00031310   -0.00016367
     atom   35 type  3   force =     0.00016811   -0.00045897   -0.00026941
     atom   36 type  3   force =    -0.00016811    0.00045897    0.00026941

     Total force =     0.012282     Total SCF correction =     0.000164


     Computing stress (Cartesian axis) and pressure

          total   stress  (Ry/bohr**3)                   (kbar)     P=   -9.07
  -0.00007150   0.00003290   0.00001553        -10.52      4.84      2.28
   0.00003290  -0.00005461  -0.00001995          4.84     -8.03     -2.93
   0.00001553  -0.00001995  -0.00005882          2.28     -2.93     -8.65


     Writing output data file scf.save
 
     init_run     :     10.88s CPU     11.18s WALL (       1 calls)
     electrons    :    225.35s CPU    233.50s WALL (       1 calls)
     forces       :      5.37s CPU      5.38s WALL (       1 calls)
     stress       :     13.91s CPU     13.94s WALL (       1 calls)

     Called by init_run:
     wfcinit      :      6.03s CPU      6.25s WALL (       1 calls)
     potinit      :      1.71s CPU      1.76s WALL (       1 calls)

     Called by electrons:
     c_bands      :    193.72s CPU    200.39s WALL (      14 calls)
     sum_band     :     27.38s CPU     28.66s WALL (      14 calls)
     v_of_rho     :      0.72s CPU      0.80s WALL (      15 calls)
     newd         :      1.32s CPU      1.35s WALL (      15 calls)
     PAW_pot      :      2.01s CPU      2.01s WALL (      15 calls)
     mix_rho      :      0.15s CPU      0.16s WALL (      14 calls)

     Called by c_bands:
     init_us_2    :      2.12s CPU      2.12s WALL (     434 calls)
     cegterg      :    186.56s CPU    193.21s WALL (     196 calls)

     Called by sum_band:
     sum_band:bec :      0.02s CPU      0.02s WALL (     196 calls)
     addusdens    :      1.39s CPU      1.39s WALL (      14 calls)

     Called by *egterg:
     h_psi        :    132.49s CPU    139.12s WALL (     942 calls)
     s_psi        :     10.45s CPU     10.45s WALL (     942 calls)
     g_psi        :      0.88s CPU      0.88s WALL (     732 calls)
     cdiaghg      :     10.11s CPU     10.10s WALL (     928 calls)

     Called by h_psi:
     h_psi:pot    :    131.45s CPU    138.05s WALL (     942 calls)
     h_psi:calbec :     11.16s CPU     11.21s WALL (     942 calls)
     vloc_psi     :    109.97s CPU    116.52s WALL (     942 calls)
     add_vuspsi   :     10.31s CPU     10.32s WALL (     942 calls)

     General routines
     calbec       :     16.99s CPU     17.07s WALL (    1208 calls)
     fft          :      1.49s CPU      1.63s WALL (     219 calls)
     fftw         :    120.14s CPU    127.68s WALL (   97362 calls)
 
     Parallel routines
     fft_scatter  :     44.70s CPU     48.81s WALL (   97581 calls)
 
     PWSCF        :  4m18.81s CPU     4m28.38s WALL

 
   This run was terminated on:   0:18:32   4Nov2017            

=------------------------------------------------------------------------------=
   JOB DONE.
=------------------------------------------------------------------------------=
