
     Program PWSCF v.6.1 (svn rev. 13369) starts on  3Nov2017 at 21:50:55 

     This program is part of the open-source Quantum ESPRESSO suite
     for quantum simulation of materials; please cite
         "P. Giannozzi et al., J. Phys.:Condens. Matter 21 395502 (2009);
          URL http://www.quantum-espresso.org", 
     in publications or presentations arising from this work. More details at
     http://www.quantum-espresso.org/quote

     Parallel version (MPI), running on     8 processors
     R & G space division:  proc/nbgrp/npool/nimage =       8
     Waiting for input...
     Reading input from standard input

     Current dimensions of program PWSCF are:
     Max number of different atomic species (ntypx) = 10
     Max number of k-points (npk) =  40000
     Max angular momentum in pseudopotentials (lmaxx) =  3
               file C.pbe-n-kjpaw_psl.0.1.UPF: wavefunction(s)  2P renormalized
               file N.pbe-n-kjpaw_psl.0.1.UPF: wavefunction(s)  2P renormalized
               file H.pbe-kjpaw_psl.0.1.UPF: wavefunction(s)  1S renormalized
               file O.pbe-n-kjpaw_psl.0.1.UPF: wavefunction(s)  2P renormalized

     -------------------------------------
     Parameters for Dispersion Correction:
     -------------------------------------
       atom      VdW radius       C_6     

        C          2.744         60.710
        N          2.640         42.670
        H          1.892          4.857
        O          2.536         24.284

     Subspace diagonalization in iterative solution of the eigenvalue problem:
     a serial algorithm will be used

 
     Parallelization info
     --------------------
     sticks:   dense  smooth     PW     G-vecs:    dense   smooth      PW
     Min        3514    3514    942               140313   140313   19483
     Max        3516    3516    944               140314   140314   19484
     Sum       28123   28123   7545              1122509  1122509  155867
 


     bravais-lattice index     =            0
     lattice parameter (alat)  =      32.9420  a.u.
     unit-cell volume          =    8310.7158 (a.u.)^3
     number of atoms/cell      =          128
     number of atomic types    =            4
     number of electrons       =       368.00
     number of Kohn-Sham states=          220
     kinetic-energy cutoff     =     100.0000  Ry
     charge density cutoff     =     400.0000  Ry
     convergence threshold     =      1.0E-08
     mixing beta               =       0.5000
     number of iterations used =            8  plain     mixing
     Exchange-correlation      =  SLA  PW   PBX  PBC ( 1  4  3  4 0 0)

     celldm(1)=  32.942008  celldm(2)=   0.000000  celldm(3)=   0.000000
     celldm(4)=   0.000000  celldm(5)=   0.000000  celldm(6)=   0.000000

     crystal axes: (cart. coord. in units of alat)
               a(1) = (   1.000000   0.000000   0.000000 )  
               a(2) = (   0.000000   0.814226   0.000000 )  
               a(3) = (   0.000000   0.000000   0.285525 )  

     reciprocal axes: (cart. coord. in units 2 pi/alat)
               b(1) = (  1.000000  0.000000  0.000000 )  
               b(2) = (  0.000000  1.228161  0.000000 )  
               b(3) = (  0.000000  0.000000  3.502326 )  


     PseudoPot. # 1 for  C read from file:
     /scratch/ahofstet/pseudo/C.pbe-n-kjpaw_psl.0.1.UPF
     MD5 check sum: 430fe95172b1e11ef3f8ed03bac87931
     Pseudo is Projector augmented-wave + core cor, Zval =  4.0
     Generated using "atomic" code by A. Dal Corso  v.5.0.99 svn rev. 10869
     Shape of augmentation charge: BESSEL
     Using radial grid of 1073 points,  4 beta functions with: 
                l(1) =   0
                l(2) =   0
                l(3) =   1
                l(4) =   1
     Q(r) pseudized with 0 coefficients 


     PseudoPot. # 2 for  N read from file:
     /scratch/ahofstet/pseudo/N.pbe-n-kjpaw_psl.0.1.UPF
     MD5 check sum: f73187c8b701007e77325f868c9291d7
     Pseudo is Projector augmented-wave + core cor, Zval =  5.0
     Generated using "atomic" code by A. Dal Corso  v.5.0.99 svn rev. 10869
     Shape of augmentation charge: PSQ
     Using radial grid of 1085 points,  4 beta functions with: 
                l(1) =   0
                l(2) =   0
                l(3) =   1
                l(4) =   1
     Q(r) pseudized with 0 coefficients 


     PseudoPot. # 3 for  H read from file:
     /scratch/ahofstet/pseudo/H.pbe-kjpaw_psl.0.1.UPF
     MD5 check sum: 94e484f906d9e9773b2f6e52662335b2
     Pseudo is Projector augmented-wave, Zval =  1.0
     Generated using "atomic" code by A. Dal Corso  v.5.0.99 svn rev. 10869
     Shape of augmentation charge: PSQ
     Using radial grid of  929 points,  2 beta functions with: 
                l(1) =   0
                l(2) =   0
     Q(r) pseudized with 0 coefficients 


     PseudoPot. # 4 for  O read from file:
     /scratch/ahofstet/pseudo/O.pbe-n-kjpaw_psl.0.1.UPF
     MD5 check sum: 3f94a2996a3169367d6eb21d9b593f20
     Pseudo is Projector augmented-wave + core cor, Zval =  6.0
     Generated using "atomic" code by A. Dal Corso  v.5.0.99 svn rev. 10869
     Shape of augmentation charge: BESSEL
     Using radial grid of 1095 points,  4 beta functions with: 
                l(1) =   0
                l(2) =   0
                l(3) =   1
                l(4) =   1
     Q(r) pseudized with 0 coefficients 


     atomic species   valence    mass     pseudopotential
        C              4.00    12.01070      C( 1.00)
        N              5.00    14.00670      N( 1.00)
        H              1.00     1.00794      H( 1.00)
        O              6.00    15.99940      O( 1.00)

      2 Sym. Ops. (no inversion) found



   Cartesian axes

     site n.     atom                  positions (alat units)
         1           C   tau(   1) = (   0.8824692   0.3709568   0.0347258  )
         2           C   tau(   2) = (   0.1175308   0.4432687   0.0347258  )
         3           C   tau(   3) = (   0.3825473   0.0361298   0.0347402  )
         4           C   tau(   4) = (   0.6174527   0.7780957   0.0347402  )
         5           C   tau(   5) = (   0.9193222   0.3711923   0.1055252  )
         6           C   tau(   6) = (   0.0806778   0.4430333   0.1055252  )
         7           C   tau(   7) = (   0.4194040   0.0359085   0.1055417  )
         8           C   tau(   8) = (   0.5805960   0.7783171   0.1055417  )
         9           C   tau(   9) = (   0.9559832   0.3056598   0.1339283  )
        10           C   tau(  10) = (   0.0440168   0.5085657   0.1339283  )
        11           C   tau(  11) = (   0.4560811   0.1014243   0.1339338  )
        12           C   tau(  12) = (   0.5439189   0.7128012   0.1339338  )
        13           C   tau(  13) = (   0.9555958   0.2385530   0.0891444  )
        14           C   tau(  14) = (   0.0444042   0.5756726   0.0891444  )
        15           C   tau(  15) = (   0.4557262   0.1685121   0.0891155  )
        16           C   tau(  16) = (   0.5442738   0.6457134   0.0891155  )
        17           C   tau(  17) = (   0.9171591   0.2378429   0.0193279  )
        18           C   tau(  18) = (   0.0828409   0.5763827   0.0193279  )
        19           C   tau(  19) = (   0.4172852   0.1692312   0.0193131  )
        20           C   tau(  20) = (   0.5827148   0.6449943   0.0193131  )
        21           C   tau(  21) = (   0.8784804   0.3028247  -0.0077502  )
        22           C   tau(  22) = (   0.1215196   0.5114008  -0.0077502  )
        23           C   tau(  23) = (   0.3785840   0.1042506  -0.0077475  )
        24           C   tau(  24) = (   0.6214160   0.7099750  -0.0077475  )
        25           C   tau(  25) = (  -0.0035278   0.1673248   0.1151791  )
        26           C   tau(  26) = (   1.0035278   0.6469008   0.1151791  )
        27           C   tau(  27) = (   0.4965922   0.2397549   0.1151560  )
        28           C   tau(  28) = (   0.5034078   0.5744707   0.1151560  )
        29           H   tau(  29) = (   0.8562792   0.4232989   0.0127567  )
        30           H   tau(  30) = (   0.1437208   0.3909267   0.0127567  )
        31           H   tau(  31) = (   0.3563526   0.7980131   0.0127938  )
        32           H   tau(  32) = (   0.6436474   0.0162124   0.0127938  )
        33           H   tau(  33) = (   0.9182926   0.4227493   0.1403728  )
        34           H   tau(  34) = (   0.0817074   0.3914762   0.1403728  )
        35           H   tau(  35) = (   0.4183557   0.7985863   0.1404095  )
        36           H   tau(  36) = (   0.5816443   0.0156392   0.1404095  )
        37           H   tau(  37) = (   0.9894060   0.3088819   0.1864390  )
        38           H   tau(  38) = (   0.0105940   0.5053436   0.1864390  )
        39           H   tau(  39) = (   0.4895060   0.0982019   0.1864432  )
        40           H   tau(  40) = (   0.5104940   0.7160237   0.1864432  )
        41           H   tau(  41) = (   0.9202729   0.1876431   0.2677922  )
        42           H   tau(  42) = (   0.0797271   0.6265824   0.2677922  )
        43           H   tau(  43) = (   0.4204119   0.2194127   0.2677486  )
        44           H   tau(  44) = (   0.5795881   0.5948129   0.2677486  )
        45           H   tau(  45) = (   0.8436817   0.2987420   0.2262094  )
        46           H   tau(  46) = (   0.1563183   0.5154835   0.2262094  )
        47           H   tau(  47) = (   0.3437790   0.1083223   0.2262057  )
        48           H   tau(  48) = (   0.6562210   0.7059032   0.2262057  )
        49           H   tau(  49) = (   0.0652960   0.0817496   0.0738928  )
        50           H   tau(  50) = (   0.9347040   0.7324759   0.0738928  )
        51           H   tau(  51) = (   0.5653254   0.3253900   0.0738671  )
        52           H   tau(  52) = (   0.4346746   0.4888355   0.0738671  )
        53           H   tau(  53) = (   0.0488932   0.1585455   0.0106702  )
        54           H   tau(  54) = (   0.9511068   0.6556800   0.0106702  )
        55           H   tau(  55) = (   0.5489970   0.2485938   0.0106407  )
        56           H   tau(  56) = (   0.4510030   0.5656318   0.0106407  )
        57           N   tau(  57) = (   0.0480900   0.1379068   0.0651638  )
        58           N   tau(  58) = (   0.9519100   0.6763187   0.0651638  )
        59           N   tau(  59) = (   0.5481741   0.2692194   0.0651429  )
        60           N   tau(  60) = (   0.4518259   0.5450061   0.0651429  )
        61           O   tau(  61) = (  -0.0161385   0.1373924   0.1788233  )
        62           O   tau(  62) = (   1.0161385   0.6768332   0.1788233  )
        63           O   tau(  63) = (   0.4839566   0.2696867   0.1787942  )
        64           O   tau(  64) = (   0.5160434   0.5445389   0.1787942  )
        65           C   tau(  65) = (   0.3170184   0.6463621   0.2189854  )
        66           C   tau(  66) = (   0.6829816   0.1678634   0.2189854  )
        67           C   tau(  67) = (   0.8170799   0.5750291   0.2189881  )
        68           C   tau(  68) = (   0.1829201   0.2391964   0.2189881  )
        69           C   tau(  69) = (   0.2548745   0.6566937   0.2690815  )
        70           C   tau(  70) = (   0.7451255   0.1575319   0.2690815  )
        71           C   tau(  71) = (   0.7549295   0.5647218   0.2690696  )
        72           C   tau(  72) = (   0.2450705   0.2495038   0.2690696  )
        73           C   tau(  73) = (   0.1982320   0.7106305   0.2508456  )
        74           C   tau(  74) = (   0.8017680   0.1035951   0.2508456  )
        75           C   tau(  75) = (   0.6982588   0.5108245   0.2508271  )
        76           C   tau(  76) = (   0.3017412   0.3034011   0.2508271  )
        77           C   tau(  77) = (   0.2015141   0.7511763   0.1823053  )
        78           C   tau(  78) = (   0.7984859   0.0630493   0.1823053  )
        79           C   tau(  79) = (   0.7015207   0.4702766   0.1822892  )
        80           C   tau(  80) = (   0.2984793   0.3439489   0.1822892  )
        81           C   tau(  81) = (   0.2634509   0.7404502   0.1320336  )
        82           C   tau(  82) = (   0.7365491   0.0737753   0.1320336  )
        83           C   tau(  83) = (   0.7634713   0.4809729   0.1320211  )
        84           C   tau(  84) = (   0.2365287   0.3332527   0.1320211  )
        85           C   tau(  85) = (   0.3212871   0.6883825   0.1512428  )
        86           C   tau(  86) = (   0.6787129   0.1258430   0.1512428  )
        87           C   tau(  87) = (   0.8213239   0.5330208   0.1512404  )
        88           C   tau(  88) = (   0.1786761   0.2812047   0.1512404  )
        89           C   tau(  89) = (   0.1378540   0.8045681   0.1604854  )
        90           C   tau(  90) = (   0.8621460   0.0096574   0.1604854  )
        91           C   tau(  91) = (   0.6378422   0.4169161   0.1604579  )
        92           C   tau(  92) = (   0.3621578   0.3973094   0.1604579  )
        93           H   tau(  93) = (   0.3600179   0.6026901   0.2304429  )
        94           H   tau(  94) = (   0.6399821   0.2115355   0.2304429  )
        95           H   tau(  95) = (   0.8601100   0.6186812   0.2304471  )
        96           H   tau(  96) = (   0.1398900   0.1955443   0.2304471  )
        97           H   tau(  97) = (   0.2478961   0.6214918   0.0345199  )
        98           H   tau(  98) = (   0.7521039   0.1927337   0.0345199  )
        99           H   tau(  99) = (   0.7479692   0.5999352   0.0345198  )
       100           H   tau( 100) = (   0.2520308   0.2142903   0.0345198  )
       101           H   tau( 101) = (   0.1529211   0.7223142   0.2925206  )
       102           H   tau( 102) = (   0.8470789   0.0919113   0.2925206  )
       103           H   tau( 103) = (   0.6529309   0.4991773   0.2924992  )
       104           H   tau( 104) = (   0.3470691   0.3150482   0.2924992  )
       105           H   tau( 105) = (   0.2676039   0.7748265   0.0805097  )
       106           H   tau( 106) = (   0.7323961   0.0393991   0.0805097  )
       107           H   tau( 107) = (   0.7675888   0.4466107   0.0804883  )
       108           H   tau( 108) = (   0.2324112   0.3676149   0.0804883  )
       109           H   tau( 109) = (   0.3672517   0.6773377   0.1103198  )
       110           H   tau( 110) = (   0.6327483   0.1368879   0.1103198  )
       111           H   tau( 111) = (   0.8672932   0.5440376   0.1103063  )
       112           H   tau( 112) = (   0.1327068   0.2701879   0.1103063  )
       113           H   tau( 113) = (   0.0678916   0.0737786   0.2044747  )
       114           H   tau( 114) = (   0.9321084   0.7404470   0.2044747  )
       115           H   tau( 115) = (   0.5678905   0.3334641   0.2044647  )
       116           H   tau( 116) = (   0.4321095   0.4807615   0.2044647  )
       117           H   tau( 117) = (   0.1417611   0.0425415   0.2659269  )
       118           H   tau( 118) = (   0.8582389   0.7716840   0.2659269  )
       119           H   tau( 119) = (   0.6417776   0.3647239   0.2658947  )
       120           H   tau( 120) = (   0.3582224   0.4495016   0.2658947  )
       121           N   tau( 121) = (   0.1190862   0.0448919   0.2123338  )
       122           N   tau( 122) = (   0.8809138   0.7693336   0.2123338  )
       123           N   tau( 123) = (   0.6190721   0.3623660   0.2123139  )
       124           N   tau( 124) = (   0.3809279   0.4518595   0.2123139  )
       125           O   tau( 125) = (   0.1045589  -0.0161747   0.0974966  )
       126           O   tau( 126) = (   0.8954411   0.8304002   0.0974966  )
       127           O   tau( 127) = (   0.6045457   0.4234407   0.0974683  )
       128           O   tau( 128) = (   0.3954543   0.3907848   0.0974683  )

     number of k points=     6
                       cart. coord. in units 2pi/alat
        k(    1) = (   0.0000000   0.0000000   0.0000000), wk =   0.2500000
        k(    2) = (   0.0000000   0.0000000   0.8755814), wk =   0.5000000
        k(    3) = (   0.0000000   0.0000000  -1.7511628), wk =   0.2500000
        k(    4) = (   0.0000000  -0.6140805   0.0000000), wk =   0.2500000
        k(    5) = (   0.0000000  -0.6140805   0.8755814), wk =   0.5000000
        k(    6) = (   0.0000000  -0.6140805  -1.7511628), wk =   0.2500000

     Dense  grid:  1122509 G-vectors     FFT dimensions: ( 216, 180,  60)

     Estimated max dynamical RAM per process >    1177.39MB

     Estimated total allocated dynamical RAM >    9419.13MB

     Check: negative/imaginary core charge=   -0.000002    0.000000

     Initial potential from superposition of free atoms

     starting charge  367.99707, renormalised to  368.00000
     Starting wfc are  344 randomized atomic wfcs
     Checking if some PAW data can be deallocated... 

     total cpu time spent up to now is       59.4 secs

     per-process dynamical memory:   762.0 Mb

     Self-consistent Calculation

     iteration #  1     ecut=   100.00 Ry     beta=0.50
     Davidson diagonalization with overlap
     ethr =  1.00E-02,  avg # of iterations =  4.0

     total cpu time spent up to now is      221.1 secs

     total energy              =   -1655.85602298 Ry
     Harris-Foulkes estimate   =   -1663.50844208 Ry
     estimated scf accuracy    <      14.34935834 Ry

     iteration #  2     ecut=   100.00 Ry     beta=0.50
     Davidson diagonalization with overlap
     ethr =  3.90E-03,  avg # of iterations =  2.2

     total cpu time spent up to now is      309.0 secs

     total energy              =   -1656.41947829 Ry
     Harris-Foulkes estimate   =   -1657.39856863 Ry
     estimated scf accuracy    <       1.89843818 Ry

     iteration #  3     ecut=   100.00 Ry     beta=0.50
     Davidson diagonalization with overlap
     ethr =  5.16E-04,  avg # of iterations =  5.0

     total cpu time spent up to now is      501.2 secs

     total energy              =   -1658.12928826 Ry
     Harris-Foulkes estimate   =   -1658.97006236 Ry
     estimated scf accuracy    <       2.26528152 Ry

     iteration #  4     ecut=   100.00 Ry     beta=0.50
     Davidson diagonalization with overlap
     ethr =  5.16E-04,  avg # of iterations =  2.3

     total cpu time spent up to now is      584.5 secs

     total energy              =   -1657.73356022 Ry
     Harris-Foulkes estimate   =   -1658.22871874 Ry
     estimated scf accuracy    <       0.79749648 Ry

     iteration #  5     ecut=   100.00 Ry     beta=0.50
     Davidson diagonalization with overlap
     ethr =  2.17E-04,  avg # of iterations =  6.0

     total cpu time spent up to now is      757.1 secs

     total energy              =   -1658.30798594 Ry
     Harris-Foulkes estimate   =   -1658.46340321 Ry
     estimated scf accuracy    <       0.59246836 Ry

     iteration #  6     ecut=   100.00 Ry     beta=0.50
     Davidson diagonalization with overlap
     ethr =  1.61E-04,  avg # of iterations =  1.0

     total cpu time spent up to now is      837.9 secs

     total energy              =   -1658.15479222 Ry
     Harris-Foulkes estimate   =   -1658.32363614 Ry
     estimated scf accuracy    <       0.31996842 Ry

     iteration #  7     ecut=   100.00 Ry     beta=0.50
     Davidson diagonalization with overlap
     ethr =  8.69E-05,  avg # of iterations =  4.8

     total cpu time spent up to now is      967.7 secs

     total energy              =   -1658.26404040 Ry
     Harris-Foulkes estimate   =   -1658.26727649 Ry
     estimated scf accuracy    <       0.01093109 Ry

     iteration #  8     ecut=   100.00 Ry     beta=0.50
     Davidson diagonalization with overlap
     ethr =  2.97E-06,  avg # of iterations =  8.3

     total cpu time spent up to now is     1120.8 secs

     total energy              =   -1658.26500760 Ry
     Harris-Foulkes estimate   =   -1658.26682956 Ry
     estimated scf accuracy    <       0.00395502 Ry

     iteration #  9     ecut=   100.00 Ry     beta=0.50
     Davidson diagonalization with overlap
     ethr =  1.07E-06,  avg # of iterations =  4.2

     total cpu time spent up to now is     1223.8 secs

     total energy              =   -1658.26549717 Ry
     Harris-Foulkes estimate   =   -1658.26565704 Ry
     estimated scf accuracy    <       0.00033181 Ry

     iteration # 10     ecut=   100.00 Ry     beta=0.50
     Davidson diagonalization with overlap
     ethr =  9.02E-08,  avg # of iterations =  4.2

     total cpu time spent up to now is     1392.1 secs

     total energy              =   -1658.26584789 Ry
     Harris-Foulkes estimate   =   -1658.26600883 Ry
     estimated scf accuracy    <       0.00029163 Ry

     iteration # 11     ecut=   100.00 Ry     beta=0.50
     Davidson diagonalization with overlap
     ethr =  7.92E-08,  avg # of iterations =  3.3

     total cpu time spent up to now is     1479.7 secs

     total energy              =   -1658.26584808 Ry
     Harris-Foulkes estimate   =   -1658.26587264 Ry
     estimated scf accuracy    <       0.00003613 Ry

     iteration # 12     ecut=   100.00 Ry     beta=0.50
     Davidson diagonalization with overlap
     ethr =  9.82E-09,  avg # of iterations =  4.0

     total cpu time spent up to now is     1654.8 secs

     total energy              =   -1658.26589882 Ry
     Harris-Foulkes estimate   =   -1658.26595139 Ry
     estimated scf accuracy    <       0.00011424 Ry

     iteration # 13     ecut=   100.00 Ry     beta=0.50
     Davidson diagonalization with overlap
     ethr =  9.82E-09,  avg # of iterations =  5.5

     total cpu time spent up to now is     1793.6 secs

     total energy              =   -1658.26591222 Ry
     Harris-Foulkes estimate   =   -1658.26591440 Ry
     estimated scf accuracy    <       0.00000367 Ry

     iteration # 14     ecut=   100.00 Ry     beta=0.50
     Davidson diagonalization with overlap
     ethr =  9.98E-10,  avg # of iterations =  4.0

     total cpu time spent up to now is     1892.4 secs

     total energy              =   -1658.26591299 Ry
     Harris-Foulkes estimate   =   -1658.26591296 Ry
     estimated scf accuracy    <       0.00000017 Ry

     iteration # 15     ecut=   100.00 Ry     beta=0.50
     Davidson diagonalization with overlap
     ethr =  4.54E-11,  avg # of iterations =  4.0

     total cpu time spent up to now is     2075.9 secs

     total energy              =   -1658.26591353 Ry
     Harris-Foulkes estimate   =   -1658.26591361 Ry
     estimated scf accuracy    <       0.00000014 Ry

     iteration # 16     ecut=   100.00 Ry     beta=0.50
     Davidson diagonalization with overlap
     ethr =  3.76E-11,  avg # of iterations =  4.0

     total cpu time spent up to now is     2168.3 secs

     total energy              =   -1658.26591355 Ry
     Harris-Foulkes estimate   =   -1658.26591355 Ry
     estimated scf accuracy    <       0.00000001 Ry

     iteration # 17     ecut=   100.00 Ry     beta=0.50
     Davidson diagonalization with overlap
     ethr =  2.97E-12,  avg # of iterations =  4.8

     total cpu time spent up to now is     2356.0 secs

     total energy              =   -1658.26591357 Ry
     Harris-Foulkes estimate   =   -1658.26591361 Ry
     estimated scf accuracy    <       0.00000015 Ry

     iteration # 18     ecut=   100.00 Ry     beta=0.50
     Davidson diagonalization with overlap
     ethr =  2.97E-12,  avg # of iterations =  4.0

     total cpu time spent up to now is     2498.4 secs

     total energy              =   -1658.26591356 Ry
     Harris-Foulkes estimate   =   -1658.26591358 Ry
     estimated scf accuracy    <       0.00000004 Ry

     iteration # 19     ecut=   100.00 Ry     beta=0.50
     Davidson diagonalization with overlap
     ethr =  2.97E-12,  avg # of iterations =  5.2

     total cpu time spent up to now is     2595.1 secs

     total energy              =   -1658.26591356 Ry
     Harris-Foulkes estimate   =   -1658.26591356 Ry
     estimated scf accuracy    <       0.00000001 Ry

     iteration # 20     ecut=   100.00 Ry     beta=0.50
     Davidson diagonalization with overlap
     ethr =  2.88E-12,  avg # of iterations =  4.2

     total cpu time spent up to now is     2747.1 secs

     End of self-consistent calculation

          k = 0.0000 0.0000 0.0000 (140225 PWs)   bands (ev):

   -19.9142 -19.9136 -19.8355 -19.8354 -19.7544 -19.7527 -19.6809 -19.6798
   -16.3410 -16.3401 -16.3392 -16.3378 -16.2922 -16.2913 -16.2811 -16.2806
   -15.2054 -15.1756 -15.1743 -15.1733 -15.1175 -15.0748 -15.0548 -15.0449
   -12.6577 -12.6276 -12.6183 -12.6163 -12.5448 -12.5261 -12.5245 -12.5225
   -12.1559 -12.0989 -12.0987 -12.0802 -12.0363 -11.9689 -11.9031 -11.8713
    -9.9523  -9.8510  -9.8397  -9.7841  -9.5838  -9.5578  -9.4774  -9.4451
    -8.8091  -8.7602  -8.7238  -8.7078  -8.6662  -8.6312  -8.6194  -8.5974
    -8.3401  -8.2369  -8.2280  -8.1412  -7.9219  -7.8907  -7.8890  -7.8811
    -7.6434  -7.5069  -7.4533  -7.4420  -7.4233  -7.3425  -7.3178  -7.2773
    -6.6349  -6.5317  -6.5013  -6.4648  -6.3541  -6.3274  -6.3057  -6.1122
    -5.7347  -5.6691  -5.5405  -5.4796  -5.4579  -5.4107  -5.3676  -5.2570
    -5.1588  -5.1201  -5.1174  -5.0776  -5.0191  -5.0069  -4.9977  -4.9779
    -4.6539  -4.5956  -4.5505  -4.5023  -4.4567  -4.4399  -4.4358  -4.3494
    -4.3356  -4.2958  -4.1610  -4.1337  -4.0866  -3.9907  -3.9896  -3.9676
    -3.9580  -3.8009  -3.7986  -3.7844  -3.7197  -3.6700  -3.6429  -3.6214
    -3.6180  -3.5741  -3.4647  -3.4569  -3.3075  -3.2800  -3.1807  -3.1573
    -2.5573  -2.5571  -2.5359  -2.5339  -2.5222  -2.4881  -2.4001  -2.3364
    -2.3019  -2.2971  -2.2514  -2.2465  -2.1936  -2.1659  -2.1619  -2.1601
    -2.1196  -2.0917  -1.9219  -1.9160  -1.8567  -1.7180  -1.7147  -1.6522
    -0.8587  -0.8257  -0.7712  -0.7388  -0.7083  -0.7068  -0.6981  -0.6825
    -0.5514  -0.5288  -0.4677  -0.4608  -0.4581  -0.4526  -0.4305  -0.4030
    -0.3382  -0.3027  -0.2005  -0.1691  -0.1081  -0.0855   0.0027   0.0257
     0.0546   0.0724   0.1138   0.1986   0.2087   0.2200   0.2209   0.2821
     4.3387   4.4223   4.4482   4.5011   4.5611   4.6169   4.6458   4.6843
     4.8084   4.8937   4.9509   4.9750   5.2311   5.2528   5.3080   5.3358
     5.6489   5.9777   5.9857   6.0010   6.0224   6.0269   6.2192   6.2343
     6.2826   6.3818   6.4285   6.5295   6.5368   6.8682   7.0552   7.0621
     7.3352   7.5979   7.6731   7.7384

          k = 0.0000 0.0000 0.8756 (140422 PWs)   bands (ev):

   -19.8935 -19.8930 -19.8170 -19.8169 -19.7388 -19.7371 -19.6676 -19.6666
   -16.4465 -16.4452 -16.4335 -16.4324 -16.2828 -16.2819 -16.2788 -16.2782
   -15.1287 -15.1165 -15.1135 -15.1079 -15.0457 -15.0238 -14.9885 -14.9858
   -12.6232 -12.6077 -12.5968 -12.5950 -12.5414 -12.5297 -12.5293 -12.5247
   -12.3421 -12.3258 -12.2913 -12.2826 -12.1957 -12.1866 -12.0817 -12.0762
    -9.8186  -9.7463  -9.7322  -9.6835  -9.5191  -9.4933  -9.4456  -9.4215
    -8.7970  -8.7884  -8.7638  -8.7609  -8.6518  -8.6435  -8.6165  -8.6151
    -8.2853  -8.2370  -8.1999  -8.1068  -7.8761  -7.8743  -7.8667  -7.8496
    -7.4782  -7.4009  -7.3957  -7.3825  -7.2241  -7.1120  -7.0784  -7.0372
    -6.4925  -6.4831  -6.4710  -6.3953  -6.3544  -6.2626  -6.1654  -6.1623
    -5.7338  -5.7017  -5.5935  -5.4978  -5.3916  -5.3223  -5.3030  -5.2439
    -5.0805  -5.0320  -5.0308  -4.9997  -4.9608  -4.9408  -4.9243  -4.8986
    -4.7260  -4.7112  -4.6108  -4.5950  -4.5098  -4.5043  -4.4860  -4.4778
    -4.2905  -4.2269  -4.2054  -4.1874  -4.1327  -4.0239  -3.9948  -3.9525
    -3.9273  -3.9133  -3.8578  -3.8573  -3.8449  -3.7217  -3.7032  -3.6889
    -3.5579  -3.5571  -3.5262  -3.4933  -3.3079  -3.2971  -3.2742  -3.2305
    -2.9798  -2.9417  -2.9213  -2.9183  -2.8478  -2.8214  -2.7541  -2.6733
    -2.3855  -2.3598  -2.3504  -2.3282  -2.2605  -2.2175  -2.2112  -2.1663
    -2.0518  -2.0342  -1.9907  -1.9790  -1.9140  -1.8657  -1.7536  -1.7385
    -0.6792  -0.6165  -0.5341  -0.5217  -0.5045  -0.4945  -0.4547  -0.4374
    -0.3683  -0.3646  -0.3569  -0.2812  -0.2360  -0.2324  -0.2025  -0.1592
    -0.1297  -0.1174  -0.0742  -0.0457   0.0506   0.0587   0.1065   0.1351
     0.1710   0.1818   0.2652   0.2905   0.3051   0.3204   0.4389   0.4454
     4.3439   4.3704   4.3973   4.5197   4.5557   4.5898   4.5960   4.6220
     4.7475   4.7706   4.7991   4.8514   5.0538   5.0944   5.1018   5.1473
     5.7587   5.7649   5.8132   5.8797   5.9072   6.0764   6.0889   6.1681
     6.2819   6.5523   6.5701   6.6759   6.7841   7.0080   7.0487   7.0948
     7.3524   7.4762   7.5750   7.7180

          k = 0.0000 0.0000-1.7512 (140446 PWs)   bands (ev):

   -19.8724 -19.8718 -19.7984 -19.7982 -19.7228 -19.7209 -19.6542 -19.6531
   -16.5261 -16.5249 -16.5077 -16.5067 -16.3029 -16.3018 -16.2927 -16.2917
   -15.0542 -15.0470 -15.0332 -15.0321 -14.9796 -14.9661 -14.9226 -14.9151
   -12.6220 -12.6121 -12.6013 -12.5961 -12.5656 -12.5621 -12.5573 -12.5500
   -12.5188 -12.4695 -12.4435 -12.4278 -12.4186 -12.3104 -12.2600 -12.2047
    -9.6456  -9.6325  -9.6184  -9.5445  -9.5131  -9.5123  -9.4942  -9.3809
    -8.8897  -8.8578  -8.8563  -8.8457  -8.7041  -8.6558  -8.6469  -8.6329
    -8.2142  -8.1180  -8.0616  -8.0516  -7.8376  -7.8242  -7.7983  -7.7838
    -7.2756  -7.2564  -7.2373  -7.2349  -7.0664  -6.9511  -6.8574  -6.8045
    -6.4597  -6.3938  -6.3686  -6.3363  -6.2930  -6.2048  -6.1995  -5.9759
    -5.7463  -5.6650  -5.4880  -5.4702  -5.4312  -5.2896  -5.2445  -5.2337
    -5.0926  -4.9963  -4.9688  -4.9396  -4.9389  -4.9085  -4.9057  -4.8884
    -4.8280  -4.7913  -4.7834  -4.7741  -4.6610  -4.6325  -4.6310  -4.4960
    -4.3301  -4.2902  -4.2832  -4.2771  -4.2289  -4.2143  -4.1603  -4.1601
    -3.9351  -3.9062  -3.8880  -3.7659  -3.7451  -3.7050  -3.6965  -3.6715
    -3.5714  -3.5362  -3.5202  -3.4662  -3.3771  -3.3451  -3.3284  -3.3176
    -3.0688  -3.0464  -2.9920  -2.9656  -2.8731  -2.8435  -2.6946  -2.6413
    -2.5552  -2.5372  -2.5293  -2.5269  -2.3902  -2.3047  -2.2966  -2.2852
    -2.2060  -2.1423  -2.1354  -2.1082  -2.0501  -2.0400  -1.9098  -1.8628
    -0.5351  -0.5304  -0.4691  -0.4373  -0.4104  -0.4084  -0.3932  -0.3911
    -0.3733  -0.3353  -0.3267  -0.2579  -0.2488  -0.2177  -0.1941  -0.1482
     0.1378   0.1922   0.1939   0.2043   0.2664   0.3275   0.3280   0.3610
     0.3686   0.4475   0.4756   0.4785   0.6200   0.6263   0.9095   0.9398
     4.0235   4.0385   4.0899   4.1107   4.2327   4.2763   4.3657   4.4021
     4.7643   4.9148   4.9399   4.9953   5.0566   5.1095   5.1933   5.2784
     5.5734   5.6090   5.6593   5.7118   5.8160   5.9610   5.9874   6.0665
     6.4094   6.5913   6.6705   6.6903   7.0846   7.0982   7.1513   7.2904
     7.3613   7.5134   7.5845   7.6133

          k = 0.0000-0.6141 0.0000 (140282 PWs)   bands (ev):

   -19.9142 -19.9136 -19.8355 -19.8354 -19.7544 -19.7527 -19.6808 -19.6798
   -16.3406 -16.3403 -16.3387 -16.3384 -16.2918 -16.2913 -16.2813 -16.2808
   -15.1889 -15.1889 -15.1754 -15.1753 -15.1039 -15.1034 -15.0426 -15.0423
   -12.6394 -12.6394 -12.6183 -12.6183 -12.5453 -12.5453 -12.5168 -12.5167
   -12.1310 -12.1310 -12.0939 -12.0936 -11.9944 -11.9940 -11.8870 -11.8868
    -9.9000  -9.8999  -9.8124  -9.8123  -9.5764  -9.5763  -9.4618  -9.4616
    -8.7911  -8.7910  -8.7030  -8.7026  -8.6579  -8.6578  -8.6025  -8.6024
    -8.2470  -8.2461  -8.2233  -8.2229  -7.9430  -7.9427  -7.8544  -7.8541
    -7.5657  -7.5650  -7.4671  -7.4670  -7.3913  -7.3913  -7.2788  -7.2787
    -6.5698  -6.5694  -6.4999  -6.4997  -6.3517  -6.3515  -6.1968  -6.1963
    -5.7032  -5.7029  -5.4952  -5.4951  -5.4628  -5.4626  -5.2899  -5.2896
    -5.1445  -5.1443  -5.1071  -5.1069  -5.0127  -5.0124  -4.9819  -4.9818
    -4.5935  -4.5931  -4.5308  -4.5306  -4.4860  -4.4857  -4.3638  -4.3634
    -4.2959  -4.2956  -4.2260  -4.2260  -4.0465  -4.0461  -3.9709  -3.9703
    -3.8368  -3.8367  -3.7640  -3.7638  -3.6938  -3.6935  -3.6546  -3.6543
    -3.5664  -3.5660  -3.4989  -3.4987  -3.3061  -3.3055  -3.1525  -3.1521
    -2.5575  -2.5575  -2.5386  -2.5380  -2.5186  -2.5183  -2.3556  -2.3555
    -2.3019  -2.3018  -2.2326  -2.2323  -2.2204  -2.2204  -2.1446  -2.1445
    -2.0653  -2.0652  -1.9754  -1.9753  -1.7322  -1.7318  -1.7108  -1.7106
    -0.8098  -0.8098  -0.7944  -0.7941  -0.7009  -0.7008  -0.6970  -0.6966
    -0.5152  -0.5151  -0.5018  -0.5016  -0.4533  -0.4530  -0.4305  -0.4304
    -0.2314  -0.2312  -0.1967  -0.1965  -0.1389  -0.1388   0.0184   0.0185
     0.0637   0.0640   0.1039   0.1041   0.2127   0.2129   0.2969   0.2972
     4.3685   4.3685   4.5024   4.5027   4.5420   4.5422   4.6998   4.7005
     4.8696   4.8700   4.9354   4.9357   5.2345   5.2346   5.3277   5.3278
     5.7861   5.7866   6.0207   6.0210   6.1118   6.1118   6.2066   6.2073
     6.2143   6.2144   6.4721   6.4723   6.6880   6.6888   7.1426   7.1434
     7.5254   7.5255   7.5902   7.5905

          k = 0.0000-0.6141 0.8756 (140322 PWs)   bands (ev):

   -19.8935 -19.8930 -19.8171 -19.8169 -19.7388 -19.7371 -19.6676 -19.6666
   -16.4457 -16.4456 -16.4332 -16.4331 -16.2828 -16.2827 -16.2781 -16.2781
   -15.1239 -15.1238 -15.1071 -15.1070 -15.0416 -15.0410 -14.9831 -14.9828
   -12.6120 -12.6120 -12.5986 -12.5986 -12.5417 -12.5416 -12.5214 -12.5214
   -12.3385 -12.3384 -12.2740 -12.2738 -12.2045 -12.2039 -12.0747 -12.0746
    -9.7747  -9.7746  -9.7093  -9.7091  -9.5197  -9.5196  -9.4319  -9.4318
    -8.7956  -8.7955  -8.7542  -8.7541  -8.6554  -8.6553  -8.6082  -8.6078
    -8.2144  -8.2139  -8.1989  -8.1989  -7.9182  -7.9182  -7.8195  -7.8193
    -7.4445  -7.4445  -7.3825  -7.3822  -7.1509  -7.1507  -7.0767  -7.0765
    -6.5102  -6.5099  -6.4184  -6.4180  -6.3004  -6.3002  -6.1611  -6.1609
    -5.7292  -5.7291  -5.5304  -5.5303  -5.3732  -5.3729  -5.2550  -5.2549
    -5.0578  -5.0577  -5.0331  -5.0331  -4.9415  -4.9412  -4.9173  -4.9172
    -4.6995  -4.6987  -4.6477  -4.6474  -4.5358  -4.5353  -4.4194  -4.4187
    -4.2266  -4.2265  -4.1827  -4.1827  -4.0898  -4.0897  -4.0286  -4.0284
    -3.9163  -3.9163  -3.8492  -3.8491  -3.7748  -3.7748  -3.6950  -3.6946
    -3.5861  -3.5858  -3.4871  -3.4870  -3.3284  -3.3280  -3.2110  -3.2108
    -2.9800  -2.9793  -2.9035  -2.9034  -2.8669  -2.8669  -2.6976  -2.6974
    -2.3822  -2.3821  -2.3143  -2.3142  -2.2444  -2.2443  -2.1926  -2.1925
    -2.0450  -2.0449  -1.9959  -1.9956  -1.8745  -1.8743  -1.7478  -1.7470
    -0.6525  -0.6521  -0.5313  -0.5313  -0.4990  -0.4986  -0.4271  -0.4271
    -0.3810  -0.3808  -0.3206  -0.3205  -0.2365  -0.2364  -0.1858  -0.1857
    -0.1221  -0.1220  -0.0578  -0.0577   0.0706   0.0711   0.1256   0.1257
     0.1951   0.1951   0.2353   0.2359   0.3001   0.3004   0.4629   0.4636
     4.3750   4.3750   4.4561   4.4562   4.5237   4.5238   4.6371   4.6373
     4.7531   4.7532   4.8323   4.8324   5.0475   5.0476   5.1536   5.1538
     5.7473   5.7476   5.8618   5.8623   6.0464   6.0465   6.0651   6.0654
     6.4069   6.4071   6.6214   6.6215   6.8931   6.8939   7.1229   7.1234
     7.2902   7.2903   7.6876   7.6876

          k = 0.0000-0.6141-1.7512 (140432 PWs)   bands (ev):

   -19.8724 -19.8718 -19.7984 -19.7982 -19.7228 -19.7209 -19.6542 -19.6531
   -16.5255 -16.5252 -16.5075 -16.5073 -16.3026 -16.3026 -16.2920 -16.2920
   -15.0466 -15.0466 -15.0386 -15.0386 -14.9695 -14.9689 -14.9207 -14.9204
   -12.6165 -12.6164 -12.5962 -12.5961 -12.5727 -12.5726 -12.5319 -12.5319
   -12.5078 -12.5074 -12.4628 -12.4628 -12.3429 -12.3422 -12.2299 -12.2299
    -9.6394  -9.6391  -9.5686  -9.5683  -9.5219  -9.5218  -9.4466  -9.4466
    -8.8801  -8.8799  -8.8425  -8.8424  -8.6802  -8.6801  -8.6392  -8.6389
    -8.1428  -8.1425  -8.0741  -8.0741  -7.8742  -7.8740  -7.7508  -7.7508
    -7.2733  -7.2728  -7.2281  -7.2273  -6.9643  -6.9638  -6.8849  -6.8848
    -6.4434  -6.4434  -6.3577  -6.3573  -6.2598  -6.2593  -6.0509  -6.0508
    -5.7211  -5.7210  -5.4720  -5.4719  -5.3332  -5.3330  -5.2304  -5.2300
    -5.0266  -5.0263  -4.9979  -4.9978  -4.9619  -4.9617  -4.8744  -4.8742
    -4.8354  -4.8353  -4.7583  -4.7581  -4.6731  -4.6726  -4.5087  -4.5081
    -4.3061  -4.3058  -4.2782  -4.2780  -4.2154  -4.2151  -4.1777  -4.1777
    -3.8936  -3.8933  -3.8074  -3.8073  -3.7806  -3.7803  -3.7288  -3.7285
    -3.5523  -3.5520  -3.4368  -3.4360  -3.3847  -3.3847  -3.2912  -3.2910
    -3.0398  -3.0395  -2.9741  -2.9735  -2.9162  -2.9162  -2.6832  -2.6826
    -2.5458  -2.5457  -2.5059  -2.5057  -2.3387  -2.3385  -2.2870  -2.2868
    -2.1695  -2.1692  -2.1143  -2.1140  -2.0700  -2.0699  -1.8745  -1.8739
    -0.5353  -0.5349  -0.4592  -0.4589  -0.4121  -0.4117  -0.3933  -0.3930
    -0.3301  -0.3301  -0.2713  -0.2711  -0.2658  -0.2658  -0.1808  -0.1804
     0.1470   0.1472   0.2085   0.2086   0.3032   0.3034   0.3473   0.3474
     0.4148   0.4149   0.4793   0.4794   0.6202   0.6206   0.9233   0.9240
     4.0414   4.0415   4.1147   4.1147   4.2387   4.2389   4.3658   4.3661
     4.8185   4.8185   4.9928   4.9929   5.0670   5.0671   5.2456   5.2458
     5.6023   5.6027   5.7116   5.7120   5.9081   5.9084   5.9731   5.9740
     6.4793   6.4794   6.7483   6.7488   7.0561   7.0564   7.1715   7.1716
     7.3716   7.3718   7.7039   7.7043

     highest occupied, lowest unoccupied level (ev):     0.9398    4.0235

!    total energy              =   -1658.26591356 Ry
     Harris-Foulkes estimate   =   -1658.26591356 Ry
     estimated scf accuracy    <          2.1E-09 Ry

     total all-electron energy =     -6414.220898 Ry

     The total energy is the sum of the following terms:

     one-electron contribution =    -903.72842183 Ry
     hartree contribution      =     588.89243529 Ry
     xc contribution           =    -374.58571148 Ry
     ewald contribution        =    -453.25590052 Ry
     Dispersion Correction     =      -0.62021988 Ry
     one-center paw contrib.   =    -514.96809514 Ry

     convergence has been achieved in  20 iterations

     Forces acting on atoms (cartesian axes, Ry/au):

     atom    1 type  1   force =    -0.00962699   -0.01504623   -0.00802944
     atom    2 type  1   force =     0.00962699    0.01504623   -0.00802944
     atom    3 type  1   force =    -0.00946471    0.01513120   -0.00784542
     atom    4 type  1   force =     0.00946471   -0.01513120   -0.00784542
     atom    5 type  1   force =     0.00742959   -0.00644067    0.01134807
     atom    6 type  1   force =    -0.00742959    0.00644067    0.01134807
     atom    7 type  1   force =     0.00724132    0.00614467    0.01138954
     atom    8 type  1   force =    -0.00724132   -0.00614467    0.01138954
     atom    9 type  1   force =     0.00387546    0.00153277   -0.02836569
     atom   10 type  1   force =    -0.00387546   -0.00153277   -0.02836569
     atom   11 type  1   force =     0.00393807   -0.00133986   -0.02849008
     atom   12 type  1   force =    -0.00393807    0.00133986   -0.02849008
     atom   13 type  1   force =     0.01353139    0.00614827    0.01629802
     atom   14 type  1   force =    -0.01353139   -0.00614827    0.01629802
     atom   15 type  1   force =     0.01372828   -0.00590671    0.01668607
     atom   16 type  1   force =    -0.01372828    0.00590671    0.01668607
     atom   17 type  1   force =    -0.01073489    0.00262318   -0.02083941
     atom   18 type  1   force =     0.01073489   -0.00262318   -0.02083941
     atom   19 type  1   force =    -0.01086942   -0.00272895   -0.02114132
     atom   20 type  1   force =     0.01086942    0.00272895   -0.02114132
     atom   21 type  1   force =    -0.00328012    0.00114805    0.02944642
     atom   22 type  1   force =     0.00328012   -0.00114805    0.02944642
     atom   23 type  1   force =    -0.00344239   -0.00110189    0.02922153
     atom   24 type  1   force =     0.00344239    0.00110189    0.02922153
     atom   25 type  1   force =    -0.00100404    0.00473516   -0.01163356
     atom   26 type  1   force =     0.00100404   -0.00473516   -0.01163356
     atom   27 type  1   force =    -0.00128486   -0.00476439   -0.01162051
     atom   28 type  1   force =     0.00128486    0.00476439   -0.01162051
     atom   29 type  3   force =    -0.00150811    0.00044982   -0.00153425
     atom   30 type  3   force =     0.00150811   -0.00044982   -0.00153425
     atom   31 type  3   force =    -0.00158223   -0.00053694   -0.00159491
     atom   32 type  3   force =     0.00158223    0.00053694   -0.00159491
     atom   33 type  3   force =     0.00454896    0.00289934   -0.00065072
     atom   34 type  3   force =    -0.00454896   -0.00289934   -0.00065072
     atom   35 type  3   force =     0.00450556   -0.00282093   -0.00072482
     atom   36 type  3   force =    -0.00450556    0.00282093   -0.00072482
     atom   37 type  3   force =    -0.00522619   -0.00445948    0.00282295
     atom   38 type  3   force =     0.00522619    0.00445948    0.00282295
     atom   39 type  3   force =    -0.00524686    0.00449147    0.00281728
     atom   40 type  3   force =     0.00524686   -0.00449147    0.00281728
     atom   41 type  3   force =    -0.00429010    0.00032337    0.00641378
     atom   42 type  3   force =     0.00429010   -0.00032337    0.00641378
     atom   43 type  3   force =    -0.00427875   -0.00032225    0.00649474
     atom   44 type  3   force =     0.00427875    0.00032225    0.00649474
     atom   45 type  3   force =     0.00548692    0.00326728   -0.00385704
     atom   46 type  3   force =    -0.00548692   -0.00326728   -0.00385704
     atom   47 type  3   force =     0.00559583   -0.00323770   -0.00370216
     atom   48 type  3   force =    -0.00559583    0.00323770   -0.00370216
     atom   49 type  3   force =    -0.00044971   -0.00071938    0.00010862
     atom   50 type  3   force =     0.00044971    0.00071938    0.00010862
     atom   51 type  3   force =    -0.00043465    0.00072388    0.00013454
     atom   52 type  3   force =     0.00043465   -0.00072388    0.00013454
     atom   53 type  3   force =    -0.00603912    0.00094889    0.00134771
     atom   54 type  3   force =     0.00603912   -0.00094889    0.00134771
     atom   55 type  3   force =    -0.00604974   -0.00093318    0.00143661
     atom   56 type  3   force =     0.00604974    0.00093318    0.00143661
     atom   57 type  2   force =    -0.00819388   -0.00644369    0.00276922
     atom   58 type  2   force =     0.00819388    0.00644369    0.00276922
     atom   59 type  2   force =    -0.00799600    0.00647238    0.00249586
     atom   60 type  2   force =     0.00799600   -0.00647238    0.00249586
     atom   61 type  4   force =     0.01675676    0.00326461    0.00677337
     atom   62 type  4   force =    -0.01675676   -0.00326461    0.00677337
     atom   63 type  4   force =     0.01675701   -0.00329059    0.00687722
     atom   64 type  4   force =    -0.01675701    0.00329059    0.00687722
     atom   65 type  1   force =    -0.01450991   -0.00834483    0.00822276
     atom   66 type  1   force =     0.01450991    0.00834483    0.00822276
     atom   67 type  1   force =    -0.01426406    0.00848835    0.00814130
     atom   68 type  1   force =     0.01426406   -0.00848835    0.00814130
     atom   69 type  1   force =     0.00167105   -0.00062922   -0.02468043
     atom   70 type  1   force =    -0.00167105    0.00062922   -0.02468043
     atom   71 type  1   force =     0.00161227    0.00096028   -0.02424900
     atom   72 type  1   force =    -0.00161227   -0.00096028   -0.02424900
     atom   73 type  1   force =     0.00483155   -0.00866789    0.01993764
     atom   74 type  1   force =    -0.00483155    0.00866789    0.01993764
     atom   75 type  1   force =     0.00462769    0.00861282    0.02002845
     atom   76 type  1   force =    -0.00462769   -0.00861282    0.02002845
     atom   77 type  1   force =     0.00732797    0.01120610   -0.01281408
     atom   78 type  1   force =    -0.00732797   -0.01120610   -0.01281408
     atom   79 type  1   force =     0.00745427   -0.01114494   -0.01296827
     atom   80 type  1   force =    -0.00745427    0.01114494   -0.01296827
     atom   81 type  1   force =     0.00016755   -0.00082512    0.02336145
     atom   82 type  1   force =    -0.00016755    0.00082512    0.02336145
     atom   83 type  1   force =    -0.00000333    0.00094268    0.02352074
     atom   84 type  1   force =     0.00000333   -0.00094268    0.02352074
     atom   85 type  1   force =    -0.00663203    0.00695621   -0.01166859
     atom   86 type  1   force =     0.00663203   -0.00695621   -0.01166859
     atom   87 type  1   force =    -0.00649950   -0.00711887   -0.01193216
     atom   88 type  1   force =     0.00649950    0.00711887   -0.01193216
     atom   89 type  1   force =     0.00222584   -0.00256883    0.01049917
     atom   90 type  1   force =    -0.00222584    0.00256883    0.01049917
     atom   91 type  1   force =     0.00208106    0.00238743    0.01046785
     atom   92 type  1   force =    -0.00208106   -0.00238743    0.01046785
     atom   93 type  3   force =     0.00102222   -0.00092372    0.00124263
     atom   94 type  3   force =    -0.00102222    0.00092372    0.00124263
     atom   95 type  3   force =     0.00087253    0.00078202    0.00123177
     atom   96 type  3   force =    -0.00087253   -0.00078202    0.00123177
     atom   97 type  3   force =     0.00499139    0.00179911    0.00210072
     atom   98 type  3   force =    -0.00499139   -0.00179911    0.00210072
     atom   99 type  3   force =     0.00499453   -0.00199445    0.00185595
     atom  100 type  3   force =    -0.00499453    0.00199445    0.00185595
     atom  101 type  3   force =    -0.00114388   -0.00258244   -0.00727897
     atom  102 type  3   force =     0.00114388    0.00258244   -0.00727897
     atom  103 type  3   force =    -0.00107736    0.00257851   -0.00733285
     atom  104 type  3   force =     0.00107736   -0.00257851   -0.00733285
     atom  105 type  3   force =    -0.00580111   -0.00291068   -0.00256217
     atom  106 type  3   force =     0.00580111    0.00291068   -0.00256217
     atom  107 type  3   force =    -0.00573289    0.00288594   -0.00259388
     atom  108 type  3   force =     0.00573289   -0.00288594   -0.00259388
     atom  109 type  3   force =     0.00452519    0.00316231    0.00295776
     atom  110 type  3   force =    -0.00452519   -0.00316231    0.00295776
     atom  111 type  3   force =     0.00445466   -0.00313511    0.00307262
     atom  112 type  3   force =    -0.00445466    0.00313511    0.00307262
     atom  113 type  3   force =    -0.00050742    0.00031139   -0.00085668
     atom  114 type  3   force =     0.00050742   -0.00031139   -0.00085668
     atom  115 type  3   force =    -0.00056937   -0.00038607   -0.00087137
     atom  116 type  3   force =     0.00056937    0.00038607   -0.00087137
     atom  117 type  3   force =     0.00018068   -0.00565477    0.00007173
     atom  118 type  3   force =    -0.00018068    0.00565477    0.00007173
     atom  119 type  3   force =     0.00010327    0.00560395    0.00007520
     atom  120 type  3   force =    -0.00010327   -0.00560395    0.00007520
     atom  121 type  2   force =    -0.00759657   -0.00778312   -0.00458443
     atom  122 type  2   force =     0.00759657    0.00778312   -0.00458443
     atom  123 type  2   force =    -0.00743615    0.00793378   -0.00466644
     atom  124 type  2   force =     0.00743615   -0.00793378   -0.00466644
     atom  125 type  4   force =     0.00711206    0.01843406   -0.00637322
     atom  126 type  4   force =    -0.00711206   -0.01843406   -0.00637322
     atom  127 type  4   force =     0.00718219   -0.01849443   -0.00620744
     atom  128 type  4   force =    -0.00718219    0.01849443   -0.00620744

     Total force =     0.175484     Total SCF correction =     0.000103


     Computing stress (Cartesian axis) and pressure

          total   stress  (Ry/bohr**3)                   (kbar)     P=    8.77
   0.00001595   0.00000000   0.00000000          2.35      0.00      0.00
   0.00000000   0.00001809   0.00000000          0.00      2.66      0.00
   0.00000000   0.00000000   0.00014490          0.00      0.00     21.32


     Writing output data file scf.save
 
     init_run     :     56.38s CPU     58.71s WALL (       1 calls)
     electrons    :   2594.48s CPU   2687.99s WALL (       1 calls)
     forces       :     24.75s CPU     25.15s WALL (       1 calls)
     stress       :    205.42s CPU    206.02s WALL (       1 calls)

     Called by init_run:
     wfcinit      :     47.32s CPU     49.39s WALL (       1 calls)
     potinit      :      3.15s CPU      3.23s WALL (       1 calls)

     Called by electrons:
     c_bands      :   2341.11s CPU   2420.98s WALL (      20 calls)
     sum_band     :    228.85s CPU    239.48s WALL (      20 calls)
     v_of_rho     :      3.85s CPU      4.16s WALL (      21 calls)
     newd         :      7.98s CPU     10.62s WALL (      21 calls)
     PAW_pot      :     11.51s CPU     11.51s WALL (      21 calls)
     mix_rho      :      1.06s CPU      1.15s WALL (      20 calls)

     Called by c_bands:
     init_us_2    :     16.73s CPU     16.79s WALL (     258 calls)
     cegterg      :   2286.84s CPU   2366.63s WALL (     120 calls)

     Called by sum_band:
     sum_band:bec :      0.11s CPU      0.11s WALL (     120 calls)
     addusdens    :      8.78s CPU     11.29s WALL (      20 calls)

     Called by *egterg:
     h_psi        :   1327.17s CPU   1385.19s WALL (     636 calls)
     s_psi        :    246.90s CPU    246.96s WALL (     636 calls)
     g_psi        :      8.35s CPU      8.35s WALL (     510 calls)
     cdiaghg      :    112.24s CPU    112.28s WALL (     630 calls)

     Called by h_psi:
     h_psi:pot    :   1316.58s CPU   1374.46s WALL (     636 calls)
     h_psi:calbec :    232.82s CPU    233.33s WALL (     636 calls)
     vloc_psi     :    836.94s CPU    894.24s WALL (     636 calls)
     add_vuspsi   :    246.82s CPU    246.88s WALL (     636 calls)

     General routines
     calbec       :    321.58s CPU    322.28s WALL (     786 calls)
     fft          :      2.13s CPU      2.65s WALL (     297 calls)
     fftw         :    883.35s CPU    948.26s WALL (  195112 calls)
 
     Parallel routines
     fft_scatter  :    150.99s CPU    214.18s WALL (  195409 calls)
 
     PWSCF        : 48m13.98s CPU    50m34.42s WALL

 
   This run was terminated on:  22:41:30   3Nov2017            

=------------------------------------------------------------------------------=
   JOB DONE.
=------------------------------------------------------------------------------=
