
     Program PWSCF v.6.1 (svn rev. 13369) starts on  3Nov2017 at 18:15:10 

     This program is part of the open-source Quantum ESPRESSO suite
     for quantum simulation of materials; please cite
         "P. Giannozzi et al., J. Phys.:Condens. Matter 21 395502 (2009);
          URL http://www.quantum-espresso.org", 
     in publications or presentations arising from this work. More details at
     http://www.quantum-espresso.org/quote

     Parallel version (MPI), running on     8 processors
     R & G space division:  proc/nbgrp/npool/nimage =       8
     Waiting for input...
     Reading input from standard input

     Current dimensions of program PWSCF are:
     Max number of different atomic species (ntypx) = 10
     Max number of k-points (npk) =  40000
     Max angular momentum in pseudopotentials (lmaxx) =  3
               file C.pbe-n-kjpaw_psl.0.1.UPF: wavefunction(s)  2P renormalized
               file N.pbe-n-kjpaw_psl.0.1.UPF: wavefunction(s)  2P renormalized
               file H.pbe-kjpaw_psl.0.1.UPF: wavefunction(s)  1S renormalized
               file O.pbe-n-kjpaw_psl.0.1.UPF: wavefunction(s)  2P renormalized

     -------------------------------------
     Parameters for Dispersion Correction:
     -------------------------------------
       atom      VdW radius       C_6     

        C          2.744         60.710
        N          2.640         42.670
        H          1.892          4.857
        O          2.536         24.284

     Subspace diagonalization in iterative solution of the eigenvalue problem:
     a serial algorithm will be used

 
     Parallelization info
     --------------------
     sticks:   dense  smooth     PW     G-vecs:    dense   smooth      PW
     Min         394     394    106                20313    20313    2868
     Max         395     395    107                20314    20314    2870
     Sum        3153    3153    855               162505   162505   22953
 


     bravais-lattice index     =            0
     lattice parameter (alat)  =      11.0228  a.u.
     unit-cell volume          =    1202.9367 (a.u.)^3
     number of atoms/cell      =           20
     number of atomic types    =            4
     number of electrons       =        72.00
     number of Kohn-Sham states=           43
     kinetic-energy cutoff     =     100.0000  Ry
     charge density cutoff     =     400.0000  Ry
     convergence threshold     =      1.0E-08
     mixing beta               =       0.5000
     number of iterations used =            8  plain     mixing
     Exchange-correlation      =  SLA  PW   PBX  PBC ( 1  4  3  4 0 0)

     celldm(1)=  11.022773  celldm(2)=   0.000000  celldm(3)=   0.000000
     celldm(4)=   0.000000  celldm(5)=   0.000000  celldm(6)=   0.000000

     crystal axes: (cart. coord. in units of alat)
               a(1) = (   1.000000   0.000000   0.000000 )  
               a(2) = (  -0.438083   0.814970   0.000000 )  
               a(3) = (  -0.092713  -0.227133   1.102119 )  

     reciprocal axes: (cart. coord. in units 2 pi/alat)
               b(1) = (  1.000000  0.537544  0.194903 )  
               b(2) = (  0.000000  1.227039  0.252877 )  
               b(3) = (  0.000000  0.000000  0.907343 )  


     PseudoPot. # 1 for  C read from file:
     /scratch/ahofstet/pseudo/C.pbe-n-kjpaw_psl.0.1.UPF
     MD5 check sum: 430fe95172b1e11ef3f8ed03bac87931
     Pseudo is Projector augmented-wave + core cor, Zval =  4.0
     Generated using "atomic" code by A. Dal Corso  v.5.0.99 svn rev. 10869
     Shape of augmentation charge: BESSEL
     Using radial grid of 1073 points,  4 beta functions with: 
                l(1) =   0
                l(2) =   0
                l(3) =   1
                l(4) =   1
     Q(r) pseudized with 0 coefficients 


     PseudoPot. # 2 for  N read from file:
     /scratch/ahofstet/pseudo/N.pbe-n-kjpaw_psl.0.1.UPF
     MD5 check sum: f73187c8b701007e77325f868c9291d7
     Pseudo is Projector augmented-wave + core cor, Zval =  5.0
     Generated using "atomic" code by A. Dal Corso  v.5.0.99 svn rev. 10869
     Shape of augmentation charge: PSQ
     Using radial grid of 1085 points,  4 beta functions with: 
                l(1) =   0
                l(2) =   0
                l(3) =   1
                l(4) =   1
     Q(r) pseudized with 0 coefficients 


     PseudoPot. # 3 for  H read from file:
     /scratch/ahofstet/pseudo/H.pbe-kjpaw_psl.0.1.UPF
     MD5 check sum: 94e484f906d9e9773b2f6e52662335b2
     Pseudo is Projector augmented-wave, Zval =  1.0
     Generated using "atomic" code by A. Dal Corso  v.5.0.99 svn rev. 10869
     Shape of augmentation charge: PSQ
     Using radial grid of  929 points,  2 beta functions with: 
                l(1) =   0
                l(2) =   0
     Q(r) pseudized with 0 coefficients 


     PseudoPot. # 4 for  O read from file:
     /scratch/ahofstet/pseudo/O.pbe-n-kjpaw_psl.0.1.UPF
     MD5 check sum: 3f94a2996a3169367d6eb21d9b593f20
     Pseudo is Projector augmented-wave + core cor, Zval =  6.0
     Generated using "atomic" code by A. Dal Corso  v.5.0.99 svn rev. 10869
     Shape of augmentation charge: BESSEL
     Using radial grid of 1095 points,  4 beta functions with: 
                l(1) =   0
                l(2) =   0
                l(3) =   1
                l(4) =   1
     Q(r) pseudized with 0 coefficients 


     atomic species   valence    mass     pseudopotential
        C              4.00    12.01070      C( 1.00)
        N              5.00    14.00670      N( 1.00)
        H              1.00     1.00794      H( 1.00)
        O              6.00    15.99940      O( 1.00)

      2 Sym. Ops., with inversion, found



   Cartesian axes

     site n.     atom                  positions (alat units)
         1           O   tau(   1) = (   0.6882171   0.1238948   0.7520587  )
         2           O   tau(   2) = (  -0.2190123   0.4639425   0.3500603  )
         3           O   tau(   3) = (   0.5210655   0.4413813   0.9038542  )
         4           O   tau(   4) = (  -0.0518608   0.1464560   0.1982647  )
         5           O   tau(   5) = (   0.0977073   0.2589256   0.8029910  )
         6           O   tau(   6) = (   0.3714975   0.3289117   0.2991279  )
         7           O   tau(   7) = (   0.2783986  -0.0595225   0.9691806  )
         8           O   tau(   8) = (   0.1908062   0.6473597   0.1329383  )
         9           C   tau(   9) = (   0.5172911   0.2455557   0.8260865  )
        10           C   tau(  10) = (  -0.0480864   0.3422816   0.2760324  )
        11           C   tau(  11) = (   0.2861988   0.1076033   0.7973652  )
        12           C   tau(  12) = (   0.1830060   0.4802339   0.3047538  )
        13           H   tau(  13) = (  -0.1440296   0.1908066   0.7744814  )
        14           H   tau(  14) = (   0.6132344   0.3970307   0.3276376  )
        15           H   tau(  15) = (   0.2884185   0.0320330   0.6248647  )
        16           H   tau(  16) = (   0.1807863   0.5558043   0.4772543  )
        17           H   tau(  17) = (   0.1019563   0.3383910   0.9581747  )
        18           H   tau(  18) = (   0.3672485   0.2494462   0.1439442  )
        19           H   tau(  19) = (   0.1589546  -0.1842775   0.9385513  )
        20           H   tau(  20) = (   0.3102501   0.7721148   0.1635677  )

     number of k points=    19
                       cart. coord. in units 2pi/alat
        k(    1) = (   0.0000000   0.0000000   0.0000000), wk =   0.0555556
        k(    2) = (   0.0000000   0.0000000   0.3024477), wk =   0.1111111
        k(    3) = (   0.0000000   0.3067597   0.0632193), wk =   0.1111111
        k(    4) = (   0.0000000   0.3067597   0.3656670), wk =   0.1111111
        k(    5) = (   0.0000000   0.3067597  -0.2392284), wk =   0.1111111
        k(    6) = (   0.0000000  -0.6135193  -0.1264387), wk =   0.0555556
        k(    7) = (   0.0000000  -0.6135193   0.1760090), wk =   0.1111111
        k(    8) = (   0.3333333   0.1791814   0.0649678), wk =   0.1111111
        k(    9) = (   0.3333333   0.1791814   0.3674155), wk =   0.1111111
        k(   10) = (   0.3333333   0.1791814  -0.2374799), wk =   0.1111111
        k(   11) = (   0.3333333   0.4859411   0.1281871), wk =   0.1111111
        k(   12) = (   0.3333333   0.4859411   0.4306348), wk =   0.1111111
        k(   13) = (   0.3333333   0.4859411  -0.1742606), wk =   0.1111111
        k(   14) = (   0.3333333  -0.4343379  -0.0614709), wk =   0.1111111
        k(   15) = (   0.3333333  -0.4343379   0.2409768), wk =   0.1111111
        k(   16) = (   0.3333333  -0.4343379  -0.3639186), wk =   0.1111111
        k(   17) = (   0.3333333  -0.1275782   0.0017484), wk =   0.1111111
        k(   18) = (   0.3333333  -0.1275782   0.3041961), wk =   0.1111111
        k(   19) = (   0.3333333  -0.1275782  -0.3006993), wk =   0.1111111

     Dense  grid:   162505 G-vectors     FFT dimensions: (  72,  72,  80)

     Estimated max dynamical RAM per process >      64.59MB

     Estimated total allocated dynamical RAM >     516.69MB

     Check: negative/imaginary core charge=   -0.000003    0.000000

     Initial potential from superposition of free atoms

     starting charge   71.99975, renormalised to   72.00000
     Starting wfc are   56 randomized atomic wfcs
     Checking if some PAW data can be deallocated... 

     total cpu time spent up to now is        5.5 secs

     per-process dynamical memory:    92.3 Mb

     Self-consistent Calculation

     iteration #  1     ecut=   100.00 Ry     beta=0.50
     Davidson diagonalization with overlap
     ethr =  1.00E-02,  avg # of iterations =  3.5

     total cpu time spent up to now is       13.3 secs

     total energy              =    -416.21357991 Ry
     Harris-Foulkes estimate   =    -417.21764529 Ry
     estimated scf accuracy    <       1.79703620 Ry

     iteration #  2     ecut=   100.00 Ry     beta=0.50
     Davidson diagonalization with overlap
     ethr =  2.50E-03,  avg # of iterations =  2.2

     total cpu time spent up to now is       18.9 secs

     total energy              =    -416.59438980 Ry
     Harris-Foulkes estimate   =    -416.73632896 Ry
     estimated scf accuracy    <       0.31268218 Ry

     iteration #  3     ecut=   100.00 Ry     beta=0.50
     Davidson diagonalization with overlap
     ethr =  4.34E-04,  avg # of iterations =  6.5

     total cpu time spent up to now is       25.5 secs

     total energy              =    -416.65562616 Ry
     Harris-Foulkes estimate   =    -416.67079832 Ry
     estimated scf accuracy    <       0.04599475 Ry

     iteration #  4     ecut=   100.00 Ry     beta=0.50
     Davidson diagonalization with overlap
     ethr =  6.39E-05,  avg # of iterations =  3.9

     total cpu time spent up to now is       31.0 secs

     total energy              =    -416.66097401 Ry
     Harris-Foulkes estimate   =    -416.66566020 Ry
     estimated scf accuracy    <       0.01333385 Ry

     iteration #  5     ecut=   100.00 Ry     beta=0.50
     Davidson diagonalization with overlap
     ethr =  1.85E-05,  avg # of iterations =  4.2

     total cpu time spent up to now is       36.2 secs

     total energy              =    -416.66327570 Ry
     Harris-Foulkes estimate   =    -416.66341489 Ry
     estimated scf accuracy    <       0.00066026 Ry

     iteration #  6     ecut=   100.00 Ry     beta=0.50
     Davidson diagonalization with overlap
     ethr =  9.17E-07,  avg # of iterations =  5.8

     total cpu time spent up to now is       44.7 secs

     total energy              =    -416.66356098 Ry
     Harris-Foulkes estimate   =    -416.66359996 Ry
     estimated scf accuracy    <       0.00011357 Ry

     iteration #  7     ecut=   100.00 Ry     beta=0.50
     Davidson diagonalization with overlap
     ethr =  1.58E-07,  avg # of iterations =  2.0

     total cpu time spent up to now is       49.4 secs

     total energy              =    -416.66357649 Ry
     Harris-Foulkes estimate   =    -416.66357668 Ry
     estimated scf accuracy    <       0.00001371 Ry

     iteration #  8     ecut=   100.00 Ry     beta=0.50
     Davidson diagonalization with overlap
     ethr =  1.90E-08,  avg # of iterations =  3.1

     total cpu time spent up to now is       56.6 secs

     total energy              =    -416.66358013 Ry
     Harris-Foulkes estimate   =    -416.66358324 Ry
     estimated scf accuracy    <       0.00000673 Ry

     iteration #  9     ecut=   100.00 Ry     beta=0.50
     Davidson diagonalization with overlap
     ethr =  9.34E-09,  avg # of iterations =  3.1

     total cpu time spent up to now is       61.5 secs

     total energy              =    -416.66358139 Ry
     Harris-Foulkes estimate   =    -416.66358133 Ry
     estimated scf accuracy    <       0.00000020 Ry

     iteration # 10     ecut=   100.00 Ry     beta=0.50
     Davidson diagonalization with overlap
     ethr =  2.75E-10,  avg # of iterations =  4.0

     total cpu time spent up to now is       70.1 secs

     total energy              =    -416.66358160 Ry
     Harris-Foulkes estimate   =    -416.66358175 Ry
     estimated scf accuracy    <       0.00000030 Ry

     iteration # 11     ecut=   100.00 Ry     beta=0.50
     Davidson diagonalization with overlap
     ethr =  2.75E-10,  avg # of iterations =  3.6

     total cpu time spent up to now is       76.4 secs

     total energy              =    -416.66358167 Ry
     Harris-Foulkes estimate   =    -416.66358167 Ry
     estimated scf accuracy    <       0.00000001 Ry

     iteration # 12     ecut=   100.00 Ry     beta=0.50
     Davidson diagonalization with overlap
     ethr =  2.08E-11,  avg # of iterations =  2.4

     total cpu time spent up to now is       81.3 secs

     total energy              =    -416.66358167 Ry
     Harris-Foulkes estimate   =    -416.66358167 Ry
     estimated scf accuracy    <       0.00000001 Ry

     iteration # 13     ecut=   100.00 Ry     beta=0.50
     Davidson diagonalization with overlap
     ethr =  1.43E-11,  avg # of iterations =  2.9

     total cpu time spent up to now is       86.3 secs

     End of self-consistent calculation

          k = 0.0000 0.0000 0.0000 ( 20343 PWs)   bands (ev):

   -21.0959 -20.9123 -19.8993 -19.6134 -18.6473 -18.6293 -18.3572 -18.0541
   -11.3284 -11.2147  -8.4882  -7.9629  -7.3372  -7.1417  -5.7296  -5.6565
    -5.4023  -5.2794  -5.1171  -4.8545  -4.1595  -3.9671  -3.4125  -2.8117
    -2.2621  -2.1826  -2.1642  -1.6821  -1.4149  -1.0479  -0.9350  -0.7703
    -0.4666  -0.1385   0.0687   0.1715   5.4723   5.6323   7.1695   9.5986
     9.6050   9.9957  10.2480

          k = 0.0000 0.0000 0.3024 ( 20321 PWs)   bands (ev):

   -21.0536 -20.9570 -19.8880 -19.6281 -18.6425 -18.6333 -18.3669 -18.0398
   -11.3330 -11.2045  -8.4412  -8.0026  -7.3030  -7.1948  -5.8388  -5.6343
    -5.3334  -5.1866  -5.0522  -4.9429  -4.0831  -3.9300  -3.5845  -2.8899
    -2.3259  -2.2116  -2.0357  -1.7699  -1.5520  -1.1060  -0.8240  -0.5992
    -0.3377  -0.1168   0.0172   0.1823   5.4582   5.6047   7.4469   8.4103
     9.7133   9.8353  10.3089

          k = 0.0000 0.3068 0.0632 ( 20334 PWs)   bands (ev):

   -21.0502 -20.8887 -19.9325 -19.6555 -18.6911 -18.6372 -18.3693 -18.0380
   -11.1917 -11.0878  -8.4277  -8.0396  -7.3599  -7.1651  -5.8449  -5.7539
    -5.5363  -5.2269  -5.0229  -4.8518  -4.1664  -4.0826  -3.5422  -3.0508
    -2.4393  -2.1773  -1.8212  -1.6477  -1.3388  -1.0088  -0.9412  -0.8755
    -0.4267  -0.0746   0.2127   0.3619   5.5152   5.6212   7.4758   9.1490
     9.6507  10.0637  10.2111

          k = 0.0000 0.3068 0.3657 ( 20301 PWs)   bands (ev):

   -21.0030 -20.9379 -19.9205 -19.6698 -18.6925 -18.6399 -18.3732 -18.0263
   -11.1911 -11.0798  -8.4076  -8.0458  -7.3575  -7.1966  -5.9255  -5.7220
    -5.4675  -5.1762  -4.9792  -4.9023  -4.1790  -3.9937  -3.7395  -2.9613
    -2.5852  -2.1842  -1.7986  -1.6301  -1.4408  -1.1111  -0.7838  -0.7727
    -0.3916  -0.0177   0.1597   0.3907   5.4891   5.6072   7.9292   8.3133
     9.3777   9.9888  10.1277

          k = 0.0000 0.3068-0.2392 ( 20332 PWs)   bands (ev):

   -21.0203 -20.9199 -19.9178 -19.6732 -18.6961 -18.6340 -18.3736 -18.0286
   -11.2058 -11.0661  -8.4466  -8.0145  -7.2902  -7.2548  -5.8948  -5.7262
    -5.3022  -5.2472  -5.0737  -4.9621  -4.0742  -3.9998  -3.7860  -3.0342
    -2.5450  -2.1770  -1.7916  -1.6704  -1.5097  -1.1039  -0.7584  -0.6940
    -0.2514  -0.1761   0.1870   0.3838   5.5403   5.5852   7.5297   8.6426
     9.7585   9.8636  10.0980

          k = 0.0000-0.6135-0.1264 ( 20316 PWs)   bands (ev):

   -21.0002 -20.8638 -19.9669 -19.7034 -18.7349 -18.6459 -18.3740 -18.0263
   -11.0349 -10.9612  -8.3677  -8.1424  -7.3683  -7.2082  -5.9697  -5.9125
    -5.3269  -5.2534  -5.0646  -4.9562  -4.2782  -4.0968  -3.6675  -3.0410
    -2.5320  -2.1055  -1.7232  -1.6341  -1.2825  -1.1827  -0.9117  -0.8230
    -0.3073  -0.2985   0.4237   0.6696   5.4652   5.6709   8.3630   8.4966
     9.3570  10.0983  10.1533

          k = 0.0000-0.6135 0.1760 ( 20335 PWs)   bands (ev):

   -20.9666 -20.8985 -19.9525 -19.7189 -18.7421 -18.6398 -18.3827 -18.0155
   -11.0543 -10.9312  -8.4164  -8.0802  -7.3563  -7.2472  -5.9578  -5.9256
    -5.3279  -5.1447  -5.0796  -4.9449  -4.3140  -4.0024  -3.8127  -3.1534
    -2.5141  -2.1306  -1.7116  -1.6332  -1.4768  -1.1493  -0.7781  -0.7007
    -0.4307  -0.1211   0.4678   0.6001   5.4982   5.6055   8.3447   8.6152
     9.1064   9.6090  10.2301

          k = 0.3333 0.1792 0.0650 ( 20316 PWs)   bands (ev):

   -20.9327 -20.8103 -20.1276 -19.8079 -18.8134 -18.7215 -18.1454 -17.9126
   -10.8555 -10.6526  -8.6797  -8.4753  -7.4361  -7.1856  -6.3798  -6.3064
    -5.6046  -5.3360  -4.9674  -4.3431  -4.3163  -3.7114  -3.4666  -3.2224
    -2.9653  -2.8340  -1.6991  -1.0571  -0.9535  -0.8762  -0.6273  -0.5581
    -0.2597   0.0647   0.3968   0.6396   5.6822   5.7043   7.4853   8.8290
     9.4419   9.6183   9.8833

          k = 0.3333 0.1792 0.3674 ( 20288 PWs)   bands (ev):

   -20.9057 -20.8323 -20.1264 -19.8204 -18.8134 -18.7228 -18.1498 -17.9010
   -10.8499 -10.6494  -8.6654  -8.4922  -7.3984  -7.2190  -6.4352  -6.2430
    -5.7430  -5.1817  -4.9079  -4.3894  -4.2380  -3.7548  -3.5259  -3.1922
    -3.0861  -2.8549  -1.8579  -1.0337  -0.8984  -0.8226  -0.6207  -0.4905
    -0.1516   0.0734   0.3957   0.6094   5.5995   5.7156   7.9438   8.4001
     8.8623   9.5453   9.7557

          k = 0.3333 0.1792-0.2375 ( 20321 PWs)   bands (ev):

   -20.8968 -20.8464 -20.1061 -19.8353 -18.8129 -18.7235 -18.1508 -17.8999
   -10.8540 -10.6449  -8.6854  -8.4657  -7.3749  -7.2748  -6.4440  -6.2208
    -5.6620  -5.2949  -4.8661  -4.3707  -4.0825  -3.9205  -3.5614  -3.2724
    -3.0119  -2.8392  -1.8218  -1.0186  -0.9093  -0.8294  -0.6023  -0.5146
    -0.1072  -0.0018   0.4117   0.6096   5.5980   5.7369   7.4908   8.9667
     9.1695   9.4264   9.6039

          k = 0.3333 0.4859 0.1282 ( 20274 PWs)   bands (ev):

   -20.8865 -20.8038 -20.1507 -19.8400 -18.8262 -18.6968 -18.1824 -17.9212
   -10.7658 -10.5744  -8.6577  -8.5212  -7.4601  -7.1994  -6.4338  -6.3836
    -5.4702  -5.3879  -4.8948  -4.4056  -4.3160  -3.8397  -3.6467  -3.0940
    -2.9231  -2.6964  -1.6723  -1.2433  -0.9369  -0.7831  -0.6934  -0.5505
    -0.2924  -0.0597   0.4785   0.7605   5.5823   5.7391   8.0649   8.7130
     8.8433   9.6254   9.7596

          k = 0.3333 0.4859 0.4306 ( 20300 PWs)   bands (ev):

   -20.8716 -20.8122 -20.1489 -19.8529 -18.8240 -18.7021 -18.1872 -17.9093
   -10.7579 -10.5706  -8.6336  -8.5531  -7.3680  -7.3003  -6.4689  -6.3469
    -5.5886  -5.2823  -4.7759  -4.3940  -4.2785  -3.8069  -3.7794  -3.2602
    -2.8591  -2.7231  -1.8089  -1.1675  -0.9106  -0.7860  -0.6542  -0.4628
    -0.3397   0.0308   0.5147   0.6973   5.5351   5.7276   8.2712   8.6564
     8.8348   9.0665  10.0443

          k = 0.3333 0.4859-0.1743 ( 20307 PWs)   bands (ev):

   -20.8596 -20.8286 -20.1327 -19.8649 -18.8259 -18.6991 -18.1907 -17.9066
   -10.7746 -10.5563  -8.6751  -8.5082  -7.4319  -7.2358  -6.4687  -6.3429
    -5.5521  -5.2088  -4.8895  -4.4336  -4.1353  -3.9746  -3.7117  -3.2580
    -2.9525  -2.6705  -1.8830  -1.1081  -0.9005  -0.7462  -0.6237  -0.5196
    -0.2206  -0.0635   0.5235   0.6956   5.6144   5.6526   8.2701   8.5774
     8.7845   9.1622   9.9821

          k = 0.3333-0.4343-0.0615 ( 20321 PWs)   bands (ev):

   -20.9177 -20.8343 -20.1062 -19.8291 -18.6735 -18.5952 -18.3400 -18.0083
   -10.8764 -10.7620  -8.5995  -8.4504  -7.6824  -7.2489  -6.0296  -5.8079
    -5.6149  -5.2550  -4.7338  -4.5781  -4.2557  -3.9539  -3.6818  -3.3364
    -2.6406  -2.4134  -1.6343  -1.3687  -0.9781  -0.7901  -0.7393  -0.5510
    -0.2671  -0.2214   0.0700   0.3036   5.4749   5.6377   7.8637   8.4317
     9.3145   9.7517   9.9425

          k = 0.3333-0.4343 0.2410 ( 20322 PWs)   bands (ev):

   -20.9148 -20.8299 -20.1055 -19.8412 -18.6683 -18.6027 -18.3504 -17.9921
   -10.8899 -10.7384  -8.6053  -8.4599  -7.5842  -7.3640  -6.0053  -5.7961
    -5.5766  -5.2692  -4.6434  -4.4885  -4.3791  -3.9687  -3.7746  -3.3470
    -2.6632  -2.4136  -1.9354  -1.1240  -1.0399  -0.7691  -0.6554  -0.4700
    -0.3260  -0.1405   0.0877   0.2739   5.5034   5.5814   7.9836   8.4471
     8.8883   9.7535   9.9194

          k = 0.3333-0.4343-0.3639 ( 20299 PWs)   bands (ev):

   -20.8780 -20.8714 -20.0908 -19.8513 -18.6782 -18.5928 -18.3534 -17.9890
   -10.8912 -10.7380  -8.6171  -8.4353  -7.6311  -7.3299  -6.0119  -5.8163
    -5.4901  -5.2972  -4.6623  -4.5977  -4.2199  -4.0493  -3.8309  -3.1746
    -2.7996  -2.4393  -1.8593  -1.1135  -1.0357  -0.7832  -0.6383  -0.5132
    -0.3462  -0.0912   0.0474   0.2980   5.4978   5.5892   8.0762   8.4297
     9.0005   9.4853   9.8157

          k = 0.3333-0.1276 0.0017 ( 20311 PWs)   bands (ev):

   -20.9619 -20.8388 -20.0849 -19.7994 -18.6850 -18.6095 -18.2947 -17.9936
   -10.9627 -10.8275  -8.6366  -8.4104  -7.6419  -7.2481  -5.8910  -5.7426
    -5.6503  -5.3695  -4.9349  -4.3703  -4.2642  -3.9561  -3.5399  -3.2752
    -2.6822  -2.5560  -1.6883  -1.2612  -0.9437  -0.8003  -0.6627  -0.5905
    -0.2527  -0.1476  -0.0035   0.2133   5.5003   5.6530   7.4330   8.8017
     9.3527   9.6324   9.9834

          k = 0.3333-0.1276 0.3042 ( 20314 PWs)   bands (ev):

   -20.9457 -20.8491 -20.0844 -19.8114 -18.6874 -18.6081 -18.3033 -17.9788
   -10.9741 -10.8085  -8.6405  -8.4142  -7.5709  -7.3314  -5.8780  -5.7160
    -5.6217  -5.3562  -4.9222  -4.4082  -4.2312  -3.9322  -3.6694  -3.1879
    -2.8098  -2.5669  -1.9714  -1.1232  -0.8770  -0.7506  -0.6237  -0.5294
    -0.2335  -0.1140   0.0772   0.1349   5.5338   5.5868   7.7653   8.4073
     8.9402   9.4470   9.9201

          k = 0.3333-0.1276-0.3007 ( 20315 PWs)   bands (ev):

   -20.9157 -20.8848 -20.0674 -19.8222 -18.6804 -18.6160 -18.3075 -17.9741
   -10.9661 -10.8157  -8.6232  -8.4074  -7.5978  -7.3431  -5.8908  -5.7675
    -5.6464  -5.3526  -4.7473  -4.4381  -4.1472  -3.9395  -3.7612  -3.3643
    -2.6914  -2.5297  -1.8982  -1.1130  -0.8849  -0.7973  -0.6553  -0.5421
    -0.2030  -0.1291  -0.0145   0.2066   5.4752   5.6258   7.5397   8.5650
     9.2494   9.6647  10.0314

     highest occupied, lowest unoccupied level (ev):     0.7605    5.4582

!    total energy              =    -416.66358167 Ry
     Harris-Foulkes estimate   =    -416.66358167 Ry
     estimated scf accuracy    <          2.2E-10 Ry

     total all-electron energy =     -1518.495092 Ry

     The total energy is the sum of the following terms:

     one-electron contribution =    -200.83727243 Ry
     hartree contribution      =     131.51702625 Ry
     xc contribution           =     -81.69054799 Ry
     ewald contribution        =    -162.88931484 Ry
     Dispersion Correction     =      -0.08608699 Ry
     one-center paw contrib.   =    -102.67738568 Ry

     convergence has been achieved in  13 iterations

     Forces acting on atoms (cartesian axes, Ry/au):

     atom    1 type  4   force =     0.02954311   -0.00924311   -0.00373989
     atom    2 type  4   force =    -0.02954311    0.00924311    0.00373989
     atom    3 type  4   force =     0.00075432   -0.00130156   -0.00066202
     atom    4 type  4   force =    -0.00075432    0.00130156    0.00066202
     atom    5 type  4   force =    -0.00335345    0.02152845    0.02221431
     atom    6 type  4   force =     0.00335345   -0.02152845   -0.02221431
     atom    7 type  4   force =    -0.00516678   -0.01204859    0.00745173
     atom    8 type  4   force =     0.00516678    0.01204859   -0.00745173
     atom    9 type  1   force =    -0.03018291   -0.01098094   -0.00414209
     atom   10 type  1   force =     0.03018291    0.01098094    0.00414209
     atom   11 type  1   force =     0.01712174    0.00163559   -0.00990129
     atom   12 type  1   force =    -0.01712174   -0.00163559    0.00990129
     atom   13 type  3   force =    -0.02121755   -0.00812107   -0.00244651
     atom   14 type  3   force =     0.02121755    0.00812107    0.00244651
     atom   15 type  3   force =    -0.00270555   -0.00478302   -0.00068343
     atom   16 type  3   force =     0.00270555    0.00478302    0.00068343
     atom   17 type  3   force =     0.00006661    0.00065706   -0.00703166
     atom   18 type  3   force =    -0.00006661   -0.00065706    0.00703166
     atom   19 type  3   force =     0.01393065    0.01816575   -0.00180381
     atom   20 type  3   force =    -0.01393065   -0.01816575    0.00180381

     Total force =     0.097397     Total SCF correction =     0.000040


     Computing stress (Cartesian axis) and pressure

          total   stress  (Ry/bohr**3)                   (kbar)     P=   -9.90
  -0.00011085  -0.00017302  -0.00001198        -16.31    -25.45     -1.76
  -0.00017302  -0.00005203   0.00000257        -25.45     -7.65      0.38
  -0.00001198   0.00000257  -0.00003896         -1.76      0.38     -5.73


     Writing output data file scf.save
 
     init_run     :      4.73s CPU      4.85s WALL (       1 calls)
     electrons    :     79.11s CPU     80.89s WALL (       1 calls)
     forces       :      2.28s CPU      2.28s WALL (       1 calls)
     stress       :      4.31s CPU      4.32s WALL (       1 calls)

     Called by init_run:
     wfcinit      :      2.06s CPU      2.11s WALL (       1 calls)
     potinit      :      0.76s CPU      0.81s WALL (       1 calls)

     Called by electrons:
     c_bands      :     67.60s CPU     69.01s WALL (      13 calls)
     sum_band     :      9.23s CPU      9.46s WALL (      13 calls)
     v_of_rho     :      0.33s CPU      0.35s WALL (      14 calls)
     newd         :      0.58s CPU      0.59s WALL (      14 calls)
     PAW_pot      :      1.29s CPU      1.29s WALL (      14 calls)
     mix_rho      :      0.06s CPU      0.06s WALL (      13 calls)

     Called by c_bands:
     init_us_2    :      0.87s CPU      0.88s WALL (     551 calls)
     cegterg      :     65.16s CPU     66.54s WALL (     247 calls)

     Called by sum_band:
     sum_band:bec :      0.01s CPU      0.01s WALL (     247 calls)
     addusdens    :      0.52s CPU      0.52s WALL (      13 calls)

     Called by *egterg:
     h_psi        :     46.31s CPU     47.75s WALL (    1164 calls)
     s_psi        :      3.63s CPU      3.64s WALL (    1164 calls)
     g_psi        :      0.32s CPU      0.32s WALL (     898 calls)
     cdiaghg      :      4.58s CPU      4.56s WALL (    1145 calls)

     Called by h_psi:
     h_psi:pot    :     46.03s CPU     47.46s WALL (    1164 calls)
     h_psi:calbec :      3.88s CPU      3.91s WALL (    1164 calls)
     vloc_psi     :     38.51s CPU     39.91s WALL (    1164 calls)
     add_vuspsi   :      3.64s CPU      3.64s WALL (    1164 calls)

     General routines
     calbec       :      5.59s CPU      5.63s WALL (    1506 calls)
     fft          :      0.48s CPU      0.51s WALL (     206 calls)
     fftw         :     41.15s CPU     42.65s WALL (   72589 calls)
 
     Parallel routines
     fft_scatter  :     10.85s CPU     11.26s WALL (   72795 calls)
 
     PWSCF        :  1m32.47s CPU     1m35.40s WALL

 
   This run was terminated on:  18:16:45   3Nov2017            

=------------------------------------------------------------------------------=
   JOB DONE.
=------------------------------------------------------------------------------=
