
     Program PWSCF v.6.1 (svn rev. 13369) starts on  4Nov2017 at  2:26:28 

     This program is part of the open-source Quantum ESPRESSO suite
     for quantum simulation of materials; please cite
         "P. Giannozzi et al., J. Phys.:Condens. Matter 21 395502 (2009);
          URL http://www.quantum-espresso.org", 
     in publications or presentations arising from this work. More details at
     http://www.quantum-espresso.org/quote

     Parallel version (MPI), running on     8 processors
     R & G space division:  proc/nbgrp/npool/nimage =       8
     Waiting for input...
     Reading input from standard input

     Current dimensions of program PWSCF are:
     Max number of different atomic species (ntypx) = 10
     Max number of k-points (npk) =  40000
     Max angular momentum in pseudopotentials (lmaxx) =  3
               file C.pbe-n-kjpaw_psl.0.1.UPF: wavefunction(s)  2P renormalized
               file N.pbe-n-kjpaw_psl.0.1.UPF: wavefunction(s)  2P renormalized
               file H.pbe-kjpaw_psl.0.1.UPF: wavefunction(s)  1S renormalized
               file O.pbe-n-kjpaw_psl.0.1.UPF: wavefunction(s)  2P renormalized

     -------------------------------------
     Parameters for Dispersion Correction:
     -------------------------------------
       atom      VdW radius       C_6     

        C          2.744         60.710
        N          2.640         42.670
        H          1.892          4.857
        O          2.536         24.284

     Subspace diagonalization in iterative solution of the eigenvalue problem:
     a serial algorithm will be used

 
     Parallelization info
     --------------------
     sticks:   dense  smooth     PW     G-vecs:    dense   smooth      PW
     Min        1614    1614    428                74647    74647   10196
     Max        1616    1616    429                74648    74648   10199
     Sum       12923   12923   3431               597183   597183   81581
 


     bravais-lattice index     =            0
     lattice parameter (alat)  =      15.9587  a.u.
     unit-cell volume          =    4420.1348 (a.u.)^3
     number of atoms/cell      =           72
     number of atomic types    =            4
     number of electrons       =       240.00
     number of Kohn-Sham states=          144
     kinetic-energy cutoff     =     100.0000  Ry
     charge density cutoff     =     400.0000  Ry
     convergence threshold     =      1.0E-08
     mixing beta               =       0.5000
     number of iterations used =            8  plain     mixing
     Exchange-correlation      =  SLA  PW   PBX  PBC ( 1  4  3  4 0 0)

     celldm(1)=  15.958737  celldm(2)=   0.000000  celldm(3)=   0.000000
     celldm(4)=   0.000000  celldm(5)=   0.000000  celldm(6)=   0.000000

     crystal axes: (cart. coord. in units of alat)
               a(1) = (   1.000000   0.000000   0.000000 )  
               a(2) = (   0.000000   1.595027   0.000000 )  
               a(3) = (   0.000000   0.000000   0.681824 )  

     reciprocal axes: (cart. coord. in units 2 pi/alat)
               b(1) = (  1.000000  0.000000  0.000000 )  
               b(2) = (  0.000000  0.626949  0.000000 )  
               b(3) = (  0.000000  0.000000  1.466655 )  


     PseudoPot. # 1 for  C read from file:
     /scratch/ahofstet/pseudo/C.pbe-n-kjpaw_psl.0.1.UPF
     MD5 check sum: 430fe95172b1e11ef3f8ed03bac87931
     Pseudo is Projector augmented-wave + core cor, Zval =  4.0
     Generated using "atomic" code by A. Dal Corso  v.5.0.99 svn rev. 10869
     Shape of augmentation charge: BESSEL
     Using radial grid of 1073 points,  4 beta functions with: 
                l(1) =   0
                l(2) =   0
                l(3) =   1
                l(4) =   1
     Q(r) pseudized with 0 coefficients 


     PseudoPot. # 2 for  N read from file:
     /scratch/ahofstet/pseudo/N.pbe-n-kjpaw_psl.0.1.UPF
     MD5 check sum: f73187c8b701007e77325f868c9291d7
     Pseudo is Projector augmented-wave + core cor, Zval =  5.0
     Generated using "atomic" code by A. Dal Corso  v.5.0.99 svn rev. 10869
     Shape of augmentation charge: PSQ
     Using radial grid of 1085 points,  4 beta functions with: 
                l(1) =   0
                l(2) =   0
                l(3) =   1
                l(4) =   1
     Q(r) pseudized with 0 coefficients 


     PseudoPot. # 3 for  H read from file:
     /scratch/ahofstet/pseudo/H.pbe-kjpaw_psl.0.1.UPF
     MD5 check sum: 94e484f906d9e9773b2f6e52662335b2
     Pseudo is Projector augmented-wave, Zval =  1.0
     Generated using "atomic" code by A. Dal Corso  v.5.0.99 svn rev. 10869
     Shape of augmentation charge: PSQ
     Using radial grid of  929 points,  2 beta functions with: 
                l(1) =   0
                l(2) =   0
     Q(r) pseudized with 0 coefficients 


     PseudoPot. # 4 for  O read from file:
     /scratch/ahofstet/pseudo/O.pbe-n-kjpaw_psl.0.1.UPF
     MD5 check sum: 3f94a2996a3169367d6eb21d9b593f20
     Pseudo is Projector augmented-wave + core cor, Zval =  6.0
     Generated using "atomic" code by A. Dal Corso  v.5.0.99 svn rev. 10869
     Shape of augmentation charge: BESSEL
     Using radial grid of 1095 points,  4 beta functions with: 
                l(1) =   0
                l(2) =   0
                l(3) =   1
                l(4) =   1
     Q(r) pseudized with 0 coefficients 


     atomic species   valence    mass     pseudopotential
        C              4.00    12.01070      C( 1.00)
        N              5.00    14.00670      N( 1.00)
        H              1.00     1.00794      H( 1.00)
        O              6.00    15.99940      O( 1.00)

      4 Sym. Ops., with inversion, found ( 2 have fractional translation)



   Cartesian axes

     site n.     atom                  positions (alat units)
         1           C   tau(   1) = (   0.6311320   0.1702441   0.3076953  )
         2           C   tau(   2) = (   0.8688965   0.9676647   0.3076991  )
         3           C   tau(   3) = (   0.6311035   0.6273619   0.6486109  )
         4           C   tau(   4) = (   0.8688680   1.4247825   0.6486071  )
         5           C   tau(   5) = (   0.3688680   1.4247825   0.3741283  )
         6           C   tau(   6) = (   0.1311035   0.6273619   0.3741244  )
         7           C   tau(   7) = (   0.3688965   0.9676647   0.0332126  )
         8           C   tau(   8) = (   0.1311320   0.1702441   0.0332165  )
         9           H   tau(   9) = (   0.3662544   0.4101053   0.3388044  )
        10           H   tau(  10) = (   0.1337303   1.2075639   0.3388177  )
        11           H   tau(  11) = (   0.3662697   0.3874627  -0.0020941  )
        12           H   tau(  12) = (   0.1337456   1.1849214  -0.0021074  )
        13           H   tau(  13) = (   0.6337456   1.1849214   0.3430192  )
        14           H   tau(  14) = (   0.8662697   0.3874627   0.3430058  )
        15           H   tau(  15) = (   0.6337303   1.2075639   0.0020941  )
        16           H   tau(  16) = (   0.8662544   0.4101053   0.0021074  )
        17           H   tau(  17) = (   0.3182111   0.2519168   0.4431000  )
        18           H   tau(  18) = (   0.1818063   1.0493625   0.4430812  )
        19           H   tau(  19) = (   0.3181937   0.5456641   0.1021694  )
        20           H   tau(  20) = (   0.1817889   1.3431099   0.1021882  )
        21           H   tau(  21) = (   0.6817889   1.3431099   0.2387236  )
        22           H   tau(  22) = (   0.8181937   0.5456641   0.2387424  )
        23           H   tau(  23) = (   0.6818063   1.0493625   0.5796542  )
        24           H   tau(  24) = (   0.8182111   0.2519168   0.5796354  )
        25           H   tau(  25) = (   0.4518148   0.1317690   0.1494155  )
        26           H   tau(  26) = (   0.0482029   0.9292193   0.1494226  )
        27           H   tau(  27) = (   0.4517971   0.6658074   0.4903344  )
        28           H   tau(  28) = (   0.0481852   1.4632576   0.4903273  )
        29           H   tau(  29) = (   0.5481852   1.4632576   0.5324081  )
        30           H   tau(  30) = (   0.9517971   0.6658074   0.5324009  )
        31           H   tau(  31) = (   0.5482029   0.9292193   0.1914892  )
        32           H   tau(  32) = (   0.9518148   0.1317690   0.1914963  )
        33           H   tau(  33) = (   0.6323534   0.0272125   0.1149734  )
        34           H   tau(  34) = (   0.8676639   0.8246798   0.1149396  )
        35           H   tau(  35) = (   0.6323361   0.7703469   0.4558514  )
        36           H   tau(  36) = (   0.8676466   1.5678142   0.4558852  )
        37           H   tau(  37) = (   0.3676466   1.5678142   0.5668501  )
        38           H   tau(  38) = (   0.1323361   0.7703469   0.5668839  )
        39           H   tau(  39) = (   0.3676639   0.8246798   0.2259721  )
        40           H   tau(  40) = (   0.1323534   0.0272125   0.2259383  )
        41           N   tau(  41) = (   0.3801874   0.2890348   0.3445100  )
        42           N   tau(  42) = (   0.1198264   1.0864502   0.3445288  )
        43           N   tau(  43) = (   0.3801736   0.5085764   0.0036170  )
        44           N   tau(  44) = (   0.1198126   1.3059918   0.0035983  )
        45           N   tau(  45) = (   0.6198126   1.3059918   0.3373135  )
        46           N   tau(  46) = (   0.8801736   0.5085764   0.3372947  )
        47           N   tau(  47) = (   0.6198264   1.0864502   0.6782065  )
        48           N   tau(  48) = (   0.8801874   0.2890348   0.6782253  )
        49           N   tau(  49) = (   0.5656328   0.1041582   0.1808869  )
        50           N   tau(  50) = (   0.9344040   0.9015970   0.1808679  )
        51           N   tau(  51) = (   0.5655960   0.6934296   0.5217797  )
        52           N   tau(  52) = (   0.9343672   1.4908684   0.5217987  )
        53           N   tau(  53) = (   0.4343672   1.4908684   0.5009367  )
        54           N   tau(  54) = (   0.0655960   0.6934296   0.5009557  )
        55           N   tau(  55) = (   0.4344040   0.9015970   0.1600439  )
        56           N   tau(  56) = (   0.0656328   0.1041582   0.1600249  )
        57           O   tau(  57) = (   0.5440960   0.2723130   0.3975234  )
        58           O   tau(  58) = (   0.9559216   1.0697116   0.3975410  )
        59           O   tau(  59) = (   0.5440784   0.5253150   0.0566292  )
        60           O   tau(  60) = (   0.9559040   1.3227136   0.0566116  )
        61           O   tau(  61) = (   0.4559040   1.3227136   0.2843001  )
        62           O   tau(  62) = (   0.0440784   0.5253150   0.2842825  )
        63           O   tau(  63) = (   0.4559216   1.0697116   0.6251943  )
        64           O   tau(  64) = (   0.0440960   0.2723130   0.6252119  )
        65           O   tau(  65) = (   0.7698378   0.1486236   0.3547592  )
        66           O   tau(  66) = (   0.7301602   0.9460666   0.3547378  )
        67           O   tau(  67) = (   0.7698398   0.6489600   0.0138260  )
        68           O   tau(  68) = (   0.7301622   1.4464030   0.0138474  )
        69           O   tau(  69) = (   0.2301622   1.4464030   0.3270643  )
        70           O   tau(  70) = (   0.2698398   0.6489600   0.3270858  )
        71           O   tau(  71) = (   0.2301602   0.9460666   0.6679975  )
        72           O   tau(  72) = (   0.2698378   0.1486236   0.6679761  )

     number of k points=     8
                       cart. coord. in units 2pi/alat
        k(    1) = (   0.0000000   0.0000000   0.0000000), wk =   0.1666667
        k(    2) = (   0.0000000   0.0000000   0.4888850), wk =   0.3333333
        k(    3) = (   0.0000000  -0.3134744   0.0000000), wk =   0.1666667
        k(    4) = (   0.0000000  -0.3134744   0.4888850), wk =   0.3333333
        k(    5) = (  -0.5000000   0.0000000   0.0000000), wk =   0.1666667
        k(    6) = (  -0.5000000   0.0000000   0.4888850), wk =   0.3333333
        k(    7) = (  -0.5000000  -0.3134744   0.0000000), wk =   0.1666667
        k(    8) = (  -0.5000000  -0.3134744   0.4888850), wk =   0.3333333

     Dense  grid:   597183 G-vectors     FFT dimensions: ( 108, 180,  72)

     Estimated max dynamical RAM per process >     459.48MB

     Estimated total allocated dynamical RAM >    3675.80MB

     Check: negative/imaginary core charge=   -0.000002    0.000000

     Initial potential from superposition of free atoms

     starting charge  239.99922, renormalised to  240.00000
     Starting wfc are  192 randomized atomic wfcs
     Checking if some PAW data can be deallocated... 

     total cpu time spent up to now is       21.9 secs

     per-process dynamical memory:   322.6 Mb

     Self-consistent Calculation

     iteration #  1     ecut=   100.00 Ry     beta=0.50
     Davidson diagonalization with overlap
     ethr =  1.00E-02,  avg # of iterations =  3.0

     total cpu time spent up to now is       80.3 secs

     total energy              =   -1301.84176546 Ry
     Harris-Foulkes estimate   =   -1305.88141944 Ry
     estimated scf accuracy    <       7.47473496 Ry

     iteration #  2     ecut=   100.00 Ry     beta=0.50
     Davidson diagonalization with overlap
     ethr =  3.11E-03,  avg # of iterations =  3.0

     total cpu time spent up to now is      126.8 secs

     total energy              =   -1303.36988176 Ry
     Harris-Foulkes estimate   =   -1303.85356027 Ry
     estimated scf accuracy    <       1.08164061 Ry

     iteration #  3     ecut=   100.00 Ry     beta=0.50
     Davidson diagonalization with overlap
     ethr =  4.51E-04,  avg # of iterations =  3.6

     total cpu time spent up to now is      169.2 secs

     total energy              =   -1303.55497271 Ry
     Harris-Foulkes estimate   =   -1303.61727751 Ry
     estimated scf accuracy    <       0.18494705 Ry

     iteration #  4     ecut=   100.00 Ry     beta=0.50
     Davidson diagonalization with overlap
     ethr =  7.71E-05,  avg # of iterations =  5.6

     total cpu time spent up to now is      219.5 secs

     total energy              =   -1303.58381761 Ry
     Harris-Foulkes estimate   =   -1303.59769556 Ry
     estimated scf accuracy    <       0.04425712 Ry

     iteration #  5     ecut=   100.00 Ry     beta=0.50
     Davidson diagonalization with overlap
     ethr =  1.84E-05,  avg # of iterations =  3.0

     total cpu time spent up to now is      257.3 secs

     total energy              =   -1303.58910598 Ry
     Harris-Foulkes estimate   =   -1303.58955281 Ry
     estimated scf accuracy    <       0.00190831 Ry

     iteration #  6     ecut=   100.00 Ry     beta=0.50
     Davidson diagonalization with overlap
     ethr =  7.95E-07,  avg # of iterations =  6.2

     total cpu time spent up to now is      333.0 secs

     total energy              =   -1303.59007620 Ry
     Harris-Foulkes estimate   =   -1303.59021163 Ry
     estimated scf accuracy    <       0.00041873 Ry

     iteration #  7     ecut=   100.00 Ry     beta=0.50
     Davidson diagonalization with overlap
     ethr =  1.74E-07,  avg # of iterations =  2.0

     total cpu time spent up to now is      370.6 secs

     total energy              =   -1303.59013729 Ry
     Harris-Foulkes estimate   =   -1303.59013757 Ry
     estimated scf accuracy    <       0.00004528 Ry

     iteration #  8     ecut=   100.00 Ry     beta=0.50
     Davidson diagonalization with overlap
     ethr =  1.89E-08,  avg # of iterations =  3.0

     total cpu time spent up to now is      422.9 secs

     total energy              =   -1303.59014252 Ry
     Harris-Foulkes estimate   =   -1303.59015238 Ry
     estimated scf accuracy    <       0.00002149 Ry

     iteration #  9     ecut=   100.00 Ry     beta=0.50
     Davidson diagonalization with overlap
     ethr =  8.95E-09,  avg # of iterations =  2.0

     total cpu time spent up to now is      460.9 secs

     total energy              =   -1303.59014660 Ry
     Harris-Foulkes estimate   =   -1303.59014681 Ry
     estimated scf accuracy    <       0.00000081 Ry

     iteration # 10     ecut=   100.00 Ry     beta=0.50
     Davidson diagonalization with overlap
     ethr =  3.40E-10,  avg # of iterations =  4.0

     total cpu time spent up to now is      527.6 secs

     total energy              =   -1303.59014731 Ry
     Harris-Foulkes estimate   =   -1303.59014769 Ry
     estimated scf accuracy    <       0.00000097 Ry

     iteration # 11     ecut=   100.00 Ry     beta=0.50
     Davidson diagonalization with overlap
     ethr =  3.40E-10,  avg # of iterations =  2.0

     total cpu time spent up to now is      563.3 secs

     total energy              =   -1303.59014738 Ry
     Harris-Foulkes estimate   =   -1303.59014742 Ry
     estimated scf accuracy    <       0.00000009 Ry

     iteration # 12     ecut=   100.00 Ry     beta=0.50
     Davidson diagonalization with overlap
     ethr =  3.65E-11,  avg # of iterations =  3.0

     total cpu time spent up to now is      622.4 secs

     total energy              =   -1303.59014745 Ry
     Harris-Foulkes estimate   =   -1303.59014747 Ry
     estimated scf accuracy    <       0.00000005 Ry

     iteration # 13     ecut=   100.00 Ry     beta=0.50
     Davidson diagonalization with overlap
     ethr =  2.28E-11,  avg # of iterations =  1.0

     total cpu time spent up to now is      655.5 secs

     total energy              =   -1303.59014745 Ry
     Harris-Foulkes estimate   =   -1303.59014745 Ry
     estimated scf accuracy    <       0.00000002 Ry

     iteration # 14     ecut=   100.00 Ry     beta=0.50
     Davidson diagonalization with overlap
     ethr =  6.35E-12,  avg # of iterations =  3.2

     total cpu time spent up to now is      710.0 secs

     End of self-consistent calculation

          k = 0.0000 0.0000 0.0000 ( 74637 PWs)   bands (ev):

   -21.7102 -21.6739 -21.6495 -21.6174 -21.6121 -21.6119 -21.6092 -21.6040
   -19.3444 -19.2809 -19.2766 -19.2575 -19.2315 -19.2117 -19.2020 -19.1744
   -16.3667 -16.3455 -16.2389 -16.2330 -16.1745 -16.1701 -16.1694 -16.1494
   -14.3019 -14.2634 -14.2587 -14.2466 -14.1447 -14.1032 -14.0773 -14.0653
    -8.7915  -8.7225  -8.5442  -8.5070  -8.3105  -8.2758  -8.2409  -8.2301
    -7.4336  -7.4276  -7.4267  -7.3769  -7.3491  -7.3425  -7.3332  -7.1934
    -7.1812  -7.0803  -6.9879  -6.9809  -6.5981  -6.5343  -6.4371  -6.3644
    -6.3470  -6.3120  -6.2992  -6.2130  -6.1683  -6.1548  -6.0493  -5.9129
    -5.0493  -4.9781  -4.5891  -4.5501  -4.4138  -4.4125  -4.4030  -4.3372
    -4.3271  -4.3252  -4.2434  -4.1788  -4.1394  -4.0948  -4.0068  -3.9046
    -3.9043  -3.8019  -3.8004  -3.7416  -3.6660  -3.5628  -3.5542  -3.4991
    -1.2752  -1.2203  -1.2054  -1.1940  -1.1258  -1.1173  -0.9900  -0.9866
    -0.8877  -0.8252  -0.7086  -0.7065  -0.6782  -0.6526  -0.5486  -0.4659
    -0.3871  -0.3274  -0.2936  -0.2694  -0.2572  -0.2154  -0.2095  -0.2057
    -0.1934  -0.1928   0.0511   0.0909   0.2619   0.2780   0.4261   0.4318
     5.8719   5.8990   5.9211   5.9699   6.1588   6.1627   6.1901   6.3448
     6.4527   6.6205   6.6266   6.8826   6.8831   6.9835   6.9912   7.2182
     7.2620   7.3963   7.5827   7.8509   8.2133   8.6689   8.8179   8.8525

          k = 0.0000 0.0000 0.4889 ( 74652 PWs)   bands (ev):

   -21.6847 -21.6572 -21.6418 -21.6353 -21.6230 -21.6195 -21.6109 -21.6100
   -19.3163 -19.2834 -19.2831 -19.2548 -19.2317 -19.2191 -19.1995 -19.1925
   -16.3314 -16.3198 -16.2331 -16.2303 -16.2109 -16.2085 -16.1762 -16.1725
   -14.2493 -14.2403 -14.2110 -14.1989 -14.1761 -14.1549 -14.1179 -14.1107
    -8.7357  -8.7349  -8.5280  -8.4759  -8.3742  -8.3519  -8.2562  -8.2132
    -7.5283  -7.5094  -7.4975  -7.4797  -7.2909  -7.2548  -7.2307  -7.1773
    -7.0314  -6.9918  -6.8178  -6.7885  -6.7810  -6.7709  -6.5325  -6.4805
    -6.3266  -6.2298  -6.1657  -6.1629  -6.1526  -6.1209  -6.1197  -5.9823
    -4.8896  -4.7761  -4.7480  -4.5871  -4.5239  -4.5038  -4.4751  -4.4434
    -4.3992  -4.3956  -4.2562  -4.1052  -4.0121  -4.0078  -4.0005  -3.9008
    -3.7930  -3.7859  -3.7747  -3.7688  -3.6796  -3.6485  -3.5928  -3.5253
    -1.2441  -1.1891  -1.1852  -1.1278  -1.0299  -1.0236  -1.0048  -0.8845
    -0.8515  -0.7698  -0.7585  -0.7143  -0.6440  -0.6242  -0.4901  -0.4535
    -0.4345  -0.3924  -0.3338  -0.3175  -0.2202  -0.2004  -0.1907  -0.1751
    -0.1546  -0.1090   0.0831   0.1041   0.1668   0.2072   0.3552   0.3763
     5.8652   5.9124   5.9533   6.0217   6.1742   6.1897   6.2176   6.3912
     6.4520   6.5157   6.6826   6.7353   6.9843   7.0256   7.0945   7.1686
     7.2084   7.8189   7.9022   8.2532   8.2892   8.4282   8.8107   8.9038

          k = 0.0000-0.3135 0.0000 ( 74682 PWs)   bands (ev):

   -21.6972 -21.6972 -21.6257 -21.6257 -21.6155 -21.6154 -21.6058 -21.6058
   -19.3260 -19.3247 -19.2484 -19.2467 -19.2322 -19.2308 -19.1861 -19.1842
   -16.3572 -16.3561 -16.2368 -16.2354 -16.1726 -16.1711 -16.1599 -16.1584
   -14.2852 -14.2851 -14.2529 -14.2528 -14.1215 -14.1215 -14.0711 -14.0711
    -8.7603  -8.7596  -8.5274  -8.5267  -8.2678  -8.2666  -8.2574  -8.2562
    -7.4377  -7.4375  -7.3947  -7.3943  -7.3477  -7.3477  -7.2850  -7.2847
    -7.1089  -7.1088  -6.9862  -6.9857  -6.5631  -6.5629  -6.4001  -6.4000
    -6.3321  -6.3319  -6.2680  -6.2676  -6.1599  -6.1598  -5.9702  -5.9701
    -5.0207  -5.0207  -4.4850  -4.4848  -4.4749  -4.4748  -4.4352  -4.4352
    -4.2925  -4.2915  -4.2046  -4.2039  -4.0609  -4.0604  -4.0281  -4.0278
    -3.8648  -3.8648  -3.7531  -3.7523  -3.5695  -3.5687  -3.5550  -3.5540
    -1.2611  -1.2611  -1.1990  -1.1989  -1.0814  -1.0813  -1.0170  -1.0168
    -0.8606  -0.8604  -0.6918  -0.6918  -0.6823  -0.6821  -0.4975  -0.4968
    -0.3646  -0.3642  -0.2773  -0.2765  -0.2419  -0.2414  -0.2036  -0.2030
    -0.1999  -0.1991   0.0784   0.0785   0.2699   0.2699   0.4273   0.4273
     5.8983   5.8987   5.8994   5.8994   6.1629   6.1629   6.3997   6.3999
     6.5451   6.5469   6.6141   6.6143   6.9414   6.9415   7.0344   7.0344
     7.2497   7.2497   7.9902   7.9912   8.4112   8.4122   8.7950   8.7961

          k = 0.0000-0.3135 0.4889 ( 74602 PWs)   bands (ev):

   -21.6749 -21.6749 -21.6336 -21.6335 -21.6188 -21.6188 -21.6139 -21.6139
   -19.3060 -19.3049 -19.2660 -19.2655 -19.2218 -19.2209 -19.1985 -19.1968
   -16.3263 -16.3251 -16.2330 -16.2317 -16.2091 -16.2079 -16.1755 -16.1740
   -14.2452 -14.2452 -14.2061 -14.2061 -14.1641 -14.1641 -14.1142 -14.1142
    -8.7357  -8.7351  -8.5062  -8.5054  -8.3605  -8.3596  -8.2342  -8.2330
    -7.5195  -7.5192  -7.4893  -7.4889  -7.2563  -7.2561  -7.2265  -7.2261
    -7.0071  -7.0069  -6.8237  -6.8235  -6.7464  -6.7463  -6.5268  -6.5263
    -6.2520  -6.2518  -6.2096  -6.2094  -6.1058  -6.1056  -6.0515  -6.0514
    -4.8275  -4.8270  -4.6840  -4.6836  -4.5034  -4.5029  -4.4922  -4.4919
    -4.3902  -4.3899  -4.1272  -4.1272  -4.0297  -4.0294  -3.9695  -3.9694
    -3.8022  -3.8021  -3.7363  -3.7362  -3.6856  -3.6849  -3.5495  -3.5487
    -1.2244  -1.2242  -1.1619  -1.1618  -1.0252  -1.0250  -0.9349  -0.9342
    -0.8288  -0.8288  -0.7128  -0.7124  -0.6346  -0.6346  -0.4711  -0.4706
    -0.4202  -0.4196  -0.3292  -0.3282  -0.2200  -0.2194  -0.1677  -0.1673
    -0.1328  -0.1326   0.0912   0.0913   0.1873   0.1874   0.3669   0.3669
     5.8795   5.8796   5.9881   5.9885   6.1893   6.1897   6.3140   6.3143
     6.4754   6.4756   6.6994   6.6996   7.0380   7.0384   7.1904   7.1904
     7.2666   7.2678   8.3120   8.3132   8.4782   8.4786   8.6028   8.6038

          k =-0.5000 0.0000 0.0000 ( 74678 PWs)   bands (ev):

   -21.6674 -21.6674 -21.6412 -21.6412 -21.6319 -21.6319 -21.6056 -21.6056
   -19.2869 -19.2869 -19.2677 -19.2677 -19.2264 -19.2264 -19.2064 -19.2064
   -16.3071 -16.3071 -16.3028 -16.3028 -16.1625 -16.1625 -16.1557 -16.1557
   -14.2795 -14.2795 -14.2487 -14.2487 -14.1131 -14.1131 -14.0825 -14.0825
    -8.6839  -8.6839  -8.6790  -8.6790  -8.2509  -8.2509  -8.2468  -8.2468
    -7.4457  -7.4457  -7.4079  -7.4079  -7.3250  -7.3250  -7.2985  -7.2985
    -7.0393  -7.0393  -6.9975  -6.9975  -6.4730  -6.4730  -6.4590  -6.4590
    -6.2982  -6.2982  -6.1930  -6.1930  -6.1791  -6.1791  -6.0298  -6.0298
    -4.7957  -4.7957  -4.7694  -4.7694  -4.6305  -4.6305  -4.3134  -4.3134
    -4.2381  -4.2381  -4.2090  -4.2090  -4.1727  -4.1727  -3.9857  -3.9857
    -3.8116  -3.8116  -3.8050  -3.8050  -3.6003  -3.6003  -3.5588  -3.5588
    -1.0778  -1.0778  -1.0694  -1.0694  -1.0477  -1.0477  -0.9661  -0.9661
    -0.7846  -0.7846  -0.7777  -0.7777  -0.7375  -0.7375  -0.7224  -0.7224
    -0.4289  -0.4289  -0.3412  -0.3412  -0.3056  -0.3056  -0.1945  -0.1945
     0.0060   0.0060   0.0524   0.0524   0.3232   0.3232   0.3661   0.3661
     5.9136   5.9136   6.1015   6.1015   6.1267   6.1267   6.4131   6.4131
     6.4321   6.4321   6.4904   6.4904   6.7186   6.7186   6.9730   6.9730
     7.6377   7.6377   8.1312   8.1312   8.1461   8.1461   9.0642   9.0642

          k =-0.5000 0.0000 0.4889 ( 74602 PWs)   bands (ev):

   -21.6552 -21.6552 -21.6374 -21.6374 -21.6335 -21.6335 -21.6158 -21.6158
   -19.2689 -19.2689 -19.2596 -19.2596 -19.2368 -19.2368 -19.2263 -19.2263
   -16.2722 -16.2722 -16.2696 -16.2696 -16.1985 -16.1985 -16.1950 -16.1950
   -14.2349 -14.2349 -14.2171 -14.2171 -14.1519 -14.1519 -14.1339 -14.1339
    -8.5999  -8.5999  -8.5982  -8.5982  -8.3323  -8.3323  -8.3291  -8.3291
    -7.3753  -7.3753  -7.3548  -7.3548  -7.3432  -7.3432  -7.3312  -7.3312
    -6.9691  -6.9691  -6.9209  -6.9209  -6.6754  -6.6754  -6.6375  -6.6375
    -6.2569  -6.2569  -6.1863  -6.1863  -6.1544  -6.1544  -6.0716  -6.0716
    -4.6567  -4.6567  -4.6512  -4.6512  -4.5440  -4.5440  -4.3889  -4.3889
    -4.2420  -4.2420  -4.1979  -4.1979  -4.1362  -4.1362  -4.1062  -4.1062
    -3.7840  -3.7840  -3.7759  -3.7759  -3.6560  -3.6560  -3.6134  -3.6134
    -1.1289  -1.1289  -1.1208  -1.1208  -1.0653  -1.0653  -1.0277  -1.0277
    -0.6673  -0.6673  -0.6516  -0.6516  -0.6202  -0.6202  -0.5959  -0.5959
    -0.4064  -0.4064  -0.3594  -0.3594  -0.2392  -0.2392  -0.1912  -0.1912
     0.0321   0.0321   0.0645   0.0645   0.1896   0.1896   0.2187   0.2187
     6.0278   6.0278   6.1093   6.1093   6.2372   6.2372   6.2627   6.2627
     6.3686   6.3686   6.5866   6.5866   6.6976   6.6976   6.8205   6.8205
     7.9319   7.9319   8.3329   8.3329   8.4589   8.4589   8.6867   8.6867

          k =-0.5000-0.3135 0.0000 ( 74620 PWs)   bands (ev):

   -21.6586 -21.6586 -21.6586 -21.6586 -21.6144 -21.6144 -21.6144 -21.6144
   -19.2797 -19.2797 -19.2779 -19.2779 -19.2158 -19.2158 -19.2139 -19.2139
   -16.3056 -16.3056 -16.3044 -16.3044 -16.1598 -16.1598 -16.1583 -16.1583
   -14.2655 -14.2655 -14.2655 -14.2655 -14.0964 -14.0964 -14.0964 -14.0964
    -8.6817  -8.6817  -8.6811  -8.6811  -8.2496  -8.2496  -8.2483  -8.2483
    -7.4296  -7.4296  -7.4296  -7.4296  -7.3100  -7.3100  -7.3096  -7.3096
    -7.0172  -7.0172  -7.0172  -7.0172  -6.4688  -6.4688  -6.4682  -6.4682
    -6.2641  -6.2641  -6.2635  -6.2635  -6.0845  -6.0845  -6.0842  -6.0842
    -4.7987  -4.7987  -4.7984  -4.7984  -4.4807  -4.4807  -4.4799  -4.4799
    -4.2549  -4.2549  -4.2546  -4.2546  -3.9998  -3.9998  -3.9995  -3.9995
    -3.8330  -3.8330  -3.8322  -3.8322  -3.5797  -3.5797  -3.5790  -3.5790
    -1.0711  -1.0711  -1.0708  -1.0708  -1.0149  -1.0149  -1.0146  -1.0146
    -0.7761  -0.7761  -0.7751  -0.7751  -0.7261  -0.7261  -0.7252  -0.7252
    -0.4034  -0.4034  -0.4025  -0.4025  -0.2409  -0.2409  -0.2400  -0.2400
     0.0325   0.0325   0.0326   0.0326   0.3452   0.3452   0.3452   0.3452
     6.0324   6.0324   6.0329   6.0329   6.1985   6.1985   6.1990   6.1990
     6.4613   6.4613   6.4615   6.4615   6.8889   6.8889   6.8890   6.8890
     7.7551   7.7551   7.7562   7.7562   8.7776   8.7776   8.7778   8.7778

          k =-0.5000-0.3135 0.4889 ( 74636 PWs)   bands (ev):

   -21.6495 -21.6495 -21.6494 -21.6494 -21.6215 -21.6215 -21.6215 -21.6215
   -19.2659 -19.2659 -19.2640 -19.2640 -19.2318 -19.2318 -19.2299 -19.2299
   -16.2716 -16.2716 -16.2703 -16.2703 -16.1975 -16.1975 -16.1960 -16.1960
   -14.2269 -14.2269 -14.2269 -14.2269 -14.1420 -14.1420 -14.1420 -14.1420
    -8.5992  -8.5992  -8.5984  -8.5984  -8.3316  -8.3316  -8.3305  -8.3305
    -7.3704  -7.3704  -7.3701  -7.3701  -7.3320  -7.3320  -7.3316  -7.3316
    -6.9468  -6.9468  -6.9466  -6.9466  -6.6510  -6.6510  -6.6507  -6.6507
    -6.2460  -6.2460  -6.2456  -6.2456  -6.0941  -6.0941  -6.0937  -6.0937
    -4.6552  -4.6552  -4.6550  -4.6550  -4.4577  -4.4577  -4.4570  -4.4570
    -4.2431  -4.2431  -4.2426  -4.2426  -4.1102  -4.1102  -4.1095  -4.1095
    -3.7748  -3.7748  -3.7741  -3.7741  -3.6359  -3.6359  -3.6351  -3.6351
    -1.1265  -1.1265  -1.1259  -1.1259  -1.0468  -1.0468  -1.0461  -1.0461
    -0.6535  -0.6535  -0.6529  -0.6529  -0.6126  -0.6126  -0.6121  -0.6121
    -0.3858  -0.3858  -0.3850  -0.3850  -0.2146  -0.2146  -0.2137  -0.2137
     0.0484   0.0484   0.0484   0.0484   0.2048   0.2048   0.2049   0.2049
     6.0702   6.0702   6.0704   6.0704   6.2454   6.2454   6.2457   6.2457
     6.4567   6.4567   6.4571   6.4571   6.7815   6.7815   6.7816   6.7816
     8.0410   8.0410   8.0425   8.0425   8.7466   8.7466   8.7482   8.7482

     highest occupied, lowest unoccupied level (ev):     0.4318    5.8652

!    total energy              =   -1303.59014745 Ry
     Harris-Foulkes estimate   =   -1303.59014745 Ry
     estimated scf accuracy    <          1.1E-09 Ry

     total all-electron energy =     -4808.033917 Ry

     The total energy is the sum of the following terms:

     one-electron contribution =    -645.18310964 Ry
     hartree contribution      =     419.50503137 Ry
     xc contribution           =    -261.55714795 Ry
     ewald contribution        =    -478.17945499 Ry
     Dispersion Correction     =      -0.29085786 Ry
     one-center paw contrib.   =    -337.88460838 Ry

     convergence has been achieved in  14 iterations

     Forces acting on atoms (cartesian axes, Ry/au):

     atom    1 type  1   force =     0.00047457   -0.00073356    0.00067601
     atom    2 type  1   force =    -0.00075025   -0.00083360    0.00049622
     atom    3 type  1   force =     0.00075025    0.00083360    0.00049622
     atom    4 type  1   force =    -0.00047457    0.00073356    0.00067601
     atom    5 type  1   force =    -0.00047457    0.00073356   -0.00067601
     atom    6 type  1   force =     0.00075025    0.00083360   -0.00049622
     atom    7 type  1   force =    -0.00075025   -0.00083360   -0.00049622
     atom    8 type  1   force =     0.00047457   -0.00073356   -0.00067601
     atom    9 type  3   force =     0.00054004   -0.00146540    0.00098756
     atom   10 type  3   force =    -0.00056057   -0.00198186    0.00100086
     atom   11 type  3   force =     0.00056057    0.00198186    0.00100086
     atom   12 type  3   force =    -0.00054004    0.00146540    0.00098756
     atom   13 type  3   force =    -0.00054004    0.00146540   -0.00098756
     atom   14 type  3   force =     0.00056057    0.00198186   -0.00100086
     atom   15 type  3   force =    -0.00056057   -0.00198186   -0.00100086
     atom   16 type  3   force =     0.00054004   -0.00146540   -0.00098756
     atom   17 type  3   force =    -0.00067736   -0.00001931   -0.00044638
     atom   18 type  3   force =     0.00087955   -0.00017094   -0.00004933
     atom   19 type  3   force =    -0.00087955    0.00017094   -0.00004933
     atom   20 type  3   force =     0.00067736    0.00001931   -0.00044638
     atom   21 type  3   force =     0.00067736    0.00001931    0.00044638
     atom   22 type  3   force =    -0.00087955    0.00017094    0.00004933
     atom   23 type  3   force =     0.00087955   -0.00017094    0.00004933
     atom   24 type  3   force =    -0.00067736   -0.00001931    0.00044638
     atom   25 type  3   force =     0.00081065    0.00018320    0.00018723
     atom   26 type  3   force =    -0.00053717    0.00021891    0.00008830
     atom   27 type  3   force =     0.00053717   -0.00021891    0.00008830
     atom   28 type  3   force =    -0.00081065   -0.00018320    0.00018723
     atom   29 type  3   force =    -0.00081065   -0.00018320   -0.00018723
     atom   30 type  3   force =     0.00053717   -0.00021891   -0.00008830
     atom   31 type  3   force =    -0.00053717    0.00021891   -0.00008830
     atom   32 type  3   force =     0.00081065    0.00018320   -0.00018723
     atom   33 type  3   force =     0.00002154    0.00050166    0.00067420
     atom   34 type  3   force =    -0.00000651    0.00048743    0.00064728
     atom   35 type  3   force =     0.00000651   -0.00048743    0.00064728
     atom   36 type  3   force =    -0.00002154   -0.00050166    0.00067420
     atom   37 type  3   force =    -0.00002154   -0.00050166   -0.00067420
     atom   38 type  3   force =     0.00000651   -0.00048743   -0.00064728
     atom   39 type  3   force =    -0.00000651    0.00048743   -0.00064728
     atom   40 type  3   force =     0.00002154    0.00050166   -0.00067420
     atom   41 type  2   force =    -0.00044281    0.00080285    0.00030061
     atom   42 type  2   force =     0.00027389    0.00150477   -0.00013584
     atom   43 type  2   force =    -0.00027389   -0.00150477   -0.00013584
     atom   44 type  2   force =     0.00044281   -0.00080285    0.00030061
     atom   45 type  2   force =     0.00044281   -0.00080285   -0.00030061
     atom   46 type  2   force =    -0.00027389   -0.00150477    0.00013584
     atom   47 type  2   force =     0.00027389    0.00150477    0.00013584
     atom   48 type  2   force =    -0.00044281    0.00080285   -0.00030061
     atom   49 type  2   force =    -0.00002064    0.00033500    0.00021407
     atom   50 type  2   force =    -0.00039225    0.00040050    0.00056679
     atom   51 type  2   force =     0.00039225   -0.00040050    0.00056679
     atom   52 type  2   force =     0.00002064   -0.00033500    0.00021407
     atom   53 type  2   force =     0.00002064   -0.00033500   -0.00021407
     atom   54 type  2   force =     0.00039225   -0.00040050   -0.00056679
     atom   55 type  2   force =    -0.00039225    0.00040050   -0.00056679
     atom   56 type  2   force =    -0.00002064    0.00033500   -0.00021407
     atom   57 type  4   force =    -0.00068145   -0.00033204   -0.00063187
     atom   58 type  4   force =     0.00071909   -0.00032345   -0.00054674
     atom   59 type  4   force =    -0.00071909    0.00032345   -0.00054674
     atom   60 type  4   force =     0.00068145    0.00033204   -0.00063187
     atom   61 type  4   force =     0.00068145    0.00033204    0.00063187
     atom   62 type  4   force =    -0.00071909    0.00032345    0.00054674
     atom   63 type  4   force =     0.00071909   -0.00032345    0.00054674
     atom   64 type  4   force =    -0.00068145   -0.00033204    0.00063187
     atom   65 type  4   force =     0.00121544    0.00057329   -0.00061478
     atom   66 type  4   force =    -0.00085225    0.00059869   -0.00072095
     atom   67 type  4   force =     0.00085225   -0.00059869   -0.00072095
     atom   68 type  4   force =    -0.00121544   -0.00057329   -0.00061478
     atom   69 type  4   force =    -0.00121544   -0.00057329    0.00061478
     atom   70 type  4   force =     0.00085225   -0.00059869    0.00072095
     atom   71 type  4   force =    -0.00085225    0.00059869    0.00072095
     atom   72 type  4   force =     0.00121544    0.00057329    0.00061478

     Total force =     0.010009     Total SCF correction =     0.000104


     Computing stress (Cartesian axis) and pressure

          total   stress  (Ry/bohr**3)                   (kbar)     P=   -7.91
  -0.00005081   0.00000008   0.00000000         -7.47      0.01      0.00
   0.00000008  -0.00005451   0.00000000          0.01     -8.02      0.00
   0.00000000   0.00000000  -0.00005604          0.00      0.00     -8.24


     Writing output data file scf.save
 
     init_run     :     20.61s CPU     21.30s WALL (       1 calls)
     electrons    :    665.75s CPU    688.23s WALL (       1 calls)
     forces       :      9.86s CPU      9.97s WALL (       1 calls)
     stress       :     38.02s CPU     38.21s WALL (       1 calls)

     Called by init_run:
     wfcinit      :     16.59s CPU     17.11s WALL (       1 calls)
     potinit      :      1.44s CPU      1.53s WALL (       1 calls)

     Called by electrons:
     c_bands      :    593.40s CPU    612.22s WALL (      14 calls)
     sum_band     :     64.38s CPU     67.29s WALL (      14 calls)
     v_of_rho     :      1.28s CPU      1.41s WALL (      15 calls)
     newd         :      2.19s CPU      2.73s WALL (      15 calls)
     PAW_pot      :      4.12s CPU      4.13s WALL (      15 calls)
     mix_rho      :      0.25s CPU      0.27s WALL (      14 calls)

     Called by c_bands:
     init_us_2    :      3.66s CPU      3.68s WALL (     248 calls)
     cegterg      :    580.28s CPU    599.06s WALL (     112 calls)

     Called by sum_band:
     sum_band:bec :      0.05s CPU      0.05s WALL (     112 calls)
     addusdens    :      2.19s CPU      2.68s WALL (      14 calls)

     Called by *egterg:
     h_psi        :    342.25s CPU    355.53s WALL (     478 calls)
     s_psi        :     59.86s CPU     59.88s WALL (     478 calls)
     g_psi        :      1.77s CPU      1.78s WALL (     358 calls)
     cdiaghg      :     30.63s CPU     30.65s WALL (     470 calls)

     Called by h_psi:
     h_psi:pot    :    339.88s CPU    353.11s WALL (     478 calls)
     h_psi:calbec :     59.42s CPU     59.55s WALL (     478 calls)
     vloc_psi     :    220.58s CPU    233.66s WALL (     478 calls)
     add_vuspsi   :     59.88s CPU     59.90s WALL (     478 calls)

     General routines
     calbec       :     89.81s CPU     90.02s WALL (     630 calls)
     fft          :      1.25s CPU      1.46s WALL (     219 calls)
     fftw         :    237.72s CPU    252.38s WALL (  109722 calls)
 
     Parallel routines
     fft_scatter  :     48.28s CPU     57.66s WALL (  109941 calls)
 
     PWSCF        : 12m20.53s CPU    13m19.06s WALL

 
   This run was terminated on:   2:39:47   4Nov2017            

=------------------------------------------------------------------------------=
   JOB DONE.
=------------------------------------------------------------------------------=
