
     Program PWSCF v.6.1 (svn rev. 13369) starts on 19Dec2017 at  6:43: 4 

     This program is part of the open-source Quantum ESPRESSO suite
     for quantum simulation of materials; please cite
         "P. Giannozzi et al., J. Phys.:Condens. Matter 21 395502 (2009);
          URL http://www.quantum-espresso.org", 
     in publications or presentations arising from this work. More details at
     http://www.quantum-espresso.org/quote

     Parallel version (MPI), running on     8 processors
     R & G space division:  proc/nbgrp/npool/nimage =       8
     Waiting for input...
     Reading input from standard input

     Current dimensions of program PWSCF are:
     Max number of different atomic species (ntypx) = 10
     Max number of k-points (npk) =  40000
     Max angular momentum in pseudopotentials (lmaxx) =  3
               file C.pbe-n-kjpaw_psl.0.1.UPF: wavefunction(s)  2P renormalized
               file N.pbe-n-kjpaw_psl.0.1.UPF: wavefunction(s)  2P renormalized
               file H.pbe-kjpaw_psl.0.1.UPF: wavefunction(s)  1S renormalized
               file O.pbe-n-kjpaw_psl.0.1.UPF: wavefunction(s)  2P renormalized

     -------------------------------------
     Parameters for Dispersion Correction:
     -------------------------------------
       atom      VdW radius       C_6     

        C          2.744         60.710
        N          2.640         42.670
        H          1.892          4.857
        O          2.536         24.284

     Subspace diagonalization in iterative solution of the eigenvalue problem:
     a serial algorithm will be used

 
     Parallelization info
     --------------------
     sticks:   dense  smooth     PW     G-vecs:    dense   smooth      PW
     Min         866     866    230                69939    69939    9563
     Max         867     867    231                69940    69940    9565
     Sum        6929    6929   1841               559513   559513   76509
 


     bravais-lattice index     =            0
     lattice parameter (alat)  =      13.8538  a.u.
     unit-cell volume          =    4142.7776 (a.u.)^3
     number of atoms/cell      =           66
     number of atomic types    =            4
     number of electrons       =       192.00
     number of Kohn-Sham states=          115
     kinetic-energy cutoff     =     100.0000  Ry
     charge density cutoff     =     400.0000  Ry
     convergence threshold     =      1.0E-08
     mixing beta               =       0.5000
     number of iterations used =            8  plain     mixing
     Exchange-correlation      =  SLA  PW   PBX  PBC ( 1  4  3  4 0 0)

     celldm(1)=  13.853771  celldm(2)=   0.000000  celldm(3)=   0.000000
     celldm(4)=   0.000000  celldm(5)=   0.000000  celldm(6)=   0.000000

     crystal axes: (cart. coord. in units of alat)
               a(1) = (   1.000000   0.000000   0.000000 )  
               a(2) = (   0.207477   1.135142   0.000000 )  
               a(3) = (   0.131945   0.283604   1.372580 )  

     reciprocal axes: (cart. coord. in units 2 pi/alat)
               b(1) = (  1.000000 -0.182777 -0.058363 )  
               b(2) = (  0.000000  0.880947 -0.182022 )  
               b(3) = (  0.000000  0.000000  0.728555 )  


     PseudoPot. # 1 for  C read from file:
     /scratch/ahofstet/pseudo/C.pbe-n-kjpaw_psl.0.1.UPF
     MD5 check sum: 430fe95172b1e11ef3f8ed03bac87931
     Pseudo is Projector augmented-wave + core cor, Zval =  4.0
     Generated using "atomic" code by A. Dal Corso  v.5.0.99 svn rev. 10869
     Shape of augmentation charge: BESSEL
     Using radial grid of 1073 points,  4 beta functions with: 
                l(1) =   0
                l(2) =   0
                l(3) =   1
                l(4) =   1
     Q(r) pseudized with 0 coefficients 


     PseudoPot. # 2 for  N read from file:
     /scratch/ahofstet/pseudo/N.pbe-n-kjpaw_psl.0.1.UPF
     MD5 check sum: f73187c8b701007e77325f868c9291d7
     Pseudo is Projector augmented-wave + core cor, Zval =  5.0
     Generated using "atomic" code by A. Dal Corso  v.5.0.99 svn rev. 10869
     Shape of augmentation charge: PSQ
     Using radial grid of 1085 points,  4 beta functions with: 
                l(1) =   0
                l(2) =   0
                l(3) =   1
                l(4) =   1
     Q(r) pseudized with 0 coefficients 


     PseudoPot. # 3 for  H read from file:
     /scratch/ahofstet/pseudo/H.pbe-kjpaw_psl.0.1.UPF
     MD5 check sum: 94e484f906d9e9773b2f6e52662335b2
     Pseudo is Projector augmented-wave, Zval =  1.0
     Generated using "atomic" code by A. Dal Corso  v.5.0.99 svn rev. 10869
     Shape of augmentation charge: PSQ
     Using radial grid of  929 points,  2 beta functions with: 
                l(1) =   0
                l(2) =   0
     Q(r) pseudized with 0 coefficients 


     PseudoPot. # 4 for  O read from file:
     /scratch/ahofstet/pseudo/O.pbe-n-kjpaw_psl.0.1.UPF
     MD5 check sum: 3f94a2996a3169367d6eb21d9b593f20
     Pseudo is Projector augmented-wave + core cor, Zval =  6.0
     Generated using "atomic" code by A. Dal Corso  v.5.0.99 svn rev. 10869
     Shape of augmentation charge: BESSEL
     Using radial grid of 1095 points,  4 beta functions with: 
                l(1) =   0
                l(2) =   0
                l(3) =   1
                l(4) =   1
     Q(r) pseudized with 0 coefficients 


     atomic species   valence    mass     pseudopotential
        C              4.00    12.01070      C( 1.00)
        N              5.00    14.00670      N( 1.00)
        H              1.00     1.00794      H( 1.00)
        O              6.00    15.99940      O( 1.00)

      2 Sym. Ops., with inversion, found



   Cartesian axes

     site n.     atom                  positions (alat units)
         1           C   tau(   1) = (   0.9286449   0.3930551   0.9016048  )
         2           C   tau(   2) = (   0.4107772   1.0256907   0.4709748  )
         3           C   tau(   3) = (   0.8595809   0.5838016   0.8468062  )
         4           C   tau(   4) = (   0.4798413   0.8349442   0.5257734  )
         5           H   tau(   5) = (   0.9083899   0.6181320   0.7093166  )
         6           H   tau(   6) = (   0.4310322   0.8006138   0.6632630  )
         7           H   tau(   7) = (   0.7102474   0.5738914   0.8410213  )
         8           H   tau(   8) = (   0.6291748   0.8448544   0.5315583  )
         9           C   tau(   9) = (   0.9052354   0.7405432   0.9789257  )
        10           C   tau(  10) = (   0.4341867   0.6782026   0.3936539  )
        11           C   tau(  11) = (   0.8511404   0.6868255   1.1744463  )
        12           C   tau(  12) = (   0.4882818   0.7319203   0.1981333  )
        13           H   tau(  13) = (   0.8931915   0.7940998   1.2701878  )
        14           H   tau(  14) = (   0.4462306   0.6246460   0.1023917  )
        15           H   tau(  15) = (   0.7011935   0.6796849   1.1762614  )
        16           H   tau(  16) = (   0.6382286   0.7390608   0.1963182  )
        17           C   tau(  17) = (   0.9194799   0.5003763   1.2415112  )
        18           C   tau(  18) = (   0.4199422   0.9183695   0.1310684  )
        19           C   tau(  19) = (   0.8744181   0.3520468   1.1006528  )
        20           C   tau(  20) = (   0.4650041   1.0666990   0.2719268  )
        21           H   tau(  21) = (   0.9347523   0.2217231   1.1431564  )
        22           H   tau(  22) = (   0.4046698   1.1970227   0.2294232  )
        23           H   tau(  23) = (   0.7253918   0.3356485   1.1015200  )
        24           H   tau(  24) = (   0.6140304   1.0830972   0.2710595  )
        25           C   tau(  25) = (   0.8425819   0.2486069   0.7771928  )
        26           C   tau(  26) = (   0.4968402   1.1701389   0.5953868  )
        27           H   tau(  27) = (   1.1022775   1.2481107   0.8129404  )
        28           H   tau(  28) = (   0.2371446   0.1706351   0.5596391  )
        29           H   tau(  29) = (   0.6936493   0.2497186   0.7931920  )
        30           H   tau(  30) = (   0.6457728   1.1690272   0.5793876  )
        31           H   tau(  31) = (   0.8770741   0.2760072   0.6343162  )
        32           H   tau(  32) = (   0.4623480   1.1427386   0.7382633  )
        33           C   tau(  33) = (   0.2661032   0.4507003   0.9239009  )
        34           C   tau(  34) = (   1.0733189   0.9680454   0.4486787  )
        35           C   tau(  35) = (   0.7998622   0.9126214   0.9252540  )
        36           C   tau(  36) = (   0.5395599   0.5061243   0.4473256  )
        37           H   tau(  37) = (   0.8333340   0.9533546   0.7849222  )
        38           H   tau(  38) = (   0.5060882   0.4653912   0.5876573  )
        39           H   tau(  39) = (   0.6523492   0.8868450   0.9347755  )
        40           H   tau(  40) = (   0.6870729   0.5319008   0.4378040  )
        41           H   tau(  41) = (   0.8346821   1.0246041   1.0186087  )
        42           H   tau(  42) = (   0.5047400   0.3941417   0.3539709  )
        43           C   tau(  43) = (   1.2174329   0.8911000   0.9872443  )
        44           C   tau(  44) = (   0.1219892   0.5276458   0.3853353  )
        45           C   tau(  45) = (   0.6934167   0.1723444   0.0501140  )
        46           C   tau(  46) = (   0.6460055   1.2464014   1.3224656  )
        47           H   tau(  47) = (   0.7311168   0.2741343   0.1533645  )
        48           H   tau(  48) = (   0.6083053   1.1446114   1.2192151  )
        49           H   tau(  49) = (   0.5447775   0.1754170   0.0303968  )
        50           H   tau(  50) = (   0.7946447   1.2433287   1.3421828  )
        51           H   tau(  51) = (   0.7345099   0.0367581   0.0986765  )
        52           H   tau(  52) = (   0.6049122   1.3819877   1.2739031  )
        53           C   tau(  53) = (   0.2359386   0.5895597   1.3428093  )
        54           C   tau(  54) = (   1.1034836   0.8291861   0.0297703  )
        55           N   tau(  55) = (   0.1265746   0.3788276   0.8770257  )
        56           N   tau(  56) = (   1.2128475   1.0399182   0.4955539  )
        57           N   tau(  57) = (   1.1000055   0.7790962   0.9674632  )
        58           N   tau(  58) = (   0.2394167   0.6396495   0.4051164  )
        59           N   tau(  59) = (   1.1165590   0.5023290   1.2724361  )
        60           N   tau(  60) = (   0.2228631   0.9164168   0.1001434  )
        61           O   tau(  61) = (   0.4145131   0.5071487   0.9572018  )
        62           O   tau(  62) = (   0.9249091   0.9115971   0.4153777  )
        63           O   tau(  63) = (   0.3465633   0.9887428   0.9988703  )
        64           O   tau(  64) = (   0.9928589   0.4300030   0.3737093  )
        65           O   tau(  65) = (   0.2364931   0.3756484   0.0325617  )
        66           O   tau(  66) = (   1.1029291   1.0430974   1.3400179  )

     number of k points=     8
                       cart. coord. in units 2pi/alat
        k(    1) = (   0.0000000   0.0000000   0.0000000), wk =   0.1666667
        k(    2) = (   0.0000000   0.0000000  -0.3642776), wk =   0.1666667
        k(    3) = (   0.0000000  -0.4404737   0.0910112), wk =   0.1666667
        k(    4) = (   0.0000000  -0.4404737  -0.2732664), wk =   0.1666667
        k(    5) = (   0.3333333  -0.0609256  -0.0194545), wk =   0.3333333
        k(    6) = (   0.3333333  -0.0609256  -0.3837321), wk =   0.3333333
        k(    7) = (   0.3333333  -0.5013992   0.0715568), wk =   0.3333333
        k(    8) = (   0.3333333  -0.5013992  -0.2927208), wk =   0.3333333

     Dense  grid:   559513 G-vectors     FFT dimensions: (  90, 108, 125)

     Estimated max dynamical RAM per process >     356.23MB

     Estimated total allocated dynamical RAM >    2849.88MB

     Check: negative/imaginary core charge=   -0.000002    0.000000

     Initial potential from superposition of free atoms

     starting charge  191.99866, renormalised to  192.00000
     Starting wfc are  174 randomized atomic wfcs
     Checking if some PAW data can be deallocated... 

     total cpu time spent up to now is       22.4 secs

     per-process dynamical memory:   299.5 Mb

     Self-consistent Calculation

     iteration #  1     ecut=   100.00 Ry     beta=0.50
     Davidson diagonalization with overlap
     ethr =  1.00E-02,  avg # of iterations =  3.6

     total cpu time spent up to now is       72.8 secs

     total energy              =    -896.07328001 Ry
     Harris-Foulkes estimate   =    -900.09578972 Ry
     estimated scf accuracy    <       7.51300205 Ry

     iteration #  2     ecut=   100.00 Ry     beta=0.50
     Davidson diagonalization with overlap
     ethr =  3.91E-03,  avg # of iterations =  2.0

     total cpu time spent up to now is       99.1 secs

     total energy              =    -896.67075023 Ry
     Harris-Foulkes estimate   =    -897.16653839 Ry
     estimated scf accuracy    <       1.00786676 Ry

     iteration #  3     ecut=   100.00 Ry     beta=0.50
     Davidson diagonalization with overlap
     ethr =  5.25E-04,  avg # of iterations =  5.0

     total cpu time spent up to now is      152.5 secs

     total energy              =    -897.49622767 Ry
     Harris-Foulkes estimate   =    -897.83141723 Ry
     estimated scf accuracy    <       0.91363680 Ry

     iteration #  4     ecut=   100.00 Ry     beta=0.50
     Davidson diagonalization with overlap
     ethr =  4.76E-04,  avg # of iterations =  1.0

     total cpu time spent up to now is      176.1 secs

     total energy              =    -897.35941079 Ry
     Harris-Foulkes estimate   =    -897.53970019 Ry
     estimated scf accuracy    <       0.32696276 Ry

     iteration #  5     ecut=   100.00 Ry     beta=0.50
     Davidson diagonalization with overlap
     ethr =  1.70E-04,  avg # of iterations =  7.0

     total cpu time spent up to now is      223.9 secs

     total energy              =    -897.59113931 Ry
     Harris-Foulkes estimate   =    -897.62720534 Ry
     estimated scf accuracy    <       0.25270168 Ry

     iteration #  6     ecut=   100.00 Ry     beta=0.50
     Davidson diagonalization with overlap
     ethr =  1.32E-04,  avg # of iterations =  1.0

     total cpu time spent up to now is      247.4 secs

     total energy              =    -897.51076825 Ry
     Harris-Foulkes estimate   =    -897.60182914 Ry
     estimated scf accuracy    <       0.15972487 Ry

     iteration #  7     ecut=   100.00 Ry     beta=0.50
     Davidson diagonalization with overlap
     ethr =  8.32E-05,  avg # of iterations =  3.8

     total cpu time spent up to now is      279.1 secs

     total energy              =    -897.55203859 Ry
     Harris-Foulkes estimate   =    -897.55374667 Ry
     estimated scf accuracy    <       0.00475711 Ry

     iteration #  8     ecut=   100.00 Ry     beta=0.50
     Davidson diagonalization with overlap
     ethr =  2.48E-06,  avg # of iterations =  5.0

     total cpu time spent up to now is      332.0 secs

     total energy              =    -897.55472451 Ry
     Harris-Foulkes estimate   =    -897.55543982 Ry
     estimated scf accuracy    <       0.00239163 Ry

     iteration #  9     ecut=   100.00 Ry     beta=0.50
     Davidson diagonalization with overlap
     c_bands:  1 eigenvalues not converged
     ethr =  1.25E-06,  avg # of iterations =  6.0

     total cpu time spent up to now is      358.5 secs

     total energy              =    -897.55443274 Ry
     Harris-Foulkes estimate   =    -897.55479610 Ry
     estimated scf accuracy    <       0.00097509 Ry

     iteration # 10     ecut=   100.00 Ry     beta=0.50
     Davidson diagonalization with overlap
     ethr =  5.08E-07,  avg # of iterations =  4.8

     total cpu time spent up to now is      394.0 secs

     total energy              =    -897.55473223 Ry
     Harris-Foulkes estimate   =    -897.55474568 Ry
     estimated scf accuracy    <       0.00005724 Ry

     iteration # 11     ecut=   100.00 Ry     beta=0.50
     Davidson diagonalization with overlap
     ethr =  2.98E-08,  avg # of iterations =  5.0

     total cpu time spent up to now is      434.6 secs

     total energy              =    -897.55473325 Ry
     Harris-Foulkes estimate   =    -897.55476210 Ry
     estimated scf accuracy    <       0.00006149 Ry

     iteration # 12     ecut=   100.00 Ry     beta=0.50
     Davidson diagonalization with overlap
     ethr =  2.98E-08,  avg # of iterations =  1.1

     total cpu time spent up to now is      458.3 secs

     total energy              =    -897.55472981 Ry
     Harris-Foulkes estimate   =    -897.55473634 Ry
     estimated scf accuracy    <       0.00001409 Ry

     iteration # 13     ecut=   100.00 Ry     beta=0.50
     Davidson diagonalization with overlap
     ethr =  7.34E-09,  avg # of iterations =  4.0

     total cpu time spent up to now is      503.6 secs

     total energy              =    -897.55474306 Ry
     Harris-Foulkes estimate   =    -897.55474545 Ry
     estimated scf accuracy    <       0.00000875 Ry

     iteration # 14     ecut=   100.00 Ry     beta=0.50
     Davidson diagonalization with overlap
     ethr =  4.56E-09,  avg # of iterations =  1.0

     total cpu time spent up to now is      526.9 secs

     total energy              =    -897.55474074 Ry
     Harris-Foulkes estimate   =    -897.55474317 Ry
     estimated scf accuracy    <       0.00000481 Ry

     iteration # 15     ecut=   100.00 Ry     beta=0.50
     Davidson diagonalization with overlap
     ethr =  2.50E-09,  avg # of iterations =  5.0

     total cpu time spent up to now is      566.1 secs

     total energy              =    -897.55474258 Ry
     Harris-Foulkes estimate   =    -897.55474292 Ry
     estimated scf accuracy    <       0.00000062 Ry

     iteration # 16     ecut=   100.00 Ry     beta=0.50
     Davidson diagonalization with overlap
     ethr =  3.25E-10,  avg # of iterations =  2.4

     total cpu time spent up to now is      590.5 secs

     total energy              =    -897.55474257 Ry
     Harris-Foulkes estimate   =    -897.55474262 Ry
     estimated scf accuracy    <       0.00000011 Ry

     iteration # 17     ecut=   100.00 Ry     beta=0.50
     Davidson diagonalization with overlap
     ethr =  5.50E-11,  avg # of iterations =  4.0

     total cpu time spent up to now is      639.5 secs

     total energy              =    -897.55474277 Ry
     Harris-Foulkes estimate   =    -897.55474278 Ry
     estimated scf accuracy    <       0.00000014 Ry

     iteration # 18     ecut=   100.00 Ry     beta=0.50
     Davidson diagonalization with overlap
     ethr =  5.50E-11,  avg # of iterations =  1.0

     total cpu time spent up to now is      663.0 secs

     total energy              =    -897.55474273 Ry
     Harris-Foulkes estimate   =    -897.55474277 Ry
     estimated scf accuracy    <       0.00000012 Ry

     iteration # 19     ecut=   100.00 Ry     beta=0.50
     Davidson diagonalization with overlap
     ethr =  5.50E-11,  avg # of iterations =  1.0

     total cpu time spent up to now is      686.6 secs

     total energy              =    -897.55474271 Ry
     Harris-Foulkes estimate   =    -897.55474273 Ry
     estimated scf accuracy    <       0.00000006 Ry

     iteration # 20     ecut=   100.00 Ry     beta=0.50
     Davidson diagonalization with overlap
     ethr =  2.93E-11,  avg # of iterations =  3.1

     total cpu time spent up to now is      723.7 secs

     End of self-consistent calculation

          k = 0.0000 0.0000 0.0000 ( 69945 PWs)   bands (ev):

   -21.0389 -20.9965 -20.8987 -20.8840 -20.8478 -20.8435 -17.7226 -17.7129
   -17.3393 -17.3069 -17.2034 -17.2006 -14.8144 -14.8043 -13.4970 -13.4965
   -13.3877 -13.3861 -10.8642 -10.7720 -10.7125 -10.6991 -10.6257 -10.6093
    -9.5272  -9.4990  -9.4734  -9.3377  -9.1938  -9.1687  -6.6620  -6.6066
    -6.5962  -6.4011  -6.1303  -6.0636  -5.9550  -5.8758  -5.8276  -5.7575
    -5.7456  -5.7208  -5.4993  -5.3512  -5.2813  -5.2336  -5.1516  -5.0243
    -4.8652  -4.7794  -4.6087  -4.4706  -4.3789  -4.3259  -4.2289  -4.1424
    -4.0665  -4.0507  -3.6028  -3.5915  -3.5141  -3.4882  -3.3525  -3.3430
    -3.3050  -3.2493  -3.2114  -3.1824  -3.1106  -3.0431  -3.0382  -2.8784
    -2.8250  -2.7816  -2.7169  -2.6747  -2.6541  -2.5312  -2.2487  -1.9573
    -1.7864  -1.6357  -1.5711  -1.4230  -0.9416  -0.9277  -0.8290  -0.7561
    -0.5171  -0.4378  -0.3414  -0.1960  -0.1906  -0.1696   0.0545   0.1034
     5.3321   5.5503   5.8076   5.8414   5.9053   6.2511   6.4865   6.4916
     6.5305   6.7677   6.8352   6.8412   6.9835   7.0706   7.1840   7.2572
     7.4039   7.6715   7.8599

          k = 0.0000 0.0000-0.3643 ( 69960 PWs)   bands (ev):

   -21.0385 -20.9963 -20.9020 -20.8817 -20.8496 -20.8412 -17.7198 -17.7160
   -17.3349 -17.3108 -17.2038 -17.2005 -14.8130 -14.8056 -13.5112 -13.4825
   -13.3988 -13.3752 -10.8166 -10.7859 -10.7291 -10.6685 -10.6459 -10.6432
    -9.5238  -9.4975  -9.4293  -9.3958  -9.1846  -9.1649  -6.6390  -6.6231
    -6.5565  -6.4838  -6.0980  -6.0705  -5.9334  -5.8947  -5.8094  -5.7838
    -5.7497  -5.7046  -5.4304  -5.3079  -5.2465  -5.1715  -5.1714  -5.1443
    -4.9301  -4.7605  -4.6350  -4.5434  -4.4112  -4.2928  -4.2307  -4.1421
    -4.0913  -3.9564  -3.5776  -3.5750  -3.5042  -3.4717  -3.4283  -3.3603
    -3.3276  -3.2793  -3.2177  -3.2011  -3.0449  -3.0240  -2.9999  -2.9549
    -2.8023  -2.7779  -2.6940  -2.6397  -2.5917  -2.5681  -2.0929  -2.0920
    -1.7754  -1.6797  -1.5264  -1.5200  -0.9329  -0.9222  -0.8409  -0.7433
    -0.4836  -0.4778  -0.3096  -0.2732  -0.1646  -0.1547   0.0569   0.1069
     5.4017   5.5976   5.7803   5.8152   6.0349   6.1307   6.4188   6.5174
     6.6278   6.6749   6.8745   6.8815   6.9943   7.0493   7.1941   7.2567
     7.3897   7.5332   8.0180

          k = 0.0000-0.4405 0.0910 ( 69882 PWs)   bands (ev):

   -21.0377 -20.9977 -20.8981 -20.8835 -20.8482 -20.8441 -17.7299 -17.7072
   -17.3235 -17.3220 -17.2100 -17.1930 -14.8213 -14.7954 -13.5009 -13.4990
   -13.3939 -13.3876 -10.7871 -10.7482 -10.7112 -10.6760 -10.6557 -10.6480
    -9.5318  -9.5137  -9.4629  -9.3669  -9.1951  -9.1755  -6.6846  -6.6522
    -6.5446  -6.4512  -6.1182  -6.0648  -5.9289  -5.8712  -5.8267  -5.7807
    -5.7331  -5.7153  -5.5687  -5.4480  -5.2178  -5.1741  -5.1180  -5.0759
    -4.8652  -4.8619  -4.6106  -4.4719  -4.4609  -4.1901  -4.1679  -4.1632
    -4.0521  -4.0133  -3.5708  -3.5376  -3.4771  -3.3920  -3.3681  -3.3552
    -3.3296  -3.2891  -3.2446  -3.1591  -3.0777  -2.9867  -2.9707  -2.9156
    -2.7802  -2.7712  -2.7137  -2.6848  -2.6355  -2.5571  -2.2327  -1.9890
    -1.8701  -1.6942  -1.6853  -1.4307  -0.9475  -0.9287  -0.8259  -0.7677
    -0.4683  -0.4563  -0.3493  -0.2087  -0.2073  -0.1345   0.0605   0.1071
     5.3254   5.5584   5.7432   5.8857   5.9603   6.2704   6.3956   6.4084
     6.6362   6.7092   6.8187   6.8942   6.9991   7.0066   7.1332   7.1812
     7.2677   7.5356   8.1671

          k = 0.0000-0.4405-0.2733 ( 69862 PWs)   bands (ev):

   -21.0373 -20.9975 -20.9013 -20.8814 -20.8501 -20.8418 -17.7334 -17.7032
   -17.3279 -17.3184 -17.2051 -17.1974 -14.8090 -14.8079 -13.5114 -13.4870
   -13.4066 -13.3763 -10.7640 -10.7623 -10.7311 -10.6818 -10.6598 -10.6190
    -9.5398  -9.5296  -9.4923  -9.3197  -9.2097  -9.1651  -6.7047  -6.6157
    -6.5963  -6.4392  -6.0926  -6.0623  -5.9293  -5.9144  -5.8303  -5.7587
    -5.7531  -5.7176  -5.4350  -5.3883  -5.3265  -5.2115  -5.1207  -5.0895
    -4.8853  -4.7653  -4.5389  -4.5340  -4.4307  -4.3031  -4.2511  -4.1333
    -4.0587  -3.9818  -3.5463  -3.4979  -3.4474  -3.4278  -3.3377  -3.3250
    -3.2926  -3.2897  -3.2664  -3.2098  -3.1191  -3.0927  -2.9266  -2.9036
    -2.7803  -2.7646  -2.7225  -2.7174  -2.6337  -2.5312  -2.0778  -2.0666
    -1.7809  -1.7577  -1.6794  -1.4956  -0.9477  -0.9340  -0.8183  -0.7757
    -0.4962  -0.4604  -0.3136  -0.2499  -0.1781  -0.1278   0.0333   0.1515
     5.3127   5.6149   5.7473   5.8773   5.9759   6.1500   6.3498   6.5605
     6.5610   6.6269   6.7231   6.8586   6.9075   7.0198   7.2290   7.2655
     7.6253   7.7107   8.0956

          k = 0.3333-0.0609-0.0195 ( 69939 PWs)   bands (ev):

   -21.0386 -20.9964 -20.8983 -20.8835 -20.8477 -20.8433 -17.7246 -17.7178
   -17.3401 -17.3082 -17.2049 -17.2021 -14.8158 -14.7842 -13.5158 -13.4722
   -13.3832 -13.3810 -10.8489 -10.7747 -10.7165 -10.6846 -10.6405 -10.6241
    -9.5336  -9.4953  -9.4786  -9.3782  -9.2224  -9.2006  -6.6819  -6.5777
    -6.5656  -6.4241  -6.0658  -6.0247  -5.8933  -5.8062  -5.7636  -5.7535
    -5.6801  -5.6673  -5.4768  -5.4055  -5.3288  -5.1935  -5.1384  -5.0152
    -4.8990  -4.8281  -4.6202  -4.4913  -4.4018  -4.3205  -4.2084  -4.1678
    -4.1150  -4.0190  -3.6723  -3.6477  -3.5724  -3.5311  -3.4972  -3.4075
    -3.3368  -3.3063  -3.1773  -3.1321  -3.1261  -2.9985  -2.9832  -2.9026
    -2.8766  -2.8070  -2.7421  -2.6720  -2.6025  -2.5547  -2.1637  -2.0201
    -1.7525  -1.6703  -1.5777  -1.4621  -0.8376  -0.7830  -0.7675  -0.6473
    -0.5343  -0.4926  -0.2983  -0.2323  -0.2220  -0.1527   0.0484   0.1077
     5.3742   5.5276   5.7629   5.8157   6.1126   6.2941   6.4621   6.5869
     6.7567   6.8797   6.9076   7.0197   7.0312   7.0766   7.1578   7.4147
     7.4271   7.7306   7.8619

          k = 0.3333-0.0609-0.3837 ( 69991 PWs)   bands (ev):

   -21.0382 -20.9962 -20.9015 -20.8814 -20.8495 -20.8411 -17.7235 -17.7191
   -17.3364 -17.3114 -17.2056 -17.2016 -14.8047 -14.7958 -13.5003 -13.4853
   -13.3934 -13.3733 -10.8221 -10.7643 -10.7163 -10.6822 -10.6778 -10.6269
    -9.5532  -9.5135  -9.4299  -9.3978  -9.2172  -9.1988  -6.6482  -6.6032
    -6.5348  -6.4837  -6.0474  -6.0187  -5.8717  -5.8270  -5.7683  -5.7620
    -5.7023  -5.6626  -5.4511  -5.3041  -5.2659  -5.1821  -5.1469  -5.1324
    -4.9519  -4.8068  -4.6444  -4.5577  -4.4151  -4.3135  -4.2472  -4.1308
    -4.0720  -3.9731  -3.6906  -3.6286  -3.6178  -3.5412  -3.4671  -3.3971
    -3.3380  -3.3128  -3.2078  -3.1820  -3.0392  -3.0159  -2.9719  -2.9157
    -2.8442  -2.8056  -2.7148  -2.6460  -2.6202  -2.5395  -2.1635  -2.0452
    -1.7249  -1.6724  -1.5658  -1.5383  -0.8329  -0.8018  -0.7726  -0.6282
    -0.5178  -0.5042  -0.3141  -0.2922  -0.1916  -0.1174   0.0517   0.1047
     5.3788   5.5801   5.7843   5.7906   6.1552   6.2326   6.5830   6.6464
     6.7084   6.7625   6.9494   7.0009   7.0883   7.1274   7.2096   7.3759
     7.4067   7.6193   7.8497

          k = 0.3333-0.5014 0.0716 ( 69922 PWs)   bands (ev):

   -21.0375 -20.9975 -20.8977 -20.8831 -20.8481 -20.8440 -17.7341 -17.7098
   -17.3245 -17.3231 -17.2114 -17.1945 -14.8060 -14.7924 -13.5065 -13.4849
   -13.3919 -13.3829 -10.8001 -10.7432 -10.7195 -10.6961 -10.6439 -10.6248
    -9.5475  -9.5120  -9.4543  -9.4016  -9.2294  -9.2126  -6.6730  -6.6512
    -6.5217  -6.4877  -6.0399  -6.0038  -5.8632  -5.8028  -5.7622  -5.7312
    -5.7148  -5.6771  -5.5151  -5.4444  -5.2842  -5.2209  -5.1345  -5.0464
    -4.9181  -4.8899  -4.6514  -4.4919  -4.4603  -4.2323  -4.1685  -4.0998
    -4.0781  -3.9997  -3.6705  -3.5943  -3.5588  -3.5237  -3.4748  -3.3962
    -3.3682  -3.2664  -3.1931  -3.0999  -3.0665  -2.9661  -2.9407  -2.8832
    -2.8552  -2.8270  -2.7205  -2.6657  -2.6460  -2.5504  -2.1813  -2.0145
    -1.7954  -1.7068  -1.6955  -1.5158  -0.8415  -0.8115  -0.7880  -0.6612
    -0.5347  -0.4776  -0.2858  -0.2543  -0.2436  -0.0694   0.0567   0.1091
     5.3387   5.5414   5.7246   5.8335   6.1631   6.2075   6.4916   6.6439
     6.7093   6.8004   6.9115   6.9576   7.0224   7.1043   7.1766   7.3464
     7.5455   7.7387   7.8145

          k = 0.3333-0.5014-0.2927 ( 69984 PWs)   bands (ev):

   -21.0371 -20.9973 -20.9007 -20.8811 -20.8499 -20.8417 -17.7365 -17.7071
   -17.3282 -17.3202 -17.2062 -17.1992 -14.8076 -14.7903 -13.5272 -13.4682
   -13.3962 -13.3751 -10.7670 -10.7618 -10.7094 -10.6919 -10.6562 -10.6381
    -9.5476  -9.5400  -9.4729  -9.3574  -9.2330  -9.2111  -6.6826  -6.6099
    -6.5844  -6.4787  -6.0249  -5.9949  -5.8732  -5.8416  -5.7696  -5.7635
    -5.7349  -5.6434  -5.4294  -5.3994  -5.3429  -5.2365  -5.0804  -5.0683
    -4.9105  -4.7836  -4.5857  -4.5498  -4.4195  -4.3708  -4.2457  -4.1116
    -4.0476  -4.0061  -3.6442  -3.6126  -3.5749  -3.5138  -3.4864  -3.4103
    -3.3017  -3.2770  -3.2002  -3.1189  -3.0575  -3.0205  -2.9219  -2.9061
    -2.8286  -2.7797  -2.7535  -2.6695  -2.6170  -2.5603  -2.1805  -2.0051
    -1.7745  -1.7414  -1.6838  -1.5176  -0.8341  -0.8247  -0.7676  -0.6758
    -0.5381  -0.4980  -0.2873  -0.2283  -0.2019  -0.1167   0.0558   0.1208
     5.3139   5.5885   5.7293   5.8235   6.0651   6.3004   6.5090   6.6205
     6.6930   6.7710   6.9161   6.9730   6.9986   7.0412   7.2146   7.3909
     7.6039   7.7696   7.8961

     highest occupied, lowest unoccupied level (ev):     0.1515    5.3127

!    total energy              =    -897.55474273 Ry
     Harris-Foulkes estimate   =    -897.55474273 Ry
     estimated scf accuracy    <          8.1E-10 Ry

     total all-electron energy =     -3424.767208 Ry

     The total energy is the sum of the following terms:

     one-electron contribution =    -508.60184064 Ry
     hartree contribution      =     325.92072677 Ry
     xc contribution           =    -197.82283904 Ry
     ewald contribution        =    -250.28669917 Ry
     Dispersion Correction     =      -0.33050038 Ry
     one-center paw contrib.   =    -266.43359028 Ry

     convergence has been achieved in  20 iterations

     Forces acting on atoms (cartesian axes, Ry/au):

     atom    1 type  1   force =     0.00148234   -0.00034262    0.00115211
     atom    2 type  1   force =    -0.00148234    0.00034262   -0.00115211
     atom    3 type  1   force =    -0.00118518    0.00097770   -0.00145755
     atom    4 type  1   force =     0.00118518   -0.00097770    0.00145755
     atom    5 type  3   force =     0.00023405   -0.00032545   -0.00013713
     atom    6 type  3   force =    -0.00023405    0.00032545    0.00013713
     atom    7 type  3   force =    -0.00010056    0.00145355   -0.00020740
     atom    8 type  3   force =     0.00010056   -0.00145355    0.00020740
     atom    9 type  1   force =     0.00304430   -0.00007588   -0.00052253
     atom   10 type  1   force =    -0.00304430    0.00007588    0.00052253
     atom   11 type  1   force =     0.00013178    0.00026808   -0.00049750
     atom   12 type  1   force =    -0.00013178   -0.00026808    0.00049750
     atom   13 type  3   force =     0.00024167   -0.00068700   -0.00038904
     atom   14 type  3   force =    -0.00024167    0.00068700    0.00038904
     atom   15 type  3   force =    -0.00038877    0.00036518   -0.00031704
     atom   16 type  3   force =     0.00038877   -0.00036518    0.00031704
     atom   17 type  1   force =     0.00332935    0.00030173    0.00020437
     atom   18 type  1   force =    -0.00332935   -0.00030173   -0.00020437
     atom   19 type  1   force =     0.00119182   -0.00029866   -0.00061246
     atom   20 type  1   force =    -0.00119182    0.00029866    0.00061246
     atom   21 type  3   force =     0.00028272   -0.00027738   -0.00052479
     atom   22 type  3   force =    -0.00028272    0.00027738    0.00052479
     atom   23 type  3   force =    -0.00126540    0.00044261   -0.00054044
     atom   24 type  3   force =     0.00126540   -0.00044261    0.00054044
     atom   25 type  1   force =     0.00153959    0.00126154    0.00100584
     atom   26 type  1   force =    -0.00153959   -0.00126154   -0.00100584
     atom   27 type  3   force =    -0.00004754   -0.00054737    0.00040120
     atom   28 type  3   force =     0.00004754    0.00054737   -0.00040120
     atom   29 type  3   force =    -0.00036892    0.00096389    0.00064941
     atom   30 type  3   force =     0.00036892   -0.00096389   -0.00064941
     atom   31 type  3   force =    -0.00058403   -0.00071948    0.00022077
     atom   32 type  3   force =     0.00058403    0.00071948   -0.00022077
     atom   33 type  1   force =     0.00153111    0.00129294   -0.00014068
     atom   34 type  1   force =    -0.00153111   -0.00129294    0.00014068
     atom   35 type  1   force =    -0.00361042   -0.00048080   -0.00230763
     atom   36 type  1   force =     0.00361042    0.00048080    0.00230763
     atom   37 type  3   force =     0.00022220   -0.00049122    0.00081339
     atom   38 type  3   force =    -0.00022220    0.00049122   -0.00081339
     atom   39 type  3   force =     0.00423595    0.00130974   -0.00151160
     atom   40 type  3   force =    -0.00423595   -0.00130974    0.00151160
     atom   41 type  3   force =     0.00068729    0.00008645   -0.00058867
     atom   42 type  3   force =    -0.00068729   -0.00008645    0.00058867
     atom   43 type  1   force =    -0.00167340    0.00199322   -0.00122068
     atom   44 type  1   force =     0.00167340   -0.00199322    0.00122068
     atom   45 type  1   force =    -0.00117813   -0.00133647    0.00141152
     atom   46 type  1   force =     0.00117813    0.00133647   -0.00141152
     atom   47 type  3   force =     0.00013333   -0.00050456    0.00053528
     atom   48 type  3   force =    -0.00013333    0.00050456   -0.00053528
     atom   49 type  3   force =     0.00158522   -0.00063555    0.00147101
     atom   50 type  3   force =    -0.00158522    0.00063555   -0.00147101
     atom   51 type  3   force =     0.00051097    0.00021997    0.00090274
     atom   52 type  3   force =    -0.00051097   -0.00021997   -0.00090274
     atom   53 type  1   force =     0.00043953   -0.00031033    0.00025102
     atom   54 type  1   force =    -0.00043953    0.00031033   -0.00025102
     atom   55 type  2   force =    -0.00585878    0.00176574    0.00185974
     atom   56 type  2   force =     0.00585878   -0.00176574   -0.00185974
     atom   57 type  2   force =    -0.00054671   -0.00127888    0.00074459
     atom   58 type  2   force =     0.00054671    0.00127888   -0.00074459
     atom   59 type  2   force =    -0.00410203    0.00146828    0.00024152
     atom   60 type  2   force =     0.00410203   -0.00146828   -0.00024152
     atom   61 type  4   force =     0.00334363   -0.00497506   -0.00111157
     atom   62 type  4   force =    -0.00334363    0.00497506    0.00111157
     atom   63 type  4   force =    -0.00332505   -0.00170144    0.00286998
     atom   64 type  4   force =     0.00332505    0.00170144   -0.00286998
     atom   65 type  4   force =     0.00085299   -0.00038542   -0.00280566
     atom   66 type  4   force =    -0.00085299    0.00038542    0.00280566

     Total force =     0.022014     Total SCF correction =     0.000064


     Computing stress (Cartesian axis) and pressure

          total   stress  (Ry/bohr**3)                   (kbar)     P=   -2.88
  -0.00002679  -0.00001049  -0.00000476         -3.94     -1.54     -0.70
  -0.00001049  -0.00002137  -0.00000717         -1.54     -3.14     -1.05
  -0.00000476  -0.00000717  -0.00001060         -0.70     -1.05     -1.56


     Writing output data file scf.save
 
     init_run     :     21.11s CPU     21.77s WALL (       1 calls)
     electrons    :    686.97s CPU    701.44s WALL (       1 calls)
     forces       :     10.65s CPU     10.75s WALL (       1 calls)
     stress       :     32.30s CPU     32.48s WALL (       1 calls)

     Called by init_run:
     wfcinit      :     13.70s CPU     14.27s WALL (       1 calls)
     potinit      :      2.68s CPU      2.70s WALL (       1 calls)

     Called by electrons:
     c_bands      :    608.19s CPU    620.25s WALL (      20 calls)
     sum_band     :     67.97s CPU     69.52s WALL (      20 calls)
     v_of_rho     :      1.73s CPU      1.85s WALL (      21 calls)
     newd         :      3.49s CPU      4.18s WALL (      21 calls)
     PAW_pot      :      5.02s CPU      5.03s WALL (      21 calls)
     mix_rho      :      0.42s CPU      0.44s WALL (      20 calls)

     Called by c_bands:
     init_us_2    :      4.29s CPU      4.32s WALL (     344 calls)
     cegterg      :    591.12s CPU    603.10s WALL (     160 calls)

     Called by sum_band:
     sum_band:bec :      0.04s CPU      0.04s WALL (     160 calls)
     addusdens    :      3.56s CPU      4.24s WALL (      20 calls)

     Called by *egterg:
     h_psi        :    353.13s CPU    359.06s WALL (     702 calls)
     s_psi        :     58.19s CPU     58.20s WALL (     702 calls)
     g_psi        :      1.89s CPU      1.89s WALL (     534 calls)
     cdiaghg      :     25.49s CPU     25.49s WALL (     694 calls)

     Called by h_psi:
     h_psi:pot    :    351.07s CPU    356.96s WALL (     702 calls)
     h_psi:calbec :     61.74s CPU     61.95s WALL (     702 calls)
     vloc_psi     :    231.40s CPU    237.07s WALL (     702 calls)
     add_vuspsi   :     57.93s CPU     57.94s WALL (     702 calls)

     General routines
     calbec       :     89.83s CPU     90.12s WALL (     902 calls)
     fft          :      1.91s CPU      2.11s WALL (     297 calls)
     fftw         :    249.54s CPU    255.36s WALL (  125786 calls)
 
     Parallel routines
     fft_scatter  :     71.53s CPU     75.44s WALL (  126083 calls)
 
     PWSCF        : 12m35.88s CPU    13m29.27s WALL

 
   This run was terminated on:   6:56:33  19Dec2017            

=------------------------------------------------------------------------------=
   JOB DONE.
=------------------------------------------------------------------------------=
