
     Program PWSCF v.6.1 (svn rev. 13369) starts on  4Nov2017 at  6:52:42 

     This program is part of the open-source Quantum ESPRESSO suite
     for quantum simulation of materials; please cite
         "P. Giannozzi et al., J. Phys.:Condens. Matter 21 395502 (2009);
          URL http://www.quantum-espresso.org", 
     in publications or presentations arising from this work. More details at
     http://www.quantum-espresso.org/quote

     Parallel version (MPI), running on     8 processors
     R & G space division:  proc/nbgrp/npool/nimage =       8
     Waiting for input...
     Reading input from standard input

     Current dimensions of program PWSCF are:
     Max number of different atomic species (ntypx) = 10
     Max number of k-points (npk) =  40000
     Max angular momentum in pseudopotentials (lmaxx) =  3
               file C.pbe-n-kjpaw_psl.0.1.UPF: wavefunction(s)  2P renormalized
               file N.pbe-n-kjpaw_psl.0.1.UPF: wavefunction(s)  2P renormalized
               file H.pbe-kjpaw_psl.0.1.UPF: wavefunction(s)  1S renormalized
               file O.pbe-n-kjpaw_psl.0.1.UPF: wavefunction(s)  2P renormalized

     -------------------------------------
     Parameters for Dispersion Correction:
     -------------------------------------
       atom      VdW radius       C_6     

        C          2.744         60.710
        N          2.640         42.670
        H          1.892          4.857
        O          2.536         24.284

     Subspace diagonalization in iterative solution of the eigenvalue problem:
     a serial algorithm will be used

 
     Parallelization info
     --------------------
     sticks:   dense  smooth     PW     G-vecs:    dense   smooth      PW
     Min         647     647    175                53633    53633    7560
     Max         648     648    176                53640    53640    7561
     Sum        5181    5181   1401               429093   429093   60483
 


     bravais-lattice index     =            0
     lattice parameter (alat)  =      15.9304  a.u.
     unit-cell volume          =    3175.4435 (a.u.)^3
     number of atoms/cell      =           56
     number of atomic types    =            4
     number of electrons       =       172.00
     number of Kohn-Sham states=          103
     kinetic-energy cutoff     =     100.0000  Ry
     charge density cutoff     =     400.0000  Ry
     convergence threshold     =      1.0E-08
     mixing beta               =       0.5000
     number of iterations used =            8  plain     mixing
     Exchange-correlation      =  SLA  PW   PBX  PBC ( 1  4  3  4 0 0)

     celldm(1)=  15.930391  celldm(2)=   0.000000  celldm(3)=   0.000000
     celldm(4)=   0.000000  celldm(5)=   0.000000  celldm(6)=   0.000000

     crystal axes: (cart. coord. in units of alat)
               a(1) = (   1.000000   0.000000   0.000000 )  
               a(2) = (   0.000000   0.640925   0.000000 )  
               a(3) = (  -0.147869   0.000000   1.225512 )  

     reciprocal axes: (cart. coord. in units 2 pi/alat)
               b(1) = (  1.000000  0.000000  0.120659 )  
               b(2) = (  0.000000  1.560244  0.000000 )  
               b(3) = (  0.000000  0.000000  0.815985 )  


     PseudoPot. # 1 for  C read from file:
     /scratch/ahofstet/pseudo/C.pbe-n-kjpaw_psl.0.1.UPF
     MD5 check sum: 430fe95172b1e11ef3f8ed03bac87931
     Pseudo is Projector augmented-wave + core cor, Zval =  4.0
     Generated using "atomic" code by A. Dal Corso  v.5.0.99 svn rev. 10869
     Shape of augmentation charge: BESSEL
     Using radial grid of 1073 points,  4 beta functions with: 
                l(1) =   0
                l(2) =   0
                l(3) =   1
                l(4) =   1
     Q(r) pseudized with 0 coefficients 


     PseudoPot. # 2 for  N read from file:
     /scratch/ahofstet/pseudo/N.pbe-n-kjpaw_psl.0.1.UPF
     MD5 check sum: f73187c8b701007e77325f868c9291d7
     Pseudo is Projector augmented-wave + core cor, Zval =  5.0
     Generated using "atomic" code by A. Dal Corso  v.5.0.99 svn rev. 10869
     Shape of augmentation charge: PSQ
     Using radial grid of 1085 points,  4 beta functions with: 
                l(1) =   0
                l(2) =   0
                l(3) =   1
                l(4) =   1
     Q(r) pseudized with 0 coefficients 


     PseudoPot. # 3 for  H read from file:
     /scratch/ahofstet/pseudo/H.pbe-kjpaw_psl.0.1.UPF
     MD5 check sum: 94e484f906d9e9773b2f6e52662335b2
     Pseudo is Projector augmented-wave, Zval =  1.0
     Generated using "atomic" code by A. Dal Corso  v.5.0.99 svn rev. 10869
     Shape of augmentation charge: PSQ
     Using radial grid of  929 points,  2 beta functions with: 
                l(1) =   0
                l(2) =   0
     Q(r) pseudized with 0 coefficients 


     PseudoPot. # 4 for  O read from file:
     /scratch/ahofstet/pseudo/O.pbe-n-kjpaw_psl.0.1.UPF
     MD5 check sum: 3f94a2996a3169367d6eb21d9b593f20
     Pseudo is Projector augmented-wave + core cor, Zval =  6.0
     Generated using "atomic" code by A. Dal Corso  v.5.0.99 svn rev. 10869
     Shape of augmentation charge: BESSEL
     Using radial grid of 1095 points,  4 beta functions with: 
                l(1) =   0
                l(2) =   0
                l(3) =   1
                l(4) =   1
     Q(r) pseudized with 0 coefficients 


     atomic species   valence    mass     pseudopotential
        C              4.00    12.01070      C( 1.00)
        N              5.00    14.00670      N( 1.00)
        H              1.00     1.00794      H( 1.00)
        O              6.00    15.99940      O( 1.00)

      2 Sym. Ops. (no inversion) found ( 1 have fractional translation)



   Cartesian axes

     site n.     atom                  positions (alat units)
         1           O   tau(   1) = (   0.3009520   0.4228159   0.1249778  )
         2           O   tau(   2) = (   0.5511787   0.1023533   1.1005345  )
         3           O   tau(   3) = (   0.1523800   0.2135915   0.0520487  )
         4           O   tau(   4) = (   0.6997508   0.5340542   1.1734636  )
         5           O   tau(   5) = (   0.3587430   0.3590731   1.1043563  )
         6           O   tau(   6) = (   0.4933877   0.0386104   0.1211560  )
         7           O   tau(   7) = (   0.2082585   0.4125528   0.8254991  )
         8           O   tau(   8) = (   0.6438722   0.0920902   0.4000132  )
         9           O   tau(   9) = (  -0.0096128   0.1797063   0.8269442  )
        10           O   tau(  10) = (   0.8617436   0.5001690   0.3985681  )
        11           O   tau(  11) = (   0.8182258   0.5747443   0.8962761  )
        12           O   tau(  12) = (   0.0339050   0.2542817   0.3292362  )
        13           O   tau(  13) = (   0.6375342   0.4626592   0.6255396  )
        14           O   tau(  14) = (   0.2145965   0.1421966   0.5999727  )
        15           C   tau(  15) = (   0.2662323   0.3180076   0.0280017  )
        16           C   tau(  16) = (   0.5858984  -0.0024550   1.1975106  )
        17           C   tau(  17) = (   0.2022705   0.3019586   1.0931802  )
        18           C   tau(  18) = (   0.6498602   0.6224212   0.1323321  )
        19           C   tau(  19) = (   0.1155033   0.4009064   0.9647673  )
        20           C   tau(  20) = (   0.7366274   0.0804438   0.2607450  )
        21           C   tau(  21) = (  -0.0414729   0.3238738   0.9116954  )
        22           C   tau(  22) = (   0.8936036   0.0034112   0.3138169  )
        23           C   tau(  23) = (   0.8617525   0.4368688   0.8062387  )
        24           C   tau(  24) = (  -0.0096218   0.1164062   0.4192736  )
        25           C   tau(  25) = (   0.7094429   0.3616422   0.7425632  )
        26           C   tau(  26) = (   0.1426879   0.0411795   0.4829491  )
        27           H   tau(  27) = (   0.1013385   0.2340406   0.1620044  )
        28           H   tau(  28) = (   0.7507923   0.5545032   1.0635079  )
        29           H   tau(  29) = (   0.4280183   0.2665027   1.1254002  )
        30           H   tau(  30) = (   0.4241124   0.5869654   0.1001121  )
        31           H   tau(  31) = (   0.2992470   0.4845121   0.8434255  )
        32           H   tau(  32) = (   0.5528838   0.1640495   0.3820868  )
        33           H   tau(  33) = (   0.0809473   0.1910287   0.7511177  )
        34           H   tau(  34) = (   0.7711835   0.5114913   0.4743946  )
        35           H   tau(  35) = (   0.8902806   0.6659693   0.8705733  )
        36           H   tau(  36) = (  -0.0381499   0.3455067   0.3549389  )
        37           H   tau(  37) = (   0.5776621   0.5473070   0.6833962  )
        38           H   tau(  38) = (   0.2744687   0.2268444   0.5421161  )
        39           H   tau(  39) = (   0.1983779   0.1749554   1.0577788  )
        40           H   tau(  40) = (   0.6537529   0.4954180   0.1677335  )
        41           H   tau(  41) = (   0.0927996   0.5208073   1.0154930  )
        42           H   tau(  42) = (   0.7593312   0.2003447   0.2100193  )
        43           H   tau(  43) = (  -0.1124451   0.2901406   1.0158789  )
        44           H   tau(  44) = (   0.9645759   0.6106032   0.2096334  )
        45           H   tau(  45) = (  -0.0634736   0.4741806   0.7058531  )
        46           H   tau(  46) = (   0.9156043   0.1537180   0.5196592  )
        47           H   tau(  47) = (   0.7345365   0.2471193   0.6852563  )
        48           H   tau(  48) = (   0.1175943   0.5675819   0.5402560  )
        49           H   tau(  49) = (   0.6262066   0.3416405   0.8417652  )
        50           H   tau(  50) = (   0.2259241   0.0211778   0.3837471  )
        51           O   tau(  51) = (   0.4379488  -0.0025403   0.7985685  )
        52           O   tau(  52) = (   0.4141820   0.3179224   0.4269438  )
        53           H   tau(  53) = (   0.3652072   0.0673877   0.7383723  )
        54           H   tau(  54) = (   0.4869236   0.3878503   0.4871400  )
        55           H   tau(  55) = (   0.4791380   0.0531775   0.8922140  )
        56           H   tau(  56) = (   0.3729927   0.3736401   0.3332983  )

     number of k points=    12
                       cart. coord. in units 2pi/alat
        k(    1) = (   0.0000000   0.0000000   0.0000000), wk =   0.1250000
        k(    2) = (   0.0000000   0.0000000  -0.4079926), wk =   0.1250000
        k(    3) = (   0.0000000   0.3900611   0.0000000), wk =   0.2500000
        k(    4) = (   0.0000000   0.3900611  -0.4079926), wk =   0.2500000
        k(    5) = (   0.0000000  -0.7801222   0.0000000), wk =   0.1250000
        k(    6) = (   0.0000000  -0.7801222  -0.4079926), wk =   0.1250000
        k(    7) = (  -0.5000000   0.0000000  -0.0603296), wk =   0.1250000
        k(    8) = (  -0.5000000   0.0000000  -0.4683222), wk =   0.1250000
        k(    9) = (  -0.5000000   0.3900611  -0.0603296), wk =   0.2500000
        k(   10) = (  -0.5000000   0.3900611  -0.4683222), wk =   0.2500000
        k(   11) = (  -0.5000000  -0.7801222  -0.0603296), wk =   0.1250000
        k(   12) = (  -0.5000000  -0.7801222  -0.4683222), wk =   0.1250000

     Dense  grid:   429093 G-vectors     FFT dimensions: ( 108,  72, 125)

     Estimated max dynamical RAM per process >     287.94MB

     Estimated total allocated dynamical RAM >    2303.48MB

     Check: negative/imaginary core charge=   -0.000003    0.000000

     Initial potential from superposition of free atoms

     starting charge  171.99921, renormalised to  172.00000
     Starting wfc are  140 randomized atomic wfcs
     Checking if some PAW data can be deallocated... 

     total cpu time spent up to now is       17.4 secs

     per-process dynamical memory:   281.7 Mb

     Self-consistent Calculation

     iteration #  1     ecut=   100.00 Ry     beta=0.50
     Davidson diagonalization with overlap
     ethr =  1.00E-02,  avg # of iterations =  4.2

     total cpu time spent up to now is       54.8 secs

     total energy              =    -920.37751515 Ry
     Harris-Foulkes estimate   =    -922.99199474 Ry
     estimated scf accuracy    <       4.89481956 Ry

     iteration #  2     ecut=   100.00 Ry     beta=0.50
     Davidson diagonalization with overlap
     ethr =  2.85E-03,  avg # of iterations =  2.0

     total cpu time spent up to now is       79.9 secs

     total energy              =    -921.28311316 Ry
     Harris-Foulkes estimate   =    -921.56604443 Ry
     estimated scf accuracy    <       0.65642578 Ry

     iteration #  3     ecut=   100.00 Ry     beta=0.50
     Davidson diagonalization with overlap
     ethr =  3.82E-04,  avg # of iterations =  6.8

     total cpu time spent up to now is      111.9 secs

     total energy              =    -921.40030741 Ry
     Harris-Foulkes estimate   =    -921.43733021 Ry
     estimated scf accuracy    <       0.11949468 Ry

     iteration #  4     ecut=   100.00 Ry     beta=0.50
     Davidson diagonalization with overlap
     ethr =  6.95E-05,  avg # of iterations =  3.7

     total cpu time spent up to now is      134.4 secs

     total energy              =    -921.40844956 Ry
     Harris-Foulkes estimate   =    -921.41491507 Ry
     estimated scf accuracy    <       0.01906951 Ry

     iteration #  5     ecut=   100.00 Ry     beta=0.50
     Davidson diagonalization with overlap
     ethr =  1.11E-05,  avg # of iterations =  7.7

     total cpu time spent up to now is      174.9 secs

     total energy              =    -921.41413619 Ry
     Harris-Foulkes estimate   =    -921.41637985 Ry
     estimated scf accuracy    <       0.00558625 Ry

     iteration #  6     ecut=   100.00 Ry     beta=0.50
     Davidson diagonalization with overlap
     ethr =  3.25E-06,  avg # of iterations =  2.2

     total cpu time spent up to now is      195.9 secs

     total energy              =    -921.41445288 Ry
     Harris-Foulkes estimate   =    -921.41486763 Ry
     estimated scf accuracy    <       0.00072866 Ry

     iteration #  7     ecut=   100.00 Ry     beta=0.50
     Davidson diagonalization with overlap
     ethr =  4.24E-07,  avg # of iterations =  4.8

     total cpu time spent up to now is      233.7 secs

     total energy              =    -921.41491051 Ry
     Harris-Foulkes estimate   =    -921.41518531 Ry
     estimated scf accuracy    <       0.00071177 Ry

     iteration #  8     ecut=   100.00 Ry     beta=0.50
     Davidson diagonalization with overlap
     ethr =  4.14E-07,  avg # of iterations =  1.0

     total cpu time spent up to now is      253.2 secs

     total energy              =    -921.41483665 Ry
     Harris-Foulkes estimate   =    -921.41494690 Ry
     estimated scf accuracy    <       0.00019105 Ry

     iteration #  9     ecut=   100.00 Ry     beta=0.50
     Davidson diagonalization with overlap
     ethr =  1.11E-07,  avg # of iterations =  4.0

     total cpu time spent up to now is      287.7 secs

     total energy              =    -921.41497841 Ry
     Harris-Foulkes estimate   =    -921.41501819 Ry
     estimated scf accuracy    <       0.00013159 Ry

     iteration # 10     ecut=   100.00 Ry     beta=0.50
     Davidson diagonalization with overlap
     ethr =  7.65E-08,  avg # of iterations =  1.0

     total cpu time spent up to now is      307.2 secs

     total energy              =    -921.41495211 Ry
     Harris-Foulkes estimate   =    -921.41498187 Ry
     estimated scf accuracy    <       0.00005662 Ry

     iteration # 11     ecut=   100.00 Ry     beta=0.50
     Davidson diagonalization with overlap
     ethr =  3.29E-08,  avg # of iterations =  3.0

     total cpu time spent up to now is      338.8 secs

     total energy              =    -921.41497797 Ry
     Harris-Foulkes estimate   =    -921.41498064 Ry
     estimated scf accuracy    <       0.00000870 Ry

     iteration # 12     ecut=   100.00 Ry     beta=0.50
     Davidson diagonalization with overlap
     ethr =  5.06E-09,  avg # of iterations =  1.0

     total cpu time spent up to now is      358.4 secs

     total energy              =    -921.41497596 Ry
     Harris-Foulkes estimate   =    -921.41497823 Ry
     estimated scf accuracy    <       0.00000380 Ry

     iteration # 13     ecut=   100.00 Ry     beta=0.50
     Davidson diagonalization with overlap
     ethr =  2.21E-09,  avg # of iterations =  4.0

     total cpu time spent up to now is      391.8 secs

     total energy              =    -921.41497803 Ry
     Harris-Foulkes estimate   =    -921.41497846 Ry
     estimated scf accuracy    <       0.00000144 Ry

     iteration # 14     ecut=   100.00 Ry     beta=0.50
     Davidson diagonalization with overlap
     ethr =  8.38E-10,  avg # of iterations =  1.0

     total cpu time spent up to now is      411.3 secs

     total energy              =    -921.41497773 Ry
     Harris-Foulkes estimate   =    -921.41497806 Ry
     estimated scf accuracy    <       0.00000067 Ry

     iteration # 15     ecut=   100.00 Ry     beta=0.50
     Davidson diagonalization with overlap
     ethr =  3.88E-10,  avg # of iterations =  4.0

     total cpu time spent up to now is      442.1 secs

     total energy              =    -921.41497803 Ry
     Harris-Foulkes estimate   =    -921.41497804 Ry
     estimated scf accuracy    <       0.00000008 Ry

     iteration # 16     ecut=   100.00 Ry     beta=0.50
     Davidson diagonalization with overlap
     ethr =  4.91E-11,  avg # of iterations =  1.0

     total cpu time spent up to now is      461.5 secs

     total energy              =    -921.41497800 Ry
     Harris-Foulkes estimate   =    -921.41497803 Ry
     estimated scf accuracy    <       0.00000007 Ry

     iteration # 17     ecut=   100.00 Ry     beta=0.50
     Davidson diagonalization with overlap
     ethr =  3.88E-11,  avg # of iterations =  3.0

     total cpu time spent up to now is      488.3 secs

     End of self-consistent calculation

          k = 0.0000 0.0000 0.0000 ( 53645 PWs)   bands (ev):

   -21.2469 -21.2033 -19.9473 -19.8342 -19.4454 -19.4016 -19.2805 -19.1403
   -18.9697 -18.9348 -18.7926 -18.7850 -18.6909 -18.6373 -18.4487 -18.3530
   -13.0198 -12.9761 -12.2039 -12.1508 -10.7254 -10.6668  -9.2887  -9.2855
    -8.6529  -8.6423  -8.1525  -8.0543  -7.2478  -7.1358  -6.9956  -6.8831
    -6.7528  -6.7528  -6.5462  -6.3005  -6.2873  -6.1294  -6.0450  -5.9897
    -5.6918  -5.4933  -5.2895  -5.1020  -4.8938  -4.7355  -4.6712  -4.6140
    -4.4995  -4.3994  -4.1300  -4.1101  -3.8501  -3.7970  -3.3391  -3.3376
    -3.2186  -3.0417  -3.0117  -2.9516  -2.3058  -2.1482  -2.1137  -2.0045
    -1.9343  -1.8870  -1.6143  -1.5958  -1.4284  -1.4260  -1.3508  -1.3358
    -1.2285  -1.2129  -1.0963  -0.9440  -0.5264  -0.4219  -0.3876  -0.3564
    -0.0275   0.2038   0.2538   0.2916   0.3283   0.5329   5.1069   5.1760
     6.0328   6.9817   7.0767   7.4487   7.4953   7.9164   8.0405   8.0961
     8.4776   8.6259   8.7579   8.8117   9.1381   9.3757   9.5483

          k = 0.0000 0.0000-0.4080 ( 53606 PWs)   bands (ev):

   -21.2464 -21.2034 -19.9709 -19.8037 -19.4950 -19.2925 -19.2747 -19.2359
   -18.9929 -18.8737 -18.7822 -18.7672 -18.7471 -18.6336 -18.4222 -18.3704
   -13.0084 -12.9886 -12.2254 -12.1270 -10.7430 -10.6405  -9.3428  -9.2727
    -8.7389  -8.5016  -8.1534  -8.0462  -7.1687  -7.1227  -7.0555  -7.0457
    -6.7670  -6.7289  -6.4714  -6.3176  -6.2622  -6.1854  -6.0683  -5.8634
    -5.6653  -5.4946  -5.3198  -5.0239  -4.9446  -4.8719  -4.6387  -4.6315
    -4.4244  -4.4134  -4.2432  -4.1330  -3.7796  -3.7100  -3.3382  -3.3231
    -3.1755  -3.1072  -3.1018  -2.8303  -2.3298  -2.2714  -2.1045  -2.0212
    -1.8716  -1.7619  -1.6697  -1.6001  -1.4677  -1.4226  -1.3281  -1.3211
    -1.2268  -1.2212  -1.0901  -0.9655  -0.5066  -0.4441  -0.3815  -0.3772
     0.0204   0.1957   0.2342   0.2819   0.3861   0.4798   5.1055   5.1483
     6.3593   6.3846   7.3504   7.3524   7.6956   7.8651   8.1133   8.1907
     8.3522   8.6202   8.7013   8.8258   9.0341   9.2750   9.6587

          k = 0.0000 0.3901 0.0000 ( 53629 PWs)   bands (ev):

   -21.2374 -21.2066 -19.8678 -19.7545 -19.4936 -19.4278 -19.2546 -19.1671
   -19.0232 -18.9961 -18.8152 -18.7822 -18.6845 -18.6436 -18.4436 -18.3668
   -12.9622 -12.9278 -12.1925 -12.1514 -10.7298 -10.6895  -9.2859  -9.2793
    -8.6007  -8.5654  -8.1518  -8.0738  -7.2596  -7.2580  -7.1106  -7.0428
    -6.7814  -6.7699  -6.4549  -6.3025  -6.2130  -6.1625  -6.0258  -5.9412
    -5.7271  -5.5469  -5.3623  -5.2599  -4.9049  -4.7196  -4.6282  -4.5497
    -4.3051  -4.2341  -4.1773  -4.1053  -3.8332  -3.7798  -3.3963  -3.3187
    -3.1744  -3.1649  -2.9545  -2.9403  -2.4394  -2.2807  -2.0817  -1.9847
    -1.8388  -1.7473  -1.6299  -1.6063  -1.4406  -1.4306  -1.2881  -1.2680
    -1.1962  -1.1233  -0.9872  -0.9735  -0.5017  -0.4385  -0.3927  -0.3613
     0.0311   0.1725   0.2356   0.2528   0.3274   0.4888   5.0532   5.1100
     6.2455   6.8378   7.1581   7.4201   7.6097   7.7893   8.0818   8.1573
     8.2817   8.5506   8.7775   8.9900   9.1540   9.2769   9.3789

          k = 0.0000 0.3901-0.4080 ( 53610 PWs)   bands (ev):

   -21.2371 -21.2066 -19.8911 -19.7225 -19.5297 -19.3484 -19.2861 -19.2109
   -19.0378 -18.9332 -18.8162 -18.8140 -18.6991 -18.6244 -18.4203 -18.3873
   -12.9527 -12.9373 -12.2090 -12.1357 -10.7429 -10.6668  -9.3221  -9.2850
    -8.6315  -8.4903  -8.1452  -8.0390  -7.3033  -7.2475  -7.1194  -7.1118
    -6.7759  -6.7612  -6.4239  -6.3574  -6.2100  -6.1095  -6.0423  -5.8562
    -5.7642  -5.5665  -5.3193  -5.2251  -4.9026  -4.8312  -4.5987  -4.5943
    -4.3615  -4.2249  -4.1355  -4.1327  -3.7587  -3.7407  -3.3450  -3.3165
    -3.2719  -3.0942  -3.0392  -2.9332  -2.3459  -2.3300  -2.1845  -1.9824
    -1.7670  -1.6947  -1.6876  -1.5940  -1.4467  -1.3499  -1.3153  -1.2661
    -1.2286  -1.1387  -0.9916  -0.9574  -0.4940  -0.4427  -0.4056  -0.3922
     0.0743   0.1738   0.2033   0.2569   0.3666   0.4527   5.0543   5.0957
     6.4724   6.5099   7.2706   7.2977   7.7871   7.8441   8.0556   8.1108
     8.4092   8.4729   8.7301   8.9285   9.1414   9.1935   9.4447

          k = 0.0000-0.7801 0.0000 ( 53644 PWs)   bands (ev):

   -21.2189 -21.2189 -19.6841 -19.6841 -19.5495 -19.5495 -19.1851 -19.1851
   -19.0952 -19.0952 -18.8045 -18.8045 -18.6643 -18.6643 -18.4069 -18.4069
   -12.8920 -12.8920 -12.1664 -12.1664 -10.7241 -10.7241  -9.2786  -9.2786
    -8.5080  -8.5080  -8.1303  -8.1303  -7.3498  -7.3498  -7.1409  -7.1409
    -6.7739  -6.7739  -6.4305  -6.4305  -6.1910  -6.1910  -5.8897  -5.8897
    -5.6650  -5.6650  -5.4311  -5.4311  -4.7921  -4.7921  -4.5888  -4.5888
    -4.2923  -4.2923  -3.8609  -3.8609  -3.7668  -3.7668  -3.5007  -3.5007
    -3.2062  -3.2062  -2.9106  -2.9106  -2.4531  -2.4531  -2.0052  -2.0052
    -1.7395  -1.7395  -1.6407  -1.6407  -1.4119  -1.4119  -1.2312  -1.2312
    -1.1101  -1.1101  -0.8495  -0.8495  -0.5049  -0.5049  -0.3853  -0.3853
     0.1090   0.1090   0.2031   0.2031   0.3922   0.3922   5.0273   5.0273
     6.6758   6.6758   7.4045   7.4045   7.6811   7.6811   7.9736   7.9736
     8.1502   8.1502   8.7482   8.7482   9.0968   9.0968   9.4473

          k = 0.0000-0.7801-0.4080 ( 53680 PWs)   bands (ev):

   -21.2188 -21.2188 -19.7053 -19.7053 -19.5060 -19.5060 -19.2544 -19.2544
   -19.0116 -19.0116 -18.8678 -18.8678 -18.6312 -18.6312 -18.4133 -18.4133
   -12.8912 -12.8912 -12.1687 -12.1687 -10.7187 -10.7187  -9.2998  -9.2998
    -8.4829  -8.4829  -8.1008  -8.1008  -7.4248  -7.4248  -7.1058  -7.1058
    -6.8113  -6.8113  -6.4042  -6.4042  -6.1610  -6.1610  -5.8968  -5.8968
    -5.7166  -5.7166  -5.3332  -5.3332  -4.8685  -4.8685  -4.5888  -4.5888
    -4.3001  -4.3001  -3.8963  -3.8963  -3.7013  -3.7013  -3.4592  -3.4592
    -3.1621  -3.1621  -3.0358  -3.0358  -2.3793  -2.3793  -2.0920  -2.0920
    -1.7375  -1.7375  -1.5898  -1.5898  -1.3764  -1.3764  -1.2283  -1.2283
    -1.1344  -1.1344  -0.8536  -0.8536  -0.4804  -0.4804  -0.4320  -0.4320
     0.1252   0.1252   0.1951   0.1951   0.3932   0.3932   5.0247   5.0247
     6.6657   6.6657   7.4444   7.4444   7.6527   7.6527   7.9579   7.9579
     8.3355   8.3355   8.5443   8.5443   9.1585   9.1585   9.3149

          k =-0.5000 0.0000-0.0603 ( 53640 PWs)   bands (ev):

   -21.2332 -21.2169 -19.9263 -19.8425 -19.5661 -19.3374 -19.2148 -19.0763
   -19.0149 -18.9488 -18.8540 -18.7699 -18.7192 -18.5785 -18.4541 -18.3583
   -13.0254 -12.9804 -12.1967 -12.1396 -10.7220 -10.6895  -9.3164  -9.2487
    -8.6488  -8.6146  -8.1922  -8.0317  -7.1767  -7.0830  -7.0463  -6.9811
    -6.7954  -6.7275  -6.5142  -6.4408  -6.1820  -6.1311  -6.0825  -5.8753
    -5.6664  -5.5009  -5.3189  -5.3114  -4.9266  -4.7004  -4.6239  -4.4863
    -4.4174  -4.3587  -4.2612  -4.0940  -3.8349  -3.5989  -3.3972  -3.3642
    -3.2804  -3.0668  -3.0416  -3.0410  -2.3794  -2.2195  -2.0495  -1.9611
    -1.9502  -1.6618  -1.6556  -1.5833  -1.5120  -1.4508  -1.4306  -1.3274
    -1.2534  -1.2101  -0.9909  -0.8496  -0.4639  -0.4330  -0.3957  -0.3854
    -0.0722   0.2105   0.2121   0.2550   0.4044   0.5090   5.0474   5.2549
     6.0191   6.7594   7.0132   7.3240   7.7712   7.7839   7.9575   8.0441
     8.7114   8.7473   8.9878   9.1265   9.2306   9.3990   9.4446

          k =-0.5000 0.0000-0.4683 ( 53682 PWs)   bands (ev):

   -21.2331 -21.2167 -19.9533 -19.8069 -19.5809 -19.3324 -19.1509 -19.1402
   -19.0169 -18.9702 -18.8425 -18.7608 -18.6863 -18.6247 -18.4160 -18.3797
   -13.0088 -12.9948 -12.2296 -12.1141 -10.7227 -10.6647  -9.3650  -9.2418
    -8.7348  -8.5067  -8.1843  -7.9992  -7.1935  -7.1340  -7.0601  -7.0356
    -6.7998  -6.7068  -6.5263  -6.2882  -6.1658  -6.1320  -5.9711  -5.8882
    -5.8090  -5.6115  -5.3146  -5.2405  -4.9364  -4.8309  -4.6505  -4.4382
    -4.3599  -4.2966  -4.1829  -4.0314  -3.8403  -3.7995  -3.3745  -3.3191
    -3.2417  -3.1345  -3.0590  -2.9847  -2.2860  -2.2199  -2.0985  -2.0933
    -1.8634  -1.8437  -1.5971  -1.5349  -1.5049  -1.4350  -1.3253  -1.3149
    -1.2757  -1.2154  -1.0289  -0.8504  -0.4885  -0.4649  -0.4337  -0.3091
    -0.0608   0.1579   0.2799   0.3204   0.3969   0.4375   5.0439   5.2048
     6.2340   6.6164   6.7679   7.3235   7.9887   8.0172   8.0194   8.3437
     8.4404   8.6478   8.7981   8.9685   9.1531   9.3225   9.4353

          k =-0.5000 0.3901-0.0603 ( 53586 PWs)   bands (ev):

   -21.2278 -21.2162 -19.8459 -19.7607 -19.5659 -19.3965 -19.2047 -19.1226
   -19.1102 -18.9926 -18.8588 -18.7172 -18.6844 -18.6290 -18.4491 -18.3829
   -12.9685 -12.9335 -12.1810 -12.1375 -10.7318 -10.7094  -9.3066  -9.2706
    -8.5926  -8.5226  -8.1674  -8.0946  -7.2115  -7.2029  -7.1109  -7.0474
    -6.7959  -6.7185  -6.4750  -6.4724  -6.2709  -6.2582  -6.0323  -5.8636
    -5.6000  -5.5422  -5.3032  -5.2643  -4.9126  -4.8048  -4.6030  -4.6021
    -4.3183  -4.2576  -4.1219  -4.0488  -3.8273  -3.6729  -3.4138  -3.3063
    -3.1833  -3.1028  -3.0789  -2.9479  -2.3441  -2.3387  -2.2145  -2.0748
    -1.9140  -1.7367  -1.6011  -1.5837  -1.3897  -1.3440  -1.3095  -1.2911
    -1.1638  -1.1504  -0.9160  -0.8604  -0.5242  -0.4644  -0.3861  -0.3584
     0.0150   0.1682   0.1720   0.2415   0.3982   0.4586   5.0117   5.1689
     6.2142   6.7960   7.2091   7.2823   7.5071   7.6231   8.1868   8.4254
     8.4738   8.5918   8.7073   8.8603   9.0285   9.2975   9.3887

          k =-0.5000 0.3901-0.4683 ( 53606 PWs)   bands (ev):

   -21.2277 -21.2160 -19.8729 -19.7234 -19.5831 -19.3623 -19.2160 -19.1905
   -19.0463 -19.0129 -18.8277 -18.7560 -18.6810 -18.6179 -18.4367 -18.3941
   -12.9550 -12.9439 -12.2071 -12.1216 -10.7308 -10.6850  -9.3487  -9.2794
    -8.6016  -8.4884  -8.1383  -8.0571  -7.2884  -7.2403  -7.1261  -7.1090
    -6.7564  -6.7310  -6.4740  -6.3489  -6.2197  -6.1478  -6.0030  -5.9330
    -5.6972  -5.6396  -5.3049  -5.2569  -5.0151  -4.8368  -4.5688  -4.4849
    -4.2993  -4.1951  -4.0362  -4.0219  -3.8606  -3.8033  -3.3360  -3.2678
    -3.2256  -3.1731  -3.0963  -2.9393  -2.4600  -2.2639  -2.1052  -2.0895
    -1.9113  -1.8525  -1.5918  -1.5623  -1.3846  -1.3509  -1.3124  -1.2561
    -1.1394  -1.1358  -0.9500  -0.8615  -0.5099  -0.4639  -0.4261  -0.3493
     0.0156   0.1664   0.2117   0.2641   0.3990   0.4152   5.0099   5.1375
     6.3445   6.8222   6.9221   7.1039   7.7775   8.0025   8.0691   8.2898
     8.5733   8.5794   8.6910   8.8945   9.0493   9.1192   9.1890

          k =-0.5000-0.7801-0.0603 ( 53616 PWs)   bands (ev):

   -21.2189 -21.2189 -19.6700 -19.6700 -19.5572 -19.5572 -19.2040 -19.2040
   -19.1125 -19.1125 -18.7584 -18.7584 -18.6612 -18.6612 -18.4261 -18.4261
   -12.8990 -12.8990 -12.1501 -12.1501 -10.7367 -10.7367  -9.2932  -9.2932
    -8.4890  -8.4890  -8.1363  -8.1363  -7.2970  -7.2970  -7.1024  -7.1024
    -6.7924  -6.7924  -6.4831  -6.4831  -6.3158  -6.3158  -5.9275  -5.9275
    -5.5967  -5.5967  -5.2052  -5.2052  -4.9432  -4.9432  -4.6205  -4.6205
    -4.3389  -4.3389  -3.8980  -3.8980  -3.6504  -3.6504  -3.4279  -3.4279
    -3.1849  -3.1849  -2.9009  -2.9009  -2.4924  -2.4924  -2.1803  -2.1803
    -1.8281  -1.8281  -1.5435  -1.5435  -1.2953  -1.2953  -1.2643  -1.2643
    -1.0689  -1.0689  -0.8075  -0.8075  -0.5338  -0.5338  -0.3769  -0.3769
     0.0781   0.0781   0.1883   0.1883   0.4008   0.4008   5.0324   5.0324
     6.7814   6.7814   7.1189   7.1189   7.7665   7.7665   8.0000   8.0000
     8.4058   8.4058   8.5653   8.5653   8.9594   8.9594   9.2623

          k =-0.5000-0.7801-0.4683 ( 53580 PWs)   bands (ev):

   -21.2188 -21.2188 -19.6945 -19.6945 -19.5098 -19.5098 -19.2628 -19.2628
   -19.0697 -19.0697 -18.7739 -18.7739 -18.6506 -18.6506 -18.4282 -18.4282
   -12.8968 -12.8968 -12.1570 -12.1570 -10.7232 -10.7232  -9.3215  -9.3215
    -8.4582  -8.4582  -8.1082  -8.1082  -7.3803  -7.3803  -7.1460  -7.1460
    -6.7457  -6.7457  -6.4717  -6.4717  -6.1374  -6.1374  -6.0063  -6.0063
    -5.6518  -5.6518  -5.3344  -5.3344  -4.9170  -4.9170  -4.5555  -4.5555
    -4.2399  -4.2399  -3.9112  -3.9112  -3.7279  -3.7279  -3.3409  -3.3409
    -3.1843  -3.1843  -3.0188  -3.0188  -2.4775  -2.4775  -2.1257  -2.1257
    -1.8586  -1.8586  -1.5476  -1.5476  -1.3417  -1.3417  -1.2058  -1.2058
    -1.0623  -1.0623  -0.8211  -0.8211  -0.4921  -0.4921  -0.4287  -0.4287
     0.1196   0.1196   0.1702   0.1702   0.3942   0.3942   5.0230   5.0230
     6.7556   6.7556   7.2427   7.2427   7.6326   7.6326   7.9992   7.9992
     8.3686   8.3686   8.6715   8.6715   8.9748   8.9748   9.2526

     highest occupied, lowest unoccupied level (ev):     0.5329    5.0099

!    total energy              =    -921.41497801 Ry
     Harris-Foulkes estimate   =    -921.41497802 Ry
     estimated scf accuracy    <          8.1E-09 Ry

     total all-electron energy =     -3356.134352 Ry

     The total energy is the sum of the following terms:

     one-electron contribution =    -482.74784427 Ry
     hartree contribution      =     312.51914630 Ry
     xc contribution           =    -188.89531615 Ry
     ewald contribution        =    -330.13197819 Ry
     Dispersion Correction     =      -0.24038576 Ry
     one-center paw contrib.   =    -231.91859994 Ry

     convergence has been achieved in  17 iterations

     Forces acting on atoms (cartesian axes, Ry/au):

     atom    1 type  4   force =    -0.00049775   -0.00209203    0.00093655
     atom    2 type  4   force =     0.00049775   -0.00209203   -0.00093655
     atom    3 type  4   force =    -0.00040420    0.00180153    0.00042931
     atom    4 type  4   force =     0.00040420    0.00180153   -0.00042931
     atom    5 type  4   force =     0.00399968    0.00084891    0.00200676
     atom    6 type  4   force =    -0.00399968    0.00084891   -0.00200676
     atom    7 type  4   force =     0.00177386    0.00056485    0.00060311
     atom    8 type  4   force =    -0.00177386    0.00056485   -0.00060311
     atom    9 type  4   force =     0.00398541   -0.00017873    0.00417491
     atom   10 type  4   force =    -0.00398541   -0.00017873   -0.00417491
     atom   11 type  4   force =    -0.00322883   -0.00130086   -0.00142220
     atom   12 type  4   force =     0.00322883   -0.00130086    0.00142220
     atom   13 type  4   force =    -0.00381207    0.00086256   -0.00061969
     atom   14 type  4   force =     0.00381207    0.00086256    0.00061969
     atom   15 type  1   force =     0.00240512    0.00070291   -0.00185335
     atom   16 type  1   force =    -0.00240512    0.00070291    0.00185335
     atom   17 type  1   force =     0.00137623   -0.01161714    0.00183939
     atom   18 type  1   force =    -0.00137623   -0.01161714   -0.00183939
     atom   19 type  1   force =    -0.00676703    0.00965606   -0.00315367
     atom   20 type  1   force =     0.00676703    0.00965606    0.00315367
     atom   21 type  1   force =     0.00559720   -0.00316079   -0.00353082
     atom   22 type  1   force =    -0.00559720   -0.00316079    0.00353082
     atom   23 type  1   force =    -0.00312401    0.00157805    0.00184528
     atom   24 type  1   force =     0.00312401    0.00157805   -0.00184528
     atom   25 type  1   force =     0.00249655   -0.00180090    0.00082109
     atom   26 type  1   force =    -0.00249655   -0.00180090   -0.00082109
     atom   27 type  3   force =    -0.00047606   -0.00136300   -0.00026665
     atom   28 type  3   force =     0.00047606   -0.00136300    0.00026665
     atom   29 type  3   force =    -0.00084852    0.00079195   -0.00073006
     atom   30 type  3   force =     0.00084852    0.00079195    0.00073006
     atom   31 type  3   force =    -0.00058325   -0.00116005    0.00009504
     atom   32 type  3   force =     0.00058325   -0.00116005   -0.00009504
     atom   33 type  3   force =    -0.00256208    0.00124318    0.00029280
     atom   34 type  3   force =     0.00256208    0.00124318   -0.00029280
     atom   35 type  3   force =     0.00034741    0.00037855   -0.00020687
     atom   36 type  3   force =    -0.00034741    0.00037855    0.00020687
     atom   37 type  3   force =     0.00096673   -0.00246027   -0.00105881
     atom   38 type  3   force =    -0.00096673   -0.00246027    0.00105881
     atom   39 type  3   force =     0.00242386    0.01026206    0.00314713
     atom   40 type  3   force =    -0.00242386    0.01026206   -0.00314713
     atom   41 type  3   force =    -0.00279453   -0.00843616   -0.00472512
     atom   42 type  3   force =     0.00279453   -0.00843616    0.00472512
     atom   43 type  3   force =    -0.00099395    0.00125934    0.00072145
     atom   44 type  3   force =     0.00099395    0.00125934   -0.00072145
     atom   45 type  3   force =    -0.00037430   -0.00141607   -0.00108580
     atom   46 type  3   force =     0.00037430   -0.00141607    0.00108580
     atom   47 type  3   force =    -0.00018305    0.00367762    0.00141654
     atom   48 type  3   force =     0.00018305    0.00367762   -0.00141654
     atom   49 type  3   force =     0.00052532   -0.00017871   -0.00137436
     atom   50 type  3   force =    -0.00052532   -0.00017871    0.00137436
     atom   51 type  4   force =     0.00055511    0.00128086   -0.00148625
     atom   52 type  4   force =    -0.00055511    0.00128086    0.00148625
     atom   53 type  3   force =    -0.00052928   -0.00026328   -0.00051337
     atom   54 type  3   force =     0.00052928   -0.00026328    0.00051337
     atom   55 type  3   force =     0.00058489    0.00051957    0.00104542
     atom   56 type  3   force =    -0.00058489    0.00051957   -0.00104542

     Total force =     0.038749     Total SCF correction =     0.000232


     Computing stress (Cartesian axis) and pressure

          total   stress  (Ry/bohr**3)                   (kbar)     P=   -8.74
  -0.00004265   0.00000000  -0.00001574         -6.27      0.00     -2.32
   0.00000000  -0.00004817   0.00000000          0.00     -7.09      0.00
  -0.00001574   0.00000000  -0.00008738         -2.32      0.00    -12.85


     Writing output data file scf.save
 
     init_run     :     15.88s CPU     16.63s WALL (       1 calls)
     electrons    :    455.36s CPU    471.11s WALL (       1 calls)
     forces       :      7.97s CPU      8.03s WALL (       1 calls)
     stress       :     29.92s CPU     29.95s WALL (       1 calls)

     Called by init_run:
     wfcinit      :      9.74s CPU     10.23s WALL (       1 calls)
     potinit      :      2.20s CPU      2.24s WALL (       1 calls)

     Called by electrons:
     c_bands      :    396.04s CPU    410.58s WALL (      17 calls)
     sum_band     :     51.04s CPU     51.94s WALL (      17 calls)
     v_of_rho     :      1.16s CPU      1.25s WALL (      18 calls)
     newd         :      2.31s CPU      2.36s WALL (      18 calls)
     PAW_pot      :      4.34s CPU      4.35s WALL (      18 calls)
     mix_rho      :      0.27s CPU      0.28s WALL (      17 calls)

     Called by c_bands:
     init_us_2    :      4.45s CPU      4.44s WALL (     444 calls)
     cegterg      :    381.85s CPU    396.34s WALL (     204 calls)

     Called by sum_band:
     sum_band:bec :      0.05s CPU      0.05s WALL (     204 calls)
     addusdens    :      2.45s CPU      2.47s WALL (      17 calls)

     Called by *egterg:
     h_psi        :    252.46s CPU    263.09s WALL (     869 calls)
     s_psi        :     29.92s CPU     29.92s WALL (     869 calls)
     g_psi        :      2.10s CPU      2.10s WALL (     653 calls)
     cdiaghg      :     24.54s CPU     24.68s WALL (     857 calls)

     Called by h_psi:
     h_psi:pot    :    250.08s CPU    260.69s WALL (     869 calls)
     h_psi:calbec :     27.49s CPU     27.64s WALL (     869 calls)
     vloc_psi     :    192.67s CPU    203.13s WALL (     869 calls)
     add_vuspsi   :     29.91s CPU     29.91s WALL (     869 calls)

     General routines
     calbec       :     40.37s CPU     40.58s WALL (    1133 calls)
     fft          :      0.76s CPU      1.09s WALL (     258 calls)
     fftw         :    206.87s CPU    217.46s WALL (  139604 calls)
 
     Parallel routines
     fft_scatter  :     43.22s CPU     49.33s WALL (  139862 calls)
 
     PWSCF        :  8m34.27s CPU     8m52.43s WALL

 
   This run was terminated on:   7: 1:34   4Nov2017            

=------------------------------------------------------------------------------=
   JOB DONE.
=------------------------------------------------------------------------------=
