
     Program PWSCF v.6.1 (svn rev. 13369) starts on 13Nov2017 at 12:24: 3 

     This program is part of the open-source Quantum ESPRESSO suite
     for quantum simulation of materials; please cite
         "P. Giannozzi et al., J. Phys.:Condens. Matter 21 395502 (2009);
          URL http://www.quantum-espresso.org", 
     in publications or presentations arising from this work. More details at
     http://www.quantum-espresso.org/quote

     Parallel version (MPI), running on     8 processors
     R & G space division:  proc/nbgrp/npool/nimage =       8
     Waiting for input...
     Reading input from standard input

     Current dimensions of program PWSCF are:
     Max number of different atomic species (ntypx) = 10
     Max number of k-points (npk) =  40000
     Max angular momentum in pseudopotentials (lmaxx) =  3
               file C.pbe-n-kjpaw_psl.0.1.UPF: wavefunction(s)  2P renormalized
               file N.pbe-n-kjpaw_psl.0.1.UPF: wavefunction(s)  2P renormalized
               file H.pbe-kjpaw_psl.0.1.UPF: wavefunction(s)  1S renormalized
               file O.pbe-n-kjpaw_psl.0.1.UPF: wavefunction(s)  2P renormalized

     -------------------------------------
     Parameters for Dispersion Correction:
     -------------------------------------
       atom      VdW radius       C_6     

        C          2.744         60.710
        N          2.640         42.670
        H          1.892          4.857
        O          2.536         24.284

     Subspace diagonalization in iterative solution of the eigenvalue problem:
     a serial algorithm will be used

 
     Parallelization info
     --------------------
     sticks:   dense  smooth     PW     G-vecs:    dense   smooth      PW
     Min        1108    1108    293                78172    78172   10641
     Max        1109    1109    295                78175    78175   10642
     Sum        8865    8865   2351               625385   625385   85129
 


     bravais-lattice index     =            0
     lattice parameter (alat)  =      21.1319  a.u.
     unit-cell volume          =    4628.3826 (a.u.)^3
     number of atoms/cell      =           88
     number of atomic types    =            4
     number of electrons       =       280.00
     number of Kohn-Sham states=          168
     kinetic-energy cutoff     =     100.0000  Ry
     charge density cutoff     =     400.0000  Ry
     convergence threshold     =      1.0E-08
     mixing beta               =       0.5000
     number of iterations used =            8  plain     mixing
     Exchange-correlation      =  SLA  PW   PBX  PBC ( 1  4  3  4 0 0)

     celldm(1)=  21.131862  celldm(2)=   0.000000  celldm(3)=   0.000000
     celldm(4)=   0.000000  celldm(5)=   0.000000  celldm(6)=   0.000000

     crystal axes: (cart. coord. in units of alat)
               a(1) = (   1.000000   0.000000   0.000000 )  
               a(2) = (   0.000000   0.623760   0.000000 )  
               a(3) = (   0.000000   0.000000   0.786318 )  

     reciprocal axes: (cart. coord. in units 2 pi/alat)
               b(1) = (  1.000000  0.000000  0.000000 )  
               b(2) = (  0.000000  1.603180  0.000000 )  
               b(3) = (  0.000000  0.000000  1.271750 )  


     PseudoPot. # 1 for  C read from file:
     /scratch/ahofstet/pseudo/C.pbe-n-kjpaw_psl.0.1.UPF
     MD5 check sum: 430fe95172b1e11ef3f8ed03bac87931
     Pseudo is Projector augmented-wave + core cor, Zval =  4.0
     Generated using "atomic" code by A. Dal Corso  v.5.0.99 svn rev. 10869
     Shape of augmentation charge: BESSEL
     Using radial grid of 1073 points,  4 beta functions with: 
                l(1) =   0
                l(2) =   0
                l(3) =   1
                l(4) =   1
     Q(r) pseudized with 0 coefficients 


     PseudoPot. # 2 for  N read from file:
     /scratch/ahofstet/pseudo/N.pbe-n-kjpaw_psl.0.1.UPF
     MD5 check sum: f73187c8b701007e77325f868c9291d7
     Pseudo is Projector augmented-wave + core cor, Zval =  5.0
     Generated using "atomic" code by A. Dal Corso  v.5.0.99 svn rev. 10869
     Shape of augmentation charge: PSQ
     Using radial grid of 1085 points,  4 beta functions with: 
                l(1) =   0
                l(2) =   0
                l(3) =   1
                l(4) =   1
     Q(r) pseudized with 0 coefficients 


     PseudoPot. # 3 for  H read from file:
     /scratch/ahofstet/pseudo/H.pbe-kjpaw_psl.0.1.UPF
     MD5 check sum: 94e484f906d9e9773b2f6e52662335b2
     Pseudo is Projector augmented-wave, Zval =  1.0
     Generated using "atomic" code by A. Dal Corso  v.5.0.99 svn rev. 10869
     Shape of augmentation charge: PSQ
     Using radial grid of  929 points,  2 beta functions with: 
                l(1) =   0
                l(2) =   0
     Q(r) pseudized with 0 coefficients 


     PseudoPot. # 4 for  O read from file:
     /scratch/ahofstet/pseudo/O.pbe-n-kjpaw_psl.0.1.UPF
     MD5 check sum: 3f94a2996a3169367d6eb21d9b593f20
     Pseudo is Projector augmented-wave + core cor, Zval =  6.0
     Generated using "atomic" code by A. Dal Corso  v.5.0.99 svn rev. 10869
     Shape of augmentation charge: BESSEL
     Using radial grid of 1095 points,  4 beta functions with: 
                l(1) =   0
                l(2) =   0
                l(3) =   1
                l(4) =   1
     Q(r) pseudized with 0 coefficients 


     atomic species   valence    mass     pseudopotential
        C              4.00    12.01070      C( 1.00)
        N              5.00    14.00670      N( 1.00)
        H              1.00     1.00794      H( 1.00)
        O              6.00    15.99940      O( 1.00)

     No symmetry found
          (note:  1 additional sym.ops. were found but ignored
           their fractional translations are incommensurate with FFT grid)


   Cartesian axes

     site n.     atom                  positions (alat units)
         1           O   tau(   1) = (   0.9648595   0.2469755   0.7241433  )
         2           O   tau(   2) = (   0.0351715   0.3768112   0.3309643  )
         3           O   tau(   3) = (   0.5351715   0.2469491   0.3309643  )
         4           O   tau(   4) = (   0.4648595   0.3767849   0.7241433  )
         5           O   tau(   5) = (   0.1926914   0.3101871   0.7582709  )
         6           O   tau(   6) = (   0.8073242   0.3135761   0.3650649  )
         7           O   tau(   7) = (   0.3073242   0.3101842   0.3650649  )
         8           O   tau(   8) = (   0.6926914   0.3135732   0.7582709  )
         9           O   tau(   9) = (   0.3186407   0.1834005   0.1554408  )
        10           O   tau(  10) = (   0.6813620   0.4403210   0.5485937  )
        11           O   tau(  11) = (   0.1813620   0.1834394   0.5485937  )
        12           O   tau(  12) = (   0.8186407   0.4403598   0.1554408  )
        13           O   tau(  13) = (   0.1955072   0.6170414   0.2736419  )
        14           O   tau(  14) = (   0.8044773   0.0066979   0.6667858  )
        15           O   tau(  15) = (   0.3044773   0.6170624   0.6667858  )
        16           O   tau(  16) = (   0.6955072   0.0067189   0.2736419  )
        17           O   tau(  17) = (   0.0111771   0.5841630   0.0980261  )
        18           O   tau(  18) = (   0.9888468   0.0395886   0.4912181  )
        19           O   tau(  19) = (   0.4888468   0.5841717   0.4912181  )
        20           O   tau(  20) = (   0.5111771   0.0395973   0.0980261  )
        21           O   tau(  21) = (   0.8194745   0.1310319   0.0908405  )
        22           O   tau(  22) = (   0.1805324   0.4927131   0.4840277  )
        23           O   tau(  23) = (   0.6805324   0.1310472   0.4840277  )
        24           O   tau(  24) = (   0.3194745   0.4927284   0.0908405  )
        25           C   tau(  25) = (   0.0063119   0.2263265   0.0368559  )
        26           C   tau(  26) = (   0.9936936   0.3974478   0.4300089  )
        27           C   tau(  27) = (   0.4936936   0.2263126   0.4300089  )
        28           C   tau(  28) = (   0.5063119   0.3974338   0.0368559  )
        29           C   tau(  29) = (   0.1326225   0.2606942   0.0719416  )
        30           C   tau(  30) = (   0.8673843   0.3630735   0.4650559  )
        31           C   tau(  31) = (   0.3673843   0.2606868   0.4650559  )
        32           C   tau(  32) = (   0.6326225   0.3630662   0.0719416  )
        33           H   tau(  33) = (   0.1252158   0.3276582   0.1443197  )
        34           H   tau(  34) = (   0.8747945   0.2961028   0.5374280  )
        35           H   tau(  35) = (   0.3747945   0.3276575   0.5374280  )
        36           H   tau(  36) = (   0.6252158   0.2961021   0.1443197  )
        37           C   tau(  37) = (   0.2003745   0.1502418   0.1216082  )
        38           C   tau(  38) = (   0.7996178   0.4735079   0.5147451  )
        39           C   tau(  39) = (   0.2996178   0.1502525   0.5147451  )
        40           C   tau(  40) = (   0.7003745   0.4735185   0.1216082  )
        41           H   tau(  41) = (   0.2098450   0.0858683   0.0477380  )
        42           H   tau(  42) = (   0.7901235   0.5378876   0.4408839  )
        43           H   tau(  43) = (   0.2901235   0.0858728   0.4408839  )
        44           H   tau(  44) = (   0.7098450   0.5378920   0.0477380  )
        45           C   tau(  45) = (   0.1302877   0.0914985   0.2243860  )
        46           C   tau(  46) = (   0.8696993   0.5322440   0.6175271  )
        47           C   tau(  47) = (   0.3696993   0.0915164   0.6175271  )
        48           C   tau(  48) = (   0.6302877   0.5322618   0.2243860  )
        49           H   tau(  49) = (   0.1204015   0.1570565   0.2971713  )
        50           H   tau(  50) = (   0.8795645   0.4666745   0.6903055  )
        51           H   tau(  51) = (   0.3795645   0.1570858   0.6903055  )
        52           H   tau(  52) = (   0.6204015   0.4667038   0.2971713  )
        53           C   tau(  53) = (   0.0040885   0.0533295   0.1842881  )
        54           C   tau(  54) = (   0.9959107   0.5704100   0.5774723  )
        55           C   tau(  55) = (   0.4959107   0.0533503   0.5774723  )
        56           C   tau(  56) = (   0.5040885   0.5704309   0.1842881  )
        57           H   tau(  57) = (   0.9556999   0.0224920   0.2642651  )
        58           H   tau(  58) = (   0.0442772   0.6012317   0.6574699  )
        59           H   tau(  59) = (   0.5442772   0.0225286   0.6574699  )
        60           H   tau(  60) = (   0.4556999   0.6012683   0.2642651  )
        61           C   tau(  61) = (   0.9353160   0.1625702   0.1333580  )
        62           C   tau(  62) = (   0.0646850   0.4611735   0.5265345  )
        63           C   tau(  63) = (   0.5646850   0.1625869   0.5265345  )
        64           C   tau(  64) = (   0.4353160   0.4611901   0.1333580  )
        65           H   tau(  65) = (   0.9233577   0.2262267   0.2079110  )
        66           H   tau(  66) = (   0.0766300   0.3974975   0.6010724  )
        67           H   tau(  67) = (   0.5766300   0.2262628   0.6010724  )
        68           H   tau(  68) = (   0.4233577   0.3975337   0.2079110  )
        69           H   tau(  69) = (   0.8281379   0.0807973   0.0171623  )
        70           H   tau(  70) = (   0.1718695   0.5429458   0.4103495  )
        71           H   tau(  71) = (   0.6718695   0.0808145   0.4103495  )
        72           H   tau(  72) = (   0.3281379   0.5429630   0.0171623  )
        73           H   tau(  73) = (   0.9464736   0.5270083   0.1173533  )
        74           H   tau(  74) = (   0.0535473   0.0967422   0.5105621  )
        75           H   tau(  75) = (   0.5535473   0.5270182   0.5105621  )
        76           H   tau(  76) = (   0.4464736   0.0967520   0.1173533  )
        77           H   tau(  77) = (   0.2547967   0.3651043   0.0025693  )
        78           H   tau(  78) = (   0.7451994   0.2586856   0.3956837  )
        79           H   tau(  79) = (   0.2451994   0.3650748   0.3956837  )
        80           H   tau(  80) = (   0.7547967   0.2586561   0.0025693  )
        81           H   tau(  81) = (   0.2267663   0.5672984   0.2074736  )
        82           H   tau(  82) = (   0.7732249   0.0564533   0.6006217  )
        83           H   tau(  83) = (   0.2732249   0.5673071   0.6006217  )
        84           H   tau(  84) = (   0.7267663   0.0564620   0.2074736  )
        85           H   tau(  85) = (   0.3151383   0.2279801   0.2322382  )
        86           H   tau(  86) = (   0.6848801   0.3957662   0.6254037  )
        87           H   tau(  87) = (   0.1848801   0.2279941   0.6254037  )
        88           H   tau(  88) = (   0.8151383   0.3957802   0.2322382  )

     number of k points=     8
                       cart. coord. in units 2pi/alat
        k(    1) = (   0.0000000   0.0000000   0.0000000), wk =   0.1666667
        k(    2) = (   0.0000000   0.0000000  -0.6358751), wk =   0.1666667
        k(    3) = (   0.0000000   0.5343933   0.0000000), wk =   0.3333333
        k(    4) = (   0.0000000   0.5343933  -0.6358751), wk =   0.3333333
        k(    5) = (  -0.5000000   0.0000000   0.0000000), wk =   0.1666667
        k(    6) = (  -0.5000000   0.0000000  -0.6358751), wk =   0.1666667
        k(    7) = (  -0.5000000   0.5343933   0.0000000), wk =   0.3333333
        k(    8) = (  -0.5000000   0.5343933  -0.6358751), wk =   0.3333333

     Dense  grid:   625385 G-vectors     FFT dimensions: ( 135,  90, 108)

     Estimated max dynamical RAM per process >     556.43MB

     Estimated total allocated dynamical RAM >    4451.45MB

     Check: negative/imaginary core charge=   -0.000003    0.000000

     Initial potential from superposition of free atoms

     starting charge  279.99859, renormalised to  280.00000
     Starting wfc are  232 randomized atomic wfcs
     Checking if some PAW data can be deallocated... 

     total cpu time spent up to now is       28.5 secs

     per-process dynamical memory:   375.9 Mb

     Self-consistent Calculation

     iteration #  1     ecut=   100.00 Ry     beta=0.50
     Davidson diagonalization with overlap
     ethr =  1.00E-02,  avg # of iterations =  3.8

     total cpu time spent up to now is      118.6 secs

     total energy              =   -1488.78872770 Ry
     Harris-Foulkes estimate   =   -1492.43435919 Ry
     estimated scf accuracy    <       7.15536804 Ry

     iteration #  2     ecut=   100.00 Ry     beta=0.50
     Davidson diagonalization with overlap
     ethr =  2.56E-03,  avg # of iterations =  2.0

     total cpu time spent up to now is      174.3 secs

     total energy              =   -1489.86172892 Ry
     Harris-Foulkes estimate   =   -1490.30655534 Ry
     estimated scf accuracy    <       1.03390855 Ry

     iteration #  3     ecut=   100.00 Ry     beta=0.50
     Davidson diagonalization with overlap
     ethr =  3.69E-04,  avg # of iterations =  7.5

     total cpu time spent up to now is      250.6 secs

     total energy              =   -1490.06000659 Ry
     Harris-Foulkes estimate   =   -1490.15545949 Ry
     estimated scf accuracy    <       0.25954042 Ry

     iteration #  4     ecut=   100.00 Ry     beta=0.50
     Davidson diagonalization with overlap
     ethr =  9.27E-05,  avg # of iterations =  3.1

     total cpu time spent up to now is      299.7 secs

     total energy              =   -1490.08963434 Ry
     Harris-Foulkes estimate   =   -1490.10270389 Ry
     estimated scf accuracy    <       0.04145277 Ry

     iteration #  5     ecut=   100.00 Ry     beta=0.50
     Davidson diagonalization with overlap
     ethr =  1.48E-05,  avg # of iterations =  7.0

     total cpu time spent up to now is      395.1 secs

     total energy              =   -1490.10179767 Ry
     Harris-Foulkes estimate   =   -1490.10612582 Ry
     estimated scf accuracy    <       0.01125059 Ry

     iteration #  6     ecut=   100.00 Ry     beta=0.50
     Davidson diagonalization with overlap
     ethr =  4.02E-06,  avg # of iterations =  2.0

     total cpu time spent up to now is      441.2 secs

     total energy              =   -1490.10182980 Ry
     Harris-Foulkes estimate   =   -1490.10288582 Ry
     estimated scf accuracy    <       0.00186629 Ry

     iteration #  7     ecut=   100.00 Ry     beta=0.50
     Davidson diagonalization with overlap
     ethr =  6.67E-07,  avg # of iterations =  4.5

     total cpu time spent up to now is      536.8 secs

     total energy              =   -1490.10312277 Ry
     Harris-Foulkes estimate   =   -1490.10382972 Ry
     estimated scf accuracy    <       0.00192571 Ry

     iteration #  8     ecut=   100.00 Ry     beta=0.50
     Davidson diagonalization with overlap
     ethr =  6.67E-07,  avg # of iterations =  1.0

     total cpu time spent up to now is      580.3 secs

     total energy              =   -1490.10291415 Ry
     Harris-Foulkes estimate   =   -1490.10321617 Ry
     estimated scf accuracy    <       0.00055365 Ry

     iteration #  9     ecut=   100.00 Ry     beta=0.50
     Davidson diagonalization with overlap
     ethr =  1.98E-07,  avg # of iterations =  3.4

     total cpu time spent up to now is      659.1 secs

     total energy              =   -1490.10328891 Ry
     Harris-Foulkes estimate   =   -1490.10334538 Ry
     estimated scf accuracy    <       0.00024539 Ry

     iteration # 10     ecut=   100.00 Ry     beta=0.50
     Davidson diagonalization with overlap
     ethr =  8.76E-08,  avg # of iterations =  1.0

     total cpu time spent up to now is      702.5 secs

     total energy              =   -1490.10323297 Ry
     Harris-Foulkes estimate   =   -1490.10329394 Ry
     estimated scf accuracy    <       0.00013203 Ry

     iteration # 11     ecut=   100.00 Ry     beta=0.50
     Davidson diagonalization with overlap
     ethr =  4.72E-08,  avg # of iterations =  3.0

     total cpu time spent up to now is      774.9 secs

     total energy              =   -1490.10327400 Ry
     Harris-Foulkes estimate   =   -1490.10327515 Ry
     estimated scf accuracy    <       0.00000436 Ry

     iteration # 12     ecut=   100.00 Ry     beta=0.50
     Davidson diagonalization with overlap
     ethr =  1.56E-09,  avg # of iterations =  2.9

     total cpu time spent up to now is      825.5 secs

     total energy              =   -1490.10327332 Ry
     Harris-Foulkes estimate   =   -1490.10327459 Ry
     estimated scf accuracy    <       0.00000244 Ry

     iteration # 13     ecut=   100.00 Ry     beta=0.50
     Davidson diagonalization with overlap
     ethr =  8.72E-10,  avg # of iterations =  4.0

     total cpu time spent up to now is      894.7 secs

     total energy              =   -1490.10327407 Ry
     Harris-Foulkes estimate   =   -1490.10327412 Ry
     estimated scf accuracy    <       0.00000019 Ry

     iteration # 14     ecut=   100.00 Ry     beta=0.50
     Davidson diagonalization with overlap
     ethr =  6.92E-11,  avg # of iterations =  2.8

     total cpu time spent up to now is      943.8 secs

     total energy              =   -1490.10327404 Ry
     Harris-Foulkes estimate   =   -1490.10327409 Ry
     estimated scf accuracy    <       0.00000011 Ry

     iteration # 15     ecut=   100.00 Ry     beta=0.50
     Davidson diagonalization with overlap
     ethr =  3.84E-11,  avg # of iterations =  3.6

     total cpu time spent up to now is     1011.0 secs

     End of self-consistent calculation

          k = 0.0000 0.0000 0.0000 ( 78131 PWs)   bands (ev):

   -19.4555 -19.3412 -19.2748 -19.2567 -18.9484 -18.7045 -18.6936 -18.6508
   -18.5898 -18.5386 -18.4471 -18.3808 -18.2759 -18.2467 -18.1777 -18.0943
   -18.0817 -17.9828 -17.9626 -17.7547 -17.6881 -17.6549 -17.5865 -17.4508
   -12.8173 -12.8021 -12.7490 -12.7032 -10.7153 -10.6936 -10.6568 -10.6424
   -10.4329 -10.3318 -10.2116 -10.1881  -8.4041  -8.3102  -8.2276  -8.0363
    -7.7301  -7.6562  -7.6131  -7.4776  -6.8296  -6.7673  -6.7646  -6.7601
    -6.2759  -6.2356  -6.1754  -5.9717  -5.9094  -5.6813  -5.6710  -5.4693
    -5.4553  -5.2325  -5.1598  -5.0721  -5.0023  -4.8996  -4.8554  -4.7428
    -4.7117  -4.7108  -4.5248  -4.3325  -4.3182  -4.2935  -4.1622  -4.1573
    -4.0954  -4.0322  -3.9960  -3.9597  -3.8055  -3.6702  -3.5981  -3.4581
    -3.2719  -3.1743  -3.1445  -3.1102  -3.0566  -3.0134  -2.9503  -2.7501
    -2.5101  -2.4961  -2.3278  -2.2406  -2.1644  -2.1625  -2.1347  -1.9128
    -1.8625  -1.7605  -1.7336  -1.7024  -1.4796  -1.4445  -1.4291  -1.2857
    -1.2369  -1.1520  -1.1412  -1.0150  -0.8737  -0.8734  -0.7023  -0.4655
    -0.3365  -0.2809  -0.1979  -0.1519  -0.1029  -0.0277   0.0355   0.0503
     0.2495   0.2589   0.3801   0.4618   0.4855   0.5834   0.5861   0.8788
     0.9361   0.9512   1.0121   1.1040   1.1659   1.2361   1.3716   1.3938
     1.4446   1.5805   1.6230   1.6471   5.2588   5.3436   5.5036   5.5078
     7.0827   7.7690   8.0040   8.0920   8.3714   8.4188   8.8890   8.9105
     9.0236   9.0410   9.2570   9.5559   9.6598   9.6883   9.9253  10.0040
    10.0749  10.1558  10.2788  10.3830  10.3930  10.5250  10.5281  10.7295

          k = 0.0000 0.0000-0.6359 ( 78124 PWs)   bands (ev):

   -19.4012 -19.3999 -19.2662 -19.2643 -18.8538 -18.8533 -18.6841 -18.6834
   -18.5269 -18.5263 -18.4384 -18.4381 -18.2112 -18.2108 -18.1671 -18.1668
   -18.0419 -18.0417 -17.8452 -17.8448 -17.6724 -17.6722 -17.5145 -17.5144
   -12.8111 -12.8104 -12.7266 -12.7259 -10.7076 -10.7070 -10.6489 -10.6481
   -10.3255 -10.3248 -10.2583 -10.2577  -8.3536  -8.3528  -8.1251  -8.1244
    -7.6772  -7.6770  -7.5736  -7.5733  -6.8028  -6.8026  -6.7682  -6.7680
    -6.2346  -6.2342  -6.1455  -6.1451  -5.6391  -5.6389  -5.6271  -5.6269
    -5.4338  -5.4335  -5.1307  -5.1303  -4.9138  -4.9138  -4.8345  -4.8342
    -4.6538  -4.6534  -4.4707  -4.4702  -4.3101  -4.3098  -4.1589  -4.1586
    -4.0786  -4.0783  -3.9253  -3.9250  -3.5743  -3.5741  -3.5708  -3.5706
    -3.3272  -3.3269  -3.2101  -3.2100  -2.9403  -2.9401  -2.8931  -2.8929
    -2.4271  -2.4269  -2.3802  -2.3801  -2.0898  -2.0891  -1.9803  -1.9801
    -1.8239  -1.8237  -1.7841  -1.7837  -1.4994  -1.4989  -1.3348  -1.3346
    -1.1904  -1.1900  -1.0591  -1.0587  -0.8517  -0.8516  -0.5501  -0.5496
    -0.3073  -0.3072  -0.3030  -0.3026  -0.0063  -0.0059   0.0888   0.0890
     0.3012   0.3019   0.4167   0.4173   0.5077   0.5078   0.6560   0.6561
     0.9768   0.9772   1.0294   1.0296   1.2598   1.2600   1.2947   1.2948
     1.5326   1.5331   1.6624   1.6631   5.3467   5.3482   5.4037   5.4052
     7.4042   7.4046   7.9298   7.9301   8.4401   8.4403   8.9611   8.9613
     9.0152   9.0155   9.6372   9.6381   9.9233   9.9234   9.9811   9.9815
    10.1808  10.1812  10.2798  10.2801  10.5367  10.5372  10.6991  10.6993

          k = 0.0000 0.5344 0.0000 ( 78208 PWs)   bands (ev):

   -19.4155 -19.3412 -19.2938 -19.2699 -18.8823 -18.7157 -18.7094 -18.6755
   -18.6429 -18.5450 -18.4927 -18.3692 -18.3298 -18.2483 -18.1446 -18.0869
   -17.9901 -17.9683 -17.9279 -17.7671 -17.7040 -17.6492 -17.5939 -17.4770
   -12.8413 -12.8072 -12.7305 -12.7175 -10.7036 -10.7001 -10.6569 -10.6150
   -10.3567 -10.3550 -10.2357 -10.1787  -8.3818  -8.2833  -8.2650  -8.1115
    -7.6901  -7.6273  -7.6131  -7.4839  -6.8952  -6.8451  -6.7798  -6.6621
    -6.2408  -6.1818  -6.1713  -5.9500  -5.8310  -5.7274  -5.7201  -5.4817
    -5.4653  -5.2621  -5.2561  -5.1136  -5.0637  -4.7912  -4.7735  -4.7511
    -4.6561  -4.6231  -4.5015  -4.4777  -4.3835  -4.3075  -4.2111  -4.1263
    -4.0929  -4.0654  -3.9707  -3.9066  -3.8860  -3.6412  -3.5869  -3.4213
    -3.3022  -3.3018  -3.1435  -3.0738  -2.9779  -2.9717  -2.8611  -2.8429
    -2.5441  -2.4815  -2.3453  -2.2154  -2.2007  -2.1183  -2.1012  -1.9522
    -1.7719  -1.7478  -1.7250  -1.6504  -1.4953  -1.4607  -1.3682  -1.3598
    -1.2707  -1.2438  -1.1574  -0.9513  -0.8654  -0.7346  -0.7231  -0.4837
    -0.4785  -0.3849  -0.2894  -0.2457  -0.0765   0.0098   0.0773   0.1365
     0.2363   0.3487   0.3741   0.4208   0.4212   0.5519   0.6038   0.8228
     0.9171   1.0443   1.1210   1.1215   1.1787   1.2363   1.3258   1.3738
     1.4553   1.5423   1.6259   1.7021   5.2900   5.3774   5.4810   5.4998
     7.3454   7.9125   7.9967   8.1498   8.4632   8.5105   8.6157   8.8198
     8.9937   9.0077   9.1734   9.1838   9.4666   9.6959   9.8319   9.9312
     9.9829  10.0569  10.2889  10.4438  10.4669  10.5276  10.5318  10.7003

          k = 0.0000 0.5344-0.6359 ( 78180 PWs)   bands (ev):

   -19.3780 -19.3767 -19.2832 -19.2815 -18.7991 -18.7986 -18.6875 -18.6870
   -18.6467 -18.6462 -18.4112 -18.4105 -18.2807 -18.2803 -18.0676 -18.0674
   -18.0060 -18.0056 -17.8589 -17.8585 -17.6727 -17.6725 -17.5320 -17.5319
   -12.8019 -12.8012 -12.7474 -12.7467 -10.6888 -10.6882 -10.6544 -10.6536
   -10.3217 -10.3211 -10.2415 -10.2409  -8.3214  -8.3207  -8.1965  -8.1958
    -7.6331  -7.6329  -7.5787  -7.5784  -6.8720  -6.8718  -6.7324  -6.7322
    -6.2306  -6.2300  -6.0797  -6.0793  -5.6693  -5.6692  -5.5818  -5.5818
    -5.4328  -5.4326  -5.2086  -5.2082  -4.9704  -4.9703  -4.8134  -4.8132
    -4.5670  -4.5667  -4.3947  -4.3943  -4.3516  -4.3512  -4.2084  -4.2081
    -4.1244  -4.1241  -3.9019  -3.9017  -3.6959  -3.6956  -3.5087  -3.5084
    -3.3114  -3.3110  -3.1792  -3.1789  -2.9465  -2.9462  -2.8718  -2.8717
    -2.4401  -2.4399  -2.4151  -2.4151  -2.1305  -2.1300  -2.0222  -2.0220
    -1.8612  -1.8609  -1.7090  -1.7089  -1.5333  -1.5328  -1.3902  -1.3900
    -1.1085  -1.1084  -0.9574  -0.9572  -0.8029  -0.8027  -0.5956  -0.5951
    -0.3762  -0.3760  -0.2178  -0.2175  -0.0190  -0.0190   0.1059   0.1060
     0.2746   0.2753   0.3479   0.3485   0.5491   0.5492   0.6219   0.6219
     0.9781   0.9784   1.0769   1.0773   1.2674   1.2676   1.3151   1.3152
     1.5253   1.5258   1.6179   1.6185   5.3551   5.3566   5.4245   5.4260
     7.5460   7.5464   8.1063   8.1067   8.2944   8.2945   8.7048   8.7049
     9.1582   9.1583   9.4224   9.4227   9.6327   9.6332   9.8963   9.8966
    10.1970  10.1973  10.3619  10.3619  10.5865  10.5866  10.7394  10.7397

          k =-0.5000 0.0000 0.0000 ( 78140 PWs)   bands (ev):

   -19.3848 -19.3848 -19.3013 -19.3013 -18.8047 -18.8046 -18.6598 -18.6598
   -18.5803 -18.5803 -18.4225 -18.4225 -18.2633 -18.2633 -18.1007 -18.1007
   -18.0560 -18.0560 -17.8938 -17.8938 -17.6350 -17.6350 -17.5170 -17.5170
   -12.7860 -12.7860 -12.7510 -12.7510 -10.6915 -10.6915 -10.6601 -10.6601
   -10.3875 -10.3875 -10.1973 -10.1973  -8.3153  -8.3153  -8.1889  -8.1889
    -7.6839  -7.6839  -7.5407  -7.5407  -6.8269  -6.8269  -6.7406  -6.7406
    -6.2707  -6.2707  -6.0340  -6.0340  -5.8462  -5.8461  -5.5720  -5.5720
    -5.3375  -5.3375  -5.1297  -5.1297  -4.9363  -4.9363  -4.8287  -4.8287
    -4.5759  -4.5759  -4.4886  -4.4886  -4.2557  -4.2557  -4.2254  -4.2254
    -4.0556  -4.0556  -3.9768  -3.9768  -3.8093  -3.8093  -3.4434  -3.4434
    -3.2373  -3.2373  -3.1378  -3.1378  -3.0534  -3.0534  -2.7903  -2.7903
    -2.4956  -2.4956  -2.3240  -2.3240  -2.2332  -2.2332  -1.9663  -1.9663
    -1.8316  -1.8316  -1.7098  -1.7098  -1.4942  -1.4942  -1.3222  -1.3222
    -1.1842  -1.1842  -1.1558  -1.1558  -0.8106  -0.8106  -0.5800  -0.5800
    -0.2929  -0.2929  -0.1713  -0.1713  -0.0529  -0.0529   0.0616   0.0616
     0.2061   0.2061   0.3981   0.3981   0.5263   0.5263   0.8060   0.8060
     0.9336   0.9336   1.0192   1.0192   1.2055   1.2055   1.4016   1.4016
     1.5192   1.5192   1.6240   1.6240   5.3038   5.3038   5.5070   5.5070
     7.3032   7.3032   8.1996   8.1996   8.4188   8.4188   8.8085   8.8085
     8.9978   8.9978   9.4642   9.4642   9.6857   9.6857   9.9933   9.9933
    10.2119  10.2119  10.3003  10.3003  10.3721  10.3721  10.5043  10.5043

          k =-0.5000 0.0000-0.6359 ( 78084 PWs)   bands (ev):

   -19.3437 -19.3436 -19.3422 -19.3422 -18.7567 -18.7567 -18.7566 -18.7566
   -18.4916 -18.4916 -18.4914 -18.4914 -18.1832 -18.1832 -18.1829 -18.1829
   -17.9621 -17.9621 -17.9618 -17.9618 -17.5737 -17.5737 -17.5736 -17.5736
   -12.7694 -12.7694 -12.7688 -12.7688 -10.6776 -10.6776 -10.6769 -10.6769
   -10.2927 -10.2927 -10.2921 -10.2921  -8.2466  -8.2466  -8.2459  -8.2459
    -7.6171  -7.6171  -7.6168  -7.6168  -6.7914  -6.7914  -6.7911  -6.7911
    -6.1788  -6.1788  -6.1784  -6.1784  -5.6767  -5.6767  -5.6764  -5.6764
    -5.2595  -5.2595  -5.2592  -5.2592  -4.8853  -4.8853  -4.8852  -4.8852
    -4.5161  -4.5161  -4.5157  -4.5157  -4.2304  -4.2304  -4.2301  -4.2301
    -4.0266  -4.0266  -4.0263  -4.0262  -3.6131  -3.6131  -3.6128  -3.6128
    -3.2017  -3.2017  -3.2015  -3.2015  -2.9220  -2.9219  -2.9217  -2.9217
    -2.4113  -2.4113  -2.4111  -2.4111  -2.0816  -2.0816  -2.0811  -2.0811
    -1.8009  -1.8009  -1.8006  -1.8006  -1.4196  -1.4196  -1.4194  -1.4194
    -1.1074  -1.1074  -1.1069  -1.1069  -0.6960  -0.6960  -0.6958  -0.6958
    -0.2909  -0.2909  -0.2906  -0.2906   0.0447   0.0447   0.0449   0.0449
     0.3462   0.3462   0.3468   0.3468   0.5772   0.5772   0.5773   0.5773
     1.0154   1.0154   1.0158   1.0158   1.2756   1.2756   1.2758   1.2758
     1.5976   1.5976   1.5982   1.5982   5.3769   5.3769   5.3784   5.3784
     7.5959   7.5959   7.5961   7.5962   8.7290   8.7290   8.7293   8.7293
     9.4482   9.4482   9.4486   9.4486   9.7803   9.7803   9.7807   9.7807
    10.1791  10.1791  10.1793  10.1794  10.5887  10.5887  10.5893  10.5893

          k =-0.5000 0.5344 0.0000 ( 78196 PWs)   bands (ev):

   -19.3589 -19.3589 -19.3125 -19.3125 -18.7971 -18.7971 -18.6730 -18.6730
   -18.5942 -18.5942 -18.4883 -18.4883 -18.2201 -18.2200 -18.0915 -18.0915
   -18.0354 -18.0354 -17.8733 -17.8733 -17.6395 -17.6395 -17.5364 -17.5364
   -12.8186 -12.8185 -12.7298 -12.7298 -10.7021 -10.7021 -10.6424 -10.6424
   -10.3410 -10.3409 -10.2153 -10.2152  -8.3278  -8.3278  -8.2024  -8.2024
    -7.6693  -7.6693  -7.5274  -7.5274  -6.8534  -6.8534  -6.7431  -6.7431
    -6.2348  -6.2348  -6.0411  -6.0411  -5.8358  -5.8358  -5.5560  -5.5560
    -5.3325  -5.3325  -5.1674  -5.1674  -4.9253  -4.9253  -4.8790  -4.8790
    -4.6451  -4.6451  -4.4272  -4.4272  -4.3170  -4.3170  -4.2224  -4.2224
    -4.0393  -4.0393  -3.9412  -3.9411  -3.7526  -3.7526  -3.4883  -3.4883
    -3.2901  -3.2901  -3.0856  -3.0856  -2.9929  -2.9929  -2.8262  -2.8262
    -2.5364  -2.5364  -2.3197  -2.3197  -2.1174  -2.1173  -2.0416  -2.0416
    -1.8362  -1.8362  -1.6899  -1.6899  -1.4342  -1.4342  -1.3561  -1.3561
    -1.2860  -1.2860  -1.0999  -1.0999  -0.7618  -0.7618  -0.5830  -0.5830
    -0.3781  -0.3781  -0.2873  -0.2872  -0.0067  -0.0067   0.0918   0.0918
     0.2333   0.2333   0.3944   0.3944   0.5030   0.5030   0.8006   0.8006
     0.9057   0.9057   1.0983   1.0983   1.2154   1.2154   1.3723   1.3723
     1.5100   1.5100   1.6609   1.6609   5.3344   5.3344   5.4884   5.4884
     7.5237   7.5237   8.1711   8.1711   8.5475   8.5475   8.6509   8.6510
     8.9789   8.9789   9.2120   9.2120   9.6622   9.6622   9.7689   9.7689
    10.1390  10.1390  10.3265  10.3265  10.4023  10.4023  10.6133  10.6134

          k =-0.5000 0.5344-0.6359 ( 78160 PWs)   bands (ev):

   -19.3351 -19.3351 -19.3332 -19.3332 -18.7533 -18.7533 -18.7493 -18.7493
   -18.5463 -18.5463 -18.5354 -18.5354 -18.1556 -18.1556 -18.1428 -18.1428
   -17.9562 -17.9562 -17.9425 -17.9425 -17.5889 -17.5889 -17.5818 -17.5818
   -12.7758 -12.7758 -12.7729 -12.7729 -10.6772 -10.6772 -10.6709 -10.6709
   -10.2815 -10.2815 -10.2752 -10.2752  -8.2687  -8.2687  -8.2563  -8.2563
    -7.6100  -7.6100  -7.5909  -7.5909  -6.8125  -6.8125  -6.8043  -6.8043
    -6.1836  -6.1836  -6.1369  -6.1369  -5.6467  -5.6467  -5.6327  -5.6327
    -5.2810  -5.2810  -5.2416  -5.2416  -4.9681  -4.9681  -4.9565  -4.9565
    -4.5201  -4.5201  -4.4658  -4.4658  -4.2493  -4.2493  -4.2444  -4.2444
    -4.0295  -4.0295  -3.9839  -3.9839  -3.6126  -3.6126  -3.5935  -3.5935
    -3.2179  -3.2179  -3.2153  -3.2153  -2.9367  -2.9367  -2.8944  -2.8944
    -2.4290  -2.4289  -2.4079  -2.4079  -2.0951  -2.0951  -2.0600  -2.0600
    -1.8528  -1.8528  -1.8365  -1.8365  -1.4585  -1.4585  -1.4445  -1.4445
    -1.0953  -1.0953  -0.9740  -0.9740  -0.6814  -0.6814  -0.6776  -0.6776
    -0.3350  -0.3350  -0.2192  -0.2192   0.0069   0.0069   0.0565   0.0565
     0.3268   0.3268   0.3280   0.3280   0.5614   0.5614   0.5957   0.5957
     0.9662   0.9662   1.0365   1.0365   1.2996   1.2996   1.3288   1.3288
     1.5659   1.5659   1.5758   1.5758   5.3827   5.3827   5.3965   5.3965
     7.6735   7.6735   7.8501   7.8501   8.4657   8.4657   8.5693   8.5693
     9.3260   9.3260   9.3887   9.3887   9.7686   9.7686   9.8422   9.8422
    10.1925  10.1925  10.2447  10.2447  10.5021  10.5021  10.5390  10.5390

     highest occupied, lowest unoccupied level (ev):     1.7021    5.2588

!    total energy              =   -1490.10327407 Ry
     Harris-Foulkes estimate   =   -1490.10327407 Ry
     estimated scf accuracy    <          4.6E-09 Ry

     total all-electron energy =     -5488.766953 Ry

     The total energy is the sum of the following terms:

     one-electron contribution =    -635.28148577 Ry
     hartree contribution      =     442.82639668 Ry
     xc contribution           =    -306.68602325 Ry
     ewald contribution        =    -602.66967201 Ry
     Dispersion Correction     =      -0.45899445 Ry
     one-center paw contrib.   =    -387.83349527 Ry

     convergence has been achieved in  15 iterations

     Forces acting on atoms (cartesian axes, Ry/au):

     atom    1 type  4   force =     0.00102215   -0.00025654    0.00081223
     atom    2 type  4   force =    -0.00125046    0.00036760    0.00135748
     atom    3 type  4   force =    -0.00125279   -0.00036784    0.00135863
     atom    4 type  4   force =     0.00102472    0.00025708    0.00081429
     atom    5 type  4   force =     0.00000233    0.00027131    0.00131658
     atom    6 type  4   force =     0.00002638   -0.00024628    0.00133496
     atom    7 type  4   force =     0.00002525    0.00024624    0.00133432
     atom    8 type  4   force =     0.00000385   -0.00027175    0.00131629
     atom    9 type  4   force =    -0.00025740    0.00040671   -0.00028339
     atom   10 type  4   force =     0.00026957   -0.00039902   -0.00029658
     atom   11 type  4   force =     0.00027060    0.00039859   -0.00029798
     atom   12 type  4   force =    -0.00025824   -0.00040561   -0.00028419
     atom   13 type  4   force =    -0.00005827    0.00041743   -0.00063909
     atom   14 type  4   force =     0.00005819   -0.00041105   -0.00063676
     atom   15 type  4   force =     0.00005698    0.00041051   -0.00063626
     atom   16 type  4   force =    -0.00005728   -0.00041702   -0.00063898
     atom   17 type  4   force =     0.00012167    0.00054191   -0.00111021
     atom   18 type  4   force =    -0.00011070   -0.00054465   -0.00108969
     atom   19 type  4   force =    -0.00011027    0.00054455   -0.00108920
     atom   20 type  4   force =     0.00012125   -0.00054153   -0.00110976
     atom   21 type  4   force =    -0.00108644   -0.00025268   -0.00036601
     atom   22 type  4   force =     0.00106238    0.00023786   -0.00034783
     atom   23 type  4   force =     0.00106260   -0.00023903   -0.00034915
     atom   24 type  4   force =    -0.00108789    0.00025325   -0.00036680
     atom   25 type  1   force =    -0.00086169    0.00032264   -0.00087399
     atom   26 type  1   force =     0.00112855   -0.00044588   -0.00145054
     atom   27 type  1   force =     0.00111151    0.00044507   -0.00144977
     atom   28 type  1   force =    -0.00084487   -0.00032199   -0.00087372
     atom   29 type  1   force =     0.00084030   -0.00018899    0.00116537
     atom   30 type  1   force =    -0.00086077    0.00016754    0.00126002
     atom   31 type  1   force =    -0.00086033   -0.00016719    0.00126019
     atom   32 type  1   force =     0.00084118    0.00018846    0.00116605
     atom   33 type  3   force =     0.00004416   -0.00026487   -0.00015140
     atom   34 type  3   force =    -0.00005218    0.00025271   -0.00013437
     atom   35 type  3   force =    -0.00005188   -0.00025219   -0.00013383
     atom   36 type  3   force =     0.00004412    0.00026471   -0.00015133
     atom   37 type  1   force =     0.00016437   -0.00078289   -0.00138458
     atom   38 type  1   force =    -0.00017412    0.00078440   -0.00140355
     atom   39 type  1   force =    -0.00016417   -0.00078378   -0.00140169
     atom   40 type  1   force =     0.00015436    0.00078186   -0.00138310
     atom   41 type  3   force =     0.00055058   -0.00030313    0.00043926
     atom   42 type  3   force =    -0.00054701    0.00030461    0.00043753
     atom   43 type  3   force =    -0.00054717   -0.00030459    0.00043764
     atom   44 type  3   force =     0.00055072    0.00030302    0.00043937
     atom   45 type  1   force =    -0.00032776   -0.00066473    0.00026103
     atom   46 type  1   force =     0.00032900    0.00065798    0.00032918
     atom   47 type  1   force =     0.00031022   -0.00065813    0.00032882
     atom   48 type  1   force =    -0.00030874    0.00066476    0.00026075
     atom   49 type  3   force =    -0.00028685    0.00055846    0.00054114
     atom   50 type  3   force =     0.00029012   -0.00055537    0.00054886
     atom   51 type  3   force =     0.00028979    0.00055528    0.00054874
     atom   52 type  3   force =    -0.00028645   -0.00055842    0.00054100
     atom   53 type  1   force =     0.00109149    0.00007898   -0.00036349
     atom   54 type  1   force =    -0.00109826   -0.00005706   -0.00041860
     atom   55 type  1   force =    -0.00109845    0.00005685   -0.00041785
     atom   56 type  1   force =     0.00109137   -0.00007930   -0.00036319
     atom   57 type  3   force =     0.00000846    0.00003295    0.00031446
     atom   58 type  3   force =    -0.00001074   -0.00003765    0.00029523
     atom   59 type  3   force =    -0.00001051    0.00003781    0.00029513
     atom   60 type  3   force =     0.00000817   -0.00003298    0.00031458
     atom   61 type  1   force =    -0.00015861   -0.00008765    0.00065600
     atom   62 type  1   force =     0.00015896    0.00009169    0.00060237
     atom   63 type  1   force =     0.00019182   -0.00009063    0.00060228
     atom   64 type  1   force =    -0.00019181    0.00008715    0.00065676
     atom   65 type  3   force =     0.00048169    0.00011754   -0.00081599
     atom   66 type  3   force =    -0.00047356   -0.00010893   -0.00080707
     atom   67 type  3   force =    -0.00047337    0.00010947   -0.00080657
     atom   68 type  3   force =     0.00048146   -0.00011744   -0.00081614
     atom   69 type  3   force =    -0.00017961    0.00026066    0.00066880
     atom   70 type  3   force =     0.00017611   -0.00025775    0.00065810
     atom   71 type  3   force =     0.00017662    0.00025767    0.00065813
     atom   72 type  3   force =    -0.00018005   -0.00026074    0.00066891
     atom   73 type  3   force =    -0.00044013    0.00018243   -0.00013188
     atom   74 type  3   force =     0.00043140   -0.00018875   -0.00013967
     atom   75 type  3   force =     0.00043169    0.00018863   -0.00013958
     atom   76 type  3   force =    -0.00044019   -0.00018235   -0.00013184
     atom   77 type  3   force =    -0.00021048    0.00019014    0.00035203
     atom   78 type  3   force =     0.00018825   -0.00020171    0.00035376
     atom   79 type  3   force =     0.00018809    0.00020163    0.00035363
     atom   80 type  3   force =    -0.00021049   -0.00019007    0.00035205
     atom   81 type  3   force =    -0.00121775    0.00040913   -0.00011842
     atom   82 type  3   force =     0.00121839   -0.00041404   -0.00011340
     atom   83 type  3   force =     0.00121837    0.00041394   -0.00011331
     atom   84 type  3   force =    -0.00121768   -0.00040900   -0.00011841
     atom   85 type  3   force =    -0.00015641    0.00042747   -0.00032361
     atom   86 type  3   force =     0.00015445   -0.00044028   -0.00030795
     atom   87 type  3   force =     0.00015466    0.00044037   -0.00030780
     atom   88 type  3   force =    -0.00015653   -0.00042754   -0.00032347

     Total force =     0.009669     Total SCF correction =     0.000185


     Computing stress (Cartesian axis) and pressure

          total   stress  (Ry/bohr**3)                   (kbar)     P=  -12.31
  -0.00007625   0.00000000   0.00000015        -11.22      0.00      0.02
   0.00000000  -0.00007627   0.00000000          0.00    -11.22      0.00
   0.00000015   0.00000000  -0.00009845          0.02      0.00    -14.48


     Writing output data file scf.save
 
     init_run     :     26.80s CPU     27.84s WALL (       1 calls)
     electrons    :    946.60s CPU    982.64s WALL (       1 calls)
     forces       :     13.08s CPU     13.18s WALL (       1 calls)
     stress       :     50.32s CPU     50.47s WALL (       1 calls)

     Called by init_run:
     wfcinit      :     22.51s CPU     23.44s WALL (       1 calls)
     potinit      :      1.58s CPU      1.60s WALL (       1 calls)

     Called by electrons:
     c_bands      :    850.27s CPU    881.67s WALL (      15 calls)
     sum_band     :     86.42s CPU     90.26s WALL (      15 calls)
     v_of_rho     :      1.35s CPU      1.50s WALL (      16 calls)
     newd         :      2.65s CPU      3.22s WALL (      16 calls)
     PAW_pot      :      5.37s CPU      5.37s WALL (      16 calls)
     mix_rho      :      0.28s CPU      0.31s WALL (      15 calls)

     Called by c_bands:
     init_us_2    :      4.74s CPU      4.76s WALL (     264 calls)
     cegterg      :    832.72s CPU    864.07s WALL (     120 calls)

     Called by sum_band:
     sum_band:bec :      0.07s CPU      0.07s WALL (     120 calls)
     addusdens    :      2.64s CPU      3.23s WALL (      15 calls)

     Called by *egterg:
     h_psi        :    462.36s CPU    486.46s WALL (     540 calls)
     s_psi        :     91.91s CPU     91.94s WALL (     540 calls)
     g_psi        :      2.30s CPU      2.30s WALL (     412 calls)
     cdiaghg      :     55.03s CPU     55.06s WALL (     532 calls)

     Called by h_psi:
     h_psi:pot    :    459.30s CPU    483.34s WALL (     540 calls)
     h_psi:calbec :     92.06s CPU     92.30s WALL (     540 calls)
     vloc_psi     :    275.18s CPU    298.94s WALL (     540 calls)
     add_vuspsi   :     92.07s CPU     92.10s WALL (     540 calls)

     General routines
     calbec       :    134.53s CPU    134.89s WALL (     700 calls)
     fft          :      0.95s CPU      1.22s WALL (     232 calls)
     fftw         :    298.41s CPU    323.62s WALL (  136726 calls)
 
     Parallel routines
     fft_scatter  :     64.62s CPU     81.80s WALL (  136958 calls)
 
     PWSCF        : 17m24.45s CPU    18m47.04s WALL

 
   This run was terminated on:  12:42:50  13Nov2017            

=------------------------------------------------------------------------------=
   JOB DONE.
=------------------------------------------------------------------------------=
