
     Program PWSCF v.6.1 (svn rev. 13369) starts on  4Nov2017 at  0:59:13 

     This program is part of the open-source Quantum ESPRESSO suite
     for quantum simulation of materials; please cite
         "P. Giannozzi et al., J. Phys.:Condens. Matter 21 395502 (2009);
          URL http://www.quantum-espresso.org", 
     in publications or presentations arising from this work. More details at
     http://www.quantum-espresso.org/quote

     Parallel version (MPI), running on     8 processors
     R & G space division:  proc/nbgrp/npool/nimage =       8
     Waiting for input...
     Reading input from standard input

     Current dimensions of program PWSCF are:
     Max number of different atomic species (ntypx) = 10
     Max number of k-points (npk) =  40000
     Max angular momentum in pseudopotentials (lmaxx) =  3
               file C.pbe-n-kjpaw_psl.0.1.UPF: wavefunction(s)  2P renormalized
               file N.pbe-n-kjpaw_psl.0.1.UPF: wavefunction(s)  2P renormalized
               file H.pbe-kjpaw_psl.0.1.UPF: wavefunction(s)  1S renormalized
               file O.pbe-n-kjpaw_psl.0.1.UPF: wavefunction(s)  2P renormalized

     -------------------------------------
     Parameters for Dispersion Correction:
     -------------------------------------
       atom      VdW radius       C_6     

        C          2.744         60.710
        N          2.640         42.670
        H          1.892          4.857
        O          2.536         24.284

     Subspace diagonalization in iterative solution of the eigenvalue problem:
     a serial algorithm will be used

 
     Parallelization info
     --------------------
     sticks:   dense  smooth     PW     G-vecs:    dense   smooth      PW
     Min         532     532    145                26895    26895    3837
     Max         533     533    146                26897    26897    3838
     Sum        4261    4261   1161               215167   215167   30701
 


     bravais-lattice index     =            0
     lattice parameter (alat)  =      11.9506  a.u.
     unit-cell volume          =    1592.4204 (a.u.)^3
     number of atoms/cell      =           28
     number of atomic types    =            4
     number of electrons       =        94.00
     number of Kohn-Sham states=           56
     kinetic-energy cutoff     =     100.0000  Ry
     charge density cutoff     =     400.0000  Ry
     convergence threshold     =      1.0E-08
     mixing beta               =       0.5000
     number of iterations used =            8  plain     mixing
     Exchange-correlation      =  SLA  PW   PBX  PBC ( 1  4  3  4 0 0)

     celldm(1)=  11.950628  celldm(2)=   0.000000  celldm(3)=   0.000000
     celldm(4)=   0.000000  celldm(5)=   0.000000  celldm(6)=   0.000000

     crystal axes: (cart. coord. in units of alat)
               a(1) = (   1.000000   0.000000   0.000000 )  
               a(2) = (  -0.405230   0.936656   0.000000 )  
               a(3) = (  -0.107128  -0.493267   0.996106 )  

     reciprocal axes: (cart. coord. in units 2 pi/alat)
               b(1) = (  1.000000  0.432635  0.321785 )  
               b(2) = (  0.000000  1.067628  0.528684 )  
               b(3) = (  0.000000  0.000000  1.003909 )  


     PseudoPot. # 1 for  C read from file:
     /scratch/ahofstet/pseudo/C.pbe-n-kjpaw_psl.0.1.UPF
     MD5 check sum: 430fe95172b1e11ef3f8ed03bac87931
     Pseudo is Projector augmented-wave + core cor, Zval =  4.0
     Generated using "atomic" code by A. Dal Corso  v.5.0.99 svn rev. 10869
     Shape of augmentation charge: BESSEL
     Using radial grid of 1073 points,  4 beta functions with: 
                l(1) =   0
                l(2) =   0
                l(3) =   1
                l(4) =   1
     Q(r) pseudized with 0 coefficients 


     PseudoPot. # 2 for  N read from file:
     /scratch/ahofstet/pseudo/N.pbe-n-kjpaw_psl.0.1.UPF
     MD5 check sum: f73187c8b701007e77325f868c9291d7
     Pseudo is Projector augmented-wave + core cor, Zval =  5.0
     Generated using "atomic" code by A. Dal Corso  v.5.0.99 svn rev. 10869
     Shape of augmentation charge: PSQ
     Using radial grid of 1085 points,  4 beta functions with: 
                l(1) =   0
                l(2) =   0
                l(3) =   1
                l(4) =   1
     Q(r) pseudized with 0 coefficients 


     PseudoPot. # 3 for  H read from file:
     /scratch/ahofstet/pseudo/H.pbe-kjpaw_psl.0.1.UPF
     MD5 check sum: 94e484f906d9e9773b2f6e52662335b2
     Pseudo is Projector augmented-wave, Zval =  1.0
     Generated using "atomic" code by A. Dal Corso  v.5.0.99 svn rev. 10869
     Shape of augmentation charge: PSQ
     Using radial grid of  929 points,  2 beta functions with: 
                l(1) =   0
                l(2) =   0
     Q(r) pseudized with 0 coefficients 


     PseudoPot. # 4 for  O read from file:
     /scratch/ahofstet/pseudo/O.pbe-n-kjpaw_psl.0.1.UPF
     MD5 check sum: 3f94a2996a3169367d6eb21d9b593f20
     Pseudo is Projector augmented-wave + core cor, Zval =  6.0
     Generated using "atomic" code by A. Dal Corso  v.5.0.99 svn rev. 10869
     Shape of augmentation charge: BESSEL
     Using radial grid of 1095 points,  4 beta functions with: 
                l(1) =   0
                l(2) =   0
                l(3) =   1
                l(4) =   1
     Q(r) pseudized with 0 coefficients 


     atomic species   valence    mass     pseudopotential
        C              4.00    12.01070      C( 1.00)
        N              5.00    14.00670      N( 1.00)
        H              1.00     1.00794      H( 1.00)
        O              6.00    15.99940      O( 1.00)

     No symmetry found



   Cartesian axes

     site n.     atom                  positions (alat units)
         1           N   tau(   1) = (   0.1628898   0.7811337   0.0952442  )
         2           N   tau(   2) = (   0.2286932  -0.0068717   0.7674401  )
         3           O   tau(   3) = (   0.4494913  -0.0148551   0.1589628  )
         4           O   tau(   4) = (   0.3477688   0.8101992   0.0403387  )
         5           O   tau(   5) = (   0.2547981   0.0939590   0.6049043  )
         6           O   tau(   6) = (   0.3712223  -0.0994352   0.8625953  )
         7           O   tau(   7) = (  -0.1374445   0.3090105   0.7100291  )
         8           H   tau(   8) = (  -0.0217755   0.3570872   0.6147254  )
         9           O   tau(   9) = (  -0.4439587   0.5930364   0.6340397  )
        10           H   tau(  10) = (  -0.3406766   0.4736364   0.6366925  )
        11           O   tau(  11) = (  -0.2292417   0.3609771   0.2473558  )
        12           H   tau(  12) = (   0.6841981   0.2893846   0.1419159  )
        13           O   tau(  13) = (   0.1727851   0.5137590   0.4611117  )
        14           H   tau(  14) = (   0.3107157   0.5355297   0.5336098  )
        15           C   tau(  15) = (  -0.1545305   0.0842238   0.7019389  )
        16           H   tau(  16) = (  -0.1288360   0.0254051   0.5405175  )
        17           H   tau(  17) = (   0.6829400   0.0397597   0.7478757  )
        18           C   tau(  18) = (  -0.0056855  -0.0299417   0.8546214  )
        19           C   tau(  19) = (  -0.0519059  -0.2669482   0.8465544  )
        20           H   tau(  20) = (   0.0583128  -0.3559897   0.9468449  )
        21           H   tau(  21) = (   0.7866084  -0.2912463   0.9069539  )
        22           C   tau(  22) = (  -0.1526978   0.5573284   0.1730061  )
        23           H   tau(  23) = (  -0.1524709   0.6655037   0.3083888  )
        24           H   tau(  24) = (  -0.2557725   0.6259104   0.0517149  )
        25           C   tau(  25) = (   0.0825058   0.5492277   0.0926935  )
        26           C   tau(  26) = (   0.2200639   0.4327829   0.2563874  )
        27           H   tau(  27) = (   0.1810740   0.2633849   0.2483617  )
        28           H   tau(  28) = (   0.3872269   0.4527947   0.2207673  )

     number of k points=    14
                       cart. coord. in units 2pi/alat
        k(    1) = (   0.0000000   0.0000000   0.0000000), wk =   0.0740741
        k(    2) = (   0.0000000   0.0000000   0.3346365), wk =   0.1481481
        k(    3) = (   0.0000000   0.3558760   0.1762280), wk =   0.1481481
        k(    4) = (   0.0000000   0.3558760   0.5108645), wk =   0.1481481
        k(    5) = (   0.0000000   0.3558760  -0.1584085), wk =   0.1481481
        k(    6) = (   0.3333333   0.1442117   0.1072618), wk =   0.1481481
        k(    7) = (   0.3333333   0.1442117   0.4418983), wk =   0.1481481
        k(    8) = (   0.3333333   0.1442117  -0.2273747), wk =   0.1481481
        k(    9) = (   0.3333333   0.5000877   0.2834898), wk =   0.1481481
        k(   10) = (   0.3333333   0.5000877   0.6181263), wk =   0.1481481
        k(   11) = (   0.3333333   0.5000877  -0.0511467), wk =   0.1481481
        k(   12) = (   0.3333333  -0.2116643  -0.0689662), wk =   0.1481481
        k(   13) = (   0.3333333  -0.2116643   0.2656702), wk =   0.1481481
        k(   14) = (   0.3333333  -0.2116643  -0.4036027), wk =   0.1481481

     Dense  grid:   215167 G-vectors     FFT dimensions: (  80,  80,  90)

     Estimated max dynamical RAM per process >      92.79MB

     Estimated total allocated dynamical RAM >     742.31MB

     Check: negative/imaginary core charge=   -0.000003    0.000000

     Initial potential from superposition of free atoms

     starting charge   93.99961, renormalised to   94.00000
     Starting wfc are   76 randomized atomic wfcs
     Checking if some PAW data can be deallocated... 

     total cpu time spent up to now is        7.0 secs

     per-process dynamical memory:   129.1 Mb

     Self-consistent Calculation

     iteration #  1     ecut=   100.00 Ry     beta=0.50
     Davidson diagonalization with overlap
     ethr =  1.00E-02,  avg # of iterations =  3.6

     total cpu time spent up to now is       17.7 secs

     total energy              =    -513.68200056 Ry
     Harris-Foulkes estimate   =    -515.03416380 Ry
     estimated scf accuracy    <       2.53019078 Ry

     iteration #  2     ecut=   100.00 Ry     beta=0.50
     Davidson diagonalization with overlap
     ethr =  2.69E-03,  avg # of iterations =  3.4

     total cpu time spent up to now is       25.6 secs

     total energy              =    -514.09742994 Ry
     Harris-Foulkes estimate   =    -514.40502128 Ry
     estimated scf accuracy    <       0.66738960 Ry

     iteration #  3     ecut=   100.00 Ry     beta=0.50
     Davidson diagonalization with overlap
     ethr =  7.10E-04,  avg # of iterations =  5.5

     total cpu time spent up to now is       33.8 secs

     total energy              =    -514.23180230 Ry
     Harris-Foulkes estimate   =    -514.27548846 Ry
     estimated scf accuracy    <       0.11639415 Ry

     iteration #  4     ecut=   100.00 Ry     beta=0.50
     Davidson diagonalization with overlap
     ethr =  1.24E-04,  avg # of iterations =  5.7

     total cpu time spent up to now is       41.7 secs

     total energy              =    -514.24398460 Ry
     Harris-Foulkes estimate   =    -514.25906725 Ry
     estimated scf accuracy    <       0.03687829 Ry

     iteration #  5     ecut=   100.00 Ry     beta=0.50
     Davidson diagonalization with overlap
     ethr =  3.92E-05,  avg # of iterations =  4.7

     total cpu time spent up to now is       49.1 secs

     total energy              =    -514.25087711 Ry
     Harris-Foulkes estimate   =    -514.25600476 Ry
     estimated scf accuracy    <       0.01502797 Ry

     iteration #  6     ecut=   100.00 Ry     beta=0.50
     Davidson diagonalization with overlap
     ethr =  1.60E-05,  avg # of iterations =  2.1

     total cpu time spent up to now is       55.5 secs

     total energy              =    -514.25358369 Ry
     Harris-Foulkes estimate   =    -514.25370518 Ry
     estimated scf accuracy    <       0.00041448 Ry

     iteration #  7     ecut=   100.00 Ry     beta=0.50
     Davidson diagonalization with overlap
     ethr =  4.41E-07,  avg # of iterations =  5.5

     total cpu time spent up to now is       67.4 secs

     total energy              =    -514.25385969 Ry
     Harris-Foulkes estimate   =    -514.25391440 Ry
     estimated scf accuracy    <       0.00012634 Ry

     iteration #  8     ecut=   100.00 Ry     beta=0.50
     Davidson diagonalization with overlap
     ethr =  1.34E-07,  avg # of iterations =  3.9

     total cpu time spent up to now is       75.0 secs

     total energy              =    -514.25388307 Ry
     Harris-Foulkes estimate   =    -514.25389351 Ry
     estimated scf accuracy    <       0.00003558 Ry

     iteration #  9     ecut=   100.00 Ry     beta=0.50
     Davidson diagonalization with overlap
     ethr =  3.78E-08,  avg # of iterations =  2.9

     total cpu time spent up to now is       82.4 secs

     total energy              =    -514.25388772 Ry
     Harris-Foulkes estimate   =    -514.25389379 Ry
     estimated scf accuracy    <       0.00001831 Ry

     iteration # 10     ecut=   100.00 Ry     beta=0.50
     Davidson diagonalization with overlap
     ethr =  1.95E-08,  avg # of iterations =  2.1

     total cpu time spent up to now is       88.9 secs

     total energy              =    -514.25389039 Ry
     Harris-Foulkes estimate   =    -514.25389079 Ry
     estimated scf accuracy    <       0.00000118 Ry

     iteration # 11     ecut=   100.00 Ry     beta=0.50
     Davidson diagonalization with overlap
     ethr =  1.26E-09,  avg # of iterations =  4.0

     total cpu time spent up to now is       99.5 secs

     total energy              =    -514.25389104 Ry
     Harris-Foulkes estimate   =    -514.25389157 Ry
     estimated scf accuracy    <       0.00000126 Ry

     iteration # 12     ecut=   100.00 Ry     beta=0.50
     Davidson diagonalization with overlap
     ethr =  1.26E-09,  avg # of iterations =  1.3

     total cpu time spent up to now is      105.5 secs

     total energy              =    -514.25389098 Ry
     Harris-Foulkes estimate   =    -514.25389112 Ry
     estimated scf accuracy    <       0.00000025 Ry

     iteration # 13     ecut=   100.00 Ry     beta=0.50
     Davidson diagonalization with overlap
     ethr =  2.65E-10,  avg # of iterations =  4.0

     total cpu time spent up to now is      116.0 secs

     total energy              =    -514.25389123 Ry
     Harris-Foulkes estimate   =    -514.25389133 Ry
     estimated scf accuracy    <       0.00000032 Ry

     iteration # 14     ecut=   100.00 Ry     beta=0.50
     Davidson diagonalization with overlap
     ethr =  2.65E-10,  avg # of iterations =  1.0

     total cpu time spent up to now is      122.0 secs

     total energy              =    -514.25389117 Ry
     Harris-Foulkes estimate   =    -514.25389124 Ry
     estimated scf accuracy    <       0.00000015 Ry

     iteration # 15     ecut=   100.00 Ry     beta=0.50
     Davidson diagonalization with overlap
     ethr =  1.57E-10,  avg # of iterations =  3.0

     total cpu time spent up to now is      130.7 secs

     End of self-consistent calculation

          k = 0.0000 0.0000 0.0000 ( 26879 PWs)   bands (ev):

   -24.0587 -23.8974 -19.6239 -19.5403 -18.9232 -18.5339 -18.3389 -18.2474
   -14.5474 -12.6032 -10.3363 -10.2159  -9.6717  -9.4271  -7.9720  -7.1927
    -6.8364  -6.4402  -6.1326  -6.0284  -5.9552  -5.8157  -5.5838  -5.3099
    -5.2777  -4.8829  -4.0029  -3.6659  -3.5422  -3.4331  -3.1727  -3.0374
    -2.5450  -1.6070  -1.3855  -1.1616  -0.9127  -0.8577  -0.5238  -0.3983
    -0.3734  -0.0952   0.0460   0.2799   0.5070   0.7777   0.8027   3.8005
     4.0933   7.0096   7.7943   8.3766   8.9006   9.1579   9.3242   9.6763

          k = 0.0000 0.0000 0.3346 ( 26873 PWs)   bands (ev):

   -24.0559 -23.9003 -19.6251 -19.5410 -18.8897 -18.5742 -18.3386 -18.2493
   -14.5052 -12.6419 -10.3375 -10.2118  -9.6467  -9.4358  -7.9502  -7.1894
    -6.8818  -6.4421  -6.2205  -6.0593  -5.9503  -5.8369  -5.5898  -5.2685
    -5.1718  -4.8379  -3.9539  -3.8049  -3.6058  -3.3973  -3.2742  -2.9175
    -2.5014  -1.6897  -1.4577  -1.0350  -0.8781  -0.7575  -0.6016  -0.4402
    -0.3593  -0.0387   0.1062   0.2897   0.5218   0.6841   0.8590   3.7193
     4.1384   6.9961   7.9302   8.1601   8.7944   8.9818   9.3255   9.6591

          k = 0.0000 0.3559 0.1762 ( 26866 PWs)   bands (ev):

   -24.0526 -23.9032 -19.6269 -19.5394 -18.8552 -18.5572 -18.4117 -18.2459
   -14.4940 -12.5776 -10.2940 -10.1194  -9.7863  -9.5260  -7.9557  -7.1850
    -6.8540  -6.4597  -6.3254  -6.0239  -5.9334  -5.7900  -5.6065  -5.3233
    -5.1751  -4.8086  -4.0494  -3.7754  -3.5134  -3.3523  -3.1737  -3.0079
    -2.6450  -1.5710  -1.3015  -1.1757  -0.8601  -0.7476  -0.5243  -0.4195
    -0.3120  -0.0027   0.1092   0.2928   0.4322   0.6808   0.8198   3.7552
     4.0903   6.9654   7.6325   8.2923   8.4163   9.1249   9.4135   9.7268

          k = 0.0000 0.3559 0.5109 ( 26895 PWs)   bands (ev):

   -24.0521 -23.9035 -19.6307 -19.5382 -18.8291 -18.5905 -18.4074 -18.2453
   -14.4751 -12.5921 -10.3146 -10.1534  -9.7589  -9.4724  -7.9528  -7.1788
    -6.8785  -6.4348  -6.3457  -6.0849  -5.9309  -5.7731  -5.5953  -5.3116
    -5.2159  -4.8171  -4.0117  -3.8531  -3.5618  -3.3948  -3.0993  -2.9404
    -2.5691  -1.5374  -1.3906  -1.0731  -0.9254  -0.7422  -0.5482  -0.4341
    -0.2531   0.0116   0.0485   0.3068   0.4780   0.6699   0.8037   3.7479
     4.0871   7.1228   7.5938   8.0353   8.2733   9.0520   9.5819   9.6670

          k = 0.0000 0.3559-0.1584 ( 26871 PWs)   bands (ev):

   -24.0546 -23.9009 -19.6330 -19.5366 -18.8560 -18.5454 -18.4220 -18.2431
   -14.4994 -12.5642 -10.3444 -10.1650  -9.7602  -9.4350  -7.9628  -7.1297
    -6.9098  -6.4594  -6.2094  -6.0649  -5.9728  -5.7754  -5.6338  -5.3560
    -5.2250  -4.8919  -4.0491  -3.7531  -3.6131  -3.4457  -3.0303  -2.8839
    -2.4796  -1.5837  -1.3687  -1.0866  -0.8888  -0.7887  -0.5683  -0.4721
    -0.2694  -0.0880   0.0842   0.2689   0.4720   0.7330   0.8110   3.8443
     4.0207   7.0822   7.5933   8.2387   8.3200   9.0334   9.1863   9.8935

          k = 0.3333 0.1442 0.1073 ( 26888 PWs)   bands (ev):

   -24.0576 -23.8975 -19.6257 -19.5406 -18.8632 -18.6019 -18.4290 -18.1582
   -14.5382 -12.6199 -10.2524 -10.1237  -9.6798  -9.5071  -7.9742  -7.2590
    -6.8116  -6.4646  -6.3435  -6.0470  -5.8929  -5.7348  -5.4916  -5.3303
    -5.2016  -4.8512  -3.9505  -3.7990  -3.6005  -3.4149  -3.2580  -3.0540
    -2.6020  -1.7846  -1.3751  -1.1317  -0.9427  -0.7600  -0.5994  -0.4383
    -0.1802  -0.0398   0.1056   0.3457   0.5126   0.7421   0.9267   3.7784
     4.0903   7.1644   8.0434   8.2270   8.7157   9.1098   9.3135   9.6249

          k = 0.3333 0.1442 0.4419 ( 26904 PWs)   bands (ev):

   -24.0549 -23.9002 -19.6260 -19.5414 -18.8316 -18.6348 -18.4337 -18.1577
   -14.5131 -12.6381 -10.2399 -10.1801  -9.6724  -9.4424  -7.9570  -7.2731
    -6.8508  -6.4649  -6.3210  -6.0906  -5.9071  -5.7853  -5.5487  -5.3070
    -5.1399  -4.8196  -3.9584  -3.7995  -3.5711  -3.3912  -3.3573  -3.0112
    -2.5319  -1.8158  -1.4221  -1.1285  -0.9111  -0.7498  -0.5909  -0.4655
    -0.2137  -0.0142   0.1692   0.3725   0.5830   0.7549   0.8663   3.6985
     4.1355   7.1713   7.8361   8.4263   8.7069   8.8861   9.3513   9.5423

          k = 0.3333 0.1442-0.2274 ( 26914 PWs)   bands (ev):

   -24.0551 -23.9001 -19.6251 -19.5416 -18.8557 -18.6035 -18.4386 -18.1569
   -14.5308 -12.6165 -10.2462 -10.2149  -9.6713  -9.4004  -7.9611  -7.2629
    -6.8591  -6.4695  -6.1890  -6.1033  -5.9274  -5.8759  -5.5533  -5.3408
    -5.1615  -4.8558  -3.9361  -3.7243  -3.5892  -3.4298  -3.2628  -3.0036
    -2.4969  -1.8944  -1.4587  -1.2194  -0.7768  -0.7455  -0.6359  -0.4559
    -0.2155  -0.0027   0.1451   0.4246   0.5457   0.7383   0.8745   3.7169
     4.1310   7.3109   7.5586   8.4266   8.7769   9.0608   9.3338   9.6427

          k = 0.3333 0.5001 0.2835 ( 26899 PWs)   bands (ev):

   -24.0519 -23.9032 -19.6284 -19.5401 -18.7700 -18.6624 -18.4507 -18.1880
   -14.5082 -12.6018 -10.1889 -10.0982  -9.7246  -9.5394  -7.9734  -7.3169
    -6.8740  -6.4180  -6.3463  -6.0287  -5.8762  -5.8223  -5.5610  -5.3379
    -5.1959  -4.7975  -4.0196  -3.8343  -3.5046  -3.4140  -3.1751  -3.0619
    -2.6924  -1.7072  -1.2999  -1.1616  -0.9000  -0.7004  -0.5339  -0.4359
    -0.1738  -0.0162   0.1438   0.3547   0.4616   0.7001   0.8924   3.7603
     4.0764   7.3201   7.5484   8.1603   8.3821   9.2738   9.3555   9.6270

          k = 0.3333 0.5001 0.6181 ( 26901 PWs)   bands (ev):

   -24.0515 -23.9034 -19.6313 -19.5390 -18.7730 -18.6467 -18.4645 -18.1866
   -14.5073 -12.5926 -10.2139 -10.1745  -9.7119  -9.4257  -7.9660  -7.2999
    -6.9105  -6.4417  -6.2342  -6.0600  -5.9713  -5.7735  -5.5946  -5.4354
    -5.1820  -4.8491  -3.9649  -3.7971  -3.6311  -3.3966  -3.1474  -2.9498
    -2.5622  -1.7278  -1.3995  -1.1358  -0.8910  -0.7213  -0.5709  -0.4467
    -0.1503  -0.0078   0.0864   0.3434   0.5503   0.7531   0.8467   3.7484
     4.0842   7.2571   7.6535   8.1509   8.3245   8.9700   9.2173   9.6995

          k = 0.3333 0.5001-0.0511 ( 26894 PWs)   bands (ev):

   -24.0537 -23.9010 -19.6327 -19.5370 -18.7917 -18.6003 -18.4905 -18.1928
   -14.4890 -12.6148 -10.2108 -10.1662  -9.7118  -9.4444  -7.9618  -7.2656
    -6.8994  -6.4573  -6.3424  -5.9896  -5.9027  -5.8271  -5.5737  -5.4022
    -5.1913  -4.8366  -4.0034  -3.8527  -3.5611  -3.4507  -3.2274  -2.9334
    -2.5161  -1.6391  -1.3303  -1.1428  -0.9572  -0.7122  -0.6112  -0.4376
    -0.1303  -0.0570   0.1375   0.3097   0.4719   0.7711   0.8778   3.8236
     4.0096   7.2512   7.5941   8.0122   8.4697   9.0758   9.3439   9.6454

          k = 0.3333-0.2117-0.0690 ( 26889 PWs)   bands (ev):

   -24.0522 -23.9032 -19.6285 -19.5405 -18.8163 -18.5998 -18.4420 -18.2050
   -14.5327 -12.6050 -10.2434 -10.1209  -9.6334  -9.4620  -7.9994  -7.3776
    -6.8726  -6.4379  -6.1691  -6.0044  -5.9629  -5.8021  -5.6677  -5.3371
    -5.1733  -4.8896  -3.9709  -3.7779  -3.5578  -3.4408  -3.1845  -2.9602
    -2.6645  -1.7674  -1.3125  -1.1676  -0.8586  -0.6852  -0.5557  -0.4599
    -0.2444   0.0077   0.1451   0.3035   0.4963   0.7321   0.8693   3.8055
     4.0558   7.2855   7.5210   8.1770   8.5645   8.9754   9.3899   9.8450

          k = 0.3333-0.2117 0.2657 ( 26884 PWs)   bands (ev):

   -24.0540 -23.9010 -19.6337 -19.5372 -18.7983 -18.5893 -18.4727 -18.2099
   -14.4951 -12.6413 -10.2567 -10.1453  -9.5842  -9.4569  -7.9947  -7.3170
    -6.8956  -6.4740  -6.2858  -6.0368  -5.8993  -5.7656  -5.6150  -5.3316
    -5.1989  -4.8672  -4.0346  -3.8828  -3.5690  -3.4433  -3.2259  -2.9113
    -2.5072  -1.6179  -1.3683  -1.0944  -0.9263  -0.7671  -0.5820  -0.4044
    -0.2136  -0.0288   0.1063   0.2450   0.5147   0.7534   0.8963   3.8519
     3.9853   7.1938   7.8076   7.9860   8.2914   9.1660   9.5209   9.6464

          k = 0.3333-0.2117-0.4036 ( 26898 PWs)   bands (ev):

   -24.0517 -23.9036 -19.6306 -19.5391 -18.7871 -18.6088 -18.4683 -18.2087
   -14.4895 -12.6452 -10.2342 -10.1656  -9.5894  -9.4539  -7.9719  -7.3466
    -6.8885  -6.4687  -6.3326  -5.9249  -5.8746  -5.8389  -5.7288  -5.3218
    -5.1741  -4.8329  -4.0205  -3.8044  -3.5315  -3.4302  -3.2864  -2.9367
    -2.5727  -1.6752  -1.3475  -1.1831  -0.8824  -0.6943  -0.5409  -0.3889
    -0.2317   0.0309   0.0785   0.3000   0.4969   0.7488   0.8730   3.7704
     4.0518   7.2000   7.5648   8.0913   8.4106   9.1442   9.5250   9.6499

     highest occupied, lowest unoccupied level (ev):     0.9267    3.6985

!    total energy              =    -514.25389123 Ry
     Harris-Foulkes estimate   =    -514.25389123 Ry
     estimated scf accuracy    <          9.4E-09 Ry

     total all-electron energy =     -1894.211189 Ry

     The total energy is the sum of the following terms:

     one-electron contribution =    -260.24978287 Ry
     hartree contribution      =     170.10870977 Ry
     xc contribution           =    -103.44672437 Ry
     ewald contribution        =    -187.93356048 Ry
     Dispersion Correction     =      -0.14416982 Ry
     one-center paw contrib.   =    -132.58836345 Ry

     convergence has been achieved in  15 iterations

     Forces acting on atoms (cartesian axes, Ry/au):

     atom    1 type  2   force =    -0.00676518    0.01144887    0.00124348
     atom    2 type  2   force =    -0.00722471   -0.00244896    0.00624715
     atom    3 type  4   force =     0.01418471   -0.00529068   -0.00272160
     atom    4 type  4   force =    -0.00231661    0.00133238    0.00233951
     atom    5 type  4   force =    -0.00055785    0.00195980   -0.00452906
     atom    6 type  4   force =    -0.00463346   -0.00895851    0.00382389
     atom    7 type  4   force =     0.00315044   -0.00020752   -0.00395259
     atom    8 type  3   force =    -0.00028104   -0.00076201    0.00212211
     atom    9 type  4   force =     0.00021506   -0.00145540    0.00426984
     atom   10 type  3   force =     0.00027856   -0.00136189   -0.00228184
     atom   11 type  4   force =     0.00388148   -0.00977964    0.00056170
     atom   12 type  3   force =     0.00206455    0.00269915    0.00028899
     atom   13 type  4   force =    -0.00018294    0.00037060    0.00321475
     atom   14 type  3   force =     0.00167409    0.00017261    0.00085113
     atom   15 type  1   force =    -0.00722651    0.00676736   -0.00790503
     atom   16 type  3   force =     0.00147834    0.00046271    0.00214585
     atom   17 type  3   force =     0.00804868    0.00480132   -0.00579638
     atom   18 type  1   force =     0.01083431    0.00974384    0.01035709
     atom   19 type  1   force =    -0.00702172   -0.01276698   -0.00143961
     atom   20 type  3   force =    -0.00055372    0.00308788    0.00008574
     atom   21 type  3   force =     0.00554654   -0.00035866   -0.00088370
     atom   22 type  1   force =     0.00233514    0.00502467   -0.00155797
     atom   23 type  3   force =    -0.00008787   -0.00259647   -0.00059099
     atom   24 type  3   force =    -0.00065024    0.00056455    0.00102454
     atom   25 type  1   force =    -0.00821276   -0.00093551   -0.00990426
     atom   26 type  1   force =    -0.01377076   -0.00597691    0.00424591
     atom   27 type  3   force =    -0.00048106    0.00345806    0.00131513
     atom   28 type  3   force =     0.00627452    0.00100536   -0.00257378

     Total force =     0.047308     Total SCF correction =     0.000192


     Computing stress (Cartesian axis) and pressure

          total   stress  (Ry/bohr**3)                   (kbar)     P=   -4.84
  -0.00009685  -0.00000591   0.00003391        -14.25     -0.87      4.99
  -0.00000591   0.00001397  -0.00001324         -0.87      2.05     -1.95
   0.00003391  -0.00001324  -0.00001581          4.99     -1.95     -2.33


     Writing output data file scf.save
 
     init_run     :      6.24s CPU      6.41s WALL (       1 calls)
     electrons    :    120.88s CPU    123.81s WALL (       1 calls)
     forces       :      3.34s CPU      3.36s WALL (       1 calls)
     stress       :      6.94s CPU      6.94s WALL (       1 calls)

     Called by init_run:
     wfcinit      :      2.90s CPU      2.98s WALL (       1 calls)
     potinit      :      1.17s CPU      1.23s WALL (       1 calls)

     Called by electrons:
     c_bands      :    102.03s CPU    104.45s WALL (      15 calls)
     sum_band     :     14.86s CPU     15.18s WALL (      15 calls)
     v_of_rho     :      0.60s CPU      0.64s WALL (      16 calls)
     newd         :      0.88s CPU      0.90s WALL (      16 calls)
     PAW_pot      :      2.23s CPU      2.24s WALL (      16 calls)
     mix_rho      :      0.11s CPU      0.12s WALL (      15 calls)

     Called by c_bands:
     init_us_2    :      1.49s CPU      1.50s WALL (     462 calls)
     cegterg      :     97.82s CPU    100.22s WALL (     210 calls)

     Called by sum_band:
     sum_band:bec :      0.01s CPU      0.01s WALL (     210 calls)
     addusdens    :      0.96s CPU      0.96s WALL (      15 calls)

     Called by *egterg:
     h_psi        :     72.92s CPU     75.32s WALL (     960 calls)
     s_psi        :      4.57s CPU      4.57s WALL (     960 calls)
     g_psi        :      0.60s CPU      0.60s WALL (     736 calls)
     cdiaghg      :      6.56s CPU      6.55s WALL (     946 calls)

     Called by h_psi:
     h_psi:pot    :     72.40s CPU     74.79s WALL (     960 calls)
     h_psi:calbec :      4.68s CPU      4.73s WALL (     960 calls)
     vloc_psi     :     63.29s CPU     65.64s WALL (     960 calls)
     add_vuspsi   :      4.42s CPU      4.42s WALL (     960 calls)

     General routines
     calbec       :      6.71s CPU      6.76s WALL (    1240 calls)
     fft          :      0.38s CPU      0.46s WALL (     232 calls)
     fftw         :     67.50s CPU     69.89s WALL (   79140 calls)
 
     Parallel routines
     fft_scatter  :     16.36s CPU     17.27s WALL (   79372 calls)
 
     PWSCF        :  2m19.62s CPU     2m23.56s WALL

 
   This run was terminated on:   1: 1:37   4Nov2017            

=------------------------------------------------------------------------------=
   JOB DONE.
=------------------------------------------------------------------------------=
