
     Program PWSCF v.6.1 (svn rev. 13369) starts on 21Dec2017 at  6: 2:52 

     This program is part of the open-source Quantum ESPRESSO suite
     for quantum simulation of materials; please cite
         "P. Giannozzi et al., J. Phys.:Condens. Matter 21 395502 (2009);
          URL http://www.quantum-espresso.org", 
     in publications or presentations arising from this work. More details at
     http://www.quantum-espresso.org/quote

     Parallel version (MPI), running on     8 processors
     R & G space division:  proc/nbgrp/npool/nimage =       8
     Waiting for input...
     Reading input from standard input

     Current dimensions of program PWSCF are:
     Max number of different atomic species (ntypx) = 10
     Max number of k-points (npk) =  40000
     Max angular momentum in pseudopotentials (lmaxx) =  3
               file C.pbe-n-kjpaw_psl.0.1.UPF: wavefunction(s)  2P renormalized
               file N.pbe-n-kjpaw_psl.0.1.UPF: wavefunction(s)  2P renormalized
               file H.pbe-kjpaw_psl.0.1.UPF: wavefunction(s)  1S renormalized
               file O.pbe-n-kjpaw_psl.0.1.UPF: wavefunction(s)  2P renormalized

     -------------------------------------
     Parameters for Dispersion Correction:
     -------------------------------------
       atom      VdW radius       C_6     

        C          2.744         60.710
        N          2.640         42.670
        H          1.892          4.857
        O          2.536         24.284

     Subspace diagonalization in iterative solution of the eigenvalue problem:
     a serial algorithm will be used

 
     Parallelization info
     --------------------
     sticks:   dense  smooth     PW     G-vecs:    dense   smooth      PW
     Min        1096    1096    285               168720   168720   22499
     Max        1097    1097    286               168725   168725   22502
     Sum        8769    8769   2285              1349771  1349771  180003
 


     bravais-lattice index     =            0
     lattice parameter (alat)  =      14.2786  a.u.
     unit-cell volume          =    9988.7801 (a.u.)^3
     number of atoms/cell      =          136
     number of atomic types    =            4
     number of electrons       =       560.00
     number of Kohn-Sham states=          336
     kinetic-energy cutoff     =     100.0000  Ry
     charge density cutoff     =     400.0000  Ry
     convergence threshold     =      1.0E-08
     mixing beta               =       0.5000
     number of iterations used =            8  plain     mixing
     Exchange-correlation      =  SLA  PW   PBX  PBC ( 1  4  3  4 0 0)

     celldm(1)=  14.278582  celldm(2)=   0.000000  celldm(3)=   0.000000
     celldm(4)=   0.000000  celldm(5)=   0.000000  celldm(6)=   0.000000

     crystal axes: (cart. coord. in units of alat)
               a(1) = (   1.000000   0.000000   0.000000 )  
               a(2) = (   0.000000   1.347887   0.000000 )  
               a(3) = (   0.000000   0.000000   2.545680 )  

     reciprocal axes: (cart. coord. in units 2 pi/alat)
               b(1) = (  1.000000  0.000000  0.000000 )  
               b(2) = (  0.000000  0.741902  0.000000 )  
               b(3) = (  0.000000  0.000000  0.392822 )  


     PseudoPot. # 1 for  C read from file:
     /scratch/ahofstet/pseudo/C.pbe-n-kjpaw_psl.0.1.UPF
     MD5 check sum: 430fe95172b1e11ef3f8ed03bac87931
     Pseudo is Projector augmented-wave + core cor, Zval =  4.0
     Generated using "atomic" code by A. Dal Corso  v.5.0.99 svn rev. 10869
     Shape of augmentation charge: BESSEL
     Using radial grid of 1073 points,  4 beta functions with: 
                l(1) =   0
                l(2) =   0
                l(3) =   1
                l(4) =   1
     Q(r) pseudized with 0 coefficients 


     PseudoPot. # 2 for  N read from file:
     /scratch/ahofstet/pseudo/N.pbe-n-kjpaw_psl.0.1.UPF
     MD5 check sum: f73187c8b701007e77325f868c9291d7
     Pseudo is Projector augmented-wave + core cor, Zval =  5.0
     Generated using "atomic" code by A. Dal Corso  v.5.0.99 svn rev. 10869
     Shape of augmentation charge: PSQ
     Using radial grid of 1085 points,  4 beta functions with: 
                l(1) =   0
                l(2) =   0
                l(3) =   1
                l(4) =   1
     Q(r) pseudized with 0 coefficients 


     PseudoPot. # 3 for  H read from file:
     /scratch/ahofstet/pseudo/H.pbe-kjpaw_psl.0.1.UPF
     MD5 check sum: 94e484f906d9e9773b2f6e52662335b2
     Pseudo is Projector augmented-wave, Zval =  1.0
     Generated using "atomic" code by A. Dal Corso  v.5.0.99 svn rev. 10869
     Shape of augmentation charge: PSQ
     Using radial grid of  929 points,  2 beta functions with: 
                l(1) =   0
                l(2) =   0
     Q(r) pseudized with 0 coefficients 


     PseudoPot. # 4 for  O read from file:
     /scratch/ahofstet/pseudo/O.pbe-n-kjpaw_psl.0.1.UPF
     MD5 check sum: 3f94a2996a3169367d6eb21d9b593f20
     Pseudo is Projector augmented-wave + core cor, Zval =  6.0
     Generated using "atomic" code by A. Dal Corso  v.5.0.99 svn rev. 10869
     Shape of augmentation charge: BESSEL
     Using radial grid of 1095 points,  4 beta functions with: 
                l(1) =   0
                l(2) =   0
                l(3) =   1
                l(4) =   1
     Q(r) pseudized with 0 coefficients 


     atomic species   valence    mass     pseudopotential
        C              4.00    12.01070      C( 1.00)
        N              5.00    14.00670      N( 1.00)
        H              1.00     1.00794      H( 1.00)
        O              6.00    15.99940      O( 1.00)

      2 Sym. Ops. (no inversion) found ( 1 have fractional translation)
          (note:  2 additional sym.ops. were found but ignored
           their fractional translations are incommensurate with FFT grid)


   Cartesian axes

     site n.     atom                  positions (alat units)
         1           O   tau(   1) = (   0.9829382   0.2602515   0.7283068  )
         2           O   tau(   2) = (   0.5170618   1.0876356   2.0011466  )
         3           O   tau(   3) = (   0.4829382   0.4136920   1.8173727  )
         4           O   tau(   4) = (   0.0170618   0.9341951   0.5445330  )
         5           O   tau(   5) = (   0.9310638   0.5242564   0.8379885  )
         6           O   tau(   6) = (   0.5689362   0.8236307   2.1108283  )
         7           O   tau(   7) = (   0.4310638   0.1496872   1.7076910  )
         8           O   tau(   8) = (   0.0689362   1.1981999   0.4348513  )
         9           O   tau(   9) = (   0.5649016   0.4070096   1.3070828  )
        10           O   tau(  10) = (   0.9350984   0.9408775   0.0342431  )
        11           O   tau(  11) = (   0.0649016   0.2669340   1.2385967  )
        12           O   tau(  12) = (   0.4350984   1.0809531   2.5114365  )
        13           O   tau(  13) = (   0.7672067   0.6160958   1.2911036  )
        14           O   tau(  14) = (   0.7327933   0.7317913   0.0182638  )
        15           O   tau(  15) = (   0.2672067   0.0578478   1.2545759  )
        16           O   tau(  16) = (   0.2327933   1.2900393   2.5274157  )
        17           N   tau(  17) = (   0.4623256   0.3271044   0.9347169  )
        18           N   tau(  18) = (   0.0376744   1.0207827   2.2075567  )
        19           N   tau(  19) = (   0.9623256   0.3468391   1.6109626  )
        20           N   tau(  20) = (   0.5376744   1.0010479   0.3381228  )
        21           N   tau(  21) = (   0.3156322   0.2673577   0.8567852  )
        22           N   tau(  22) = (   0.1843678   1.0805293   2.1296250  )
        23           N   tau(  23) = (   0.8156322   0.4065858   1.6888943  )
        24           N   tau(  24) = (   0.6843678   0.9413013   0.4160546  )
        25           N   tau(  25) = (   0.2725524   0.5481069   0.9571417  )
        26           N   tau(  26) = (   0.2274476   0.7997802   2.2299815  )
        27           N   tau(  27) = (   0.7725524   0.1258366   1.5885378  )
        28           N   tau(  28) = (   0.7274476   1.2220505   0.3156981  )
        29           N   tau(  29) = (   0.0283660   0.3961039   0.8072300  )
        30           N   tau(  30) = (   0.4716340   0.9517832   2.0800697  )
        31           N   tau(  31) = (   0.5283660   0.2778397   1.7384496  )
        32           N   tau(  32) = (   0.9716340   1.0700474   0.4656098  )
        33           N   tau(  33) = (   0.5675687   0.5937307   1.0767057  )
        34           N   tau(  34) = (   0.9324313   0.7541564   2.3495455  )
        35           N   tau(  35) = (   0.0675687   0.0802129   1.4689738  )
        36           N   tau(  36) = (   0.4324313   1.2676742   0.1961340  )
        37           N   tau(  37) = (   0.6376309   0.5346621   1.2351364  )
        38           N   tau(  38) = (   0.8623691   0.8132250   2.5079762  )
        39           N   tau(  39) = (   0.1376309   0.1392814   1.3105431  )
        40           N   tau(  40) = (   0.3623691   1.2086057   0.0377033  )
        41           C   tau(  41) = (   0.2074629   0.4051780   0.8728190  )
        42           C   tau(  42) = (   0.2925371   0.9427091   2.1456588  )
        43           C   tau(  43) = (   0.7074629   0.2687655   1.6728605  )
        44           C   tau(  44) = (   0.7925371   1.0791215   0.4000207  )
        45           C   tau(  45) = (   0.4363725   0.4957479   0.9954496  )
        46           C   tau(  46) = (   0.0636275   0.8521392   2.2682893  )
        47           C   tau(  47) = (   0.9363725   0.1781956   1.5502300  )
        48           C   tau(  48) = (   0.5636275   1.1696914   0.2773902  )
        49           C   tau(  49) = (   0.6222642   0.2222708   0.9449987  )
        50           C   tau(  50) = (   0.8777358   1.1256163   2.2178385  )
        51           C   tau(  51) = (   0.1222642   0.4516727   1.6006808  )
        52           C   tau(  52) = (   0.3777358   0.8962144   0.3278410  )
        53           H   tau(  53) = (   0.6299913   0.1367145   0.8282218  )
        54           H   tau(  54) = (   0.8700087   1.2111726   2.1010615  )
        55           H   tau(  55) = (   0.1299913   0.5372290   1.7174578  )
        56           H   tau(  56) = (   0.3700087   0.8106581   0.4446180  )
        57           H   tau(  57) = (   0.6211246   0.1431251   1.0666402  )
        58           H   tau(  58) = (   0.8788754   1.2047619   2.3394800  )
        59           H   tau(  59) = (   0.1211246   0.5308184   1.4790393  )
        60           H   tau(  60) = (   0.3788754   0.8170687   0.2061996  )
        61           H   tau(  61) = (   0.7339417   0.3149210   0.9463689  )
        62           H   tau(  62) = (   0.7660583   1.0329661   2.2192086  )
        63           H   tau(  63) = (   0.2339417   0.3590225   1.5993107  )
        64           H   tau(  64) = (   0.2660583   0.9888646   0.3264709  )
        65           O   tau(  65) = (   0.5101517   0.4873902   0.5732810  )
        66           O   tau(  66) = (   0.9898483   0.8604968   1.8461208  )
        67           O   tau(  67) = (   0.0101517   0.1865533   1.9723985  )
        68           O   tau(  68) = (   0.4898483   1.1613338   0.6995588  )
        69           O   tau(  69) = (   0.5628640   0.2243302   0.4613515  )
        70           O   tau(  70) = (   0.9371360   1.1235568   1.7341913  )
        71           O   tau(  71) = (   0.0628640   0.4496133   2.0843280  )
        72           O   tau(  72) = (   0.4371360   0.8982738   0.8114883  )
        73           O   tau(  73) = (   0.0110186   0.3035639   2.4932560  )
        74           O   tau(  74) = (   0.4889814   1.0443231   1.2204162  )
        75           O   tau(  75) = (   0.5110186   0.3703796   0.0524236  )
        76           O   tau(  76) = (   0.9889814   0.9775075   1.3252633  )
        77           O   tau(  77) = (   0.8019410   0.1009583   2.4908874  )
        78           O   tau(  78) = (   0.6980590   1.2469288   1.2180477  )
        79           O   tau(  79) = (   0.3019410   0.5729853   0.0547921  )
        80           O   tau(  80) = (   0.1980590   0.7749018   1.3276319  )
        81           N   tau(  81) = (   0.0333927   0.4241862   0.3587132  )
        82           N   tau(  82) = (   0.4666073   0.9237009   1.6315530  )
        83           N   tau(  83) = (   0.5333927   0.2497573   2.1869664  )
        84           N   tau(  84) = (   0.9666073   1.0981298   0.9141266  )
        85           N   tau(  85) = (   0.1778122   0.4819549   0.4422352  )
        86           N   tau(  86) = (   0.3221878   0.8659322   1.7150750  )
        87           N   tau(  87) = (   0.6778122   0.1919887   2.1034443  )
        88           N   tau(  88) = (   0.8221878   1.1558984   0.8306045  )
        89           N   tau(  89) = (   0.2286582   0.2099709   0.3236108  )
        90           N   tau(  90) = (   0.2713418   1.1379161   1.5964505  )
        91           N   tau(  91) = (   0.7286582   0.4639726   2.2220688  )
        92           N   tau(  92) = (   0.7713418   0.8839145   0.9492290  )
        93           N   tau(  93) = (   0.4671342   0.3539643   0.4885701  )
        94           N   tau(  94) = (   0.0328658   0.9939228   1.7614099  )
        95           N   tau(  95) = (   0.9671342   0.3199793   2.0571094  )
        96           N   tau(  96) = (   0.5328658   1.0279078   0.7842696  )
        97           N   tau(  97) = (   0.9335982   0.1670653   0.1989624  )
        98           N   tau(  98) = (   0.5664018   1.1808217   1.4718022  )
        99           N   tau(  99) = (   0.4335982   0.5068782   2.3467171  )
       100           N   tau( 100) = (   0.0664018   0.8410089   1.0738773  )
       101           N   tau( 101) = (   0.9152607   0.1919351   0.0189028  )
       102           N   tau( 102) = (   0.5847393   1.1559520   1.2917426  )
       103           N   tau( 103) = (   0.4152607   0.4820084   2.5267767  )
       104           N   tau( 104) = (   0.0847393   0.8658787   1.2539370  )
       105           C   tau( 105) = (   0.2901609   0.3488574   0.4165336  )
       106           C   tau( 106) = (   0.2098391   0.9990297   1.6893734  )
       107           C   tau( 107) = (   0.7901609   0.3250861   2.1291459  )
       108           C   tau( 108) = (   0.7098391   1.0228009   0.8563062  )
       109           C   tau( 109) = (   0.0634932   0.2602745   0.2881795  )
       110           C   tau( 110) = (   0.4365068   1.0876126   1.5610193  )
       111           C   tau( 111) = (   0.5634932   0.4136691   2.2575000  )
       112           C   tau( 112) = (   0.9365068   0.9342180   0.9846602  )
       113           C   tau( 113) = (   0.8691312   0.5235098   0.3589876  )
       114           C   tau( 114) = (   0.6308688   0.8243773   1.6318274  )
       115           C   tau( 115) = (   0.3691312   0.1504337   2.1866919  )
       116           C   tau( 116) = (   0.1308688   1.1974534   0.9138522  )
       117           H   tau( 117) = (   0.8998524   0.6646750   0.3680275  )
       118           H   tau( 118) = (   0.6001476   0.6832121   1.6408672  )
       119           H   tau( 119) = (   0.3998524   0.0092686   2.1776521  )
       120           H   tau( 120) = (   0.1001476   1.3386185   0.9048123  )
       121           H   tau( 121) = (   0.7896960   0.4840195   0.4745082  )
       122           H   tau( 122) = (   0.7103040   0.8638676   1.7473480  )
       123           H   tau( 123) = (   0.2896960   0.1899240   2.0711713  )
       124           H   tau( 124) = (   0.2103040   1.1579630   0.7983315  )
       125           H   tau( 125) = (   0.7966451   0.4941789   0.2370475  )
       126           H   tau( 126) = (   0.7033549   0.8537082   1.5098872  )
       127           H   tau( 127) = (   0.2966451   0.1797647   2.3086321  )
       128           H   tau( 128) = (   0.2033549   1.1681224   1.0357923  )
       129           H   tau( 129) = (   0.6343881   0.7028983   1.0207331  )
       130           H   tau( 130) = (   0.8656119   0.6449888   2.2935729  )
       131           H   tau( 131) = (   0.1343881  -0.0289548   1.5249464  )
       132           H   tau( 132) = (   0.3656119   1.3768419   0.2521067  )
       133           H   tau( 133) = (   0.8602127   0.0604950   0.2511200  )
       134           H   tau( 134) = (   0.6397873   1.2873921   1.5239598  )
       135           H   tau( 135) = (   0.3602127   0.6134486   2.2945595  )
       136           H   tau( 136) = (   0.1397873   0.7344385   1.0217198  )

     number of k points=     4
                       cart. coord. in units 2pi/alat
        k(    1) = (   0.0000000   0.0000000   0.0000000), wk =   0.3333333
        k(    2) = (   0.0000000  -0.3709510   0.0000000), wk =   0.3333333
        k(    3) = (   0.3333333   0.0000000   0.0000000), wk =   0.6666667
        k(    4) = (   0.3333333  -0.3709510   0.0000000), wk =   0.6666667

     Dense  grid:  1349771 G-vectors     FFT dimensions: (  96, 125, 240)

     Estimated max dynamical RAM per process >    1853.26MB

     Estimated total allocated dynamical RAM >   14826.05MB

     Check: negative/imaginary core charge=   -0.000002    0.000000

     Initial potential from superposition of free atoms

     starting charge  559.99830, renormalised to  560.00000
     Starting wfc are  448 randomized atomic wfcs
     Checking if some PAW data can be deallocated... 

     total cpu time spent up to now is       68.8 secs

     per-process dynamical memory:  1013.1 Mb

     Self-consistent Calculation

     iteration #  1     ecut=   100.00 Ry     beta=0.50
     Davidson diagonalization with overlap
     ethr =  1.00E-02,  avg # of iterations =  4.0

     total cpu time spent up to now is      289.3 secs

     total energy              =   -3160.93186682 Ry
     Harris-Foulkes estimate   =   -3168.87961159 Ry
     estimated scf accuracy    <      14.24406925 Ry

     iteration #  2     ecut=   100.00 Ry     beta=0.50
     Davidson diagonalization with overlap
     ethr =  2.54E-03,  avg # of iterations =  3.2

     total cpu time spent up to now is      449.0 secs

     total energy              =   -3163.62253007 Ry
     Harris-Foulkes estimate   =   -3165.71786337 Ry
     estimated scf accuracy    <       4.57676363 Ry

     iteration #  3     ecut=   100.00 Ry     beta=0.50
     Davidson diagonalization with overlap
     ethr =  8.17E-04,  avg # of iterations =  5.5

     total cpu time spent up to now is      599.1 secs

     total energy              =   -3164.55831833 Ry
     Harris-Foulkes estimate   =   -3164.70589270 Ry
     estimated scf accuracy    <       0.41394410 Ry

     iteration #  4     ecut=   100.00 Ry     beta=0.50
     Davidson diagonalization with overlap
     ethr =  7.39E-05,  avg # of iterations = 10.2

     total cpu time spent up to now is      800.5 secs

     total energy              =   -3164.62373188 Ry
     Harris-Foulkes estimate   =   -3164.66147107 Ry
     estimated scf accuracy    <       0.09785314 Ry

     iteration #  5     ecut=   100.00 Ry     beta=0.50
     Davidson diagonalization with overlap
     ethr =  1.75E-05,  avg # of iterations =  6.0

     total cpu time spent up to now is      947.6 secs

     total energy              =   -3164.63795606 Ry
     Harris-Foulkes estimate   =   -3164.64977004 Ry
     estimated scf accuracy    <       0.03006966 Ry

     iteration #  6     ecut=   100.00 Ry     beta=0.50
     Davidson diagonalization with overlap
     ethr =  5.37E-06,  avg # of iterations =  5.8

     total cpu time spent up to now is     1091.5 secs

     total energy              =   -3164.64411495 Ry
     Harris-Foulkes estimate   =   -3164.64750212 Ry
     estimated scf accuracy    <       0.00973060 Ry

     iteration #  7     ecut=   100.00 Ry     beta=0.50
     Davidson diagonalization with overlap
     ethr =  1.74E-06,  avg # of iterations =  4.8

     total cpu time spent up to now is     1219.7 secs

     total energy              =   -3164.64588101 Ry
     Harris-Foulkes estimate   =   -3164.64620718 Ry
     estimated scf accuracy    <       0.00089417 Ry

     iteration #  8     ecut=   100.00 Ry     beta=0.50
     Davidson diagonalization with overlap
     ethr =  1.60E-07,  avg # of iterations =  3.0

     total cpu time spent up to now is     1384.4 secs

     total energy              =   -3164.64615813 Ry
     Harris-Foulkes estimate   =   -3164.64624136 Ry
     estimated scf accuracy    <       0.00023882 Ry

     iteration #  9     ecut=   100.00 Ry     beta=0.50
     Davidson diagonalization with overlap
     ethr =  4.26E-08,  avg # of iterations =  3.0

     total cpu time spent up to now is     1513.1 secs

     total energy              =   -3164.64620138 Ry
     Harris-Foulkes estimate   =   -3164.64621695 Ry
     estimated scf accuracy    <       0.00004948 Ry

     iteration # 10     ecut=   100.00 Ry     beta=0.50
     Davidson diagonalization with overlap
     ethr =  8.83E-09,  avg # of iterations =  3.0

     total cpu time spent up to now is     1648.8 secs

     total energy              =   -3164.64621199 Ry
     Harris-Foulkes estimate   =   -3164.64621574 Ry
     estimated scf accuracy    <       0.00001121 Ry

     iteration # 11     ecut=   100.00 Ry     beta=0.50
     Davidson diagonalization with overlap
     ethr =  2.00E-09,  avg # of iterations =  2.8

     total cpu time spent up to now is     1780.8 secs

     total energy              =   -3164.64621388 Ry
     Harris-Foulkes estimate   =   -3164.64621532 Ry
     estimated scf accuracy    <       0.00000385 Ry

     iteration # 12     ecut=   100.00 Ry     beta=0.50
     Davidson diagonalization with overlap
     ethr =  6.87E-10,  avg # of iterations =  2.5

     total cpu time spent up to now is     1905.7 secs

     total energy              =   -3164.64621472 Ry
     Harris-Foulkes estimate   =   -3164.64621519 Ry
     estimated scf accuracy    <       0.00000163 Ry

     iteration # 13     ecut=   100.00 Ry     beta=0.50
     Davidson diagonalization with overlap
     ethr =  2.90E-10,  avg # of iterations =  2.0

     total cpu time spent up to now is     2020.4 secs

     total energy              =   -3164.64621500 Ry
     Harris-Foulkes estimate   =   -3164.64621503 Ry
     estimated scf accuracy    <       0.00000010 Ry

     iteration # 14     ecut=   100.00 Ry     beta=0.50
     Davidson diagonalization with overlap
     ethr =  1.85E-11,  avg # of iterations =  3.2

     total cpu time spent up to now is     2227.2 secs

     total energy              =   -3164.64621505 Ry
     Harris-Foulkes estimate   =   -3164.64621507 Ry
     estimated scf accuracy    <       0.00000004 Ry

     iteration # 15     ecut=   100.00 Ry     beta=0.50
     Davidson diagonalization with overlap
     ethr =  7.27E-12,  avg # of iterations =  2.8

     total cpu time spent up to now is     2348.1 secs

     End of self-consistent calculation

          k = 0.0000 0.0000 0.0000 (168699 PWs)   bands (ev):

   -24.5341 -24.5340 -24.5271 -24.5271 -24.4466 -24.4466 -24.4280 -24.4280
   -24.2731 -24.2725 -24.2718 -24.2714 -24.2222 -24.2216 -24.2210 -24.2202
   -21.3610 -21.3596 -21.3560 -21.3550 -21.3392 -21.3387 -21.3307 -21.3307
   -19.8368 -19.8366 -19.8303 -19.8300 -19.8027 -19.8023 -19.7998 -19.7996
   -19.7674 -19.7659 -19.7631 -19.7617 -19.7504 -19.7503 -19.7214 -19.7213
   -17.7986 -17.7985 -17.7896 -17.7895 -17.6880 -17.6870 -17.6832 -17.6821
   -16.8421 -16.8374 -16.8366 -16.8322 -16.7759 -16.7696 -16.7665 -16.7605
   -14.9127 -14.8967 -14.8776 -14.8685 -14.8307 -14.8160 -14.7959 -14.7886
   -12.7218 -12.7218 -12.7191 -12.7186 -12.6617 -12.6610 -12.6601 -12.6591
   -11.4642 -11.4585 -11.4527 -11.4461 -11.4370 -11.4333 -11.3953 -11.3868
   -10.4289 -10.4256 -10.3588 -10.3531 -10.1625 -10.1576 -10.1370 -10.1332
    -8.9089  -8.8885  -8.8764  -8.8587  -8.7598  -8.7466  -8.7358  -8.7257
    -8.2949  -8.2939  -8.2840  -8.2829  -8.2112  -8.1841  -8.1742  -8.1366
    -7.5930  -7.5385  -7.5228  -7.4819  -7.4131  -7.2878  -7.2346  -7.2265
    -7.1900  -7.1771  -7.1395  -7.1335  -7.1317  -7.0720  -7.0326  -7.0036
    -6.9509  -6.9150  -6.8919  -6.8776  -6.8445  -6.8304  -6.8177  -6.7961
    -6.7876  -6.7709  -6.6830  -6.6681  -6.6266  -6.6248  -6.6113  -6.6070
    -6.4896  -6.4848  -6.4844  -6.4842  -6.4048  -6.3929  -6.3687  -6.3520
    -6.0148  -5.8751  -5.8650  -5.8611  -5.8221  -5.8203  -5.8057  -5.8017
    -5.7247  -5.6856  -5.6512  -5.6449  -5.6342  -5.6025  -5.5346  -5.5042
    -5.4694  -5.3800  -5.3764  -5.3486  -5.3351  -5.3298  -5.3013  -5.2282
    -5.2234  -5.2041  -5.1229  -5.1228  -5.0834  -5.0510  -5.0462  -5.0405
    -3.4317  -3.3757  -3.3654  -3.3296  -3.2875  -3.2605  -3.2519  -3.2004
    -3.1728  -3.1634  -3.1576  -3.1553  -3.1497  -3.1419  -3.1409  -3.1228
    -2.4392  -2.4301  -2.3950  -2.3859  -1.9732  -1.9609  -1.9393  -1.9366
    -1.5120  -1.4773  -1.4653  -1.4445  -1.3562  -1.3518  -1.3431  -1.3343
    -1.2699  -1.2579  -1.2460  -1.2125  -1.1896  -1.1696  -1.1675  -1.1619
    -1.0658  -1.0651  -1.0411  -1.0219  -0.9865  -0.9721  -0.9502  -0.9446
    -0.9445  -0.9339  -0.9129  -0.9074  -0.9027  -0.8954  -0.8739  -0.8493
    -0.8355  -0.7820  -0.7791  -0.7665  -0.7634  -0.7525  -0.7397  -0.7113
    -0.6984  -0.6952  -0.6768  -0.6485  -0.6160  -0.5844  -0.5756  -0.5639
    -0.5547  -0.5420  -0.5407  -0.5048  -0.3883  -0.3786  -0.3336  -0.3244
    -0.2737  -0.2707  -0.2284  -0.1801  -0.1545  -0.1399  -0.1130  -0.1105
    -0.0769  -0.0668  -0.0624  -0.0312  -0.0270  -0.0227  -0.0133  -0.0034
     0.1153   0.1186   0.1418   0.1451   0.2087   0.2286   0.2350   0.2420
     3.1296   3.1424   3.1578   3.1657   3.3206   3.3312   3.3464   3.3775
     4.1620   4.1645   4.2570   4.2584   4.3131   4.3172   4.4284   4.4291
     5.0586   5.0597   5.0791   5.0833   5.2709   5.2738   5.2871   5.2918
     6.7547   6.7681   6.8224   6.8319   6.8368   6.8558   6.9293   6.9329
     7.0970   7.3679   7.9548   8.1961   8.2375   8.2774   8.3924   8.4297
     8.4555   8.5711   8.6203   8.6660   8.6720   8.7753   8.9196   8.9306
     9.1228   9.1243   9.1290   9.1635   9.2522   9.2674   9.2826   9.3548

          k = 0.0000-0.3710 0.0000 (168718 PWs)   bands (ev):

   -24.5335 -24.5335 -24.5277 -24.5277 -24.4467 -24.4467 -24.4279 -24.4279
   -24.2725 -24.2725 -24.2720 -24.2720 -24.2216 -24.2216 -24.2209 -24.2209
   -21.3601 -21.3601 -21.3555 -21.3555 -21.3391 -21.3391 -21.3308 -21.3308
   -19.8369 -19.8369 -19.8300 -19.8300 -19.8011 -19.8011 -19.8009 -19.8009
   -19.7653 -19.7653 -19.7637 -19.7637 -19.7502 -19.7502 -19.7216 -19.7216
   -17.7997 -17.7997 -17.7880 -17.7880 -17.6865 -17.6865 -17.6839 -17.6839
   -16.8394 -16.8394 -16.8388 -16.8388 -16.7708 -16.7708 -16.7624 -16.7624
   -14.8926 -14.8926 -14.8830 -14.8830 -14.8146 -14.8146 -14.8027 -14.8027
   -12.7208 -12.7208 -12.7206 -12.7206 -12.6612 -12.6612 -12.6597 -12.6597
   -11.4573 -11.4573 -11.4549 -11.4549 -11.4163 -11.4163 -11.4084 -11.4084
   -10.3751 -10.3751 -10.3463 -10.3463 -10.1997 -10.1997 -10.1728 -10.1728
    -8.8738  -8.8738  -8.8594  -8.8594  -8.7493  -8.7493  -8.7288  -8.7288
    -8.3012  -8.3012  -8.2910  -8.2910  -8.1944  -8.1944  -8.1799  -8.1798
    -7.5197  -7.5197  -7.5084  -7.5084  -7.3511  -7.3511  -7.2517  -7.2517
    -7.1883  -7.1883  -7.1561  -7.1561  -7.1007  -7.1007  -7.0075  -7.0075
    -6.9292  -6.9292  -6.8730  -6.8730  -6.8346  -6.8346  -6.8203  -6.8203
    -6.7630  -6.7630  -6.6963  -6.6963  -6.6186  -6.6186  -6.6132  -6.6132
    -6.4936  -6.4936  -6.4907  -6.4907  -6.4033  -6.4033  -6.3593  -6.3593
    -5.9169  -5.9169  -5.8656  -5.8656  -5.8190  -5.8190  -5.8120  -5.8120
    -5.7167  -5.7167  -5.6504  -5.6504  -5.6312  -5.6312  -5.5232  -5.5232
    -5.4683  -5.4683  -5.3430  -5.3430  -5.3158  -5.3158  -5.2370  -5.2370
    -5.1942  -5.1942  -5.1380  -5.1380  -5.0576  -5.0576  -5.0461  -5.0461
    -3.3741  -3.3741  -3.3665  -3.3665  -3.2610  -3.2610  -3.2495  -3.2495
    -3.1884  -3.1884  -3.1800  -3.1800  -3.1262  -3.1262  -3.1206  -3.1206
    -2.2348  -2.2348  -2.2312  -2.2312  -2.1534  -2.1534  -2.1356  -2.1356
    -1.4967  -1.4967  -1.4599  -1.4599  -1.3506  -1.3506  -1.3172  -1.3172
    -1.2675  -1.2675  -1.2353  -1.2353  -1.1763  -1.1763  -1.1645  -1.1645
    -1.0783  -1.0783  -1.0317  -1.0317  -1.0214  -1.0214  -0.9590  -0.9590
    -0.9305  -0.9305  -0.8984  -0.8984  -0.8791  -0.8791  -0.8688  -0.8688
    -0.8540  -0.8540  -0.7721  -0.7721  -0.7494  -0.7494  -0.7359  -0.7359
    -0.6537  -0.6537  -0.6387  -0.6387  -0.5756  -0.5756  -0.5532  -0.5532
    -0.5469  -0.5469  -0.5040  -0.5040  -0.4164  -0.4164  -0.3166  -0.3166
    -0.2838  -0.2838  -0.2540  -0.2540  -0.1316  -0.1316  -0.1207  -0.1207
    -0.0681  -0.0681  -0.0308  -0.0308  -0.0204  -0.0204  -0.0032  -0.0032
     0.1276   0.1276   0.1373   0.1373   0.2313   0.2313   0.2423   0.2423
     3.1367   3.1367   3.1605   3.1605   3.3417   3.3417   3.3604   3.3604
     4.1446   4.1446   4.2404   4.2404   4.3181   4.3181   4.4492   4.4492
     5.0464   5.0464   5.0917   5.0917   5.2696   5.2696   5.2738   5.2738
     6.7917   6.7917   6.8063   6.8063   6.8937   6.8937   6.9054   6.9054
     7.4910   7.4910   7.7156   7.7156   8.1591   8.1591   8.3650   8.3650
     8.4081   8.4081   8.7075   8.7075   8.8883   8.8883   8.9849   8.9849
     9.1296   9.1297   9.1857   9.1858   9.3042   9.3043   9.4558   9.4559

          k = 0.3333 0.0000 0.0000 (168746 PWs)   bands (ev):

   -24.5320 -24.5319 -24.5285 -24.5285 -24.4423 -24.4422 -24.4329 -24.4329
   -24.2722 -24.2720 -24.2712 -24.2710 -24.2225 -24.2221 -24.2210 -24.2206
   -21.3611 -21.3602 -21.3586 -21.3580 -21.3387 -21.3383 -21.3346 -21.3342
   -19.8359 -19.8356 -19.8327 -19.8324 -19.8015 -19.8011 -19.7987 -19.7985
   -19.7674 -19.7668 -19.7630 -19.7626 -19.7427 -19.7422 -19.7284 -19.7281
   -17.7920 -17.7917 -17.7874 -17.7871 -17.6931 -17.6924 -17.6909 -17.6901
   -16.8205 -16.8181 -16.8168 -16.8147 -16.7770 -16.7725 -16.7716 -16.7675
   -14.8869 -14.8767 -14.8668 -14.8645 -14.8119 -14.8019 -14.7917 -14.7903
   -12.7933 -12.7932 -12.7918 -12.7911 -12.7268 -12.7259 -12.7247 -12.7235
   -11.4403 -11.4357 -11.4338 -11.4283 -11.4055 -11.4014 -11.3830 -11.3766
   -10.3583 -10.3523 -10.3122 -10.3096 -10.1583 -10.1552 -10.1378 -10.1330
    -8.8370  -8.8232  -8.8204  -8.8089  -8.7429  -8.7317  -8.7316  -8.7229
    -8.2483  -8.2480  -8.2406  -8.2330  -8.1949  -8.1780  -8.1742  -8.1454
    -7.5750  -7.5200  -7.5064  -7.4609  -7.3928  -7.3858  -7.3449  -7.3402
    -7.2513  -7.2027  -7.1966  -7.1848  -7.1801  -7.1113  -7.0803  -7.0347
    -6.9755  -6.9399  -6.9249  -6.9074  -6.8820  -6.8538  -6.8510  -6.8249
    -6.7226  -6.7179  -6.6965  -6.6929  -6.6197  -6.6121  -6.6052  -6.6015
    -6.4467  -6.4440  -6.4396  -6.4390  -6.3912  -6.3802  -6.3661  -6.3570
    -5.9382  -5.8600  -5.8461  -5.8187  -5.7959  -5.7834  -5.7613  -5.7445
    -5.6878  -5.6571  -5.6015  -5.6009  -5.5850  -5.5178  -5.4971  -5.4798
    -5.4587  -5.4531  -5.4245  -5.3727  -5.3636  -5.3240  -5.2708  -5.2545
    -5.2441  -5.1992  -5.1709  -5.1395  -5.1019  -5.0981  -5.0785  -5.0670
    -3.4661  -3.4536  -3.4508  -3.4312  -3.4059  -3.3860  -3.3845  -3.3752
    -3.2195  -3.2058  -3.1976  -3.1907  -3.1698  -3.1638  -3.1626  -3.1392
    -2.3175  -2.3091  -2.2926  -2.2787  -2.0833  -2.0785  -2.0566  -2.0549
    -1.5320  -1.5171  -1.4937  -1.4916  -1.3324  -1.3256  -1.2972  -1.2816
    -1.2372  -1.2264  -1.1948  -1.1893  -1.1358  -1.1262  -1.1112  -1.1094
    -1.0525  -1.0365  -1.0364  -1.0315  -0.9928  -0.9878  -0.9808  -0.9528
    -0.9387  -0.9120  -0.9087  -0.8881  -0.8868  -0.8504  -0.8406  -0.8256
    -0.8175  -0.7870  -0.7863  -0.7698  -0.7670  -0.7536  -0.7469  -0.7240
    -0.6983  -0.6760  -0.6719  -0.6612  -0.6123  -0.6089  -0.5776  -0.5550
    -0.5333  -0.5302  -0.4976  -0.4900  -0.3938  -0.3700  -0.3613  -0.3278
    -0.2107  -0.2069  -0.1455  -0.1298  -0.1282  -0.1268  -0.0922  -0.0862
    -0.0742  -0.0605  -0.0442  -0.0394  -0.0330  -0.0196  -0.0140  -0.0058
     0.1437   0.1480   0.1847   0.1849   0.2413   0.2686   0.2791   0.2818
     3.0903   3.1046   3.1191   3.1296   3.2684   3.2782   3.3048   3.3148
     4.1800   4.1813   4.2278   4.2302   4.3451   4.3487   4.3982   4.4025
     5.0754   5.0789   5.0808   5.0899   5.2586   5.2630   5.2650   5.2770
     6.7655   6.7669   6.7898   6.8107   6.8757   6.8848   6.9204   6.9327
     7.2882   7.6418   7.8226   8.0034   8.1943   8.2647   8.4007   8.4815
     8.5044   8.6817   8.6989   8.7126   8.8076   8.8448   8.8749   8.8808
     8.9977   9.0297   9.0353   9.0646   9.1605   9.2284   9.3084   9.3534

          k = 0.3333-0.3710 0.0000 (168666 PWs)   bands (ev):

   -24.5317 -24.5317 -24.5287 -24.5287 -24.4423 -24.4423 -24.4329 -24.4329
   -24.2717 -24.2717 -24.2715 -24.2715 -24.2217 -24.2217 -24.2214 -24.2214
   -21.3606 -21.3606 -21.3583 -21.3583 -21.3386 -21.3386 -21.3344 -21.3344
   -19.8358 -19.8358 -19.8324 -19.8324 -19.8000 -19.8000 -19.7998 -19.7998
   -19.7652 -19.7652 -19.7647 -19.7647 -19.7424 -19.7424 -19.7284 -19.7284
   -17.7927 -17.7927 -17.7864 -17.7864 -17.6927 -17.6927 -17.6909 -17.6909
   -16.8188 -16.8188 -16.8176 -16.8176 -16.7741 -16.7741 -16.7686 -16.7686
   -14.8763 -14.8763 -14.8711 -14.8711 -14.8025 -14.8025 -14.7962 -14.7962
   -12.7926 -12.7926 -12.7921 -12.7921 -12.7257 -12.7256 -12.7247 -12.7247
   -11.4291 -11.4291 -11.4258 -11.4258 -11.4036 -11.4036 -11.3965 -11.3965
   -10.3239 -10.3239 -10.3084 -10.3084 -10.1647 -10.1647 -10.1499 -10.1499
    -8.8266  -8.8266  -8.8123  -8.8123  -8.7483  -8.7483  -8.7309  -8.7309
    -8.2516  -8.2516  -8.2397  -8.2397  -8.1855  -8.1854  -8.1790  -8.1790
    -7.5094  -7.5094  -7.5040  -7.5040  -7.3630  -7.3630  -7.3559  -7.3559
    -7.2622  -7.2622  -7.1883  -7.1883  -7.1393  -7.1393  -7.0687  -7.0687
    -6.9536  -6.9536  -6.9123  -6.9123  -6.8570  -6.8570  -6.8360  -6.8360
    -6.7211  -6.7211  -6.6915  -6.6914  -6.6144  -6.6144  -6.5996  -6.5996
    -6.4485  -6.4485  -6.4420  -6.4420  -6.3844  -6.3844  -6.3654  -6.3654
    -5.8718  -5.8718  -5.8444  -5.8444  -5.7804  -5.7804  -5.7681  -5.7681
    -5.6538  -5.6538  -5.5902  -5.5902  -5.5507  -5.5506  -5.5115  -5.5115
    -5.4550  -5.4550  -5.3897  -5.3897  -5.3266  -5.3266  -5.2777  -5.2777
    -5.2192  -5.2192  -5.1825  -5.1825  -5.0872  -5.0872  -5.0690  -5.0690
    -3.4609  -3.4609  -3.4398  -3.4398  -3.3993  -3.3993  -3.3741  -3.3740
    -3.2030  -3.2030  -3.1968  -3.1968  -3.1678  -3.1678  -3.1571  -3.1571
    -2.2337  -2.2337  -2.2278  -2.2278  -2.1632  -2.1632  -2.1573  -2.1573
    -1.5100  -1.5100  -1.4917  -1.4917  -1.3319  -1.3319  -1.2921  -1.2921
    -1.2161  -1.2161  -1.1945  -1.1945  -1.1243  -1.1243  -1.1024  -1.1024
    -1.0562  -1.0562  -1.0384  -1.0384  -1.0220  -1.0220  -0.9622  -0.9622
    -0.9290  -0.9290  -0.9098  -0.9098  -0.8644  -0.8644  -0.8392  -0.8392
    -0.8271  -0.8271  -0.7731  -0.7731  -0.7431  -0.7431  -0.7061  -0.7061
    -0.6733  -0.6733  -0.6468  -0.6468  -0.6082  -0.6082  -0.5810  -0.5810
    -0.4972  -0.4972  -0.4850  -0.4850  -0.3721  -0.3721  -0.3292  -0.3292
    -0.2147  -0.2147  -0.1936  -0.1936  -0.1179  -0.1178  -0.1024  -0.1024
    -0.0635  -0.0635  -0.0484  -0.0484  -0.0132  -0.0132  -0.0071  -0.0071
     0.1633   0.1633   0.1695   0.1695   0.2540   0.2540   0.2636   0.2636
     3.1062   3.1062   3.1180   3.1180   3.2909   3.2909   3.3002   3.3002
     4.1737   4.1737   4.2245   4.2245   4.3481   4.3481   4.4140   4.4140
     5.0647   5.0647   5.0838   5.0838   5.2718   5.2718   5.2753   5.2753
     6.7758   6.7758   6.7857   6.7857   6.9005   6.9005   6.9103   6.9103
     7.6589   7.6589   7.9375   7.9375   8.1684   8.1684   8.2917   8.2917
     8.4234   8.4234   8.6211   8.6211   8.7250   8.7250   8.9270   8.9270
     9.0021   9.0021   9.0733   9.0733   9.1643   9.1644   9.2691   9.2692

     highest occupied, lowest unoccupied level (ev):     0.2818    3.0903

!    total energy              =   -3164.64621506 Ry
     Harris-Foulkes estimate   =   -3164.64621506 Ry
     estimated scf accuracy    <          9.7E-09 Ry

     total all-electron energy =    -11936.427521 Ry

     The total energy is the sum of the following terms:

     one-electron contribution =   -1805.37815733 Ry
     hartree contribution      =    1123.70140248 Ry
     xc contribution           =    -617.64800674 Ry
     ewald contribution        =   -1002.99994123 Ry
     Dispersion Correction     =      -0.59780619 Ry
     one-center paw contrib.   =    -861.72370605 Ry

     convergence has been achieved in  15 iterations

     Forces acting on atoms (cartesian axes, Ry/au):

     atom    1 type  4   force =     0.00228634    0.00132900   -0.00047920
     atom    2 type  4   force =    -0.00228634   -0.00132900   -0.00047920
     atom    3 type  4   force =     0.00228679   -0.00132867    0.00047795
     atom    4 type  4   force =    -0.00228679    0.00132867    0.00047795
     atom    5 type  4   force =     0.00319579    0.00209023   -0.00136970
     atom    6 type  4   force =    -0.00319579   -0.00209023   -0.00136970
     atom    7 type  4   force =     0.00319609   -0.00209119    0.00137067
     atom    8 type  4   force =    -0.00319609    0.00209119    0.00137067
     atom    9 type  4   force =     0.00040125    0.00019159    0.00069416
     atom   10 type  4   force =    -0.00040125   -0.00019159    0.00069416
     atom   11 type  4   force =     0.00040101   -0.00019114   -0.00069509
     atom   12 type  4   force =    -0.00040101    0.00019114   -0.00069509
     atom   13 type  4   force =     0.00012370   -0.00029899   -0.00067639
     atom   14 type  4   force =    -0.00012370    0.00029899   -0.00067639
     atom   15 type  4   force =     0.00012210    0.00030248    0.00067691
     atom   16 type  4   force =    -0.00012210   -0.00030248    0.00067691
     atom   17 type  2   force =    -0.00151545    0.00534600   -0.00183788
     atom   18 type  2   force =     0.00151545   -0.00534600   -0.00183788
     atom   19 type  2   force =    -0.00151458   -0.00534673    0.00183725
     atom   20 type  2   force =     0.00151458    0.00534673    0.00183725
     atom   21 type  2   force =    -0.00089182   -0.00064798    0.00002933
     atom   22 type  2   force =     0.00089182    0.00064798    0.00002933
     atom   23 type  2   force =    -0.00089260    0.00064674   -0.00002919
     atom   24 type  2   force =     0.00089260   -0.00064674   -0.00002919
     atom   25 type  2   force =    -0.00259345   -0.00087005   -0.00055343
     atom   26 type  2   force =     0.00259345    0.00087005   -0.00055343
     atom   27 type  2   force =    -0.00259205    0.00087193    0.00055476
     atom   28 type  2   force =     0.00259205   -0.00087193    0.00055476
     atom   29 type  2   force =    -0.00417242   -0.00085542    0.00085847
     atom   30 type  2   force =     0.00417242    0.00085542    0.00085847
     atom   31 type  2   force =    -0.00417188    0.00085714   -0.00085746
     atom   32 type  2   force =     0.00417188   -0.00085714   -0.00085746
     atom   33 type  2   force =     0.00040959    0.00122996    0.00093547
     atom   34 type  2   force =    -0.00040959   -0.00122996    0.00093547
     atom   35 type  2   force =     0.00040887   -0.00122871   -0.00093459
     atom   36 type  2   force =    -0.00040887    0.00122871   -0.00093459
     atom   37 type  2   force =    -0.00060913   -0.00014520    0.00040216
     atom   38 type  2   force =     0.00060913    0.00014520    0.00040216
     atom   39 type  2   force =    -0.00060806    0.00014487   -0.00040295
     atom   40 type  2   force =     0.00060806   -0.00014487   -0.00040295
     atom   41 type  1   force =     0.00144915    0.00081933    0.00257886
     atom   42 type  1   force =    -0.00144915   -0.00081933    0.00257886
     atom   43 type  1   force =     0.00144985   -0.00082740   -0.00257912
     atom   44 type  1   force =    -0.00144985    0.00082740   -0.00257912
     atom   45 type  1   force =     0.00205352   -0.00206990   -0.00182955
     atom   46 type  1   force =    -0.00205352    0.00206990   -0.00182955
     atom   47 type  1   force =     0.00205448    0.00208001    0.00183059
     atom   48 type  1   force =    -0.00205448   -0.00208001    0.00183059
     atom   49 type  1   force =     0.00462141   -0.00147952    0.00124157
     atom   50 type  1   force =    -0.00462141    0.00147952    0.00124157
     atom   51 type  1   force =     0.00462159    0.00146591   -0.00124245
     atom   52 type  1   force =    -0.00462159   -0.00146591   -0.00124245
     atom   53 type  3   force =    -0.00039075    0.00062029    0.00124621
     atom   54 type  3   force =     0.00039075   -0.00062029    0.00124621
     atom   55 type  3   force =    -0.00039073   -0.00062128   -0.00124694
     atom   56 type  3   force =     0.00039073    0.00062128   -0.00124694
     atom   57 type  3   force =    -0.00062462   -0.00050579   -0.00035286
     atom   58 type  3   force =     0.00062462    0.00050579   -0.00035286
     atom   59 type  3   force =    -0.00062453    0.00050500    0.00035306
     atom   60 type  3   force =     0.00062453   -0.00050500    0.00035306
     atom   61 type  3   force =    -0.00354844   -0.00392709    0.00037092
     atom   62 type  3   force =     0.00354844    0.00392709    0.00037092
     atom   63 type  3   force =    -0.00354888    0.00392708   -0.00037122
     atom   64 type  3   force =     0.00354888   -0.00392708   -0.00037122
     atom   65 type  4   force =    -0.00259156   -0.00083171   -0.00129000
     atom   66 type  4   force =     0.00259156    0.00083171   -0.00129000
     atom   67 type  4   force =    -0.00259470    0.00084514    0.00129567
     atom   68 type  4   force =     0.00259470   -0.00084514    0.00129567
     atom   69 type  4   force =    -0.00239560    0.00010544    0.00000120
     atom   70 type  4   force =     0.00239560   -0.00010544    0.00000120
     atom   71 type  4   force =    -0.00238718   -0.00009660    0.00000117
     atom   72 type  4   force =     0.00238718    0.00009660    0.00000117
     atom   73 type  4   force =    -0.00014231    0.00010930    0.00022065
     atom   74 type  4   force =     0.00014231   -0.00010930    0.00022065
     atom   75 type  4   force =    -0.00014032   -0.00011182   -0.00021908
     atom   76 type  4   force =     0.00014032    0.00011182   -0.00021908
     atom   77 type  4   force =    -0.00013190    0.00017515    0.00093317
     atom   78 type  4   force =     0.00013190   -0.00017515    0.00093317
     atom   79 type  4   force =    -0.00013116   -0.00017508   -0.00093428
     atom   80 type  4   force =     0.00013116    0.00017508   -0.00093428
     atom   81 type  2   force =     0.00180174   -0.00616403   -0.00195517
     atom   82 type  2   force =    -0.00180174    0.00616403   -0.00195517
     atom   83 type  2   force =     0.00180142    0.00616273    0.00195432
     atom   84 type  2   force =    -0.00180142   -0.00616273    0.00195432
     atom   85 type  2   force =     0.00026464    0.00116411    0.00037211
     atom   86 type  2   force =    -0.00026464   -0.00116411    0.00037211
     atom   87 type  2   force =     0.00026467   -0.00116380   -0.00037250
     atom   88 type  2   force =    -0.00026467    0.00116380   -0.00037250
     atom   89 type  2   force =     0.00272789    0.00126416    0.00121302
     atom   90 type  2   force =    -0.00272789   -0.00126416    0.00121302
     atom   91 type  2   force =     0.00272881   -0.00126177   -0.00121267
     atom   92 type  2   force =    -0.00272881    0.00126177   -0.00121267
     atom   93 type  2   force =     0.00430440    0.00035126    0.00144125
     atom   94 type  2   force =    -0.00430440   -0.00035126    0.00144125
     atom   95 type  2   force =     0.00430336   -0.00036049   -0.00144561
     atom   96 type  2   force =    -0.00430336    0.00036049   -0.00144561
     atom   97 type  2   force =    -0.00093341   -0.00072246   -0.00069488
     atom   98 type  2   force =     0.00093341    0.00072246   -0.00069488
     atom   99 type  2   force =    -0.00093512    0.00072465    0.00069486
     atom  100 type  2   force =     0.00093512   -0.00072465    0.00069486
     atom  101 type  2   force =     0.00092351   -0.00083274   -0.00001271
     atom  102 type  2   force =    -0.00092351    0.00083274   -0.00001271
     atom  103 type  2   force =     0.00091996    0.00083652    0.00001157
     atom  104 type  2   force =    -0.00091996   -0.00083652    0.00001157
     atom  105 type  1   force =    -0.00240592   -0.00358031   -0.00127460
     atom  106 type  1   force =     0.00240592    0.00358031   -0.00127460
     atom  107 type  1   force =    -0.00240526    0.00359328    0.00127362
     atom  108 type  1   force =     0.00240526   -0.00359328    0.00127362
     atom  109 type  1   force =    -0.00187283    0.00281568    0.00079058
     atom  110 type  1   force =     0.00187283   -0.00281568    0.00079058
     atom  111 type  1   force =    -0.00187401   -0.00280515   -0.00079053
     atom  112 type  1   force =     0.00187401    0.00280515   -0.00079053
     atom  113 type  1   force =    -0.00413659    0.00193862    0.00443245
     atom  114 type  1   force =     0.00413659   -0.00193862    0.00443245
     atom  115 type  1   force =    -0.00413608   -0.00193377   -0.00443337
     atom  116 type  1   force =     0.00413608    0.00193377   -0.00443337
     atom  117 type  3   force =     0.00067504   -0.00058664   -0.00037168
     atom  118 type  3   force =    -0.00067504    0.00058664   -0.00037168
     atom  119 type  3   force =     0.00067476    0.00058720    0.00037136
     atom  120 type  3   force =    -0.00067476   -0.00058720    0.00037136
     atom  121 type  3   force =     0.00374920    0.00225289   -0.00242379
     atom  122 type  3   force =    -0.00374920   -0.00225289   -0.00242379
     atom  123 type  3   force =     0.00374919   -0.00225332    0.00242333
     atom  124 type  3   force =    -0.00374919    0.00225332    0.00242333
     atom  125 type  3   force =    -0.00002523    0.00047229    0.00023427
     atom  126 type  3   force =     0.00002523   -0.00047229    0.00023427
     atom  127 type  3   force =    -0.00002537   -0.00047265   -0.00023440
     atom  128 type  3   force =     0.00002537    0.00047265   -0.00023440
     atom  129 type  3   force =    -0.00023794    0.00030703    0.00042109
     atom  130 type  3   force =     0.00023794   -0.00030703    0.00042109
     atom  131 type  3   force =    -0.00023784   -0.00030727   -0.00042102
     atom  132 type  3   force =     0.00023784    0.00030727   -0.00042102
     atom  133 type  3   force =     0.00040343    0.00063183   -0.00079077
     atom  134 type  3   force =    -0.00040343   -0.00063183   -0.00079077
     atom  135 type  3   force =     0.00040376   -0.00063212    0.00079106
     atom  136 type  3   force =    -0.00040376    0.00063212    0.00079106

     Total force =     0.038222     Total SCF correction =     0.000195


     Computing stress (Cartesian axis) and pressure

          total   stress  (Ry/bohr**3)                   (kbar)     P=   -1.45
   0.00000788  -0.00000001   0.00000000          1.16     -0.00      0.00
  -0.00000001  -0.00002230   0.00000000         -0.00     -3.28      0.00
   0.00000000   0.00000000  -0.00001513          0.00      0.00     -2.23


     Writing output data file scf.save
 
     init_run     :     65.94s CPU     68.16s WALL (       1 calls)
     electrons    :   2202.84s CPU   2279.56s WALL (       1 calls)
     forces       :     34.35s CPU     34.76s WALL (       1 calls)
     stress       :    286.04s CPU    286.54s WALL (       1 calls)

     Called by init_run:
     wfcinit      :     55.34s CPU     57.31s WALL (       1 calls)
     potinit      :      3.72s CPU      3.76s WALL (       1 calls)

     Called by electrons:
     c_bands      :   1974.24s CPU   2039.01s WALL (      15 calls)
     sum_band     :    207.59s CPU    216.98s WALL (      15 calls)
     v_of_rho     :      3.33s CPU      3.58s WALL (      16 calls)
     newd         :      7.55s CPU      9.85s WALL (      16 calls)
     PAW_pot      :      9.37s CPU      9.38s WALL (      16 calls)
     mix_rho      :      0.85s CPU      0.95s WALL (      15 calls)

     Called by c_bands:
     init_us_2    :     11.01s CPU     11.13s WALL (     132 calls)
     cegterg      :   1929.36s CPU   1994.02s WALL (      60 calls)

     Called by sum_band:
     sum_band:bec :      0.11s CPU      0.11s WALL (      60 calls)
     addusdens    :      7.83s CPU      9.96s WALL (      15 calls)

     Called by *egterg:
     h_psi        :   1021.29s CPU   1068.46s WALL (     311 calls)
     s_psi        :    237.67s CPU    237.71s WALL (     311 calls)
     g_psi        :      5.78s CPU      5.78s WALL (     247 calls)
     cdiaghg      :    136.75s CPU    136.80s WALL (     307 calls)

     Called by h_psi:
     h_psi:pot    :   1013.40s CPU   1060.39s WALL (     311 calls)
     h_psi:calbec :    226.93s CPU    227.31s WALL (     311 calls)
     vloc_psi     :    548.77s CPU    595.29s WALL (     311 calls)
     add_vuspsi   :    237.71s CPU    237.79s WALL (     311 calls)

     General routines
     calbec       :    339.93s CPU    340.45s WALL (     391 calls)
     fft          :      2.97s CPU      3.40s WALL (     232 calls)
     fftw         :    582.38s CPU    635.74s WALL (  128498 calls)
 
     Parallel routines
     fft_scatter  :     94.97s CPU    146.53s WALL (  128730 calls)
 
     PWSCF        : 43m24.24s CPU    45m16.68s WALL

 
   This run was terminated on:   6:48: 9  21Dec2017            

=------------------------------------------------------------------------------=
   JOB DONE.
=------------------------------------------------------------------------------=
