
     Program PWSCF v.6.1 (svn rev. 13369) starts on  4Nov2017 at  3:33:48 

     This program is part of the open-source Quantum ESPRESSO suite
     for quantum simulation of materials; please cite
         "P. Giannozzi et al., J. Phys.:Condens. Matter 21 395502 (2009);
          URL http://www.quantum-espresso.org", 
     in publications or presentations arising from this work. More details at
     http://www.quantum-espresso.org/quote

     Parallel version (MPI), running on     8 processors
     R & G space division:  proc/nbgrp/npool/nimage =       8
     Waiting for input...
     Reading input from standard input

     Current dimensions of program PWSCF are:
     Max number of different atomic species (ntypx) = 10
     Max number of k-points (npk) =  40000
     Max angular momentum in pseudopotentials (lmaxx) =  3
               file C.pbe-n-kjpaw_psl.0.1.UPF: wavefunction(s)  2P renormalized
               file N.pbe-n-kjpaw_psl.0.1.UPF: wavefunction(s)  2P renormalized
               file H.pbe-kjpaw_psl.0.1.UPF: wavefunction(s)  1S renormalized
               file O.pbe-n-kjpaw_psl.0.1.UPF: wavefunction(s)  2P renormalized

     -------------------------------------
     Parameters for Dispersion Correction:
     -------------------------------------
       atom      VdW radius       C_6     

        C          2.744         60.710
        N          2.640         42.670
        H          1.892          4.857
        O          2.536         24.284

     Subspace diagonalization in iterative solution of the eigenvalue problem:
     a serial algorithm will be used

 
     Parallelization info
     --------------------
     sticks:   dense  smooth     PW     G-vecs:    dense   smooth      PW
     Min        1862    1862    486               112598   112598   15041
     Max        1863    1863    487               112599   112599   15042
     Sum       14899   14899   3889               900791   900791  120329
 


     bravais-lattice index     =            0
     lattice parameter (alat)  =      21.1045  a.u.
     unit-cell volume          =    6667.0655 (a.u.)^3
     number of atoms/cell      =          128
     number of atomic types    =            4
     number of electrons       =       288.00
     number of Kohn-Sham states=          172
     kinetic-energy cutoff     =     100.0000  Ry
     charge density cutoff     =     400.0000  Ry
     convergence threshold     =      1.0E-08
     mixing beta               =       0.5000
     number of iterations used =            8  plain     mixing
     Exchange-correlation      =  SLA  PW   PBX  PBC ( 1  4  3  4 0 0)

     celldm(1)=  21.104461  celldm(2)=   0.000000  celldm(3)=   0.000000
     celldm(4)=   0.000000  celldm(5)=   0.000000  celldm(6)=   0.000000

     crystal axes: (cart. coord. in units of alat)
               a(1) = (   1.000000   0.000000   0.000000 )  
               a(2) = (   0.000000   1.050143   0.000000 )  
               a(3) = (  -0.257371   0.000000   0.675404 )  

     reciprocal axes: (cart. coord. in units 2 pi/alat)
               b(1) = (  1.000000  0.000000  0.381063 )  
               b(2) = (  0.000000  0.952251  0.000000 )  
               b(3) = (  0.000000  0.000000  1.480596 )  


     PseudoPot. # 1 for  C read from file:
     /scratch/ahofstet/pseudo/C.pbe-n-kjpaw_psl.0.1.UPF
     MD5 check sum: 430fe95172b1e11ef3f8ed03bac87931
     Pseudo is Projector augmented-wave + core cor, Zval =  4.0
     Generated using "atomic" code by A. Dal Corso  v.5.0.99 svn rev. 10869
     Shape of augmentation charge: BESSEL
     Using radial grid of 1073 points,  4 beta functions with: 
                l(1) =   0
                l(2) =   0
                l(3) =   1
                l(4) =   1
     Q(r) pseudized with 0 coefficients 


     PseudoPot. # 2 for  N read from file:
     /scratch/ahofstet/pseudo/N.pbe-n-kjpaw_psl.0.1.UPF
     MD5 check sum: f73187c8b701007e77325f868c9291d7
     Pseudo is Projector augmented-wave + core cor, Zval =  5.0
     Generated using "atomic" code by A. Dal Corso  v.5.0.99 svn rev. 10869
     Shape of augmentation charge: PSQ
     Using radial grid of 1085 points,  4 beta functions with: 
                l(1) =   0
                l(2) =   0
                l(3) =   1
                l(4) =   1
     Q(r) pseudized with 0 coefficients 


     PseudoPot. # 3 for  H read from file:
     /scratch/ahofstet/pseudo/H.pbe-kjpaw_psl.0.1.UPF
     MD5 check sum: 94e484f906d9e9773b2f6e52662335b2
     Pseudo is Projector augmented-wave, Zval =  1.0
     Generated using "atomic" code by A. Dal Corso  v.5.0.99 svn rev. 10869
     Shape of augmentation charge: PSQ
     Using radial grid of  929 points,  2 beta functions with: 
                l(1) =   0
                l(2) =   0
     Q(r) pseudized with 0 coefficients 


     PseudoPot. # 4 for  O read from file:
     /scratch/ahofstet/pseudo/O.pbe-n-kjpaw_psl.0.1.UPF
     MD5 check sum: 3f94a2996a3169367d6eb21d9b593f20
     Pseudo is Projector augmented-wave + core cor, Zval =  6.0
     Generated using "atomic" code by A. Dal Corso  v.5.0.99 svn rev. 10869
     Shape of augmentation charge: BESSEL
     Using radial grid of 1095 points,  4 beta functions with: 
                l(1) =   0
                l(2) =   0
                l(3) =   1
                l(4) =   1
     Q(r) pseudized with 0 coefficients 


     atomic species   valence    mass     pseudopotential
        C              4.00    12.01070      C( 1.00)
        N              5.00    14.00670      N( 1.00)
        H              1.00     1.00794      H( 1.00)
        O              6.00    15.99940      O( 1.00)

      2 Sym. Ops., with inversion, found



   Cartesian axes

     site n.     atom                  positions (alat units)
         1           C   tau(   1) = (  -0.1645376   0.9197796   0.6729262  )
         2           C   tau(   2) = (   0.7784836   0.3947128   0.3401686  )
         3           C   tau(   3) = (   0.9071662   0.1303636   0.0024773  )
         4           C   tau(   4) = (  -0.0358550   0.6554304   0.3352350  )
         5           C   tau(   5) = (   0.2671321   0.8960782   0.6288004  )
         6           C   tau(   6) = (   0.3468137   0.3710035   0.3842976  )
         7           C   tau(   7) = (   0.4754965   0.1540651   0.0466032  )
         8           C   tau(   8) = (   0.3958149   0.6791398   0.2911060  )
         9           C   tau(   9) = (   0.2656122   0.9358568   0.4975775  )
        10           C   tau(  10) = (   0.3483358   0.4107824   0.5155222  )
        11           C   tau(  11) = (   0.4770164   0.1142864   0.1778260  )
        12           C   tau(  12) = (   0.3942928   0.6393609   0.1598814  )
        13           C   tau(  13) = (   0.2553338   0.0210947   0.4740737  )
        14           C   tau(  14) = (   0.3586132   0.5461649   0.5390207  )
        15           C   tau(  15) = (   0.4872948   1.0290485   0.2013298  )
        16           C   tau(  16) = (   0.3840154   0.5039784   0.1363828  )
        17           C   tau(  17) = (   0.1405010   0.0866545   0.5127467  )
        18           C   tau(  18) = (   0.4734483   0.6117252   0.5003535  )
        19           C   tau(  19) = (   0.6021276   0.9634887   0.1626568  )
        20           C   tau(  20) = (   0.2691803   0.4384181   0.1750501  )
        21           C   tau(  21) = (   0.6270115   0.9504509   0.0276590  )
        22           C   tau(  22) = (   0.2442992   0.4253762   0.3100483  )
        23           C   tau(  23) = (   0.1156171   0.0996924   0.6477445  )
        24           C   tau(  24) = (   0.4983294   0.6247671   0.3653553  )
        25           C   tau(  25) = (   0.0711522   0.8996008   0.1315045  )
        26           C   tau(  26) = (   0.8001677   0.3745288   0.2061874  )
        27           C   tau(  27) = (   0.6714764   0.1505425   0.5438991  )
        28           C   tau(  28) = (  -0.0575392   0.6756145   0.4692162  )
        29           C   tau(  29) = (  -0.0123486   0.9890175   0.1939368  )
        30           C   tau(  30) = (   0.8836670   0.4639448   0.1437515  )
        31           C   tau(  31) = (   0.7549772   0.0611258   0.4814668  )
        32           C   tau(  32) = (  -0.1410385   0.5861985   0.5316521  )
        33           C   tau(  33) = (   0.0221709   0.0722606   0.1973385  )
        34           C   tau(  34) = (   0.8491479   0.5973315   0.1403549  )
        35           C   tau(  35) = (   0.7204577   0.9778826   0.4780651  )
        36           C   tau(  36) = (  -0.1065193   0.4528118   0.5350487  )
        37           C   tau(  37) = (   0.7216531   0.9071229   0.5964663  )
        38           C   tau(  38) = (  -0.1077139   0.3820549   0.4166434  )
        39           C   tau(  39) = (   0.0209755   0.1430204   0.0789373  )
        40           C   tau(  40) = (   0.8503425   0.6680884   0.2587602  )
        41           H   tau(  41) = (  -0.1228255   1.0077598   0.6608542  )
        42           H   tau(  42) = (   0.7367706   0.4826929   0.3522377  )
        43           H   tau(  43) = (   0.8654541   0.0423834   0.0145494  )
        44           H   tau(  44) = (   0.0058580   0.5674504   0.3231659  )
        45           H   tau(  45) = (   0.2316730   0.8305224   0.1615375  )
        46           H   tau(  46) = (   0.6396444   0.3054496   0.1761611  )
        47           H   tau(  47) = (   0.5109555   0.2196209   0.5138660  )
        48           H   tau(  48) = (   0.1029842   0.7446937   0.4992425  )
        49           H   tau(  49) = (   0.1762440   0.8821552   0.3513279  )
        50           H   tau(  50) = (   0.4377025   0.3570830   0.6617712  )
        51           H   tau(  51) = (   0.5663845   0.1679881   0.3240757  )
        52           H   tau(  52) = (   0.3049261   0.6930602   0.0136324  )
        53           H   tau(  53) = (  -0.0971461   0.8540426   0.6437196  )
        54           H   tau(  54) = (   0.7110899   0.3289767   0.3693732  )
        55           H   tau(  55) = (   0.8397747   0.1961007   0.0316840  )
        56           H   tau(  56) = (   0.0315387   0.7211665   0.3060304  )
        57           H   tau(  57) = (   0.1798629   0.9166426   0.6688795  )
        58           H   tau(  58) = (   0.4340794   0.3915711   0.3442125  )
        59           H   tau(  59) = (   0.5627657   0.1335006   0.0065240  )
        60           H   tau(  60) = (   0.3085492   0.6585722   0.3311911  )
        61           H   tau(  61) = (   0.2744058   0.7976374   0.6297048  )
        62           H   tau(  62) = (   0.3395420   0.2725624   0.3833915  )
        63           H   tau(  63) = (   0.4682228   0.2525059   0.0456987  )
        64           H   tau(  64) = (   0.4030866   0.7775809   0.2920121  )
        65           H   tau(  65) = (   0.3512444   0.9070021   0.4564244  )
        66           H   tau(  66) = (   0.2627033   0.3819282   0.5566756  )
        67           H   tau(  67) = (   0.3913842   0.1431412   0.2189791  )
        68           H   tau(  68) = (   0.4799252   0.6682150   0.1187279  )
        69           H   tau(  69) = (   0.2638368   0.0321806   0.3762257  )
        70           H   tau(  70) = (   0.3501054   0.5572521   0.6368682  )
        71           H   tau(  71) = (   0.4787918   1.0179627   0.2991779  )
        72           H   tau(  72) = (   0.3925232   0.4928911   0.0385353  )
        73           H   tau(  73) = (   0.3351227   0.0652116   0.5113298  )
        74           H   tau(  74) = (   0.2788247   0.5902818   0.5017645  )
        75           H   tau(  75) = (   0.4075059   0.9849316   0.1640737  )
        76           H   tau(  76) = (   0.4638039   0.4598614   0.1736391  )
        77           H   tau(  77) = (   0.0631590   0.0415418   0.4711970  )
        78           H   tau(  78) = (   0.5507891   0.5666103   0.5419027  )
        79           H   tau(  79) = (   0.6794696   1.0086014   0.2042066  )
        80           H   tau(  80) = (   0.1918395   0.4835330   0.1335008  )
        81           H   tau(  81) = (   0.1440536   0.1768549   0.4724754  )
        82           H   tau(  82) = (   0.4698937   0.7019244   0.5406277  )
        83           H   tau(  83) = (   0.5985750   0.8732884   0.2029281  )
        84           H   tau(  84) = (   0.2727349   0.3482189   0.1347759  )
        85           H   tau(  85) = (   0.3953828   1.0379127   0.6663596  )
        86           H   tau(  86) = (   0.2185586   0.5128375   0.3467532  )
        87           H   tau(  87) = (   0.3472458   0.0122306   0.0090439  )
        88           H   tau(  88) = (   0.5240700   0.5373058   0.3286504  )
        89           H   tau(  89) = (   0.7071194   0.8937119   0.0171169  )
        90           H   tau(  90) = (   0.1641924   0.3686364   0.3205944  )
        91           H   tau(  91) = (   0.0355092   0.1564314   0.6582866  )
        92           H   tau(  92) = (   0.5784362   0.6815069   0.3548092  )
        93           H   tau(  93) = (   0.0289359   0.8104549   0.1416703  )
        94           H   tau(  94) = (   0.8423839   0.2853826   0.1960280  )
        95           H   tau(  95) = (   0.7136927   0.2396884   0.5337333  )
        96           H   tau(  96) = (  -0.0997554   0.7647607   0.4793756  )
        97           H   tau(  97) = (  -0.0206661   0.9586093   0.2875316  )
        98           H   tau(  98) = (   0.8919857   0.4335358   0.0501567  )
        99           H   tau(  99) = (   0.7632947   0.0915339   0.3878719  )
       100           H   tau( 100) = (  -0.1493571   0.6166074   0.6252468  )
       101           H   tau( 101) = (   0.8976624   0.9786042   0.1552227  )
       102           H   tau( 102) = (  -0.0263447   0.4535320   0.1824677  )
       103           H   tau( 103) = (  -0.1550338   0.0715391   0.5201809  )
       104           H   tau( 104) = (   0.7689733   0.5966113   0.4929359  )
       105           H   tau( 105) = (   0.1116220   0.0810448   0.2379640  )
       106           H   tau( 106) = (   0.7596960   0.6061183   0.0997313  )
       107           H   tau( 107) = (   0.6310066   0.9690984   0.4374395  )
       108           H   tau( 108) = (  -0.0170674   0.4440250   0.5756723  )
       109           H   tau( 109) = (  -0.0402882   0.1158781   0.2602455  )
       110           H   tau( 110) = (   0.9116061   0.6409513   0.0774493  )
       111           H   tau( 111) = (   0.7829168   0.9342651   0.4151580  )
       112           H   tau( 112) = (  -0.1689775   0.4091920   0.5979543  )
       113           H   tau( 113) = (   0.6428896   0.9321947   0.6495014  )
       114           H   tau( 114) = (  -0.0289456   0.4071229   0.3636132  )
       115           H   tau( 115) = (   0.0997390   0.1179485   0.0259021  )
       116           H   tau( 116) = (   0.7715742   0.6430204   0.3117904  )
       117           H   tau( 117) = (   0.7082873   0.8117406   0.5748093  )
       118           H   tau( 118) = (  -0.0943529   0.2866724   0.4383027  )
       119           H   tau( 119) = (   0.0343413   0.2384026   0.1005943  )
       120           H   tau( 120) = (   0.8369815   0.7634709   0.2371009  )
       121           O   tau( 121) = (   0.1840042   0.8984038   0.1949227  )
       122           O   tau( 122) = (   0.6873148   0.3733270   0.1427701  )
       123           O   tau( 123) = (   0.5586244   0.1517395   0.4804808  )
       124           O   tau( 124) = (   0.0553138   0.6768162   0.5326335  )
       125           O   tau( 125) = (   0.1693579   0.8719273   0.4398439  )
       126           O   tau( 126) = (   0.4445907   0.3468562   0.5732554  )
       127           O   tau( 127) = (   0.5732707   0.1782160   0.2355597  )
       128           O   tau( 128) = (   0.2980379   0.7032871   0.1021482  )

     number of k points=     8
                       cart. coord. in units 2pi/alat
        k(    1) = (   0.0000000   0.0000000   0.0000000), wk =   0.1666667
        k(    2) = (   0.0000000   0.0000000   0.4935321), wk =   0.3333333
        k(    3) = (   0.0000000  -0.4761255   0.0000000), wk =   0.1666667
        k(    4) = (   0.0000000  -0.4761255   0.4935321), wk =   0.3333333
        k(    5) = (  -0.5000000   0.0000000  -0.1905316), wk =   0.1666667
        k(    6) = (  -0.5000000   0.0000000   0.3030005), wk =   0.3333333
        k(    7) = (  -0.5000000  -0.4761255  -0.1905316), wk =   0.1666667
        k(    8) = (  -0.5000000  -0.4761255   0.3030005), wk =   0.3333333

     Dense  grid:   900791 G-vectors     FFT dimensions: ( 135, 144, 100)

     Estimated max dynamical RAM per process >     828.19MB

     Estimated total allocated dynamical RAM >    6625.51MB

     Check: negative/imaginary core charge=   -0.000002    0.000000

     Initial potential from superposition of free atoms

     starting charge  287.99756, renormalised to  288.00000
     Starting wfc are  272 randomized atomic wfcs
     Checking if some PAW data can be deallocated... 

     total cpu time spent up to now is       54.8 secs

     per-process dynamical memory:   576.4 Mb

     Self-consistent Calculation

     iteration #  1     ecut=   100.00 Ry     beta=0.50
     Davidson diagonalization with overlap
     ethr =  1.00E-02,  avg # of iterations =  4.2

     total cpu time spent up to now is      206.2 secs

     total energy              =   -1164.09831467 Ry
     Harris-Foulkes estimate   =   -1170.78064178 Ry
     estimated scf accuracy    <      12.90361501 Ry

     iteration #  2     ecut=   100.00 Ry     beta=0.50
     Davidson diagonalization with overlap
     ethr =  4.48E-03,  avg # of iterations =  2.0

     total cpu time spent up to now is      278.5 secs

     total energy              =   -1164.73276826 Ry
     Harris-Foulkes estimate   =   -1165.34332990 Ry
     estimated scf accuracy    <       1.35799605 Ry

     iteration #  3     ecut=   100.00 Ry     beta=0.50
     Davidson diagonalization with overlap
     ethr =  4.72E-04,  avg # of iterations =  5.0

     total cpu time spent up to now is      450.2 secs

     total energy              =   -1166.41357245 Ry
     Harris-Foulkes estimate   =   -1167.18348627 Ry
     estimated scf accuracy    <       2.78399080 Ry

     iteration #  4     ecut=   100.00 Ry     beta=0.50
     Davidson diagonalization with overlap
     ethr =  4.72E-04,  avg # of iterations =  1.4

     total cpu time spent up to now is      520.1 secs

     total energy              =   -1165.38643964 Ry
     Harris-Foulkes estimate   =   -1166.46741603 Ry
     estimated scf accuracy    <       1.38659651 Ry

     iteration #  5     ecut=   100.00 Ry     beta=0.50
     Davidson diagonalization with overlap
     ethr =  4.72E-04,  avg # of iterations =  4.4

     total cpu time spent up to now is      688.7 secs

     total energy              =   -1165.19650677 Ry
     Harris-Foulkes estimate   =   -1168.20117334 Ry
     estimated scf accuracy    <       5.93634619 Ry

     iteration #  6     ecut=   100.00 Ry     beta=0.50
     Davidson diagonalization with overlap
     ethr =  4.72E-04,  avg # of iterations =  4.2

     total cpu time spent up to now is      830.3 secs

     total energy              =   -1166.33559248 Ry
     Harris-Foulkes estimate   =   -1166.33600531 Ry
     estimated scf accuracy    <       0.00386590 Ry

     iteration #  7     ecut=   100.00 Ry     beta=0.50
     Davidson diagonalization with overlap
     c_bands:  1 eigenvalues not converged
     c_bands:  2 eigenvalues not converged
     ethr =  1.34E-06,  avg # of iterations = 12.5

     total cpu time spent up to now is     1001.6 secs

     total energy              =   -1166.33817639 Ry
     Harris-Foulkes estimate   =   -1166.33933870 Ry
     estimated scf accuracy    <       0.00359922 Ry

     iteration #  8     ecut=   100.00 Ry     beta=0.50
     Davidson diagonalization with overlap
     c_bands:  2 eigenvalues not converged
     c_bands:  2 eigenvalues not converged
     ethr =  1.25E-06,  avg # of iterations = 14.8

     total cpu time spent up to now is     1095.4 secs

     total energy              =   -1166.33746353 Ry
     Harris-Foulkes estimate   =   -1166.33829132 Ry
     estimated scf accuracy    <       0.00131066 Ry

     iteration #  9     ecut=   100.00 Ry     beta=0.50
     Davidson diagonalization with overlap
     ethr =  4.55E-07,  avg # of iterations =  8.6

     total cpu time spent up to now is     1243.9 secs

     total energy              =   -1166.33851173 Ry
     Harris-Foulkes estimate   =   -1166.33856101 Ry
     estimated scf accuracy    <       0.00092888 Ry

     iteration # 10     ecut=   100.00 Ry     beta=0.50
     Davidson diagonalization with overlap
     ethr =  3.23E-07,  avg # of iterations =  1.0

     total cpu time spent up to now is     1313.2 secs

     total energy              =   -1166.33801483 Ry
     Harris-Foulkes estimate   =   -1166.33851376 Ry
     estimated scf accuracy    <       0.00082921 Ry

     iteration # 11     ecut=   100.00 Ry     beta=0.50
     Davidson diagonalization with overlap
     ethr =  2.88E-07,  avg # of iterations =  4.6

     total cpu time spent up to now is     1402.6 secs

     total energy              =   -1166.33822413 Ry
     Harris-Foulkes estimate   =   -1166.33823345 Ry
     estimated scf accuracy    <       0.00001990 Ry

     iteration # 12     ecut=   100.00 Ry     beta=0.50
     Davidson diagonalization with overlap
     ethr =  6.91E-09,  avg # of iterations =  4.1

     total cpu time spent up to now is     1556.9 secs

     total energy              =   -1166.33828737 Ry
     Harris-Foulkes estimate   =   -1166.33829529 Ry
     estimated scf accuracy    <       0.00004910 Ry

     iteration # 13     ecut=   100.00 Ry     beta=0.50
     Davidson diagonalization with overlap
     ethr =  6.91E-09,  avg # of iterations =  1.0

     total cpu time spent up to now is     1626.4 secs

     total energy              =   -1166.33826624 Ry
     Harris-Foulkes estimate   =   -1166.33828762 Ry
     estimated scf accuracy    <       0.00003480 Ry

     iteration # 14     ecut=   100.00 Ry     beta=0.50
     Davidson diagonalization with overlap
     ethr =  6.91E-09,  avg # of iterations =  4.0

     total cpu time spent up to now is     1757.9 secs

     total energy              =   -1166.33828093 Ry
     Harris-Foulkes estimate   =   -1166.33828297 Ry
     estimated scf accuracy    <       0.00000924 Ry

     iteration # 15     ecut=   100.00 Ry     beta=0.50
     Davidson diagonalization with overlap
     ethr =  3.21E-09,  avg # of iterations =  1.0

     total cpu time spent up to now is     1827.3 secs

     total energy              =   -1166.33827812 Ry
     Harris-Foulkes estimate   =   -1166.33828103 Ry
     estimated scf accuracy    <       0.00000578 Ry

     iteration # 16     ecut=   100.00 Ry     beta=0.50
     Davidson diagonalization with overlap
     ethr =  2.01E-09,  avg # of iterations =  4.2

     total cpu time spent up to now is     1937.0 secs

     total energy              =   -1166.33828015 Ry
     Harris-Foulkes estimate   =   -1166.33828027 Ry
     estimated scf accuracy    <       0.00000048 Ry

     iteration # 17     ecut=   100.00 Ry     beta=0.50
     Davidson diagonalization with overlap
     ethr =  1.66E-10,  avg # of iterations =  2.0

     total cpu time spent up to now is     2010.5 secs

     total energy              =   -1166.33828006 Ry
     Harris-Foulkes estimate   =   -1166.33828018 Ry
     estimated scf accuracy    <       0.00000027 Ry

     iteration # 18     ecut=   100.00 Ry     beta=0.50
     Davidson diagonalization with overlap
     ethr =  9.25E-11,  avg # of iterations =  3.6

     total cpu time spent up to now is     2113.7 secs

     End of self-consistent calculation

          k = 0.0000 0.0000 0.0000 (112545 PWs)   bands (ev):

   -19.6421 -19.6371 -19.3546 -19.3520 -19.3026 -19.2993 -19.0158 -19.0127
   -14.4790 -14.3967 -14.3205 -14.2968 -13.6523 -13.6483 -13.5786 -13.5343
   -13.4309 -13.3452 -13.2692 -13.2283 -12.0024 -11.9079 -11.8729 -11.7749
   -11.6164 -11.5823 -11.5320 -11.4928 -10.2750 -10.2746 -10.1002 -10.0808
    -9.5091  -9.4669  -9.3924  -9.2335  -8.4597  -8.4213  -8.3508  -8.2853
    -8.0828  -8.0325  -7.9109  -7.8916  -7.4445  -7.2849  -7.2747  -7.0938
    -6.9406  -6.9293  -6.9103  -6.6538  -6.5767  -6.5396  -6.4552  -6.3496
    -6.1645  -5.8980  -5.8352  -5.6846  -5.6325  -5.6003  -5.4561  -5.2949
    -5.1473  -5.1378  -5.0607  -4.9630  -4.8531  -4.8418  -4.7741  -4.7697
    -4.7672  -4.6881  -4.6671  -4.5945  -4.4721  -4.4248  -4.3331  -4.1357
    -4.0175  -3.9290  -3.9220  -3.8731  -3.8168  -3.7711  -3.6111  -3.5975
    -3.5399  -3.5079  -3.4352  -3.4166  -3.3486  -3.3212  -3.2204  -3.0512
    -3.0443  -2.9723  -2.9448  -2.9432  -2.8524  -2.7994  -2.6925  -2.6621
    -2.5273  -2.4783  -2.3995  -2.3899  -2.3586  -2.2645  -2.1879  -2.1493
    -2.1177  -2.0724  -1.9985  -1.9595  -1.8817  -1.8732  -1.8721  -1.8377
    -1.7395  -1.7338  -1.6949  -1.6888  -1.6594  -1.5757  -1.5477  -1.5092
    -1.3615  -1.3210  -1.2882  -1.2353  -1.2174  -1.1325  -1.1122  -0.7409
    -0.5090  -0.3942  -0.3246  -0.3172  -0.2385  -0.2260  -0.1789  -0.1683
     5.2738   5.5621   5.7390   6.2175   6.2580   6.3475   6.4195   6.4638
     6.4747   6.7573   6.7826   6.8279   6.9229   7.1716   7.2552   7.3211
     7.3292   7.3316   7.5566   7.6016   7.6355   7.7642   7.7922   7.7977
     7.8655   7.9326   7.9894   8.0178

          k = 0.0000 0.0000 0.4935 (112616 PWs)   bands (ev):

   -19.5993 -19.5968 -19.4852 -19.4846 -19.1717 -19.1669 -19.0565 -19.0555
   -14.4419 -14.4010 -14.3185 -14.3036 -13.6634 -13.6500 -13.5759 -13.5482
   -13.4110 -13.3684 -13.2911 -13.2738 -11.9327 -11.8886 -11.8418 -11.8032
   -11.6308 -11.5803 -11.4961 -11.4911 -10.2547 -10.2490 -10.1509 -10.1339
    -9.5046  -9.4242  -9.3696  -9.3481  -8.4018  -8.3583  -8.3242  -8.2946
    -8.1137  -8.0387  -7.9930  -7.9723  -7.3303  -7.2539  -7.2238  -7.1125
    -6.9977  -6.9780  -6.7884  -6.6284  -6.5906  -6.5040  -6.4459  -6.3722
    -6.0285  -5.9475  -5.7531  -5.7144  -5.6048  -5.5648  -5.4985  -5.3476
    -5.2354  -5.1708  -5.0870  -5.0466  -4.9179  -4.8957  -4.8762  -4.8390
    -4.8139  -4.7231  -4.6529  -4.6153  -4.5233  -4.4409  -4.1617  -4.1255
    -3.9903  -3.9336  -3.8661  -3.8007  -3.7820  -3.7027  -3.6629  -3.6197
    -3.5763  -3.5620  -3.4785  -3.4238  -3.3101  -3.2983  -3.2418  -3.1248
    -3.0199  -2.9800  -2.8837  -2.8823  -2.7610  -2.6644  -2.6529  -2.5880
    -2.5002  -2.4737  -2.4614  -2.4448  -2.3056  -2.2863  -2.1756  -2.1743
    -2.0683  -2.0616  -2.0230  -2.0123  -1.9371  -1.9246  -1.8579  -1.8178
    -1.7943  -1.7578  -1.7031  -1.6611  -1.6411  -1.6085  -1.5373  -1.4552
    -1.3341  -1.3297  -1.2608  -1.2503  -1.2050  -1.1130  -1.0914  -0.8502
    -0.4767  -0.3934  -0.3822  -0.3170  -0.2434  -0.2168  -0.1979  -0.1864
     5.4169   5.5267   5.7651   5.8813   6.0773   6.4317   6.4805   6.5610
     6.6114   6.6307   6.7840   6.9828   7.0222   7.0875   7.1323   7.2906
     7.2989   7.3646   7.4229   7.6052   7.6087   7.7518   7.8097   7.8709
     7.9959   8.0713   8.0780   8.1630

          k = 0.0000-0.4761 0.0000 (112650 PWs)   bands (ev):

   -19.6396 -19.6396 -19.3533 -19.3533 -19.3010 -19.3010 -19.0142 -19.0142
   -14.4401 -14.4400 -14.3093 -14.3092 -13.6448 -13.6447 -13.5567 -13.5566
   -13.3900 -13.3900 -13.2512 -13.2512 -11.9523 -11.9522 -11.8204 -11.8203
   -11.5947 -11.5946 -11.5253 -11.5253 -10.2736 -10.2736 -10.0864 -10.0864
    -9.4861  -9.4860  -9.3270  -9.3270  -8.3963  -8.3963  -8.3393  -8.3393
    -8.0590  -8.0588  -7.9348  -7.9348  -7.3510  -7.3509  -7.1406  -7.1405
    -6.9742  -6.9742  -6.7262  -6.7262  -6.5640  -6.5639  -6.4863  -6.4863
    -6.1118  -6.1118  -5.6950  -5.6950  -5.5162  -5.5162  -5.3503  -5.3503
    -5.1761  -5.1761  -5.0431  -5.0430  -4.8597  -4.8597  -4.7966  -4.7966
    -4.7494  -4.7494  -4.6528  -4.6528  -4.4662  -4.4661  -4.0588  -4.0588
    -3.9972  -3.9971  -3.8617  -3.8617  -3.8302  -3.8301  -3.6212  -3.6210
    -3.5381  -3.5381  -3.4262  -3.4261  -3.3725  -3.3725  -3.1725  -3.1725
    -3.0408  -3.0407  -2.9426  -2.9425  -2.7636  -2.7636  -2.6539  -2.6538
    -2.4747  -2.4746  -2.4133  -2.4132  -2.3430  -2.3430  -2.1764  -2.1763
    -2.0675  -2.0675  -1.9771  -1.9771  -1.9389  -1.9388  -1.8028  -1.8028
    -1.7593  -1.7592  -1.6818  -1.6818  -1.6014  -1.6013  -1.5224  -1.5224
    -1.3146  -1.3145  -1.2935  -1.2935  -1.2308  -1.2308  -0.8803  -0.8803
    -0.4249  -0.4249  -0.3267  -0.3267  -0.2263  -0.2263  -0.1987  -0.1987
     5.4801   5.4801   5.9633   5.9633   6.1706   6.1707   6.4575   6.4576
     6.6361   6.6361   6.8264   6.8264   6.9356   6.9356   7.1734   7.1734
     7.4997   7.4998   7.5525   7.5526   7.7596   7.7596   7.8145   7.8145
     7.8663   7.8664   7.9626   7.9626

          k = 0.0000-0.4761 0.4935 (112614 PWs)   bands (ev):

   -19.5980 -19.5980 -19.4849 -19.4849 -19.1693 -19.1693 -19.0560 -19.0560
   -14.4213 -14.4211 -14.3113 -14.3112 -13.6635 -13.6634 -13.5626 -13.5625
   -13.3827 -13.3826 -13.2805 -13.2805 -11.9157 -11.9157 -11.8233 -11.8233
   -11.6037 -11.6037 -11.4914 -11.4914 -10.2552 -10.2552 -10.1413 -10.1412
    -9.4778  -9.4777  -9.3419  -9.3419  -8.3985  -8.3984  -8.3016  -8.3016
    -8.0983  -8.0982  -7.9435  -7.9434  -7.3026  -7.3025  -7.1583  -7.1583
    -6.9896  -6.9895  -6.7236  -6.7235  -6.5030  -6.5030  -6.4452  -6.4452
    -5.9728  -5.9728  -5.7077  -5.7076  -5.6242  -5.6241  -5.4413  -5.4412
    -5.2907  -5.2906  -5.0467  -5.0467  -4.8789  -4.8789  -4.8434  -4.8433
    -4.7329  -4.7329  -4.6146  -4.6146  -4.4607  -4.4606  -4.1511  -4.1510
    -3.9882  -3.9881  -3.8897  -3.8896  -3.7608  -3.7607  -3.5746  -3.5744
    -3.5462  -3.5461  -3.4438  -3.4437  -3.2945  -3.2945  -3.1781  -3.1780
    -2.9764  -2.9763  -2.9431  -2.9431  -2.7510  -2.7510  -2.6348  -2.6347
    -2.4879  -2.4878  -2.3504  -2.3504  -2.3258  -2.3258  -2.1456  -2.1456
    -2.0754  -2.0753  -2.0222  -2.0221  -1.9289  -1.9289  -1.8457  -1.8457
    -1.8020  -1.8019  -1.7106  -1.7106  -1.6066  -1.6065  -1.5053  -1.5052
    -1.3684  -1.3684  -1.2618  -1.2618  -1.1419  -1.1419  -0.9317  -0.9317
    -0.4160  -0.4159  -0.3383  -0.3383  -0.2504  -0.2504  -0.2005  -0.2004
     5.5470   5.5470   5.9067   5.9068   5.9829   5.9830   6.4424   6.4425
     6.5731   6.5731   6.8661   6.8661   7.0902   7.0902   7.3524   7.3524
     7.3969   7.3970   7.5758   7.5759   7.6534   7.6535   7.7930   7.7931
     8.0923   8.0923   8.2444   8.2445

          k =-0.5000 0.0000-0.1905 (112588 PWs)   bands (ev):

   -19.6406 -19.6387 -19.3548 -19.3518 -19.3026 -19.2994 -19.0147 -19.0138
   -14.4685 -14.3900 -14.3353 -14.3050 -13.6512 -13.6375 -13.5852 -13.5343
   -13.4202 -13.3372 -13.2780 -13.2399 -11.9835 -11.8871 -11.8726 -11.7962
   -11.6360 -11.5556 -11.5395 -11.5216 -10.2189 -10.2002 -10.1779 -10.1281
    -9.4951  -9.4040  -9.3853  -9.3331  -8.4445  -8.3836  -8.3091  -8.3023
    -8.0405  -8.0219  -8.0123  -7.9700  -7.3697  -7.2842  -7.1817  -7.1308
    -6.9942  -6.9452  -6.9372  -6.6120  -6.5749  -6.5740  -6.4840  -6.3691
    -5.9834  -5.9411  -5.7712  -5.6874  -5.6743  -5.5874  -5.5793  -5.3122
    -5.1448  -5.1263  -5.0350  -4.9413  -4.9284  -4.8376  -4.7743  -4.7261
    -4.6750  -4.6648  -4.6541  -4.6176  -4.5224  -4.3986  -4.3147  -4.1762
    -3.9762  -3.9287  -3.9146  -3.9135  -3.8089  -3.7194  -3.6862  -3.6362
    -3.5711  -3.5247  -3.4645  -3.4381  -3.3450  -3.3036  -3.2826  -3.1012
    -3.0696  -3.0045  -2.9761  -2.9168  -2.6793  -2.6772  -2.6725  -2.6456
    -2.5332  -2.4986  -2.4596  -2.4430  -2.3011  -2.2152  -2.1651  -2.1212
    -2.0924  -2.0745  -2.0414  -1.9771  -1.9624  -1.8648  -1.8028  -1.7941
    -1.7904  -1.7539  -1.7289  -1.6410  -1.6357  -1.6136  -1.5949  -1.4819
    -1.4365  -1.3482  -1.2888  -1.2371  -1.1640  -1.1631  -0.9995  -0.7722
    -0.4807  -0.3982  -0.3746  -0.3028  -0.2367  -0.2226  -0.1787  -0.1757
     5.2384   5.3885   6.1326   6.1755   6.2281   6.3134   6.3151   6.6401
     6.6841   6.6873   6.7684   6.8717   6.9658   7.0490   7.1668   7.2946
     7.3307   7.3865   7.5602   7.5696   7.5827   7.6691   7.6847   7.6856
     7.7810   7.9253   7.9280   8.0031

          k =-0.5000 0.0000 0.3030 (112579 PWs)   bands (ev):

   -19.5997 -19.5963 -19.4862 -19.4837 -19.1703 -19.1683 -19.0580 -19.0540
   -14.4459 -14.4018 -14.3134 -14.3032 -13.6610 -13.6571 -13.5693 -13.5491
   -13.4179 -13.3695 -13.2906 -13.2656 -11.9478 -11.8952 -11.8409 -11.7920
   -11.6087 -11.5988 -11.5001 -11.4817 -10.2189 -10.2164 -10.1828 -10.1740
    -9.4894  -9.4843  -9.3794  -9.2899  -8.4224  -8.3666  -8.3562  -8.2683
    -8.1247  -8.0415  -7.9586  -7.9210  -7.3170  -7.2670  -7.2562  -7.1392
    -7.0249  -6.9762  -6.7618  -6.6202  -6.5615  -6.5300  -6.4380  -6.3517
    -6.0880  -5.9677  -5.6690  -5.6534  -5.6360  -5.6118  -5.4816  -5.3293
    -5.2410  -5.1931  -5.0964  -5.0646  -4.9253  -4.9075  -4.8640  -4.8292
    -4.7785  -4.7511  -4.6879  -4.6263  -4.4463  -4.4139  -4.2585  -4.0615
    -4.0524  -3.9488  -3.8255  -3.8186  -3.7425  -3.6890  -3.6456  -3.6281
    -3.6179  -3.5121  -3.5087  -3.4667  -3.2951  -3.2844  -3.2372  -3.0809
    -2.9755  -2.9675  -2.9197  -2.8917  -2.7746  -2.7228  -2.6887  -2.6514
    -2.4958  -2.4372  -2.4180  -2.3437  -2.3052  -2.2106  -2.2074  -2.1526
    -2.1225  -2.0505  -2.0365  -2.0129  -1.9899  -1.9369  -1.8384  -1.8284
    -1.8170  -1.7670  -1.7202  -1.6914  -1.6047  -1.6023  -1.5614  -1.5036
    -1.3213  -1.3005  -1.2803  -1.2509  -1.1759  -1.1028  -1.0475  -0.8946
    -0.4556  -0.4488  -0.3359  -0.2904  -0.2667  -0.2305  -0.1947  -0.1687
     5.3595   5.5691   5.8236   5.9936   6.1415   6.1509   6.4002   6.5163
     6.6056   6.6454   6.8353   7.0315   7.0739   7.0755   7.2902   7.2964
     7.4238   7.4404   7.5187   7.5488   7.5629   7.7061   7.7423   7.8403
     7.8620   8.0844   8.1748   8.1872

          k =-0.5000-0.4761-0.1905 (112600 PWs)   bands (ev):

   -19.6396 -19.6396 -19.3533 -19.3533 -19.3010 -19.3010 -19.0142 -19.0142
   -14.4315 -14.4313 -14.3206 -14.3205 -13.6411 -13.6410 -13.5595 -13.5594
   -13.3818 -13.3817 -13.2578 -13.2578 -11.9345 -11.9345 -11.8371 -11.8370
   -11.5975 -11.5974 -11.5272 -11.5272 -10.2129 -10.2128 -10.1522 -10.1522
    -9.4631  -9.4630  -9.3394  -9.3394  -8.4125  -8.4125  -8.3295  -8.3295
    -8.0522  -8.0522  -7.9461  -7.9461  -7.2869  -7.2868  -7.1929  -7.1929
    -7.0131  -7.0131  -6.7146  -6.7145  -6.5558  -6.5558  -6.4828  -6.4828
    -6.0367  -6.0367  -5.7253  -5.7252  -5.5877  -5.5877  -5.3416  -5.3416
    -5.1744  -5.1744  -5.0336  -5.0335  -4.8529  -4.8529  -4.8018  -4.8017
    -4.6933  -4.6933  -4.5944  -4.5944  -4.4296  -4.4295  -4.2626  -4.2626
    -3.9803  -3.9803  -3.8380  -3.8379  -3.8009  -3.8009  -3.6675  -3.6674
    -3.5615  -3.5614  -3.3999  -3.3998  -3.2980  -3.2979  -3.2151  -3.2150
    -3.0744  -3.0743  -2.9149  -2.9148  -2.8228  -2.8227  -2.6345  -2.6344
    -2.4821  -2.4820  -2.3880  -2.3880  -2.2669  -2.2668  -2.1103  -2.1103
    -2.0364  -2.0364  -2.0290  -2.0290  -1.9838  -1.9838  -1.8478  -1.8478
    -1.7562  -1.7561  -1.6888  -1.6888  -1.5721  -1.5721  -1.5518  -1.5518
    -1.3730  -1.3729  -1.2458  -1.2458  -1.1907  -1.1907  -0.8929  -0.8929
    -0.4049  -0.4049  -0.3585  -0.3584  -0.2253  -0.2253  -0.1928  -0.1927
     5.4278   5.4279   5.8789   5.8789   6.3301   6.3302   6.5811   6.5811
     6.7168   6.7168   6.8386   6.8387   6.9815   6.9815   7.0492   7.0493
     7.3621   7.3622   7.4849   7.4849   7.6124   7.6125   7.8303   7.8303
     7.9099   7.9099   8.1348   8.1591

          k =-0.5000-0.4761 0.3030 (112530 PWs)   bands (ev):

   -19.5980 -19.5980 -19.4849 -19.4849 -19.1693 -19.1693 -19.0560 -19.0560
   -14.4237 -14.4236 -14.3086 -14.3085 -13.6645 -13.6643 -13.5603 -13.5602
   -13.3872 -13.3871 -13.2770 -13.2769 -11.9251 -11.9251 -11.8143 -11.8142
   -11.5995 -11.5995 -11.4964 -11.4964 -10.2183 -10.2183 -10.1770 -10.1769
    -9.4879  -9.4878  -9.3381  -9.3381  -8.3954  -8.3953  -8.2969  -8.2969
    -8.0956  -8.0955  -7.9448  -7.9447  -7.2765  -7.2764  -7.2014  -7.2014
    -6.9646  -6.9645  -6.7357  -6.7356  -6.5142  -6.5141  -6.4417  -6.4416
    -5.9967  -5.9967  -5.6980  -5.6979  -5.5784  -5.5783  -5.4318  -5.4317
    -5.2906  -5.2906  -5.0585  -5.0584  -4.8979  -4.8979  -4.8098  -4.8097
    -4.7752  -4.7751  -4.6343  -4.6343  -4.4757  -4.4757  -4.0469  -4.0469
    -3.9969  -3.9968  -3.9369  -3.9368  -3.7179  -3.7178  -3.6113  -3.6112
    -3.5930  -3.5930  -3.4436  -3.4436  -3.2947  -3.2947  -3.1648  -3.1647
    -2.9975  -2.9974  -2.8905  -2.8905  -2.7109  -2.7107  -2.6470  -2.6469
    -2.4777  -2.4777  -2.4082  -2.4082  -2.2686  -2.2686  -2.1954  -2.1953
    -2.0523  -2.0523  -2.0209  -2.0208  -1.9623  -1.9622  -1.8415  -1.8415
    -1.7747  -1.7747  -1.7457  -1.7457  -1.6053  -1.6053  -1.5074  -1.5074
    -1.3715  -1.3714  -1.2590  -1.2590  -1.1341  -1.1341  -0.9358  -0.9358
    -0.4276  -0.4275  -0.3375  -0.3375  -0.2413  -0.2413  -0.1895  -0.1894
     5.5250   5.5251   5.8708   5.8709   6.1407   6.1407   6.3910   6.3910
     6.5051   6.5052   6.8244   6.8245   7.1496   7.1496   7.2718   7.2719
     7.4429   7.4429   7.6539   7.6539   7.8108   7.8108   7.9051   7.9052
     8.0079   8.0079   8.0961   8.0962

     highest occupied, lowest unoccupied level (ev):    -0.1683    5.2384

!    total energy              =   -1166.33828014 Ry
     Harris-Foulkes estimate   =   -1166.33828015 Ry
     estimated scf accuracy    <          3.5E-09 Ry

     total all-electron energy =     -4347.677130 Ry

     The total energy is the sum of the following terms:

     one-electron contribution =    -649.21549080 Ry
     hartree contribution      =     429.47595844 Ry
     xc contribution           =    -283.48714532 Ry
     ewald contribution        =    -320.46337280 Ry
     Dispersion Correction     =      -0.59962690 Ry
     one-center paw contrib.   =    -342.04860276 Ry

     convergence has been achieved in  18 iterations

     Forces acting on atoms (cartesian axes, Ry/au):

     atom    1 type  1   force =    -0.00064594    0.00075223   -0.00100215
     atom    2 type  1   force =     0.00064382    0.00074878    0.00104351
     atom    3 type  1   force =     0.00064594   -0.00075223    0.00100215
     atom    4 type  1   force =    -0.00064382   -0.00074878   -0.00104351
     atom    5 type  1   force =     0.00013561    0.00002825    0.00030350
     atom    6 type  1   force =    -0.00014156    0.00002807   -0.00026106
     atom    7 type  1   force =    -0.00013561   -0.00002825   -0.00030350
     atom    8 type  1   force =     0.00014156   -0.00002807    0.00026106
     atom    9 type  1   force =     0.00016686   -0.00071327   -0.00096222
     atom   10 type  1   force =    -0.00016368   -0.00071014    0.00092931
     atom   11 type  1   force =    -0.00016686    0.00071327    0.00096222
     atom   12 type  1   force =     0.00016368    0.00071014   -0.00092931
     atom   13 type  1   force =    -0.00064849    0.00016937   -0.00083076
     atom   14 type  1   force =     0.00065216    0.00016740    0.00086037
     atom   15 type  1   force =     0.00064849   -0.00016937    0.00083076
     atom   16 type  1   force =    -0.00065216   -0.00016740   -0.00086037
     atom   17 type  1   force =     0.00045541   -0.00056483   -0.00037011
     atom   18 type  1   force =    -0.00046327   -0.00056727    0.00036555
     atom   19 type  1   force =    -0.00045541    0.00056483    0.00037011
     atom   20 type  1   force =     0.00046327    0.00056727   -0.00036555
     atom   21 type  1   force =    -0.00068745    0.00042302   -0.00087098
     atom   22 type  1   force =     0.00068746    0.00042316    0.00083869
     atom   23 type  1   force =     0.00068745   -0.00042302    0.00087098
     atom   24 type  1   force =    -0.00068746   -0.00042316   -0.00083869
     atom   25 type  1   force =     0.00061321   -0.00000366    0.00202957
     atom   26 type  1   force =    -0.00061131    0.00000001   -0.00201669
     atom   27 type  1   force =    -0.00061321    0.00000366   -0.00202957
     atom   28 type  1   force =     0.00061131   -0.00000001    0.00201669
     atom   29 type  1   force =     0.00073938   -0.00046186    0.00002285
     atom   30 type  1   force =    -0.00073633   -0.00046505   -0.00000155
     atom   31 type  1   force =    -0.00073938    0.00046186   -0.00002285
     atom   32 type  1   force =     0.00073633    0.00046505    0.00000155
     atom   33 type  1   force =    -0.00015929    0.00016036    0.00064595
     atom   34 type  1   force =     0.00016310    0.00015826   -0.00062800
     atom   35 type  1   force =     0.00015929   -0.00016036   -0.00064595
     atom   36 type  1   force =    -0.00016310   -0.00015826    0.00062800
     atom   37 type  1   force =     0.00037837   -0.00014446   -0.00012356
     atom   38 type  1   force =    -0.00037653   -0.00014582    0.00010243
     atom   39 type  1   force =    -0.00037837    0.00014446    0.00012356
     atom   40 type  1   force =     0.00037653    0.00014582   -0.00010243
     atom   41 type  3   force =     0.00020354   -0.00082236    0.00040563
     atom   42 type  3   force =    -0.00020293   -0.00081895   -0.00040476
     atom   43 type  3   force =    -0.00020354    0.00082236   -0.00040563
     atom   44 type  3   force =     0.00020293    0.00081895    0.00040476
     atom   45 type  3   force =    -0.00083495    0.00032531    0.00058822
     atom   46 type  3   force =     0.00083802    0.00032632   -0.00059028
     atom   47 type  3   force =     0.00083495   -0.00032531   -0.00058822
     atom   48 type  3   force =    -0.00083802   -0.00032632    0.00059028
     atom   49 type  3   force =    -0.00064402    0.00023018    0.00051549
     atom   50 type  3   force =     0.00064680    0.00022788   -0.00050947
     atom   51 type  3   force =     0.00064402   -0.00023018   -0.00051549
     atom   52 type  3   force =    -0.00064680   -0.00022788    0.00050947
     atom   53 type  3   force =     0.00010007    0.00013433   -0.00020465
     atom   54 type  3   force =    -0.00010169    0.00013514    0.00020559
     atom   55 type  3   force =    -0.00010007   -0.00013433    0.00020465
     atom   56 type  3   force =     0.00010169   -0.00013514   -0.00020559
     atom   57 type  3   force =    -0.00004228   -0.00021808   -0.00038011
     atom   58 type  3   force =     0.00004125   -0.00021747    0.00038871
     atom   59 type  3   force =     0.00004228    0.00021808    0.00038011
     atom   60 type  3   force =    -0.00004125    0.00021747   -0.00038871
     atom   61 type  3   force =    -0.00009547    0.00012012    0.00021799
     atom   62 type  3   force =     0.00009580    0.00012207   -0.00021668
     atom   63 type  3   force =     0.00009547   -0.00012012   -0.00021799
     atom   64 type  3   force =    -0.00009580   -0.00012207    0.00021668
     atom   65 type  3   force =    -0.00010967    0.00027799    0.00032336
     atom   66 type  3   force =     0.00011319    0.00027817   -0.00032427
     atom   67 type  3   force =     0.00010967   -0.00027799   -0.00032336
     atom   68 type  3   force =    -0.00011319   -0.00027817    0.00032427
     atom   69 type  3   force =    -0.00047748   -0.00037453    0.00044963
     atom   70 type  3   force =     0.00048147   -0.00037359   -0.00044599
     atom   71 type  3   force =     0.00047748    0.00037453   -0.00044963
     atom   72 type  3   force =    -0.00048147    0.00037359    0.00044599
     atom   73 type  3   force =     0.00061896    0.00045131   -0.00001284
     atom   74 type  3   force =    -0.00061652    0.00045013    0.00001020
     atom   75 type  3   force =    -0.00061896   -0.00045131    0.00001284
     atom   76 type  3   force =     0.00061652   -0.00045013   -0.00001020
     atom   77 type  3   force =     0.00055774    0.00031099    0.00040133
     atom   78 type  3   force =    -0.00055719    0.00031116   -0.00040009
     atom   79 type  3   force =    -0.00055774   -0.00031099   -0.00040133
     atom   80 type  3   force =     0.00055719   -0.00031116    0.00040009
     atom   81 type  3   force =     0.00039855   -0.00020987    0.00022946
     atom   82 type  3   force =    -0.00039519   -0.00021241   -0.00023066
     atom   83 type  3   force =    -0.00039855    0.00020987   -0.00022946
     atom   84 type  3   force =     0.00039519    0.00021241    0.00023066
     atom   85 type  3   force =    -0.00049572   -0.00078233    0.00029101
     atom   86 type  3   force =     0.00049474   -0.00078123   -0.00028922
     atom   87 type  3   force =     0.00049572    0.00078233   -0.00029101
     atom   88 type  3   force =    -0.00049474    0.00078123    0.00028922
     atom   89 type  3   force =     0.00054416    0.00011339   -0.00018071
     atom   90 type  3   force =    -0.00054325    0.00011287    0.00017773
     atom   91 type  3   force =    -0.00054416   -0.00011339    0.00018071
     atom   92 type  3   force =     0.00054325   -0.00011287   -0.00017773
     atom   93 type  3   force =    -0.00047300    0.00030686   -0.00109468
     atom   94 type  3   force =     0.00047699    0.00030661    0.00109090
     atom   95 type  3   force =     0.00047300   -0.00030686    0.00109468
     atom   96 type  3   force =    -0.00047699   -0.00030661   -0.00109090
     atom   97 type  3   force =     0.00040113   -0.00032535   -0.00020347
     atom   98 type  3   force =    -0.00040403   -0.00032101    0.00020689
     atom   99 type  3   force =    -0.00040113    0.00032535    0.00020347
     atom  100 type  3   force =     0.00040403    0.00032101   -0.00020689
     atom  101 type  3   force =    -0.00046932   -0.00002712    0.00010084
     atom  102 type  3   force =     0.00047201   -0.00002714   -0.00009909
     atom  103 type  3   force =     0.00046932    0.00002712   -0.00010084
     atom  104 type  3   force =    -0.00047201    0.00002714    0.00009909
     atom  105 type  3   force =    -0.00033115   -0.00035057   -0.00020621
     atom  106 type  3   force =     0.00033379   -0.00035045    0.00020734
     atom  107 type  3   force =     0.00033115    0.00035057    0.00020621
     atom  108 type  3   force =    -0.00033379    0.00035045   -0.00020734
     atom  109 type  3   force =    -0.00019868   -0.00039979    0.00005573
     atom  110 type  3   force =     0.00020220   -0.00039694   -0.00005812
     atom  111 type  3   force =     0.00019868    0.00039979   -0.00005573
     atom  112 type  3   force =    -0.00020220    0.00039694    0.00005812
     atom  113 type  3   force =    -0.00033824    0.00022969    0.00065125
     atom  114 type  3   force =     0.00033873    0.00022909   -0.00064973
     atom  115 type  3   force =     0.00033824   -0.00022969   -0.00065125
     atom  116 type  3   force =    -0.00033873   -0.00022909    0.00064973
     atom  117 type  3   force =     0.00016719   -0.00034897   -0.00029525
     atom  118 type  3   force =    -0.00016836   -0.00035036    0.00029027
     atom  119 type  3   force =    -0.00016719    0.00034897    0.00029525
     atom  120 type  3   force =     0.00016836    0.00035036   -0.00029027
     atom  121 type  4   force =    -0.00008097   -0.00079580    0.00038220
     atom  122 type  4   force =     0.00008232   -0.00079645   -0.00037682
     atom  123 type  4   force =     0.00008097    0.00079580   -0.00038220
     atom  124 type  4   force =    -0.00008232    0.00079645    0.00037682
     atom  125 type  4   force =    -0.00044473    0.00021364   -0.00028512
     atom  126 type  4   force =     0.00044643    0.00021274    0.00028844
     atom  127 type  4   force =     0.00044473   -0.00021364    0.00028512
     atom  128 type  4   force =    -0.00044643   -0.00021274   -0.00028844

     Total force =     0.009728     Total SCF correction =     0.000108


     Computing stress (Cartesian axis) and pressure

          total   stress  (Ry/bohr**3)                   (kbar)     P=  -10.90
  -0.00006938  -0.00000002  -0.00000523        -10.21     -0.00     -0.77
  -0.00000002  -0.00007494  -0.00000001         -0.00    -11.02     -0.00
  -0.00000523  -0.00000001  -0.00007799         -0.77     -0.00    -11.47


     Writing output data file scf.save
 
     init_run     :     52.03s CPU     54.19s WALL (       1 calls)
     electrons    :   1983.33s CPU   2059.17s WALL (       1 calls)
     forces       :     24.99s CPU     25.22s WALL (       1 calls)
     stress       :    100.94s CPU    101.28s WALL (       1 calls)

     Called by init_run:
     wfcinit      :     41.69s CPU     43.64s WALL (       1 calls)
     potinit      :      3.74s CPU      3.83s WALL (       1 calls)

     Called by electrons:
     c_bands      :   1797.52s CPU   1863.46s WALL (      18 calls)
     sum_band     :    167.17s CPU    175.07s WALL (      18 calls)
     v_of_rho     :      2.45s CPU      2.70s WALL (      19 calls)
     newd         :      6.22s CPU      7.75s WALL (      19 calls)
     PAW_pot      :      9.11s CPU      9.14s WALL (      19 calls)
     mix_rho      :      0.55s CPU      0.63s WALL (      18 calls)

     Called by c_bands:
     init_us_2    :      9.41s CPU      9.45s WALL (     312 calls)
     cegterg      :   1765.55s CPU   1831.43s WALL (     144 calls)

     Called by sum_band:
     sum_band:bec :      0.09s CPU      0.09s WALL (     144 calls)
     addusdens    :      6.31s CPU      7.78s WALL (      18 calls)

     Called by *egterg:
     h_psi        :    967.10s CPU   1020.96s WALL (     814 calls)
     s_psi        :    215.12s CPU    215.14s WALL (     814 calls)
     g_psi        :      4.67s CPU      4.67s WALL (     662 calls)
     cdiaghg      :     83.36s CPU     83.35s WALL (     806 calls)

     Called by h_psi:
     h_psi:pot    :    960.96s CPU   1014.73s WALL (     814 calls)
     h_psi:calbec :    205.60s CPU    205.91s WALL (     814 calls)
     vloc_psi     :    539.97s CPU    593.42s WALL (     814 calls)
     add_vuspsi   :    215.39s CPU    215.39s WALL (     814 calls)

     General routines
     calbec       :    287.66s CPU    288.10s WALL (     998 calls)
     fft          :      1.44s CPU      1.89s WALL (     271 calls)
     fftw         :    575.99s CPU    634.10s WALL (  179914 calls)
 
     Parallel routines
     fft_scatter  :    103.30s CPU    155.82s WALL (  180185 calls)
 
     PWSCF        : 36m12.04s CPU    38m19.73s WALL

 
   This run was terminated on:   4:12: 8   4Nov2017            

=------------------------------------------------------------------------------=
   JOB DONE.
=------------------------------------------------------------------------------=
