
     Program PWSCF v.6.1 (svn rev. 13369) starts on 15Jan2018 at 16:48:25 

     This program is part of the open-source Quantum ESPRESSO suite
     for quantum simulation of materials; please cite
         "P. Giannozzi et al., J. Phys.:Condens. Matter 21 395502 (2009);
          URL http://www.quantum-espresso.org", 
     in publications or presentations arising from this work. More details at
     http://www.quantum-espresso.org/quote

     Parallel version (MPI), running on     8 processors
     R & G space division:  proc/nbgrp/npool/nimage =       8
     Waiting for input...
     Reading input from standard input

     Current dimensions of program PWSCF are:
     Max number of different atomic species (ntypx) = 10
     Max number of k-points (npk) =  40000
     Max angular momentum in pseudopotentials (lmaxx) =  3
               file C.pbe-n-kjpaw_psl.0.1.UPF: wavefunction(s)  2P renormalized
               file N.pbe-n-kjpaw_psl.0.1.UPF: wavefunction(s)  2P renormalized
               file H.pbe-kjpaw_psl.0.1.UPF: wavefunction(s)  1S renormalized
               file O.pbe-n-kjpaw_psl.0.1.UPF: wavefunction(s)  2P renormalized

     -------------------------------------
     Parameters for Dispersion Correction:
     -------------------------------------
       atom      VdW radius       C_6     

        C          2.744         60.710
        N          2.640         42.670
        H          1.892          4.857
        O          2.536         24.284

     Subspace diagonalization in iterative solution of the eigenvalue problem:
     a serial algorithm will be used

 
     Parallelization info
     --------------------
     sticks:   dense  smooth     PW     G-vecs:    dense   smooth      PW
     Min        1233    1233    325                98455    98455   13452
     Max        1234    1234    326                98457    98457   13454
     Sum        9871    9871   2603               787651   787651  107627
 


     bravais-lattice index     =            0
     lattice parameter (alat)  =      24.2032  a.u.
     unit-cell volume          =    5830.7374 (a.u.)^3
     number of atoms/cell      =          104
     number of atomic types    =            4
     number of electrons       =       264.00
     number of Kohn-Sham states=          158
     kinetic-energy cutoff     =     100.0000  Ry
     charge density cutoff     =     400.0000  Ry
     convergence threshold     =      1.0E-08
     mixing beta               =       0.5000
     number of iterations used =            8  plain     mixing
     Exchange-correlation      =  SLA  PW   PBX  PBC ( 1  4  3  4 0 0)

     celldm(1)=  24.203234  celldm(2)=   0.000000  celldm(3)=   0.000000
     celldm(4)=   0.000000  celldm(5)=   0.000000  celldm(6)=   0.000000

     crystal axes: (cart. coord. in units of alat)
               a(1) = (   1.000000   0.000000   0.000000 )  
               a(2) = (   0.000000   0.529037   0.000000 )  
               a(3) = (  -0.308089   0.000000   0.777351 )  

     reciprocal axes: (cart. coord. in units 2 pi/alat)
               b(1) = (  1.000000  0.000000  0.396332 )  
               b(2) = (  0.000000  1.890227  0.000000 )  
               b(3) = (  0.000000  0.000000  1.286420 )  


     PseudoPot. # 1 for  C read from file:
     /scratch/ahofstet/pseudo/C.pbe-n-kjpaw_psl.0.1.UPF
     MD5 check sum: 430fe95172b1e11ef3f8ed03bac87931
     Pseudo is Projector augmented-wave + core cor, Zval =  4.0
     Generated using "atomic" code by A. Dal Corso  v.5.0.99 svn rev. 10869
     Shape of augmentation charge: BESSEL
     Using radial grid of 1073 points,  4 beta functions with: 
                l(1) =   0
                l(2) =   0
                l(3) =   1
                l(4) =   1
     Q(r) pseudized with 0 coefficients 


     PseudoPot. # 2 for  N read from file:
     /scratch/ahofstet/pseudo/N.pbe-n-kjpaw_psl.0.1.UPF
     MD5 check sum: f73187c8b701007e77325f868c9291d7
     Pseudo is Projector augmented-wave + core cor, Zval =  5.0
     Generated using "atomic" code by A. Dal Corso  v.5.0.99 svn rev. 10869
     Shape of augmentation charge: PSQ
     Using radial grid of 1085 points,  4 beta functions with: 
                l(1) =   0
                l(2) =   0
                l(3) =   1
                l(4) =   1
     Q(r) pseudized with 0 coefficients 


     PseudoPot. # 3 for  H read from file:
     /scratch/ahofstet/pseudo/H.pbe-kjpaw_psl.0.1.UPF
     MD5 check sum: 94e484f906d9e9773b2f6e52662335b2
     Pseudo is Projector augmented-wave, Zval =  1.0
     Generated using "atomic" code by A. Dal Corso  v.5.0.99 svn rev. 10869
     Shape of augmentation charge: PSQ
     Using radial grid of  929 points,  2 beta functions with: 
                l(1) =   0
                l(2) =   0
     Q(r) pseudized with 0 coefficients 


     PseudoPot. # 4 for  O read from file:
     /scratch/ahofstet/pseudo/O.pbe-n-kjpaw_psl.0.1.UPF
     MD5 check sum: 3f94a2996a3169367d6eb21d9b593f20
     Pseudo is Projector augmented-wave + core cor, Zval =  6.0
     Generated using "atomic" code by A. Dal Corso  v.5.0.99 svn rev. 10869
     Shape of augmentation charge: BESSEL
     Using radial grid of 1095 points,  4 beta functions with: 
                l(1) =   0
                l(2) =   0
                l(3) =   1
                l(4) =   1
     Q(r) pseudized with 0 coefficients 


     atomic species   valence    mass     pseudopotential
        C              4.00    12.01070      C( 1.00)
        N              5.00    14.00670      N( 1.00)
        H              1.00     1.00794      H( 1.00)
        O              6.00    15.99940      O( 1.00)

      2 Sym. Ops., with inversion, found
          (note:  2 additional sym.ops. were found but ignored
           their fractional translations are incommensurate with FFT grid)


   Cartesian axes

     site n.     atom                  positions (alat units)
         1           O   tau(   1) = (   0.3180379   0.0319631   0.2468973  )
         2           O   tau(   2) = (   0.5279176   0.2964816   0.1417782  )
         3           O   tau(   3) = (   0.3738731   0.4970739   0.5304538  )
         4           O   tau(   4) = (   0.1639934   0.2325554   0.6355729  )
         5           N   tau(   5) = (   0.2854203   0.1131806   0.4067720  )
         6           N   tau(   6) = (   0.2524462   0.3776991   0.7592547  )
         7           N   tau(   7) = (   0.4064907   0.4158564   0.3705791  )
         8           N   tau(   8) = (   0.4394648   0.1513379   0.0180964  )
         9           N   tau(   9) = (   0.2408551   0.2036642   0.4412830  )
        10           N   tau(  10) = (   0.2970114   0.4681827   0.7247436  )
        11           N   tau(  11) = (   0.4510559   0.3253728   0.3360681  )
        12           N   tau(  12) = (   0.3948996   0.0608543   0.0526075  )
        13           C   tau(  13) = (   0.2012190   0.2547155   0.3579753  )
        14           C   tau(  14) = (   0.6447365   0.5192340   0.0307002  )
        15           C   tau(  15) = (   0.4906920   0.2743215   0.4193758  )
        16           C   tau(  16) = (   0.0471745   0.0098030   0.7466509  )
        17           C   tau(  17) = (   0.1385069   0.3518103   0.3693532  )
        18           C   tau(  18) = (   0.7074486   0.0872918   0.0193224  )
        19           C   tau(  19) = (   0.5534041   0.1772267   0.4079979  )
        20           C   tau(  20) = (  -0.0155376   0.4417452   0.7580288  )
        21           H   tau(  21) = (   0.1516911   0.3998070   0.2992968  )
        22           H   tau(  22) = (   0.6942644   0.1352885   0.0893787  )
        23           H   tau(  23) = (   0.5402199   0.1292300   0.4780543  )
        24           H   tau(  24) = (  -0.0023534   0.3937485   0.6879724  )
        25           H   tau(  25) = (   0.1664980   0.3971109   0.4365628  )
        26           H   tau(  26) = (   0.3713685   0.1325924   0.7294639  )
        27           H   tau(  27) = (   0.5254130   0.1319261   0.3407883  )
        28           H   tau(  28) = (   0.3205425   0.3964446   0.0478872  )
        29           C   tau(  29) = (   0.0209709   0.3284651   0.3819725  )
        30           C   tau(  30) = (   0.8249846   0.0639466   0.0067030  )
        31           C   tau(  31) = (   0.6709401   0.2005719   0.3953786  )
        32           C   tau(  32) = (  -0.1330736   0.4650904   0.7706481  )
        33           H   tau(  33) = (   0.0070004   0.3004359   0.4621503  )
        34           H   tau(  34) = (   0.5308661   0.0359174   0.7038763  )
        35           H   tau(  35) = (   0.6849106   0.2286011   0.3152008  )
        36           H   tau(  36) = (   0.1610449   0.4931196   0.0734748  )
        37           H   tau(  37) = (  -0.0221506   0.4024939   0.3733451  )
        38           H   tau(  38) = (   0.8681061   0.1379754   0.0153305  )
        39           H   tau(  39) = (   0.7140616   0.1265431   0.4040060  )
        40           H   tau(  40) = (  -0.1761951   0.3910615   0.7620206  )
        41           C   tau(  41) = (  -0.0218411   0.2477220   0.3047208  )
        42           C   tau(  42) = (   0.8677966   0.5122405   0.0839548  )
        43           C   tau(  43) = (   0.7137521   0.2813150   0.4726303  )
        44           C   tau(  44) = (  -0.1758856   0.0167965   0.6933963  )
        45           H   tau(  45) = (  -0.1059577   0.2391574   0.3198981  )
        46           H   tau(  46) = (   0.9519132   0.5036759   0.0687775  )
        47           H   tau(  47) = (   0.7978687   0.2898796   0.4574530  )
        48           H   tau(  48) = (  -0.2600022   0.0253611   0.7085736  )
        49           H   tau(  49) = (   0.0132276   0.1710531   0.3220900  )
        50           H   tau(  50) = (   0.8327279   0.4355716   0.0665855  )
        51           H   tau(  51) = (   0.6786834   0.3579839   0.4552611  )
        52           H   tau(  52) = (  -0.1408169   0.0934654   0.7107656  )
        53           C   tau(  53) = (  -0.0040315   0.2734271   0.1880885  )
        54           C   tau(  54) = (   0.8499870   0.0089086   0.2005870  )
        55           C   tau(  55) = (   0.6959425   0.2556099   0.5892626  )
        56           C   tau(  56) = (  -0.1580760   0.5201284   0.5767641  )
        57           H   tau(  57) = (   0.9212862   0.2658922   0.1462623  )
        58           H   tau(  58) = (  -0.0753307   0.0013737   0.2424133  )
        59           H   tau(  59) = (  -0.2293752   0.2631448   0.6310888  )
        60           H   tau(  60) = (   0.7672417   0.5276633   0.5349378  )
        61           H   tau(  61) = (   0.0189729   0.3561057   0.1794044  )
        62           H   tau(  62) = (   0.8269826   0.0915872   0.2092712  )
        63           H   tau(  63) = (   0.6729381   0.1729313   0.5979467  )
        64           H   tau(  64) = (  -0.1350716   0.4374498   0.5680799  )
        65           C   tau(  65) = (   0.0763506   0.2046903   0.1314611  )
        66           C   tau(  66) = (   0.7696049   0.4692088   0.2572144  )
        67           C   tau(  67) = (   0.6155604   0.3243467   0.6458900  )
        68           C   tau(  68) = (  -0.0776939   0.0598282   0.5201367  )
        69           H   tau(  69) = (   0.0666462   0.2156518   0.0466734  )
        70           H   tau(  70) = (   0.7793093   0.4801703   0.3420022  )
        71           H   tau(  71) = (   0.6252648   0.3133852   0.7306777  )
        72           H   tau(  72) = (  -0.0873983   0.0488667   0.4353489  )
        73           H   tau(  73) = (   0.0588982   0.1217717   0.1473746  )
        74           H   tau(  74) = (   0.7870573   0.3862902   0.2413010  )
        75           H   tau(  75) = (   0.6330128   0.4072653   0.6299765  )
        76           H   tau(  76) = (  -0.0951463   0.1427468   0.5360501  )
        77           C   tau(  77) = (   0.1914465   0.2270826   0.1586882  )
        78           C   tau(  78) = (   0.6545090   0.4916011   0.2299873  )
        79           C   tau(  79) = (   0.5004645   0.3019544   0.6186629  )
        80           C   tau(  80) = (   0.0374020   0.0374359   0.5473638  )
        81           H   tau(  81) = (   0.2416403   0.1846832   0.1033960  )
        82           H   tau(  82) = (   0.6043152   0.4492017   0.2852796  )
        83           H   tau(  83) = (   0.4502707   0.3443538   0.6739551  )
        84           H   tau(  84) = (   0.0875958   0.0798353   0.4920715  )
        85           H   tau(  85) = (   0.2062343   0.3108482   0.1454233  )
        86           H   tau(  86) = (   0.6397212   0.0463297   0.2432523  )
        87           H   tau(  87) = (   0.4856767   0.2181888   0.6319278  )
        88           H   tau(  88) = (   0.0521898   0.4827073   0.5340988  )
        89           C   tau(  89) = (   0.2225279   0.1987176   0.2676259  )
        90           C   tau(  90) = (   0.6234276   0.4632361   0.1210496  )
        91           C   tau(  91) = (   0.4693831   0.3303194   0.5097252  )
        92           C   tau(  92) = (   0.0684834   0.0658009   0.6563015  )
        93           C   tau(  93) = (   0.2778949   0.1075556   0.3003455  )
        94           C   tau(  94) = (   0.5680606   0.3720741   0.0883301  )
        95           C   tau(  95) = (   0.4140161   0.4214814   0.4770056  )
        96           C   tau(  96) = (   0.1238504   0.1569629   0.6890210  )
        97           H   tau(  97) = (   0.3210947   0.0594366   0.4586647  )
        98           H   tau(  98) = (   0.2167718   0.3239551   0.7073620  )
        99           H   tau(  99) = (   0.3708163   0.4696004   0.3186864  )
       100           H   tau( 100) = (   0.4751392   0.2050819   0.0699891  )
       101           H   tau( 101) = (   0.2152511   0.2111674   0.5194432  )
       102           H   tau( 102) = (   0.3226154   0.4756859   0.6465835  )
       103           H   tau( 103) = (   0.4766599   0.3178696   0.2579079  )
       104           H   tau( 104) = (   0.3692956   0.0533511   0.1307676  )

     number of k points=     8
                       cart. coord. in units 2pi/alat
        k(    1) = (   0.0000000   0.0000000   0.0000000), wk =   0.1666667
        k(    2) = (   0.0000000   0.0000000  -0.6432100), wk =   0.1666667
        k(    3) = (   0.0000000   0.6300757   0.0000000), wk =   0.3333333
        k(    4) = (   0.0000000   0.6300757  -0.6432100), wk =   0.3333333
        k(    5) = (  -0.5000000   0.0000000  -0.1981659), wk =   0.1666667
        k(    6) = (  -0.5000000   0.0000000  -0.8413759), wk =   0.1666667
        k(    7) = (  -0.5000000   0.6300757  -0.1981659), wk =   0.3333333
        k(    8) = (  -0.5000000   0.6300757  -0.8413759), wk =   0.3333333

     Dense  grid:   787651 G-vectors     FFT dimensions: ( 160,  81, 135)

     Estimated max dynamical RAM per process >     670.00MB

     Estimated total allocated dynamical RAM >    5360.03MB

     Check: negative/imaginary core charge=   -0.000002    0.000000

     Initial potential from superposition of free atoms

     starting charge  263.99790, renormalised to  264.00000
     Starting wfc are  248 randomized atomic wfcs
     Checking if some PAW data can be deallocated... 

     total cpu time spent up to now is       36.1 secs

     per-process dynamical memory:   503.7 Mb

     Self-consistent Calculation

     iteration #  1     ecut=   100.00 Ry     beta=0.50
     Davidson diagonalization with overlap
     ethr =  1.00E-02,  avg # of iterations =  4.1

     total cpu time spent up to now is      125.4 secs

     total energy              =   -1121.17640962 Ry
     Harris-Foulkes estimate   =   -1126.79005609 Ry
     estimated scf accuracy    <      10.70660027 Ry

     iteration #  2     ecut=   100.00 Ry     beta=0.50
     Davidson diagonalization with overlap
     ethr =  4.06E-03,  avg # of iterations =  2.0

     total cpu time spent up to now is      170.3 secs

     total energy              =   -1121.64297242 Ry
     Harris-Foulkes estimate   =   -1122.22288932 Ry
     estimated scf accuracy    <       1.21962620 Ry

     iteration #  3     ecut=   100.00 Ry     beta=0.50
     Davidson diagonalization with overlap
     ethr =  4.62E-04,  avg # of iterations =  5.0

     total cpu time spent up to now is      268.8 secs

     total energy              =   -1122.98909933 Ry
     Harris-Foulkes estimate   =   -1123.67784902 Ry
     estimated scf accuracy    <       2.16696685 Ry

     iteration #  4     ecut=   100.00 Ry     beta=0.50
     Davidson diagonalization with overlap
     ethr =  4.62E-04,  avg # of iterations =  1.0

     total cpu time spent up to now is      311.5 secs

     total energy              =   -1122.43905005 Ry
     Harris-Foulkes estimate   =   -1123.05658415 Ry
     estimated scf accuracy    <       0.90129146 Ry

     iteration #  5     ecut=   100.00 Ry     beta=0.50
     Davidson diagonalization with overlap
     ethr =  3.41E-04,  avg # of iterations =  5.9

     total cpu time spent up to now is      401.4 secs

     total energy              =   -1122.93926960 Ry
     Harris-Foulkes estimate   =   -1123.39028982 Ry
     estimated scf accuracy    <       1.17486188 Ry

     iteration #  6     ecut=   100.00 Ry     beta=0.50
     Davidson diagonalization with overlap
     ethr =  3.41E-04,  avg # of iterations =  1.0

     total cpu time spent up to now is      443.9 secs

     total energy              =   -1122.81579272 Ry
     Harris-Foulkes estimate   =   -1122.98611652 Ry
     estimated scf accuracy    <       0.37451305 Ry

     iteration #  7     ecut=   100.00 Ry     beta=0.50
     Davidson diagonalization with overlap
     ethr =  1.42E-04,  avg # of iterations =  4.8

     total cpu time spent up to now is      519.3 secs

     total energy              =   -1123.02302338 Ry
     Harris-Foulkes estimate   =   -1123.03786619 Ry
     estimated scf accuracy    <       0.05112779 Ry

     iteration #  8     ecut=   100.00 Ry     beta=0.50
     Davidson diagonalization with overlap
     ethr =  1.94E-05,  avg # of iterations =  2.0

     total cpu time spent up to now is      564.9 secs

     total energy              =   -1123.01357538 Ry
     Harris-Foulkes estimate   =   -1123.02470421 Ry
     estimated scf accuracy    <       0.02374732 Ry

     iteration #  9     ecut=   100.00 Ry     beta=0.50
     Davidson diagonalization with overlap
     ethr =  9.00E-06,  avg # of iterations =  5.9

     total cpu time spent up to now is      633.3 secs

     total energy              =   -1123.02357549 Ry
     Harris-Foulkes estimate   =   -1123.02381973 Ry
     estimated scf accuracy    <       0.00150194 Ry

     iteration # 10     ecut=   100.00 Ry     beta=0.50
     Davidson diagonalization with overlap
     ethr =  5.69E-07,  avg # of iterations =  4.9

     total cpu time spent up to now is      684.6 secs

     total energy              =   -1123.02312995 Ry
     Harris-Foulkes estimate   =   -1123.02370563 Ry
     estimated scf accuracy    <       0.00103389 Ry

     iteration # 11     ecut=   100.00 Ry     beta=0.50
     Davidson diagonalization with overlap
     ethr =  3.92E-07,  avg # of iterations =  4.8

     total cpu time spent up to now is      746.0 secs

     total energy              =   -1123.02343421 Ry
     Harris-Foulkes estimate   =   -1123.02344556 Ry
     estimated scf accuracy    <       0.00002636 Ry

     iteration # 12     ecut=   100.00 Ry     beta=0.50
     Davidson diagonalization with overlap
     ethr =  9.98E-09,  avg # of iterations =  5.4

     total cpu time spent up to now is      833.2 secs

     total energy              =   -1123.02345388 Ry
     Harris-Foulkes estimate   =   -1123.02345561 Ry
     estimated scf accuracy    <       0.00000381 Ry

     iteration # 13     ecut=   100.00 Ry     beta=0.50
     Davidson diagonalization with overlap
     ethr =  1.44E-09,  avg # of iterations =  3.0

     total cpu time spent up to now is      880.5 secs

     total energy              =   -1123.02345424 Ry
     Harris-Foulkes estimate   =   -1123.02345435 Ry
     estimated scf accuracy    <       0.00000039 Ry

     iteration # 14     ecut=   100.00 Ry     beta=0.50
     Davidson diagonalization with overlap
     ethr =  1.48E-10,  avg # of iterations =  4.0

     total cpu time spent up to now is      973.1 secs

     total energy              =   -1123.02345491 Ry
     Harris-Foulkes estimate   =   -1123.02345554 Ry
     estimated scf accuracy    <       0.00000238 Ry

     iteration # 15     ecut=   100.00 Ry     beta=0.50
     Davidson diagonalization with overlap
     ethr =  1.48E-10,  avg # of iterations =  3.0

     total cpu time spent up to now is     1018.3 secs

     total energy              =   -1123.02345429 Ry
     Harris-Foulkes estimate   =   -1123.02345495 Ry
     estimated scf accuracy    <       0.00000121 Ry

     iteration # 16     ecut=   100.00 Ry     beta=0.50
     Davidson diagonalization with overlap
     ethr =  1.48E-10,  avg # of iterations =  4.0

     total cpu time spent up to now is     1102.9 secs

     total energy              =   -1123.02345485 Ry
     Harris-Foulkes estimate   =   -1123.02345487 Ry
     estimated scf accuracy    <       0.00000021 Ry

     iteration # 17     ecut=   100.00 Ry     beta=0.50
     Davidson diagonalization with overlap
     ethr =  8.06E-11,  avg # of iterations =  1.0

     total cpu time spent up to now is     1145.1 secs

     total energy              =   -1123.02345478 Ry
     Harris-Foulkes estimate   =   -1123.02345485 Ry
     estimated scf accuracy    <       0.00000017 Ry

     iteration # 18     ecut=   100.00 Ry     beta=0.50
     Davidson diagonalization with overlap
     ethr =  6.53E-11,  avg # of iterations =  3.0

     total cpu time spent up to now is     1190.7 secs

     total energy              =   -1123.02345478 Ry
     Harris-Foulkes estimate   =   -1123.02345479 Ry
     estimated scf accuracy    <       0.00000004 Ry

     iteration # 19     ecut=   100.00 Ry     beta=0.50
     Davidson diagonalization with overlap
     ethr =  1.61E-11,  avg # of iterations =  4.0

     total cpu time spent up to now is     1263.9 secs

     End of self-consistent calculation

          k = 0.0000 0.0000 0.0000 ( 98447 PWs)   bands (ev):

   -20.2896 -20.1966 -20.1128 -20.0345 -18.6299 -18.5994 -18.4503 -18.3979
   -14.6513 -14.6160 -14.5874 -14.5200 -13.8575 -13.8559 -13.7514 -13.6255
   -13.1500 -13.1187 -13.0907 -13.0020 -12.6906 -12.6641 -12.6292 -12.6013
   -11.2637 -11.1766 -11.1203 -11.0629 -10.3240 -10.3192 -10.2641 -10.1928
    -8.9761  -8.9750  -8.8239  -8.8007  -8.1854  -8.1676  -8.1394  -8.1097
    -8.0885  -7.9270  -7.5324  -7.4280  -7.2974  -7.2413  -7.2390  -7.1518
    -7.1455  -6.9995  -6.9084  -6.8855  -6.0844  -5.8630  -5.8176  -5.7394
    -5.2082  -5.1755  -5.0315  -5.0280  -5.0106  -4.9601  -4.9445  -4.9111
    -4.7421  -4.7383  -4.6514  -4.6220  -4.6196  -4.5603  -4.4180  -4.3686
    -4.3131  -4.1625  -4.1566  -4.1447  -4.0045  -3.9814  -3.8327  -3.6673
    -3.6294  -3.5480  -3.4043  -3.3629  -3.1072  -3.0678  -3.0183  -2.9361
    -2.7575  -2.6544  -2.6539  -2.6216  -2.5753  -2.5552  -2.5532  -2.5356
    -2.3240  -2.3221  -2.2580  -2.2392  -2.0543  -2.0331  -2.0218  -1.9773
    -1.9210  -1.8511  -1.8489  -1.8414  -1.4576  -1.4314  -1.4240  -1.3273
    -1.2592  -1.1748  -1.1602  -1.1236  -1.0705  -1.0413  -1.0045  -0.8996
    -0.3859  -0.0995   0.0527   0.3347   0.3368   0.3860   0.4797   0.5370
     1.2781   1.2953   1.4969   1.5431   5.5294   5.5434   5.5972   5.6180
     6.0056   6.4982   6.5545   6.5599   6.6393   6.9096   7.0138   7.0310
     7.1806   7.5136   7.6126   7.6502   7.7476   7.7577   7.8539   7.8933
     7.9569   8.1290   8.1418   8.2122   8.3352   8.4933

          k = 0.0000 0.0000-0.6432 ( 98560 PWs)   bands (ev):

   -20.2455 -20.2455 -20.0751 -20.0751 -18.5419 -18.5418 -18.4956 -18.4956
   -14.6195 -14.6195 -14.5652 -14.5652 -13.8184 -13.8184 -13.7237 -13.7237
   -13.1315 -13.1315 -13.0417 -13.0417 -12.6718 -12.6718 -12.6400 -12.6400
   -11.2196 -11.2196 -11.0856 -11.0856 -10.3217 -10.3217 -10.2506 -10.2506
    -8.9569  -8.9569  -8.8233  -8.8233  -8.1985  -8.1985  -8.0214  -8.0214
    -7.8032  -7.8032  -7.7043  -7.7043  -7.3227  -7.3227  -7.1768  -7.1768
    -7.0825  -7.0825  -6.9450  -6.9450  -5.9843  -5.9843  -5.7577  -5.7577
    -5.2180  -5.2180  -5.0427  -5.0427  -4.9252  -4.9252  -4.8378  -4.8378
    -4.8016  -4.8016  -4.7510  -4.7510  -4.5639  -4.5639  -4.3819  -4.3819
    -4.2620  -4.2620  -4.1235  -4.1234  -3.8958  -3.8958  -3.6854  -3.6854
    -3.5788  -3.5788  -3.5214  -3.5214  -3.0509  -3.0509  -3.0157  -3.0157
    -2.7105  -2.7105  -2.6400  -2.6400  -2.5623  -2.5623  -2.4725  -2.4725
    -2.3030  -2.3030  -2.2606  -2.2606  -2.0504  -2.0504  -1.9714  -1.9714
    -1.9432  -1.9432  -1.8444  -1.8444  -1.3468  -1.3468  -1.3283  -1.3283
    -1.2510  -1.2510  -1.1530  -1.1530  -1.0886  -1.0886  -1.0183  -1.0183
    -0.2629  -0.2628   0.1709   0.1709   0.3407   0.3407   0.5164   0.5164
     1.2975   1.2975   1.5443   1.5443   5.5231   5.5231   5.6387   5.6387
     6.1227   6.1227   6.5477   6.5477   6.8559   6.8559   7.1989   7.1989
     7.2787   7.2787   7.4222   7.4222   7.7394   7.7394   7.8749   7.8749
     8.1082   8.1082   8.2653   8.2654   8.4175   8.4175

          k = 0.0000 0.6301 0.0000 ( 98469 PWs)   bands (ev):

   -20.2511 -20.1851 -20.1306 -20.0720 -18.6240 -18.6094 -18.4327 -18.4072
   -14.6345 -14.6093 -14.5891 -14.5514 -13.8533 -13.8443 -13.7236 -13.6639
   -13.1297 -13.1062 -13.0536 -13.0509 -12.7318 -12.7196 -12.5892 -12.5696
   -11.2119 -11.1671 -11.1351 -11.0663 -10.3356 -10.3337 -10.2428 -10.1984
    -8.9555  -8.9462  -8.8407  -8.8260  -8.2306  -8.1846  -8.1576  -8.1447
    -8.0247  -7.9173  -7.4975  -7.4346  -7.3293  -7.3282  -7.2922  -7.1702
    -7.1448  -7.0063  -6.8941  -6.8883  -6.0628  -5.9729  -5.6839  -5.5672
    -5.3061  -5.3024  -5.0873  -5.0597  -5.0031  -4.9472  -4.9144  -4.8368
    -4.8329  -4.6958  -4.6586  -4.6091  -4.5711  -4.5368  -4.4242  -4.4224
    -4.2816  -4.2071  -4.1625  -4.0270  -3.9252  -3.8903  -3.7073  -3.6728
    -3.6422  -3.5317  -3.4225  -3.4153  -3.0606  -3.0116  -2.9319  -2.8464
    -2.8210  -2.7424  -2.6120  -2.6118  -2.5768  -2.5599  -2.4902  -2.4629
    -2.3386  -2.3377  -2.2184  -2.2156  -2.1000  -2.0875  -2.0394  -1.9906
    -1.9566  -1.9237  -1.8283  -1.8068  -1.4306  -1.4276  -1.3363  -1.3295
    -1.2690  -1.2127  -1.2009  -1.1766  -1.1280  -1.0752  -1.0302  -0.9588
    -0.3596  -0.2353   0.1798   0.2989   0.3053   0.3515   0.4930   0.5340
     1.2169   1.2179   1.5587   1.5826   5.3972   5.4104   5.6681   5.7550
     5.9801   6.1761   6.4169   6.4925   6.6439   6.9563   7.0967   7.1583
     7.2374   7.3382   7.4131   7.5051   7.6888   7.7110   7.7750   7.8336
     7.9763   8.0577   8.1053   8.1389   8.2242   8.4745

          k = 0.0000 0.6301-0.6432 ( 98488 PWs)   bands (ev):

   -20.2121 -20.2121 -20.1112 -20.1112 -18.5432 -18.5432 -18.4920 -18.4920
   -14.6118 -14.6118 -14.5740 -14.5740 -13.8001 -13.8001 -13.7440 -13.7440
   -13.1181 -13.1181 -13.0522 -13.0522 -12.6749 -12.6749 -12.6402 -12.6402
   -11.1801 -11.1801 -11.1079 -11.1079 -10.3039 -10.3039 -10.2654 -10.2654
    -8.9567  -8.9567  -8.8373  -8.8373  -8.1895  -8.1895  -8.0397  -8.0397
    -7.7872  -7.7872  -7.7336  -7.7336  -7.3331  -7.3331  -7.2133  -7.2133
    -7.1253  -7.1253  -6.8939  -6.8939  -6.0379  -6.0379  -5.6865  -5.6865
    -5.3226  -5.3226  -5.0757  -5.0757  -4.9389  -4.9389  -4.8145  -4.8145
    -4.7506  -4.7506  -4.6422  -4.6422  -4.5716  -4.5716  -4.3258  -4.3258
    -4.2091  -4.2091  -4.0870  -4.0870  -3.8922  -3.8922  -3.7707  -3.7707
    -3.5865  -3.5865  -3.5381  -3.5381  -2.9858  -2.9858  -2.9167  -2.9167
    -2.7015  -2.7015  -2.6202  -2.6202  -2.5519  -2.5519  -2.4342  -2.4342
    -2.3017  -2.3017  -2.2804  -2.2804  -2.0782  -2.0782  -2.0261  -2.0261
    -1.9087  -1.9087  -1.8929  -1.8928  -1.3673  -1.3673  -1.3423  -1.3423
    -1.2628  -1.2628  -1.1476  -1.1476  -1.1077  -1.1077  -1.0631  -1.0631
    -0.2723  -0.2723   0.1892   0.1892   0.3162   0.3162   0.5179   0.5179
     1.2251   1.2251   1.5910   1.5910   5.4025   5.4025   5.7131   5.7131
     6.0969   6.0969   6.3389   6.3389   6.8934   6.8934   7.1089   7.1089
     7.2805   7.2805   7.5174   7.5174   7.5830   7.5830   7.7266   7.7266
     8.1275   8.1275   8.2622   8.2622   8.3867   8.3867

          k =-0.5000 0.0000-0.1982 ( 98456 PWs)   bands (ev):

   -20.2896 -20.1966 -20.1128 -20.0345 -18.6299 -18.5994 -18.4503 -18.3979
   -14.6709 -14.5919 -14.5783 -14.5315 -13.9260 -13.7878 -13.7172 -13.6598
   -13.1459 -13.0943 -13.0786 -13.0541 -12.6886 -12.6611 -12.6278 -12.6011
   -11.2204 -11.1805 -11.1609 -11.0535 -10.3110 -10.3055 -10.2734 -10.2239
    -8.9870  -8.9651  -8.8353  -8.7707  -8.2380  -8.1645  -8.1434  -8.0735
    -8.0111  -7.9771  -7.5380  -7.3703  -7.3336  -7.3254  -7.2708  -7.1958
    -7.0439  -6.9475  -6.9142  -6.9082  -6.0890  -5.8654  -5.8604  -5.5361
    -5.3481  -5.1962  -5.1654  -5.0963  -5.0115  -4.9058  -4.8914  -4.8729
    -4.8541  -4.7366  -4.5931  -4.5503  -4.5197  -4.4828  -4.4822  -4.4522
    -4.2268  -4.1964  -4.1962  -4.1806  -4.0507  -3.9719  -3.6666  -3.6645
    -3.6154  -3.5656  -3.4647  -3.3280  -3.0899  -3.0768  -2.9999  -2.9404
    -2.7452  -2.6748  -2.6720  -2.6326  -2.5987  -2.5981  -2.5826  -2.5217
    -2.3358  -2.3177  -2.3005  -2.2258  -2.0484  -2.0353  -1.9841  -1.9379
    -1.9182  -1.8986  -1.8495  -1.8377  -1.4584  -1.4385  -1.4064  -1.3147
    -1.2395  -1.2037  -1.1420  -1.0944  -1.0915  -1.0545  -1.0009  -0.9052
    -0.3870  -0.1016   0.0520   0.3130   0.3568   0.3950   0.4958   0.5213
     1.2734   1.2941   1.5032   1.5520   5.5480   5.5763   5.5986   5.5996
     6.0341   6.4448   6.4664   6.5128   6.5732   7.0274   7.0381   7.1494
     7.2989   7.3622   7.5750   7.5894   7.6085   7.6141   7.8079   7.9173
     8.0102   8.1521   8.2880   8.3107   8.3492   8.5183

          k =-0.5000 0.0000-0.8414 ( 98492 PWs)   bands (ev):

   -20.2455 -20.2455 -20.0751 -20.0751 -18.5419 -18.5418 -18.4956 -18.4956
   -14.6251 -14.6251 -14.5587 -14.5587 -13.8230 -13.8230 -13.7201 -13.7201
   -13.1084 -13.1084 -13.0675 -13.0675 -12.6651 -12.6651 -12.6458 -12.6458
   -11.1996 -11.1996 -11.1018 -11.1018 -10.3188 -10.3188 -10.2561 -10.2561
    -8.9921  -8.9921  -8.7910  -8.7910  -8.1630  -8.1630  -8.0357  -8.0357
    -7.8050  -7.8050  -7.7185  -7.7185  -7.3424  -7.3424  -7.1693  -7.1693
    -7.0977  -7.0977  -6.9153  -6.9153  -5.9880  -5.9880  -5.7232  -5.7232
    -5.1933  -5.1933  -5.1156  -5.1156  -4.9904  -4.9904  -4.9163  -4.9163
    -4.7602  -4.7602  -4.6577  -4.6577  -4.5197  -4.5197  -4.4265  -4.4265
    -4.3138  -4.3138  -4.0464  -4.0464  -3.8631  -3.8631  -3.7271  -3.7271
    -3.5945  -3.5945  -3.4838  -3.4838  -3.0207  -3.0207  -2.9984  -2.9984
    -2.7590  -2.7590  -2.6291  -2.6291  -2.5575  -2.5575  -2.4765  -2.4765
    -2.3507  -2.3507  -2.2250  -2.2250  -2.0615  -2.0615  -1.9791  -1.9791
    -1.9384  -1.9384  -1.8599  -1.8599  -1.3463  -1.3463  -1.3194  -1.3194
    -1.2569  -1.2568  -1.1523  -1.1523  -1.0761  -1.0761  -1.0303  -1.0303
    -0.2594  -0.2594   0.1714   0.1714   0.3494   0.3494   0.5150   0.5151
     1.2977   1.2977   1.5445   1.5445   5.5415   5.5415   5.6271   5.6271
     6.1631   6.1631   6.4530   6.4530   6.8840   6.8840   7.1322   7.1322
     7.2534   7.2534   7.5463   7.5463   7.7449   7.7449   7.9351   7.9351
     8.1451   8.1452   8.2598   8.2599   8.3023   8.3025

          k =-0.5000 0.6301-0.1982 ( 98440 PWs)   bands (ev):

   -20.2511 -20.1851 -20.1306 -20.0720 -18.6240 -18.6094 -18.4327 -18.4072
   -14.6468 -14.6013 -14.5809 -14.5548 -13.8768 -13.8120 -13.7132 -13.6825
   -13.1356 -13.1338 -13.0573 -13.0127 -12.7277 -12.7240 -12.5845 -12.5763
   -11.2270 -11.1452 -11.1320 -11.0759 -10.3441 -10.3112 -10.2363 -10.2168
    -8.9523  -8.9498  -8.8557  -8.8258  -8.2386  -8.1615  -8.1417  -8.1363
    -8.0214  -7.9709  -7.4946  -7.4225  -7.3792  -7.2837  -7.2127  -7.1882
    -7.1352  -7.0186  -6.9358  -6.8868  -6.0562  -5.9762  -5.6169  -5.6168
    -5.2839  -5.2818  -5.2190  -5.1439  -4.9772  -4.9687  -4.8689  -4.8274
    -4.7839  -4.7146  -4.6222  -4.6184  -4.5437  -4.4585  -4.4337  -4.3861
    -4.3052  -4.2647  -4.2145  -4.0823  -3.9188  -3.8989  -3.6793  -3.6601
    -3.5770  -3.5030  -3.4383  -3.4076  -3.0442  -3.0211  -2.8971  -2.8724
    -2.7921  -2.7259  -2.6553  -2.6093  -2.5820  -2.5400  -2.5285  -2.4444
    -2.3905  -2.3336  -2.2159  -2.2134  -2.0937  -2.0723  -2.0319  -2.0287
    -1.9599  -1.9094  -1.8411  -1.8179  -1.4425  -1.4360  -1.3213  -1.3131
    -1.2814  -1.2255  -1.2108  -1.1563  -1.1343  -1.0791  -1.0203  -0.9630
    -0.3581  -0.2328   0.1767   0.3011   0.3236   0.3568   0.4992   0.5265
     1.2118   1.2123   1.5670   1.5885   5.4079   5.4323   5.6923   5.7149
     5.9761   6.1437   6.3953   6.4491   6.7118   7.0137   7.0817   7.1345
     7.2412   7.2580   7.4096   7.5244   7.6375   7.6595   7.7739   7.8218
     7.9882   7.9999   8.1410   8.1709   8.3383   8.3497

          k =-0.5000 0.6301-0.8414 ( 98432 PWs)   bands (ev):

   -20.2121 -20.2121 -20.1112 -20.1112 -18.5432 -18.5432 -18.4920 -18.4920
   -14.6147 -14.6147 -14.5707 -14.5707 -13.8029 -13.8029 -13.7407 -13.7407
   -13.1343 -13.1343 -13.0356 -13.0356 -12.6689 -12.6689 -12.6470 -12.6470
   -11.1874 -11.1874 -11.1008 -11.1008 -10.3013 -10.3013 -10.2687 -10.2687
    -8.9534  -8.9534  -8.8391  -8.8391  -8.2000  -8.2000  -8.0360  -8.0360
    -7.7850  -7.7850  -7.7278  -7.7278  -7.3257  -7.3257  -7.2131  -7.2131
    -7.1169  -7.1169  -6.9154  -6.9154  -6.0273  -6.0273  -5.7038  -5.7038
    -5.2741  -5.2741  -5.1138  -5.1138  -4.9827  -4.9827  -4.8293  -4.8293
    -4.7303  -4.7303  -4.5955  -4.5955  -4.5322  -4.5322  -4.4120  -4.4120
    -4.1872  -4.1872  -4.1008  -4.1008  -3.8655  -3.8655  -3.7559  -3.7559
    -3.6040  -3.6040  -3.5218  -3.5218  -2.9570  -2.9570  -2.9247  -2.9247
    -2.7003  -2.7003  -2.6226  -2.6226  -2.5509  -2.5509  -2.4685  -2.4685
    -2.3306  -2.3306  -2.2336  -2.2336  -2.0799  -2.0799  -2.0488  -2.0488
    -1.9213  -1.9213  -1.8811  -1.8811  -1.3536  -1.3536  -1.3388  -1.3388
    -1.2561  -1.2561  -1.1553  -1.1553  -1.1098  -1.1098  -1.0758  -1.0758
    -0.2711  -0.2710   0.1887   0.1888   0.3247   0.3247   0.5194   0.5194
     1.2235   1.2235   1.5914   1.5914   5.4121   5.4121   5.6965   5.6965
     6.1621   6.1621   6.2855   6.2855   6.8976   6.8976   7.1330   7.1330
     7.1811   7.1811   7.5203   7.5203   7.6543   7.6543   7.8413   7.8413
     7.9833   7.9833   8.1604   8.1604   8.4261   8.4262

     highest occupied, lowest unoccupied level (ev):     1.5914    5.3972

!    total energy              =   -1123.02345481 Ry
     Harris-Foulkes estimate   =   -1123.02345481 Ry
     estimated scf accuracy    <          5.0E-09 Ry

     total all-electron energy =     -4288.308842 Ry

     The total energy is the sum of the following terms:

     one-electron contribution =    -678.85958659 Ry
     hartree contribution      =     438.09053435 Ry
     xc contribution           =    -263.34130366 Ry
     ewald contribution        =    -274.76934284 Ry
     Dispersion Correction     =      -0.49394502 Ry
     one-center paw contrib.   =    -343.64981104 Ry

     convergence has been achieved in  19 iterations

     Forces acting on atoms (cartesian axes, Ry/au):

     atom    1 type  4   force =    -0.00025190    0.00105580   -0.00042170
     atom    2 type  4   force =     0.00025146    0.00105467    0.00042180
     atom    3 type  4   force =     0.00025190   -0.00105580    0.00042170
     atom    4 type  4   force =    -0.00025146   -0.00105467   -0.00042180
     atom    5 type  2   force =    -0.00186733   -0.00109500    0.00252529
     atom    6 type  2   force =     0.00186774   -0.00109473   -0.00252582
     atom    7 type  2   force =     0.00186733    0.00109500   -0.00252529
     atom    8 type  2   force =    -0.00186774    0.00109473    0.00252582
     atom    9 type  2   force =     0.00044389   -0.00136170   -0.00006025
     atom   10 type  2   force =    -0.00044395   -0.00136226    0.00006083
     atom   11 type  2   force =    -0.00044389    0.00136170    0.00006025
     atom   12 type  2   force =     0.00044395    0.00136226   -0.00006083
     atom   13 type  1   force =    -0.00209793    0.00088336   -0.00020187
     atom   14 type  1   force =     0.00209700    0.00088753    0.00019612
     atom   15 type  1   force =     0.00209793   -0.00088336    0.00020187
     atom   16 type  1   force =    -0.00209700   -0.00088753   -0.00019612
     atom   17 type  1   force =     0.00110283   -0.00170442   -0.00147710
     atom   18 type  1   force =    -0.00110291   -0.00169615    0.00147201
     atom   19 type  1   force =    -0.00110283    0.00170442    0.00147710
     atom   20 type  1   force =     0.00110291    0.00169615   -0.00147201
     atom   21 type  3   force =    -0.00046670    0.00049405   -0.00011637
     atom   22 type  3   force =     0.00046671    0.00049425    0.00011650
     atom   23 type  3   force =     0.00046670   -0.00049405    0.00011637
     atom   24 type  3   force =    -0.00046671   -0.00049425   -0.00011650
     atom   25 type  3   force =     0.00052042    0.00186865    0.00010296
     atom   26 type  3   force =    -0.00052052    0.00186857   -0.00010316
     atom   27 type  3   force =    -0.00052042   -0.00186865   -0.00010296
     atom   28 type  3   force =     0.00052052   -0.00186857    0.00010316
     atom   29 type  1   force =    -0.00110572    0.00103637   -0.00012665
     atom   30 type  1   force =     0.00110710    0.00102166    0.00011906
     atom   31 type  1   force =     0.00110572   -0.00103637    0.00012665
     atom   32 type  1   force =    -0.00110710   -0.00102166   -0.00011906
     atom   33 type  3   force =    -0.00017059    0.00000955   -0.00023478
     atom   34 type  3   force =     0.00017070    0.00000953    0.00023445
     atom   35 type  3   force =     0.00017059   -0.00000955    0.00023478
     atom   36 type  3   force =    -0.00017070   -0.00000953   -0.00023445
     atom   37 type  3   force =    -0.00030529   -0.00086965    0.00041138
     atom   38 type  3   force =     0.00030470   -0.00087004   -0.00041143
     atom   39 type  3   force =     0.00030529    0.00086965   -0.00041138
     atom   40 type  3   force =    -0.00030470    0.00087004    0.00041143
     atom   41 type  1   force =     0.00052068   -0.00166633   -0.00053129
     atom   42 type  1   force =    -0.00052099   -0.00166585    0.00053326
     atom   43 type  1   force =    -0.00052068    0.00166633    0.00053129
     atom   44 type  1   force =     0.00052099    0.00166585   -0.00053326
     atom   45 type  3   force =    -0.00023696   -0.00003393   -0.00008235
     atom   46 type  3   force =     0.00023688   -0.00003418    0.00008245
     atom   47 type  3   force =     0.00023696    0.00003393    0.00008235
     atom   48 type  3   force =    -0.00023688    0.00003418   -0.00008245
     atom   49 type  3   force =    -0.00126514    0.00154887    0.00004563
     atom   50 type  3   force =     0.00126499    0.00154838   -0.00004563
     atom   51 type  3   force =     0.00126514   -0.00154887   -0.00004563
     atom   52 type  3   force =    -0.00126499   -0.00154838    0.00004563
     atom   53 type  1   force =     0.00066112    0.00145994    0.00028096
     atom   54 type  1   force =    -0.00066127    0.00147937   -0.00027566
     atom   55 type  1   force =    -0.00066112   -0.00145994   -0.00028096
     atom   56 type  1   force =     0.00066127   -0.00147937    0.00027566
     atom   57 type  3   force =    -0.00100062    0.00002481   -0.00042788
     atom   58 type  3   force =     0.00100030    0.00002443    0.00042770
     atom   59 type  3   force =     0.00100062   -0.00002481    0.00042788
     atom   60 type  3   force =    -0.00100030   -0.00002443   -0.00042770
     atom   61 type  3   force =    -0.00098479   -0.00142053   -0.00035541
     atom   62 type  3   force =     0.00098420   -0.00141959    0.00035558
     atom   63 type  3   force =     0.00098479    0.00142053    0.00035541
     atom   64 type  3   force =    -0.00098420    0.00141959   -0.00035558
     atom   65 type  1   force =     0.00017584   -0.00041240    0.00059749
     atom   66 type  1   force =    -0.00017656   -0.00041597   -0.00059403
     atom   67 type  1   force =    -0.00017584    0.00041240   -0.00059749
     atom   68 type  1   force =     0.00017656    0.00041597    0.00059403
     atom   69 type  3   force =    -0.00002499    0.00017629   -0.00089500
     atom   70 type  3   force =     0.00002505    0.00017628    0.00089513
     atom   71 type  3   force =     0.00002499   -0.00017629    0.00089500
     atom   72 type  3   force =    -0.00002505   -0.00017628   -0.00089513
     atom   73 type  3   force =     0.00021709    0.00164908   -0.00045727
     atom   74 type  3   force =    -0.00021701    0.00164946    0.00045727
     atom   75 type  3   force =    -0.00021709   -0.00164908    0.00045727
     atom   76 type  3   force =     0.00021701   -0.00164946   -0.00045727
     atom   77 type  1   force =     0.00005209   -0.00036048    0.00077261
     atom   78 type  1   force =    -0.00005112   -0.00035086   -0.00077272
     atom   79 type  1   force =    -0.00005209    0.00036048   -0.00077261
     atom   80 type  1   force =     0.00005112    0.00035086    0.00077272
     atom   81 type  3   force =    -0.00024962   -0.00040653   -0.00006728
     atom   82 type  3   force =     0.00024964   -0.00040634    0.00006718
     atom   83 type  3   force =     0.00024962    0.00040653    0.00006728
     atom   84 type  3   force =    -0.00024964    0.00040634   -0.00006718
     atom   85 type  3   force =    -0.00030373    0.00003134    0.00068229
     atom   86 type  3   force =     0.00030335    0.00003177   -0.00068200
     atom   87 type  3   force =     0.00030373   -0.00003134   -0.00068229
     atom   88 type  3   force =    -0.00030335   -0.00003177    0.00068200
     atom   89 type  1   force =     0.00122541   -0.00204262   -0.00003648
     atom   90 type  1   force =    -0.00122635   -0.00204246    0.00003481
     atom   91 type  1   force =    -0.00122541    0.00204262    0.00003648
     atom   92 type  1   force =     0.00122635    0.00204246   -0.00003481
     atom   93 type  1   force =    -0.00011941    0.00201244   -0.00254501
     atom   94 type  1   force =     0.00012050    0.00200657    0.00254279
     atom   95 type  1   force =     0.00011941   -0.00201244    0.00254501
     atom   96 type  1   force =    -0.00012050   -0.00200657   -0.00254279
     atom   97 type  3   force =     0.00018285    0.00007487   -0.00058209
     atom   98 type  3   force =    -0.00018277    0.00007530    0.00058222
     atom   99 type  3   force =    -0.00018285   -0.00007487    0.00058209
     atom  100 type  3   force =     0.00018277   -0.00007530   -0.00058222
     atom  101 type  3   force =    -0.00026933    0.00079850   -0.00000627
     atom  102 type  3   force =     0.00026955    0.00079908    0.00000595
     atom  103 type  3   force =     0.00026933   -0.00079850    0.00000627
     atom  104 type  3   force =    -0.00026955   -0.00079908   -0.00000595

     Total force =     0.016872     Total SCF correction =     0.000108


     Computing stress (Cartesian axis) and pressure

          total   stress  (Ry/bohr**3)                   (kbar)     P=   -6.25
  -0.00003798  -0.00000000   0.00000728         -5.59     -0.00      1.07
  -0.00000000  -0.00004681   0.00000000         -0.00     -6.89      0.00
   0.00000728   0.00000000  -0.00004264          1.07      0.00     -6.27


     Writing output data file scf.save
 
     init_run     :     33.80s CPU     35.56s WALL (       1 calls)
     electrons    :   1160.73s CPU   1227.95s WALL (       1 calls)
     forces       :     16.60s CPU     16.80s WALL (       1 calls)
     stress       :    101.00s CPU    101.32s WALL (       1 calls)

     Called by init_run:
     wfcinit      :     24.20s CPU     25.80s WALL (       1 calls)
     potinit      :      3.36s CPU      3.40s WALL (       1 calls)

     Called by electrons:
     c_bands      :   1027.17s CPU   1084.14s WALL (      19 calls)
     sum_band     :    118.07s CPU    126.45s WALL (      19 calls)
     v_of_rho     :      2.31s CPU      2.57s WALL (      20 calls)
     newd         :      4.97s CPU      6.43s WALL (      20 calls)
     PAW_pot      :      7.32s CPU      7.33s WALL (      20 calls)
     mix_rho      :      0.65s CPU      0.83s WALL (      19 calls)

     Called by c_bands:
     init_us_2    :      9.50s CPU      9.57s WALL (     328 calls)
     cegterg      :    997.18s CPU   1053.84s WALL (     152 calls)

     Called by sum_band:
     sum_band:bec :      0.08s CPU      0.08s WALL (     152 calls)
     addusdens    :      5.67s CPU      7.09s WALL (      19 calls)

     Called by *egterg:
     h_psi        :    620.18s CPU    664.26s WALL (     709 calls)
     s_psi        :     96.63s CPU     96.73s WALL (     709 calls)
     g_psi        :      3.99s CPU      3.99s WALL (     549 calls)
     cdiaghg      :     47.24s CPU     47.25s WALL (     701 calls)

     Called by h_psi:
     h_psi:pot    :    614.03s CPU    658.02s WALL (     709 calls)
     h_psi:calbec :     92.55s CPU     92.94s WALL (     709 calls)
     vloc_psi     :    424.95s CPU    468.48s WALL (     709 calls)
     add_vuspsi   :     96.53s CPU     96.59s WALL (     709 calls)

     General routines
     calbec       :    141.97s CPU    142.50s WALL (     901 calls)
     fft          :      3.70s CPU      4.10s WALL (     284 calls)
     fftw         :    454.67s CPU    503.32s WALL (  167836 calls)
 
     Parallel routines
     fft_scatter  :    107.27s CPU    149.62s WALL (  168120 calls)
 
     PWSCF        : 21m59.91s CPU    23m53.06s WALL

 
   This run was terminated on:  17:12:18  15Jan2018            

=------------------------------------------------------------------------------=
   JOB DONE.
=------------------------------------------------------------------------------=
