
     Program PWSCF v.6.1 (svn rev. 13369) starts on 12Dec2017 at 23:26:36 

     This program is part of the open-source Quantum ESPRESSO suite
     for quantum simulation of materials; please cite
         "P. Giannozzi et al., J. Phys.:Condens. Matter 21 395502 (2009);
          URL http://www.quantum-espresso.org", 
     in publications or presentations arising from this work. More details at
     http://www.quantum-espresso.org/quote

     Parallel version (MPI), running on     8 processors
     R & G space division:  proc/nbgrp/npool/nimage =       8
     Waiting for input...
     Reading input from standard input

     Current dimensions of program PWSCF are:
     Max number of different atomic species (ntypx) = 10
     Max number of k-points (npk) =  40000
     Max angular momentum in pseudopotentials (lmaxx) =  3
               file C.pbe-n-kjpaw_psl.0.1.UPF: wavefunction(s)  2P renormalized
               file N.pbe-n-kjpaw_psl.0.1.UPF: wavefunction(s)  2P renormalized
               file H.pbe-kjpaw_psl.0.1.UPF: wavefunction(s)  1S renormalized
               file O.pbe-n-kjpaw_psl.0.1.UPF: wavefunction(s)  2P renormalized

     -------------------------------------
     Parameters for Dispersion Correction:
     -------------------------------------
       atom      VdW radius       C_6     

        C          2.744         60.710
        N          2.640         42.670
        H          1.892          4.857
        O          2.536         24.284

     Subspace diagonalization in iterative solution of the eigenvalue problem:
     a serial algorithm will be used

 
     Parallelization info
     --------------------
     sticks:   dense  smooth     PW     G-vecs:    dense   smooth      PW
     Min         928     928    248               111758   111758   15528
     Max         929     929    249               111763   111763   15534
     Sum        7427    7427   1985               894083   894083  124237
 


     bravais-lattice index     =            0
     lattice parameter (alat)  =       7.2120  a.u.
     unit-cell volume          =    6621.1921 (a.u.)^3
     number of atoms/cell      =           92
     number of atomic types    =            4
     number of electrons       =       328.00
     number of Kohn-Sham states=          196
     kinetic-energy cutoff     =     100.0000  Ry
     charge density cutoff     =     400.0000  Ry
     convergence threshold     =      1.0E-08
     mixing beta               =       0.5000
     number of iterations used =            8  plain     mixing
     Exchange-correlation      =  SLA  PW   PBX  PBC ( 1  4  3  4 0 0)

     celldm(1)=   7.211951  celldm(2)=   0.000000  celldm(3)=   0.000000
     celldm(4)=   0.000000  celldm(5)=   0.000000  celldm(6)=   0.000000

     crystal axes: (cart. coord. in units of alat)
               a(1) = (   1.000000   0.000000   0.000000 )  
               a(2) = (   0.000000   4.500314   0.000000 )  
               a(3) = (  -0.240582   0.000000   3.922248 )  

     reciprocal axes: (cart. coord. in units 2 pi/alat)
               b(1) = (  1.000000  0.000000  0.061338 )  
               b(2) = (  0.000000  0.222207  0.000000 )  
               b(3) = (  0.000000  0.000000  0.254956 )  


     PseudoPot. # 1 for  C read from file:
     /scratch/ahofstet/pseudo/C.pbe-n-kjpaw_psl.0.1.UPF
     MD5 check sum: 430fe95172b1e11ef3f8ed03bac87931
     Pseudo is Projector augmented-wave + core cor, Zval =  4.0
     Generated using "atomic" code by A. Dal Corso  v.5.0.99 svn rev. 10869
     Shape of augmentation charge: BESSEL
     Using radial grid of 1073 points,  4 beta functions with: 
                l(1) =   0
                l(2) =   0
                l(3) =   1
                l(4) =   1
     Q(r) pseudized with 0 coefficients 


     PseudoPot. # 2 for  N read from file:
     /scratch/ahofstet/pseudo/N.pbe-n-kjpaw_psl.0.1.UPF
     MD5 check sum: f73187c8b701007e77325f868c9291d7
     Pseudo is Projector augmented-wave + core cor, Zval =  5.0
     Generated using "atomic" code by A. Dal Corso  v.5.0.99 svn rev. 10869
     Shape of augmentation charge: PSQ
     Using radial grid of 1085 points,  4 beta functions with: 
                l(1) =   0
                l(2) =   0
                l(3) =   1
                l(4) =   1
     Q(r) pseudized with 0 coefficients 


     PseudoPot. # 3 for  H read from file:
     /scratch/ahofstet/pseudo/H.pbe-kjpaw_psl.0.1.UPF
     MD5 check sum: 94e484f906d9e9773b2f6e52662335b2
     Pseudo is Projector augmented-wave, Zval =  1.0
     Generated using "atomic" code by A. Dal Corso  v.5.0.99 svn rev. 10869
     Shape of augmentation charge: PSQ
     Using radial grid of  929 points,  2 beta functions with: 
                l(1) =   0
                l(2) =   0
     Q(r) pseudized with 0 coefficients 


     PseudoPot. # 4 for  O read from file:
     /scratch/ahofstet/pseudo/O.pbe-n-kjpaw_psl.0.1.UPF
     MD5 check sum: 3f94a2996a3169367d6eb21d9b593f20
     Pseudo is Projector augmented-wave + core cor, Zval =  6.0
     Generated using "atomic" code by A. Dal Corso  v.5.0.99 svn rev. 10869
     Shape of augmentation charge: BESSEL
     Using radial grid of 1095 points,  4 beta functions with: 
                l(1) =   0
                l(2) =   0
                l(3) =   1
                l(4) =   1
     Q(r) pseudized with 0 coefficients 


     atomic species   valence    mass     pseudopotential
        C              4.00    12.01070      C( 1.00)
        N              5.00    14.00670      N( 1.00)
        H              1.00     1.00794      H( 1.00)
        O              6.00    15.99940      O( 1.00)

      2 Sym. Ops., with inversion, found
          (note:  2 additional sym.ops. were found but ignored
           their fractional translations are incommensurate with FFT grid)


   Cartesian axes

     site n.     atom                  positions (alat units)
         1           O   tau(   1) = (   0.0722497   2.8109088   0.3410632  )
         2           O   tau(   2) = (   0.3074592   0.5607516   1.6200609  )
         3           O   tau(   3) = (   0.6871682   1.6894056   3.5811849  )
         4           O   tau(   4) = (   0.4519587   3.9395628   2.3021872  )
         5           N   tau(   5) = (   0.9359947   4.0533154   0.0771052  )
         6           N   tau(   6) = (   0.4437142   1.8031582   1.8840189  )
         7           N   tau(   7) = (  -0.1765768   0.4469990   3.8451429  )
         8           N   tau(   8) = (   0.3157037   2.6971562   2.0382292  )
         9           N   tau(   9) = (   0.0430892   3.4088911   3.9164946  )
        10           N   tau(  10) = (   0.0960377   1.1587339   1.9668775  )
        11           N   tau(  11) = (   0.7163287   1.0914233   0.0057534  )
        12           N   tau(  12) = (   0.6633802   3.3415806   1.9553706  )
        13           N   tau(  13) = (   0.6111938   3.0876254   0.5575076  )
        14           N   tau(  14) = (   0.7685151   0.8374682   1.4036165  )
        15           N   tau(  15) = (   0.1482241   1.4126890   3.3647405  )
        16           N   tau(  16) = (  -0.0090972   3.6628462   2.5186316  )
        17           N   tau(  17) = (   0.6164133   2.7538707   0.6940015  )
        18           N   tau(  18) = (   0.7632956   0.5037135   1.2671226  )
        19           N   tau(  19) = (   0.1430046   1.7464437   3.2282466  )
        20           N   tau(  20) = (  -0.0038777   3.9966009   2.6551255  )
        21           N   tau(  21) = (   0.2967701   2.1421806   0.5070545  )
        22           N   tau(  22) = (   0.0829388   4.3923378   1.4540696  )
        23           N   tau(  23) = (   0.4626478   2.3581338   3.4151936  )
        24           N   tau(  24) = (   0.6764791   0.1079766   2.4681785  )
        25           N   tau(  25) = (  -0.0444543   1.7278156   1.0072883  )
        26           N   tau(  26) = (   0.4241633   3.9779728   0.9538357  )
        27           N   tau(  27) = (   0.8038722   2.7724988   2.9149598  )
        28           N   tau(  28) = (   0.3352546   0.5223416   2.9684123  )
        29           C   tau(  29) = (   0.7853750   3.7408570   0.1878224  )
        30           C   tau(  30) = (   0.5943340   1.4906998   1.7733017  )
        31           C   tau(  31) = (  -0.0259571   0.7594574   3.7344257  )
        32           C   tau(  32) = (   0.1650839   3.0096147   2.1489464  )
        33           H   tau(  33) = (   0.6362382   3.7715809   0.4304225  )
        34           H   tau(  34) = (   0.7434708   1.5214237   1.5307016  )
        35           H   tau(  35) = (   0.1231797   0.7287335   3.4918256  )
        36           H   tau(  36) = (   0.0159471   2.9788908   2.3915465  )
        37           C   tau(  37) = (   0.9969602   4.0495105   3.8485026  )
        38           C   tau(  38) = (   0.1421666   1.7993533   2.0348695  )
        39           C   tau(  39) = (  -0.2375423   0.4508039   0.0737454  )
        40           C   tau(  40) = (   0.6172513   2.7009611   1.8873786  )
        41           H   tau(  41) = (   1.0896086   4.2993304   3.7460583  )
        42           H   tau(  42) = (   0.0495183   2.0491732   2.1373138  )
        43           H   tau(  43) = (  -0.3301907   0.2009840   0.1761898  )
        44           H   tau(  44) = (   0.7098996   2.4511412   1.7849343  )
        45           C   tau(  45) = (   1.1974709   3.7236058   3.8172960  )
        46           C   tau(  46) = (  -0.0583440   1.4734486   2.0660761  )
        47           C   tau(  47) = (  -0.4380530   0.7767086   0.1049521  )
        48           C   tau(  48) = (   0.8177619   3.0268658   1.8561719  )
        49           H   tau(  49) = (   0.3462682   3.6952956   3.5740507  )
        50           H   tau(  50) = (  -0.2071414   1.4451384   2.3093214  )
        51           H   tau(  51) = (   0.4131497   0.8050188   0.3481974  )
        52           H   tau(  52) = (   0.9665593   3.0551760   1.6129267  )
        53           C   tau(  53) = (   0.9917327   3.4203034   0.1641917  )
        54           C   tau(  54) = (   0.3879763   1.1701462   1.7969324  )
        55           C   tau(  55) = (  -0.2323148   1.0800110   3.7580564  )
        56           C   tau(  56) = (   0.3714416   3.3301683   2.1253157  )
        57           C   tau(  57) = (   0.8780944   3.1113560   0.3470873  )
        58           C   tau(  58) = (   0.5016145   0.8611988   1.6140367  )
        59           C   tau(  59) = (  -0.1186765   1.3889584   3.5751607  )
        60           C   tau(  60) = (   0.2578034   3.6391157   2.3082114  )
        61           C   tau(  61) = (  -0.1140243   2.5964463   0.5578036  )
        62           C   tau(  62) = (   0.4937332   0.3462891   1.4033205  )
        63           C   tau(  63) = (   0.8734422   1.9038681   3.3644445  )
        64           C   tau(  64) = (   0.2656847   4.1540254   2.5189276  )
        65           C   tau(  65) = (   0.0040849   2.2481273   0.6380940  )
        66           C   tau(  66) = (   0.3756240  -0.0020300   1.3230300  )
        67           C   tau(  67) = (   0.7553330   2.2521872   3.2841540  )
        68           C   tau(  68) = (   0.3837939   4.5023444   2.5992181  )
        69           C   tau(  69) = (   0.4503035   1.8414119   0.6416885  )
        70           C   tau(  70) = (  -0.0705946   4.0915691   1.3194356  )
        71           C   tau(  71) = (   0.3091144   2.6589026   3.2805596  )
        72           C   tau(  72) = (   0.8300125   0.4087453   2.6028125  )
        73           H   tau(  73) = (   0.6018288   1.7002795   0.4435458  )
        74           H   tau(  74) = (   0.7778801   3.9504367   1.5175782  )
        75           H   tau(  75) = (   0.1575891   2.8000349   3.4787022  )
        76           H   tau(  76) = (  -0.0184622   0.5498777   2.4046699  )
        77           C   tau(  77) = (   0.2528206   1.6250395   0.8862173  )
        78           C   tau(  78) = (   0.1268884   3.8751967   1.0749068  )
        79           C   tau(  79) = (   0.5065973   2.8752750   3.0360308  )
        80           C   tau(  80) = (   0.6325295   0.6251178   2.8473413  )
        81           H   tau(  81) = (   0.3505545   1.3745802   0.9832306  )
        82           H   tau(  82) = (   0.0291545   3.6247374   0.9778934  )
        83           H   tau(  83) = (   0.4088634   3.1257342   2.9390175  )
        84           H   tau(  84) = (   0.7302634   0.8755770   2.9443546  )
        85           C   tau(  85) = (  -0.1997549   2.0278357   0.8743954  )
        86           C   tau(  86) = (   0.5794638   4.2779929   1.0867286  )
        87           C   tau(  87) = (   0.9591728   2.4724787   3.0478527  )
        88           C   tau(  88) = (   0.1799541   0.2223215   2.8355194  )
        89           H   tau(  89) = (  -0.3520738   2.1694706   1.0708514  )
        90           H   tau(  90) = (   0.7317828   4.4196278   0.8902726  )
        91           H   tau(  91) = (   1.1114917   2.3308438   2.8513966  )
        92           H   tau(  92) = (   0.0276351   0.0806866   3.0319755  )

     number of k points=     6
                       cart. coord. in units 2pi/alat
        k(    1) = (   0.0000000   0.0000000   0.0000000), wk =   0.2000000
        k(    2) = (   0.0000000   0.0000000  -0.1274779), wk =   0.2000000
        k(    3) = (   0.2000000   0.0000000   0.0122676), wk =   0.4000000
        k(    4) = (   0.2000000   0.0000000  -0.1152104), wk =   0.4000000
        k(    5) = (   0.4000000   0.0000000   0.0245351), wk =   0.4000000
        k(    6) = (   0.4000000   0.0000000  -0.1029428), wk =   0.4000000

     Dense  grid:   894083 G-vectors     FFT dimensions: (  45, 216, 192)

     Estimated max dynamical RAM per process >     839.65MB

     Estimated total allocated dynamical RAM >    6717.20MB

     Check: negative/imaginary core charge=   -0.000002    0.000000

     Initial potential from superposition of free atoms

     starting charge  327.99793, renormalised to  328.00000
     Starting wfc are  296 randomized atomic wfcs
     Checking if some PAW data can be deallocated... 

     total cpu time spent up to now is       37.9 secs

     per-process dynamical memory:   549.5 Mb

     Self-consistent Calculation

     iteration #  1     ecut=   100.00 Ry     beta=0.50
     Davidson diagonalization with overlap
     ethr =  1.00E-02,  avg # of iterations =  4.3

     total cpu time spent up to now is      131.4 secs

     total energy              =   -1607.24054177 Ry
     Harris-Foulkes estimate   =   -1611.44738656 Ry
     estimated scf accuracy    <       8.48142309 Ry

     iteration #  2     ecut=   100.00 Ry     beta=0.50
     Davidson diagonalization with overlap
     ethr =  2.59E-03,  avg # of iterations =  2.0

     total cpu time spent up to now is      180.6 secs

     total energy              =   -1607.67143182 Ry
     Harris-Foulkes estimate   =   -1608.31404765 Ry
     estimated scf accuracy    <       1.36308763 Ry

     iteration #  3     ecut=   100.00 Ry     beta=0.50
     Davidson diagonalization with overlap
     ethr =  4.16E-04,  avg # of iterations =  7.5

     total cpu time spent up to now is      275.6 secs

     total energy              =   -1608.30573354 Ry
     Harris-Foulkes estimate   =   -1608.48178185 Ry
     estimated scf accuracy    <       0.44292332 Ry

     iteration #  4     ecut=   100.00 Ry     beta=0.50
     Davidson diagonalization with overlap
     ethr =  1.35E-04,  avg # of iterations =  1.3

     total cpu time spent up to now is      320.5 secs

     total energy              =   -1608.29803116 Ry
     Harris-Foulkes estimate   =   -1608.34360222 Ry
     estimated scf accuracy    <       0.08315987 Ry

     iteration #  5     ecut=   100.00 Ry     beta=0.50
     Davidson diagonalization with overlap
     ethr =  2.54E-05,  avg # of iterations =  5.0

     total cpu time spent up to now is      421.9 secs

     total energy              =   -1608.35797198 Ry
     Harris-Foulkes estimate   =   -1608.39894970 Ry
     estimated scf accuracy    <       0.11809364 Ry

     iteration #  6     ecut=   100.00 Ry     beta=0.50
     Davidson diagonalization with overlap
     ethr =  2.54E-05,  avg # of iterations =  1.0

     total cpu time spent up to now is      466.5 secs

     total energy              =   -1608.34412671 Ry
     Harris-Foulkes estimate   =   -1608.36274909 Ry
     estimated scf accuracy    <       0.03983645 Ry

     iteration #  7     ecut=   100.00 Ry     beta=0.50
     Davidson diagonalization with overlap
     ethr =  1.21E-05,  avg # of iterations =  5.2

     total cpu time spent up to now is      546.5 secs

     total energy              =   -1608.36187861 Ry
     Harris-Foulkes estimate   =   -1608.36342951 Ry
     estimated scf accuracy    <       0.00408334 Ry

     iteration #  8     ecut=   100.00 Ry     beta=0.50
     Davidson diagonalization with overlap
     ethr =  1.24E-06,  avg # of iterations =  2.0

     total cpu time spent up to now is      593.2 secs

     total energy              =   -1608.36173028 Ry
     Harris-Foulkes estimate   =   -1608.36226781 Ry
     estimated scf accuracy    <       0.00100413 Ry

     iteration #  9     ecut=   100.00 Ry     beta=0.50
     Davidson diagonalization with overlap
     ethr =  3.06E-07,  avg # of iterations =  5.2

     total cpu time spent up to now is      684.0 secs

     total energy              =   -1608.36256528 Ry
     Harris-Foulkes estimate   =   -1608.36274429 Ry
     estimated scf accuracy    <       0.00070083 Ry

     iteration # 10     ecut=   100.00 Ry     beta=0.50
     Davidson diagonalization with overlap
     ethr =  2.14E-07,  avg # of iterations =  1.3

     total cpu time spent up to now is      728.7 secs

     total energy              =   -1608.36237071 Ry
     Harris-Foulkes estimate   =   -1608.36258005 Ry
     estimated scf accuracy    <       0.00036211 Ry

     iteration # 11     ecut=   100.00 Ry     beta=0.50
     Davidson diagonalization with overlap
     ethr =  1.10E-07,  avg # of iterations =  4.0

     total cpu time spent up to now is      802.6 secs

     total energy              =   -1608.36253113 Ry
     Harris-Foulkes estimate   =   -1608.36255628 Ry
     estimated scf accuracy    <       0.00007968 Ry

     iteration # 12     ecut=   100.00 Ry     beta=0.50
     Davidson diagonalization with overlap
     ethr =  2.43E-08,  avg # of iterations =  1.0

     total cpu time spent up to now is      845.9 secs

     total energy              =   -1608.36251828 Ry
     Harris-Foulkes estimate   =   -1608.36253441 Ry
     estimated scf accuracy    <       0.00003422 Ry

     iteration # 13     ecut=   100.00 Ry     beta=0.50
     Davidson diagonalization with overlap
     ethr =  1.04E-08,  avg # of iterations =  3.7

     total cpu time spent up to now is      916.6 secs

     total energy              =   -1608.36253261 Ry
     Harris-Foulkes estimate   =   -1608.36253294 Ry
     estimated scf accuracy    <       0.00000145 Ry

     iteration # 14     ecut=   100.00 Ry     beta=0.50
     Davidson diagonalization with overlap
     ethr =  4.41E-10,  avg # of iterations =  3.2

     total cpu time spent up to now is      978.4 secs

     total energy              =   -1608.36253256 Ry
     Harris-Foulkes estimate   =   -1608.36253295 Ry
     estimated scf accuracy    <       0.00000078 Ry

     iteration # 15     ecut=   100.00 Ry     beta=0.50
     Davidson diagonalization with overlap
     ethr =  2.39E-10,  avg # of iterations =  3.8

     total cpu time spent up to now is     1030.9 secs

     total energy              =   -1608.36253267 Ry
     Harris-Foulkes estimate   =   -1608.36253269 Ry
     estimated scf accuracy    <       0.00000005 Ry

     iteration # 16     ecut=   100.00 Ry     beta=0.50
     Davidson diagonalization with overlap
     ethr =  1.53E-11,  avg # of iterations =  4.0

     total cpu time spent up to now is     1130.2 secs

     total energy              =   -1608.36253276 Ry
     Harris-Foulkes estimate   =   -1608.36253278 Ry
     estimated scf accuracy    <       0.00000005 Ry

     iteration # 17     ecut=   100.00 Ry     beta=0.50
     Davidson diagonalization with overlap
     ethr =  1.53E-11,  avg # of iterations =  1.0

     total cpu time spent up to now is     1174.4 secs

     total energy              =   -1608.36253275 Ry
     Harris-Foulkes estimate   =   -1608.36253276 Ry
     estimated scf accuracy    <       0.00000002 Ry

     iteration # 18     ecut=   100.00 Ry     beta=0.50
     Davidson diagonalization with overlap
     ethr =  6.98E-12,  avg # of iterations =  4.0

     total cpu time spent up to now is     1248.4 secs

     End of self-consistent calculation

          k = 0.0000 0.0000 0.0000 (111859 PWs)   bands (ev):

   -22.3290 -22.3289 -22.3284 -22.3284 -18.1538 -18.1527 -18.1449 -18.1440
   -18.0165 -18.0069 -18.0064 -17.9965 -17.6130 -17.6126 -17.6124 -17.6120
   -16.0652 -16.0574 -16.0546 -16.0482 -15.8797 -15.8660 -15.8537 -15.8418
   -14.2148 -14.2146 -14.2091 -14.2082 -12.0428 -12.0351 -12.0320 -12.0291
   -11.3847 -11.3826 -11.3823 -11.3764 -11.0106 -10.9913 -10.9727 -10.9607
   -10.8102 -10.7817 -10.7780 -10.7570  -9.7075  -9.7010  -9.6973  -9.6865
    -9.3288  -9.3261  -9.3259  -9.3197  -8.2708  -8.2613  -8.2443  -8.2376
    -7.7874  -7.7860  -7.7822  -7.7748  -6.5544  -6.5468  -6.5104  -6.4962
    -6.4260  -6.4236  -6.4191  -6.4155  -6.3111  -6.3083  -6.3011  -6.2972
    -6.0181  -6.0123  -5.9738  -5.9611  -5.7682  -5.7168  -5.7121  -5.6436
    -5.6286  -5.5889  -5.5769  -5.4442  -5.3208  -5.1950  -5.1449  -5.0870
    -4.8802  -4.8774  -4.8403  -4.8312  -4.5273  -4.4758  -4.4160  -4.4129
    -3.7755  -3.7644  -3.7591  -3.7395  -3.1169  -3.0904  -3.0855  -3.0345
    -2.9452  -2.9346  -2.8883  -2.8764  -2.6442  -2.5954  -2.5843  -2.5717
    -2.4669  -2.4307  -2.3613  -2.3314  -2.1830  -2.1652  -2.1612  -2.1557
    -2.1109  -2.0836  -2.0132  -2.0022  -1.4053  -1.3970  -1.3465  -1.3404
    -1.2335  -1.2103  -1.2059  -1.1988  -1.0531  -1.0381  -1.0073  -1.0021
    -0.5829  -0.5820  -0.5798  -0.5513  -0.3945  -0.3693  -0.3522  -0.3395
    -0.1395  -0.0958  -0.0532  -0.0402   0.3038   0.3447   0.3511   0.3598
     0.5721   0.5942   0.6240   0.6248   1.3199   1.4272   1.4496   1.4541
     1.5082   1.6353   1.6965   1.7280   3.7380   3.7588   3.7645   3.7900
     4.4331   4.4524   4.4769   4.5090   5.7497   5.7731   5.8230   5.8557
     5.9055   5.9625   5.9836   6.0570   6.5000   6.8150   6.8341   6.8481
     7.3722   7.4490   7.4909   7.5687   7.5836   7.6628   7.6931   7.6977
     7.7987   7.8745   7.9598   8.0941

          k = 0.0000 0.0000-0.1275 (111898 PWs)   bands (ev):

   -22.3290 -22.3290 -22.3284 -22.3284 -18.1533 -18.1533 -18.1444 -18.1444
   -18.0137 -18.0137 -17.9995 -17.9995 -17.6129 -17.6129 -17.6121 -17.6121
   -16.0625 -16.0625 -16.0503 -16.0503 -15.8744 -15.8744 -15.8463 -15.8463
   -14.2147 -14.2147 -14.2086 -14.2086 -12.0398 -12.0398 -12.0298 -12.0298
   -11.3844 -11.3844 -11.3786 -11.3786 -11.0029 -11.0029 -10.9649 -10.9649
   -10.8004 -10.8004 -10.7630 -10.7630  -9.7056  -9.7056  -9.6906  -9.6906
    -9.3283  -9.3283  -9.3219  -9.3219  -8.2667  -8.2667  -8.2403  -8.2403
    -7.7870  -7.7870  -7.7783  -7.7783  -6.5512  -6.5512  -6.5028  -6.5028
    -6.4251  -6.4251  -6.4170  -6.4170  -6.3097  -6.3097  -6.2992  -6.2992
    -6.0065  -6.0065  -5.9773  -5.9773  -5.7485  -5.7485  -5.6890  -5.6890
    -5.5891  -5.5891  -5.5196  -5.5196  -5.2636  -5.2636  -5.1022  -5.1022
    -4.8796  -4.8796  -4.8352  -4.8352  -4.5029  -4.5029  -4.4134  -4.4134
    -3.7718  -3.7718  -3.7471  -3.7471  -3.0917  -3.0917  -3.0802  -3.0802
    -2.9206  -2.9206  -2.8943  -2.8943  -2.6237  -2.6237  -2.5748  -2.5748
    -2.4457  -2.4457  -2.3481  -2.3481  -2.1741  -2.1741  -2.1567  -2.1567
    -2.1004  -2.1004  -2.0063  -2.0063  -1.4000  -1.4000  -1.3459  -1.3459
    -1.2178  -1.2178  -1.2051  -1.2051  -1.0465  -1.0465  -1.0041  -1.0041
    -0.5855  -0.5855  -0.5624  -0.5624  -0.3824  -0.3824  -0.3447  -0.3447
    -0.1213  -0.1213  -0.0437  -0.0437   0.3248   0.3248   0.3551   0.3551
     0.5826   0.5826   0.6250   0.6250   1.3483   1.3483   1.4785   1.4785
     1.5628   1.5628   1.7198   1.7198   3.7432   3.7432   3.7826   3.7826
     4.4429   4.4429   4.4926   4.4926   5.7571   5.7571   5.8380   5.8380
     5.9345   5.9345   6.0241   6.0241   6.6078   6.6078   6.8678   6.8678
     7.4184   7.4184   7.5120   7.5120   7.6300   7.6300   7.7479   7.7479
     7.9115   7.9115   7.9805   7.9806

          k = 0.2000 0.0000 0.0123 (111847 PWs)   bands (ev):

   -22.2661 -22.2661 -22.2656 -22.2656 -17.9724 -17.9719 -17.9660 -17.9657
   -17.8446 -17.8401 -17.8366 -17.8324 -17.7327 -17.7323 -17.7294 -17.7285
   -16.0286 -16.0228 -16.0196 -16.0151 -15.8655 -15.8555 -15.8408 -15.8323
   -14.3248 -14.3244 -14.3234 -14.3219 -12.8084 -12.8046 -12.7923 -12.7919
   -12.2704 -12.2688 -12.2617 -12.2590 -10.4246 -10.4246 -10.4056 -10.4031
   -10.3669 -10.3470 -10.3308 -10.3155  -9.7298  -9.7125  -9.6750  -9.6648
    -9.2972  -9.2971  -9.2843  -9.2832  -8.5817  -8.5767  -8.5655  -8.5589
    -7.8855  -7.8821  -7.8757  -7.8750  -6.9217  -6.8810  -6.8578  -6.8197
    -6.3221  -6.2799  -6.1642  -6.1546  -6.0023  -5.9896  -5.9474  -5.9383
    -5.8471  -5.8459  -5.7712  -5.7595  -5.7564  -5.7400  -5.6447  -5.6128
    -5.2800  -5.2669  -5.2352  -5.2105  -5.1681  -5.1606  -5.1472  -5.1331
    -4.6161  -4.6160  -4.5242  -4.5173  -4.3362  -4.3297  -4.2104  -4.1879
    -3.8798  -3.8739  -3.7956  -3.7887  -3.6564  -3.6475  -3.6200  -3.5931
    -3.4730  -3.4609  -3.4371  -3.4217  -2.7514  -2.7316  -2.7001  -2.6829
    -2.5726  -2.5377  -2.4703  -2.4580  -2.0736  -2.0181  -1.9890  -1.9688
    -1.9530  -1.9523  -1.9402  -1.9286  -1.3923  -1.3683  -1.3428  -1.2962
    -0.7878  -0.7359  -0.7093  -0.7044  -0.6720  -0.6480  -0.5584  -0.5391
    -0.4958  -0.4785  -0.3988  -0.3220  -0.2836  -0.2534  -0.1312  -0.0940
    -0.0379   0.0088   0.0851   0.1566   0.3738   0.3902   0.4637   0.4659
     0.4963   0.5129   0.5487   0.5664   1.2784   1.3850   1.4483   1.4948
     1.5140   1.5865   1.6869   1.7623   3.8448   3.8542   3.9021   3.9116
     4.5592   4.5859   4.5908   4.6530   5.3381   5.4314   5.4605   5.4966
     5.5752   5.6496   5.6937   5.7798   6.8491   7.0146   7.0987   7.1585
     7.1655   7.2572   7.3425   7.4113   7.4674   7.4713   7.5237   7.5674
     7.8015   7.9501   8.0897   8.1354

          k = 0.2000 0.0000-0.1152 (111876 PWs)   bands (ev):

   -22.2661 -22.2661 -22.2656 -22.2656 -17.9726 -17.9715 -17.9664 -17.9653
   -17.8433 -17.8425 -17.8339 -17.8339 -17.7333 -17.7313 -17.7297 -17.7286
   -16.0268 -16.0260 -16.0169 -16.0164 -15.8627 -15.8599 -15.8370 -15.8346
   -14.3248 -14.3245 -14.3226 -14.3225 -12.8085 -12.8044 -12.7930 -12.7913
   -12.2709 -12.2671 -12.2640 -12.2579 -10.4258 -10.4233 -10.4071 -10.4015
   -10.3637 -10.3530 -10.3276 -10.3160  -9.7298  -9.7122  -9.6766  -9.6636
    -9.2988  -9.2956  -9.2849  -9.2826  -8.5814  -8.5761  -8.5682  -8.5574
    -7.8857  -7.8816  -7.8759  -7.8750  -6.9112  -6.9009  -6.8447  -6.8232
    -6.3361  -6.2572  -6.1796  -6.1477  -6.0031  -5.9786  -5.9583  -5.9376
    -5.8543  -5.8439  -5.7848  -5.7633  -5.7555  -5.6912  -5.6751  -5.6105
    -5.2746  -5.2614  -5.2493  -5.2012  -5.1765  -5.1526  -5.1437  -5.1417
    -4.6497  -4.5640  -4.5440  -4.5118  -4.3594  -4.3102  -4.2040  -4.1949
    -3.8940  -3.8448  -3.8271  -3.7688  -3.6688  -3.6387  -3.6110  -3.6024
    -3.4805  -3.4447  -3.4373  -3.4294  -2.7415  -2.7321  -2.7033  -2.6866
    -2.5667  -2.5512  -2.4677  -2.4565  -2.0548  -2.0406  -1.9876  -1.9792
    -1.9569  -1.9379  -1.9344  -1.9313  -1.3951  -1.3726  -1.3181  -1.3130
    -0.7562  -0.7483  -0.7151  -0.7121  -0.6869  -0.6535  -0.5683  -0.5164
    -0.4944  -0.4854  -0.3723  -0.3570  -0.2796  -0.2331  -0.1286  -0.1043
    -0.0396   0.0016   0.1099   0.1391   0.3780   0.3901   0.4535   0.4727
     0.4967   0.5059   0.5548   0.5669   1.3085   1.3289   1.4964   1.5019
     1.5152   1.5386   1.7315   1.7350   3.8385   3.8686   3.8864   3.9195
     4.5536   4.5782   4.6126   4.6439   5.3684   5.4000   5.4562   5.4670
     5.6184   5.6445   5.7079   5.7622   6.9414   6.9515   7.0819   7.0822
     7.1622   7.3090   7.3320   7.3828   7.4666   7.4746   7.5503   7.5612
     7.8733   7.8950   8.0553   8.2021

          k = 0.4000 0.0000 0.0245 (111747 PWs)   bands (ev):

   -22.1573 -22.1573 -22.1569 -22.1569 -17.9878 -17.9876 -17.9872 -17.9870
   -17.5692 -17.5688 -17.5645 -17.5640 -17.4233 -17.4187 -17.4148 -17.4104
   -16.0687 -16.0673 -16.0640 -16.0634 -15.9413 -15.9395 -15.9215 -15.9204
   -14.5933 -14.5924 -14.5868 -14.5867 -13.5866 -13.5851 -13.5711 -13.5708
   -12.8662 -12.8661 -12.8566 -12.8566 -10.5648 -10.5630 -10.5551 -10.5535
   -10.2863 -10.2785 -10.2686 -10.2651  -9.3993  -9.3828  -9.3690  -9.3489
    -9.2426  -9.2151  -9.1917  -9.1753  -8.5929  -8.5790  -8.5494  -8.5384
    -8.0657  -8.0563  -8.0472  -8.0413  -6.7963  -6.7684  -6.7220  -6.7076
    -6.1777  -6.1563  -6.0665  -6.0446  -5.8593  -5.8498  -5.8240  -5.8206
    -5.7934  -5.7685  -5.7332  -5.7331  -5.6975  -5.6700  -5.6437  -5.6092
    -5.3766  -5.3676  -5.3633  -5.3625  -5.1364  -5.1299  -5.1148  -5.1132
    -4.5841  -4.5730  -4.5619  -4.5593  -4.4788  -4.4369  -4.3883  -4.3762
    -3.9219  -3.9081  -3.8799  -3.8793  -3.4605  -3.4592  -3.4353  -3.4314
    -3.3598  -3.3526  -3.3376  -3.3321  -2.9791  -2.9695  -2.9298  -2.9227
    -2.7759  -2.7636  -2.6899  -2.6818  -2.1473  -2.1285  -2.0960  -2.0841
    -1.5214  -1.5117  -1.4281  -1.4135  -1.3112  -1.2844  -1.2762  -1.2577
    -0.7682  -0.7551  -0.7289  -0.7065  -0.6356  -0.6077  -0.5283  -0.4824
    -0.2274  -0.2062  -0.1793  -0.1275   0.0617   0.0993   0.2271   0.2413
     0.4659   0.4712   0.4927   0.4970   0.9225   0.9339   0.9590   1.0018
     1.0301   1.0558   1.1214   1.1430   1.3076   1.3547   1.5930   1.6028
     1.7340   1.7535   1.9096   1.9320   3.5096   3.5772   3.6406   3.6722
     4.1623   4.2009   4.2973   4.3651   4.8506   4.8635   4.9368   4.9436
     5.1073   5.1374   5.1857   5.1973   6.9152   6.9317   7.0947   7.1021
     7.4638   7.4658   7.5720   7.5739   7.8842   7.9987   8.0374   8.1373
     8.5002   8.5519   8.7715   8.7775

          k = 0.4000 0.0000-0.1029 (111696 PWs)   bands (ev):

   -22.1573 -22.1573 -22.1569 -22.1569 -17.9879 -17.9875 -17.9872 -17.9870
   -17.5691 -17.5689 -17.5643 -17.5643 -17.4221 -17.4209 -17.4128 -17.4114
   -16.0689 -16.0671 -16.0642 -16.0633 -15.9424 -15.9380 -15.9229 -15.9194
   -14.5935 -14.5913 -14.5892 -14.5852 -13.5881 -13.5834 -13.5718 -13.5704
   -12.8666 -12.8656 -12.8576 -12.8558 -10.5653 -10.5611 -10.5581 -10.5519
   -10.2867 -10.2781 -10.2679 -10.2659  -9.3991  -9.3869  -9.3611  -9.3535
    -9.2356  -9.2233  -9.1905  -9.1748  -8.5894  -8.5834  -8.5491  -8.5378
    -8.0626  -8.0606  -8.0458  -8.0414  -6.7934  -6.7662  -6.7355  -6.6992
    -6.2006  -6.1229  -6.0755  -6.0431  -5.8722  -5.8375  -5.8289  -5.8150
    -5.7954  -5.7692  -5.7346  -5.7343  -5.6882  -5.6876  -5.6291  -5.6134
    -5.3749  -5.3714  -5.3630  -5.3603  -5.1375  -5.1259  -5.1207  -5.1102
    -4.5820  -4.5782  -4.5717  -4.5504  -4.4617  -4.4500  -4.3843  -4.3808
    -3.9159  -3.9143  -3.8823  -3.8767  -3.4577  -3.4561  -3.4501  -3.4213
    -3.3660  -3.3484  -3.3380  -3.3301  -2.9758  -2.9628  -2.9372  -2.9292
    -2.7735  -2.7611  -2.6906  -2.6830  -2.1501  -2.1268  -2.0911  -2.0880
    -1.5358  -1.4799  -1.4613  -1.3969  -1.3042  -1.2990  -1.2698  -1.2566
    -0.7635  -0.7624  -0.7164  -0.7152  -0.6327  -0.6169  -0.5127  -0.4930
    -0.2240  -0.2158  -0.1541  -0.1495   0.0776   0.0866   0.2169   0.2508
     0.4689   0.4697   0.4913   0.4974   0.9039   0.9623   0.9647   0.9973
     1.0368   1.0510   1.0726   1.2054   1.2436   1.4065   1.5771   1.6046
     1.7307   1.7534   1.9205   1.9241   3.5371   3.5474   3.6274   3.6876
     4.1413   4.2235   4.3078   4.3525   4.8311   4.8937   4.9340   4.9440
     5.1043   5.1346   5.1494   5.2326   6.9117   6.9371   7.0954   7.0958
     7.4615   7.4855   7.5242   7.6158   7.9145   8.0033   8.0411   8.0553
     8.5927   8.5930   8.6184   8.7749

     highest occupied, lowest unoccupied level (ev):     1.9320    3.5096

!    total energy              =   -1608.36253276 Ry
     Harris-Foulkes estimate   =   -1608.36253276 Ry
     estimated scf accuracy    <          3.1E-09 Ry

     total all-electron energy =     -6305.485282 Ry

     The total energy is the sum of the following terms:

     one-electron contribution =   -1144.91687875 Ry
     hartree contribution      =     701.51667854 Ry
     xc contribution           =    -342.88136035 Ry
     ewald contribution        =    -318.60397688 Ry
     Dispersion Correction     =      -0.45858281 Ry
     one-center paw contrib.   =    -503.01841250 Ry

     convergence has been achieved in  18 iterations

     Forces acting on atoms (cartesian axes, Ry/au):

     atom    1 type  4   force =    -0.03881080   -0.01398928   -0.03138183
     atom    2 type  4   force =     0.03881121   -0.01399008    0.03138183
     atom    3 type  4   force =     0.03881080    0.01398928    0.03138183
     atom    4 type  4   force =    -0.03881121    0.01399008   -0.03138183
     atom    5 type  2   force =     0.04384971    0.05646788   -0.00235960
     atom    6 type  2   force =    -0.04385198    0.05646791    0.00236125
     atom    7 type  2   force =    -0.04384971   -0.05646788    0.00235960
     atom    8 type  2   force =     0.04385198   -0.05646791   -0.00236125
     atom    9 type  2   force =    -0.03003620   -0.03843416   -0.01246947
     atom   10 type  2   force =     0.03003483   -0.03843321    0.01247043
     atom   11 type  2   force =     0.03003620    0.03843416    0.01246947
     atom   12 type  2   force =    -0.03003483    0.03843321   -0.01247043
     atom   13 type  2   force =     0.00341465    0.00220119    0.03599038
     atom   14 type  2   force =    -0.00341419    0.00220103   -0.03599036
     atom   15 type  2   force =    -0.00341465   -0.00220119   -0.03599038
     atom   16 type  2   force =     0.00341419   -0.00220103    0.03599036
     atom   17 type  2   force =     0.00204502    0.02479396    0.02739423
     atom   18 type  2   force =    -0.00204520    0.02479320   -0.02739427
     atom   19 type  2   force =    -0.00204502   -0.02479396   -0.02739423
     atom   20 type  2   force =     0.00204520   -0.02479320    0.02739427
     atom   21 type  2   force =    -0.03021188    0.01768673   -0.03443698
     atom   22 type  2   force =     0.03021095    0.01768618    0.03443803
     atom   23 type  2   force =     0.03021188   -0.01768673    0.03443698
     atom   24 type  2   force =    -0.03021095   -0.01768618   -0.03443803
     atom   25 type  2   force =     0.03765802   -0.04547423    0.03374052
     atom   26 type  2   force =    -0.03765600   -0.04547340   -0.03374103
     atom   27 type  2   force =    -0.03765802    0.04547423   -0.03374052
     atom   28 type  2   force =     0.03765600    0.04547340    0.03374103
     atom   29 type  1   force =    -0.07766777    0.01149026   -0.01446304
     atom   30 type  1   force =     0.07765428    0.01149046    0.01446212
     atom   31 type  1   force =     0.07766777   -0.01149026    0.01446304
     atom   32 type  1   force =    -0.07765428   -0.01149046   -0.01446212
     atom   33 type  3   force =     0.00473337    0.00073544    0.01415757
     atom   34 type  3   force =    -0.00473325    0.00073561   -0.01415735
     atom   35 type  3   force =    -0.00473337   -0.00073544   -0.01415757
     atom   36 type  3   force =     0.00473325   -0.00073561    0.01415735
     atom   37 type  1   force =    -0.03633349    0.00835220    0.00830158
     atom   38 type  1   force =     0.03631642    0.00835162   -0.00830371
     atom   39 type  1   force =     0.03633349   -0.00835220   -0.00830158
     atom   40 type  1   force =    -0.03631642   -0.00835162    0.00830371
     atom   41 type  3   force =     0.00997044    0.00137552   -0.00055516
     atom   42 type  3   force =    -0.00997086    0.00137559    0.00055516
     atom   43 type  3   force =    -0.00997044   -0.00137552    0.00055516
     atom   44 type  3   force =     0.00997086   -0.00137559   -0.00055516
     atom   45 type  1   force =     0.06845654   -0.01311036    0.01129034
     atom   46 type  1   force =    -0.06844518   -0.01311065   -0.01128961
     atom   47 type  1   force =    -0.06845654    0.01311036   -0.01129034
     atom   48 type  1   force =     0.06844518    0.01311065    0.01128961
     atom   49 type  3   force =    -0.00254600    0.00242663   -0.01212218
     atom   50 type  3   force =     0.00254552    0.00242688    0.01212214
     atom   51 type  3   force =     0.00254600   -0.00242663    0.01212218
     atom   52 type  3   force =    -0.00254552   -0.00242688   -0.01212214
     atom   53 type  1   force =     0.02382707   -0.01007889   -0.01270967
     atom   54 type  1   force =    -0.02383567   -0.01007935    0.01270775
     atom   55 type  1   force =    -0.02382707    0.01007889    0.01270967
     atom   56 type  1   force =     0.02383567    0.01007935   -0.01270775
     atom   57 type  1   force =     0.01284060   -0.01550619    0.00167438
     atom   58 type  1   force =    -0.01285063   -0.01550632   -0.00167641
     atom   59 type  1   force =    -0.01284060    0.01550619   -0.00167438
     atom   60 type  1   force =     0.01285063    0.01550632    0.00167641
     atom   61 type  1   force =     0.01197589    0.01333021   -0.01052268
     atom   62 type  1   force =    -0.01198109    0.01333086    0.01052162
     atom   63 type  1   force =    -0.01197589   -0.01333021    0.01052268
     atom   64 type  1   force =     0.01198109   -0.01333086   -0.01052162
     atom   65 type  1   force =     0.02645255   -0.00168776   -0.01578887
     atom   66 type  1   force =    -0.02646598   -0.00168710    0.01578642
     atom   67 type  1   force =    -0.02645255    0.00168776    0.01578887
     atom   68 type  1   force =     0.02646598    0.00168710   -0.01578642
     atom   69 type  1   force =     0.07061230    0.01785899   -0.00263665
     atom   70 type  1   force =    -0.07060896    0.01785862    0.00263714
     atom   71 type  1   force =    -0.07061230   -0.01785899    0.00263665
     atom   72 type  1   force =     0.07060896   -0.01785862   -0.00263714
     atom   73 type  3   force =    -0.00353046   -0.00998849   -0.00839979
     atom   74 type  3   force =     0.00353012   -0.00998855    0.00839980
     atom   75 type  3   force =     0.00353046    0.00998849    0.00839979
     atom   76 type  3   force =    -0.00353012    0.00998855   -0.00839980
     atom   77 type  1   force =    -0.03320889   -0.00339835    0.01866485
     atom   78 type  1   force =     0.03321186   -0.00339885   -0.01866417
     atom   79 type  1   force =     0.03320889    0.00339835   -0.01866485
     atom   80 type  1   force =    -0.03321186    0.00339885    0.01866417
     atom   81 type  3   force =     0.00992776   -0.00110489   -0.00152679
     atom   82 type  3   force =    -0.00992793   -0.00110480    0.00152679
     atom   83 type  3   force =    -0.00992776    0.00110489    0.00152679
     atom   84 type  3   force =     0.00992793    0.00110480   -0.00152679
     atom   85 type  1   force =    -0.07656719   -0.01333212   -0.00480913
     atom   86 type  1   force =     0.07657561   -0.01333194    0.00480961
     atom   87 type  1   force =     0.07656719    0.01333212    0.00480913
     atom   88 type  1   force =    -0.07657561    0.01333194   -0.00480961
     atom   89 type  3   force =     0.00343228    0.00786010    0.00955574
     atom   90 type  3   force =    -0.00343260    0.00786012   -0.00955569
     atom   91 type  3   force =    -0.00343228   -0.00786010   -0.00955574
     atom   92 type  3   force =     0.00343260   -0.00786012    0.00955569

     Total force =     0.443925     Total SCF correction =     0.000123


     Computing stress (Cartesian axis) and pressure

          total   stress  (Ry/bohr**3)                   (kbar)     P=   48.77
   0.00049842   0.00000000  -0.00005131         73.32      0.00     -7.55
   0.00000000   0.00033196  -0.00000000          0.00     48.83     -0.00
  -0.00005131  -0.00000000   0.00016430         -7.55     -0.00     24.17


     Writing output data file scf.save
 
     init_run     :     35.35s CPU     37.41s WALL (       1 calls)
     electrons    :   1160.29s CPU   1210.55s WALL (       1 calls)
     forces       :     17.02s CPU     17.22s WALL (       1 calls)
     stress       :    111.02s CPU    111.35s WALL (       1 calls)

     Called by init_run:
     wfcinit      :     24.77s CPU     26.69s WALL (       1 calls)
     potinit      :      3.85s CPU      3.88s WALL (       1 calls)

     Called by electrons:
     c_bands      :   1034.71s CPU   1077.43s WALL (      18 calls)
     sum_band     :    111.19s CPU    117.17s WALL (      18 calls)
     v_of_rho     :      2.29s CPU      2.43s WALL (      19 calls)
     newd         :      5.02s CPU      6.39s WALL (      19 calls)
     PAW_pot      :      6.45s CPU      6.46s WALL (      19 calls)
     mix_rho      :      0.62s CPU      0.69s WALL (      18 calls)

     Called by c_bands:
     init_us_2    :      7.40s CPU      7.44s WALL (     234 calls)
     cegterg      :   1003.63s CPU   1046.29s WALL (     108 calls)

     Called by sum_band:
     sum_band:bec :      0.06s CPU      0.06s WALL (     108 calls)
     addusdens    :      5.53s CPU      6.83s WALL (      18 calls)

     Called by *egterg:
     h_psi        :    570.02s CPU    601.83s WALL (     471 calls)
     s_psi        :    103.49s CPU    103.49s WALL (     471 calls)
     g_psi        :      3.61s CPU      3.61s WALL (     357 calls)
     cdiaghg      :     50.35s CPU     50.62s WALL (     465 calls)

     Called by h_psi:
     h_psi:pot    :    565.20s CPU    596.90s WALL (     471 calls)
     h_psi:calbec :    104.61s CPU    104.92s WALL (     471 calls)
     vloc_psi     :    357.20s CPU    388.57s WALL (     471 calls)
     add_vuspsi   :    103.38s CPU    103.40s WALL (     471 calls)

     General routines
     calbec       :    151.62s CPU    152.07s WALL (     609 calls)
     fft          :      2.94s CPU      3.20s WALL (     271 calls)
     fftw         :    384.21s CPU    419.70s WALL (  146550 calls)
 
     Parallel routines
     fft_scatter  :    113.98s CPU    147.66s WALL (  146821 calls)
 
     PWSCF        : 22m11.46s CPU    23m39.36s WALL

 
   This run was terminated on:  23:50:16  12Dec2017            

=------------------------------------------------------------------------------=
   JOB DONE.
=------------------------------------------------------------------------------=
