
     Program PWSCF v.6.1 (svn rev. 13369) starts on  4Nov2017 at  4:13:15 

     This program is part of the open-source Quantum ESPRESSO suite
     for quantum simulation of materials; please cite
         "P. Giannozzi et al., J. Phys.:Condens. Matter 21 395502 (2009);
          URL http://www.quantum-espresso.org", 
     in publications or presentations arising from this work. More details at
     http://www.quantum-espresso.org/quote

     Parallel version (MPI), running on     8 processors
     R & G space division:  proc/nbgrp/npool/nimage =       8
     Waiting for input...
     Reading input from standard input

     Current dimensions of program PWSCF are:
     Max number of different atomic species (ntypx) = 10
     Max number of k-points (npk) =  40000
     Max angular momentum in pseudopotentials (lmaxx) =  3
               file C.pbe-n-kjpaw_psl.0.1.UPF: wavefunction(s)  2P renormalized
               file N.pbe-n-kjpaw_psl.0.1.UPF: wavefunction(s)  2P renormalized
               file H.pbe-kjpaw_psl.0.1.UPF: wavefunction(s)  1S renormalized
               file O.pbe-n-kjpaw_psl.0.1.UPF: wavefunction(s)  2P renormalized

     -------------------------------------
     Parameters for Dispersion Correction:
     -------------------------------------
       atom      VdW radius       C_6     

        C          2.744         60.710
        N          2.640         42.670
        H          1.892          4.857
        O          2.536         24.284

     Subspace diagonalization in iterative solution of the eigenvalue problem:
     a serial algorithm will be used

 
     Parallelization info
     --------------------
     sticks:   dense  smooth     PW     G-vecs:    dense   smooth      PW
     Min        1301    1301    348                54332    54332    7545
     Max        1302    1302    349                54333    54333    7546
     Sum       10413   10413   2787               434659   434659   60365
 


     bravais-lattice index     =            0
     lattice parameter (alat)  =      13.2073  a.u.
     unit-cell volume          =    3218.1690 (a.u.)^3
     number of atoms/cell      =           58
     number of atomic types    =            4
     number of electrons       =       152.00
     number of Kohn-Sham states=           91
     kinetic-energy cutoff     =     100.0000  Ry
     charge density cutoff     =     400.0000  Ry
     convergence threshold     =      1.0E-08
     mixing beta               =       0.5000
     number of iterations used =            8  plain     mixing
     Exchange-correlation      =  SLA  PW   PBX  PBC ( 1  4  3  4 0 0)

     celldm(1)=  13.207296  celldm(2)=   0.000000  celldm(3)=   0.000000
     celldm(4)=   0.000000  celldm(5)=   0.000000  celldm(6)=   0.000000

     crystal axes: (cart. coord. in units of alat)
               a(1) = (   1.000000   0.000000   0.000000 )  
               a(2) = (   0.000000   1.875376   0.000000 )  
               a(3) = (  -0.136843   0.000000   0.744867 )  

     reciprocal axes: (cart. coord. in units 2 pi/alat)
               b(1) = (  1.000000  0.000000  0.183715 )  
               b(2) = (  0.000000  0.533227  0.000000 )  
               b(3) = (  0.000000  0.000000  1.342521 )  


     PseudoPot. # 1 for  C read from file:
     /scratch/ahofstet/pseudo/C.pbe-n-kjpaw_psl.0.1.UPF
     MD5 check sum: 430fe95172b1e11ef3f8ed03bac87931
     Pseudo is Projector augmented-wave + core cor, Zval =  4.0
     Generated using "atomic" code by A. Dal Corso  v.5.0.99 svn rev. 10869
     Shape of augmentation charge: BESSEL
     Using radial grid of 1073 points,  4 beta functions with: 
                l(1) =   0
                l(2) =   0
                l(3) =   1
                l(4) =   1
     Q(r) pseudized with 0 coefficients 


     PseudoPot. # 2 for  N read from file:
     /scratch/ahofstet/pseudo/N.pbe-n-kjpaw_psl.0.1.UPF
     MD5 check sum: f73187c8b701007e77325f868c9291d7
     Pseudo is Projector augmented-wave + core cor, Zval =  5.0
     Generated using "atomic" code by A. Dal Corso  v.5.0.99 svn rev. 10869
     Shape of augmentation charge: PSQ
     Using radial grid of 1085 points,  4 beta functions with: 
                l(1) =   0
                l(2) =   0
                l(3) =   1
                l(4) =   1
     Q(r) pseudized with 0 coefficients 


     PseudoPot. # 3 for  H read from file:
     /scratch/ahofstet/pseudo/H.pbe-kjpaw_psl.0.1.UPF
     MD5 check sum: 94e484f906d9e9773b2f6e52662335b2
     Pseudo is Projector augmented-wave, Zval =  1.0
     Generated using "atomic" code by A. Dal Corso  v.5.0.99 svn rev. 10869
     Shape of augmentation charge: PSQ
     Using radial grid of  929 points,  2 beta functions with: 
                l(1) =   0
                l(2) =   0
     Q(r) pseudized with 0 coefficients 


     PseudoPot. # 4 for  O read from file:
     /scratch/ahofstet/pseudo/O.pbe-n-kjpaw_psl.0.1.UPF
     MD5 check sum: 3f94a2996a3169367d6eb21d9b593f20
     Pseudo is Projector augmented-wave + core cor, Zval =  6.0
     Generated using "atomic" code by A. Dal Corso  v.5.0.99 svn rev. 10869
     Shape of augmentation charge: BESSEL
     Using radial grid of 1095 points,  4 beta functions with: 
                l(1) =   0
                l(2) =   0
                l(3) =   1
                l(4) =   1
     Q(r) pseudized with 0 coefficients 


     atomic species   valence    mass     pseudopotential
        C              4.00    12.01070      C( 1.00)
        N              5.00    14.00670      N( 1.00)
        H              1.00     1.00794      H( 1.00)
        O              6.00    15.99940      O( 1.00)

     No symmetry found



   Cartesian axes

     site n.     atom                  positions (alat units)
         1           C   tau(   1) = (   0.5530220   0.6016673   0.5880333  )
         2           C   tau(   2) = (   0.3101431   1.5392579   0.1568233  )
         3           C   tau(   3) = (   0.7467713   0.7036662   0.6185080  )
         4           C   tau(   4) = (   0.1164176   1.6413130   0.1263641  )
         5           C   tau(   5) = (  -0.1162012   0.5508026   0.7016656  )
         6           C   tau(   6) = (   0.9793586   1.4884774   0.0432119  )
         7           C   tau(   7) = (   0.7627808   0.3672686   0.7309246  )
         8           C   tau(   8) = (   0.1003469   1.3049103   0.0139306  )
         9           C   tau(   9) = (   0.7993046   0.2224643   0.5704709  )
        10           C   tau(  10) = (   0.0638383   1.1601016   0.1743859  )
        11           C   tau(  11) = (   0.6507549   0.0623431   0.5660101  )
        12           C   tau(  12) = (   0.2124026   0.9999793   0.1788496  )
        13           C   tau(  13) = (   0.4487694   0.1480529   0.5461823  )
        14           C   tau(  14) = (   0.4143756   1.0857182   0.1986853  )
        15           C   tau(  15) = (   0.4029291   0.2870347   0.7076637  )
        16           C   tau(  16) = (   0.4602085   1.2246451   0.0371702  )
        17           C   tau(  17) = (   0.5544885   0.4415103   0.7343175  )
        18           C   tau(  18) = (   0.3086495   1.3791198   0.0105188  )
        19           O   tau(  19) = (   0.3915944   0.7221141   0.6191707  )
        20           O   tau(  20) = (   0.4716007   1.6596710   0.1257069  )
        21           O   tau(  21) = (   0.8199875   0.7897807   0.4471459  )
        22           O   tau(  22) = (   0.0432173   1.7274272   0.2977330  )
        23           O   tau(  23) = (   0.6801029   1.8082313   0.4109979  )
        24           O   tau(  24) = (   0.1830529   0.8704954   0.3338682  )
        25           O   tau(  25) = (   0.3059809   1.8770570   0.5372797  )
        26           O   tau(  26) = (   0.5571851   0.9393693   0.2076419  )
        27           H   tau(  27) = (   0.5521765   0.5432364   0.4384833  )
        28           H   tau(  28) = (   0.3109635   1.4808105   0.3063669  )
        29           H   tau(  29) = (   0.7226430   0.8167625   0.7277916  )
        30           H   tau(  30) = (   0.1405580   1.7544132   0.0170882  )
        31           H   tau(  31) = (   0.0043735   0.5251111   0.6035871  )
        32           H   tau(  32) = (   0.8587947   1.4627991   0.1413078  )
        33           H   tau(  33) = (   0.0800996   0.6028391   0.0921726  )
        34           H   tau(  34) = (   0.7830433   1.5405253   0.6527155  )
        35           H   tau(  35) = (   0.9293357   0.2958944   0.1257445  )
        36           H   tau(  36) = (  -0.0662385   1.2335446   0.6191130  )
        37           H   tau(  37) = (  -0.0554081   0.1608841   0.5865232  )
        38           H   tau(  38) = (   0.9185580   1.0985052   0.1583383  )
        39           H   tau(  39) = (   0.7996931   0.2962577   0.4277321  )
        40           H   tau(  40) = (   0.0634495   1.2338817   0.3171294  )
        41           H   tau(  41) = (   0.6547904   1.8579436   0.7046740  )
        42           H   tau(  42) = (   0.2083789   0.9201932   0.0401933  )
        43           H   tau(  43) = (   0.4445866   0.2228720   0.4043049  )
        44           H   tau(  44) = (   0.4185291   1.1605699   0.3405465  )
        45           H   tau(  45) = (   0.2623045   0.3531347   0.6807078  )
        46           H   tau(  46) = (   0.6008310   1.2907585   0.0641047  )
        47           H   tau(  47) = (   0.5257881   0.2027036   0.0985797  )
        48           H   tau(  48) = (   0.3373386   1.1402918   0.6462685  )
        49           H   tau(  49) = (   0.6655714   0.5128907   0.1306829  )
        50           H   tau(  50) = (   0.1975637   1.4505133   0.6141596  )
        51           H   tau(  51) = (   0.3384922   0.7771368   0.4990221  )
        52           H   tau(  52) = (   0.5246631   1.7147258   0.2458623  )
        53           H   tau(  53) = (   0.7148157   0.8547501   0.3766054  )
        54           H   tau(  54) = (   0.1483917   1.7923779   0.3682818  )
        55           H   tau(  55) = (   0.8176391   1.7890569   0.3795621  )
        56           H   tau(  56) = (   0.0455294   0.8513489   0.3653332  )
        57           H   tau(  57) = (   0.3148808   1.8007476   0.6574755  )
        58           H   tau(  58) = (   0.5483316   0.8630723   0.0874317  )

     number of k points=    14
                       cart. coord. in units 2pi/alat
        k(    1) = (   0.0000000   0.0000000   0.0000000), wk =   0.0833333
        k(    2) = (   0.0000000   0.0000000   0.3356303), wk =   0.1666667
        k(    3) = (   0.0000000   0.0000000  -0.6712606), wk =   0.0833333
        k(    4) = (   0.0000000  -0.2666133   0.0000000), wk =   0.0833333
        k(    5) = (   0.0000000  -0.2666133   0.3356303), wk =   0.1666667
        k(    6) = (   0.0000000  -0.2666133  -0.6712606), wk =   0.0833333
        k(    7) = (   0.3333333   0.0000000   0.0612383), wk =   0.1666667
        k(    8) = (   0.3333333   0.0000000   0.3968685), wk =   0.1666667
        k(    9) = (   0.3333333   0.0000000  -0.6100223), wk =   0.1666667
        k(   10) = (   0.3333333   0.0000000  -0.2743920), wk =   0.1666667
        k(   11) = (   0.3333333  -0.2666133   0.0612383), wk =   0.1666667
        k(   12) = (   0.3333333  -0.2666133   0.3968685), wk =   0.1666667
        k(   13) = (   0.3333333  -0.2666133  -0.6100223), wk =   0.1666667
        k(   14) = (   0.3333333  -0.2666133  -0.2743920), wk =   0.1666667

     Dense  grid:   434659 G-vectors     FFT dimensions: (  90, 160,  64)

     Estimated max dynamical RAM per process >     281.72MB

     Estimated total allocated dynamical RAM >    2253.76MB

     Check: negative/imaginary core charge=   -0.000002    0.000000

     Initial potential from superposition of free atoms

     starting charge  151.99893, renormalised to  152.00000
     Starting wfc are  136 randomized atomic wfcs
     Checking if some PAW data can be deallocated... 

     total cpu time spent up to now is       18.1 secs

     per-process dynamical memory:   282.4 Mb

     Self-consistent Calculation

     iteration #  1     ecut=   100.00 Ry     beta=0.50
     Davidson diagonalization with overlap
     ethr =  1.00E-02,  avg # of iterations =  3.9

     total cpu time spent up to now is       57.1 secs

     total energy              =    -702.45525373 Ry
     Harris-Foulkes estimate   =    -705.20118853 Ry
     estimated scf accuracy    <       5.31480050 Ry

     iteration #  2     ecut=   100.00 Ry     beta=0.50
     Davidson diagonalization with overlap
     ethr =  3.50E-03,  avg # of iterations =  2.5

     total cpu time spent up to now is       79.3 secs

     total energy              =    -703.03897053 Ry
     Harris-Foulkes estimate   =    -703.20944517 Ry
     estimated scf accuracy    <       0.47369429 Ry

     iteration #  3     ecut=   100.00 Ry     beta=0.50
     Davidson diagonalization with overlap
     ethr =  3.12E-04,  avg # of iterations =  5.0

     total cpu time spent up to now is      122.1 secs

     total energy              =    -703.35250938 Ry
     Harris-Foulkes estimate   =    -703.50576782 Ry
     estimated scf accuracy    <       0.38864397 Ry

     iteration #  4     ecut=   100.00 Ry     beta=0.50
     Davidson diagonalization with overlap
     ethr =  2.56E-04,  avg # of iterations =  5.6

     total cpu time spent up to now is      144.8 secs

     total energy              =    -703.31096575 Ry
     Harris-Foulkes estimate   =    -703.37558419 Ry
     estimated scf accuracy    <       0.10483398 Ry

     iteration #  5     ecut=   100.00 Ry     beta=0.50
     Davidson diagonalization with overlap
     ethr =  6.90E-05,  avg # of iterations =  4.9

     total cpu time spent up to now is      187.8 secs

     total energy              =    -703.33320175 Ry
     Harris-Foulkes estimate   =    -703.48189533 Ry
     estimated scf accuracy    <       0.29382627 Ry

     iteration #  6     ecut=   100.00 Ry     beta=0.50
     Davidson diagonalization with overlap
     ethr =  6.90E-05,  avg # of iterations =  5.5

     total cpu time spent up to now is      224.9 secs

     total energy              =    -703.39080649 Ry
     Harris-Foulkes estimate   =    -703.39099499 Ry
     estimated scf accuracy    <       0.00080196 Ry

     iteration #  7     ecut=   100.00 Ry     beta=0.50
     Davidson diagonalization with overlap
     ethr =  5.28E-07,  avg # of iterations =  6.6

     total cpu time spent up to now is      264.1 secs

     total energy              =    -703.39116289 Ry
     Harris-Foulkes estimate   =    -703.39131811 Ry
     estimated scf accuracy    <       0.00068628 Ry

     iteration #  8     ecut=   100.00 Ry     beta=0.50
     Davidson diagonalization with overlap
     ethr =  4.52E-07,  avg # of iterations =  1.0

     total cpu time spent up to now is      283.7 secs

     total energy              =    -703.39102818 Ry
     Harris-Foulkes estimate   =    -703.39118443 Ry
     estimated scf accuracy    <       0.00032618 Ry

     iteration #  9     ecut=   100.00 Ry     beta=0.50
     Davidson diagonalization with overlap
     ethr =  2.15E-07,  avg # of iterations =  3.0

     total cpu time spent up to now is      313.5 secs

     total energy              =    -703.39112862 Ry
     Harris-Foulkes estimate   =    -703.39113488 Ry
     estimated scf accuracy    <       0.00001264 Ry

     iteration # 10     ecut=   100.00 Ry     beta=0.50
     Davidson diagonalization with overlap
     ethr =  8.31E-09,  avg # of iterations =  3.4

     total cpu time spent up to now is      342.5 secs

     total energy              =    -703.39113252 Ry
     Harris-Foulkes estimate   =    -703.39113251 Ry
     estimated scf accuracy    <       0.00000040 Ry

     iteration # 11     ecut=   100.00 Ry     beta=0.50
     Davidson diagonalization with overlap
     ethr =  2.64E-10,  avg # of iterations =  3.7

     total cpu time spent up to now is      377.3 secs

     total energy              =    -703.39113263 Ry
     Harris-Foulkes estimate   =    -703.39113271 Ry
     estimated scf accuracy    <       0.00000018 Ry

     iteration # 12     ecut=   100.00 Ry     beta=0.50
     Davidson diagonalization with overlap
     ethr =  1.19E-10,  avg # of iterations =  1.5

     total cpu time spent up to now is      397.2 secs

     total energy              =    -703.39113264 Ry
     Harris-Foulkes estimate   =    -703.39113265 Ry
     estimated scf accuracy    <       0.00000002 Ry

     iteration # 13     ecut=   100.00 Ry     beta=0.50
     Davidson diagonalization with overlap
     ethr =  1.22E-11,  avg # of iterations =  4.0

     total cpu time spent up to now is      437.1 secs

     total energy              =    -703.39113267 Ry
     Harris-Foulkes estimate   =    -703.39113268 Ry
     estimated scf accuracy    <       0.00000003 Ry

     iteration # 14     ecut=   100.00 Ry     beta=0.50
     Davidson diagonalization with overlap
     ethr =  1.22E-11,  avg # of iterations =  1.0

     total cpu time spent up to now is      456.8 secs

     total energy              =    -703.39113266 Ry
     Harris-Foulkes estimate   =    -703.39113267 Ry
     estimated scf accuracy    <       0.00000001 Ry

     iteration # 15     ecut=   100.00 Ry     beta=0.50
     Davidson diagonalization with overlap
     ethr =  7.58E-12,  avg # of iterations =  4.0

     total cpu time spent up to now is      491.8 secs

     End of self-consistent calculation

          k = 0.0000 0.0000 0.0000 ( 54281 PWs)   bands (ev):

   -19.7759 -19.7555 -19.1868 -19.1559 -18.9871 -18.9852 -18.9663 -18.9659
   -15.0277 -14.9577 -13.1737 -13.0049 -12.4664 -12.3991 -11.2172 -10.9912
   -10.7481 -10.6042  -9.2515  -9.0704  -8.7474  -8.6573  -7.9360  -7.9284
    -7.4375  -7.0975  -7.0392  -6.9863  -6.6715  -6.5486  -6.4801  -6.2557
    -5.9373  -5.9179  -5.4126  -5.3242  -4.9071  -4.8462  -4.6509  -4.5279
    -4.3396  -4.2153  -4.1410  -4.0748  -3.5962  -3.5911  -3.4106  -3.2404
    -3.1917  -3.0335  -3.0074  -2.8931  -2.6662  -2.6565  -2.5569  -2.5119
    -2.4920  -2.2663  -2.1771  -2.1186  -1.9919  -1.7034  -1.6177  -1.5653
    -1.3134  -1.0869  -0.9741  -0.9275  -0.5662  -0.4786  -0.3916  -0.3767
    -0.0261   0.0368   0.2048   0.2664   6.0474   6.0620   6.6824   6.7037
     7.0162   7.5783   7.6750   7.8211   8.0040   8.1319   8.2559   8.3684
     8.4217   8.6198   8.8547

          k = 0.0000 0.0000 0.3356 ( 54361 PWs)   bands (ev):

   -19.7245 -19.7052 -19.2939 -19.2672 -19.0195 -19.0147 -18.8783 -18.8670
   -15.0177 -14.9501 -13.1753 -13.0051 -12.4623 -12.3930 -11.2396 -10.9912
   -10.7628 -10.5982  -9.3059  -9.0959  -8.8900  -8.6194  -7.9738  -7.8875
    -7.4987  -7.2076  -7.1553  -7.0201  -6.6552  -6.5514  -6.4227  -6.3016
    -6.0508  -5.8472  -5.3748  -5.3130  -4.8723  -4.7973  -4.5980  -4.4963
    -4.4175  -4.2684  -4.1264  -4.0003  -3.5839  -3.5674  -3.3871  -3.3062
    -3.2069  -3.1296  -2.8936  -2.8691  -2.7226  -2.6052  -2.5081  -2.4024
    -2.3261  -2.1474  -2.0691  -2.0274  -1.8292  -1.6538  -1.6111  -1.5558
    -1.3229  -1.0827  -0.9497  -0.7220  -0.4950  -0.4416  -0.3596  -0.3217
     0.0090   0.0658   0.2620   0.3417   5.8522   5.9228   6.6348   6.7497
     7.0755   7.3214   7.4381   7.7831   7.8874   7.9861   8.0920   8.1074
     8.2213   8.3227   8.6127

          k = 0.0000 0.0000-0.6713 ( 54292 PWs)   bands (ev):

   -19.6445 -19.6306 -19.4091 -19.3854 -19.0239 -19.0193 -18.8308 -18.8184
   -15.0073 -14.9427 -13.1757 -13.0068 -12.4574 -12.3877 -11.2605 -10.9948
   -10.7721 -10.5951  -9.3567  -9.1264  -8.9864  -8.6317  -7.9823  -7.8768
    -7.5246  -7.3604  -7.1856  -7.0858  -6.6125  -6.5910  -6.3584  -6.3584
    -6.0711  -5.8636  -5.3259  -5.3234  -4.8102  -4.8009  -4.5479  -4.5197
    -4.4245  -4.3032  -4.1798  -3.9003  -3.5549  -3.5114  -3.3839  -3.3353
    -3.2591  -3.1990  -2.8807  -2.7986  -2.7032  -2.5801  -2.4914  -2.3100
    -2.1588  -2.0781  -1.9650  -1.9593  -1.6904  -1.6118  -1.5401  -1.4939
    -1.3271  -1.0113  -0.8739  -0.6321  -0.4391  -0.4167  -0.2413  -0.2397
     0.0387   0.1069   0.3399   0.3766   5.6560   5.6671   6.6201   6.6437
     6.8328   7.0828   7.3192   7.5903   7.8353   7.8737   7.8888   8.0141
     8.0503   8.2953   8.4854

          k = 0.0000-0.2666 0.0000 ( 54302 PWs)   bands (ev):

   -19.7660 -19.7658 -19.1713 -19.1711 -18.9861 -18.9861 -18.9662 -18.9661
   -14.9937 -14.9936 -13.0903 -13.0902 -12.4357 -12.4355 -11.1010 -11.1009
   -10.6795 -10.6792  -9.1563  -9.1562  -8.7044  -8.7044  -7.9381  -7.9380
    -7.2687  -7.2685  -7.0435  -7.0433  -6.5604  -6.5603  -6.3756  -6.3754
    -5.9438  -5.9434  -5.3115  -5.3113  -4.9283  -4.9281  -4.6505  -4.6503
    -4.2044  -4.2043  -4.0752  -4.0750  -3.6137  -3.6135  -3.3683  -3.3682
    -3.1681  -3.1677  -2.9299  -2.9297  -2.6559  -2.6557  -2.4820  -2.4818
    -2.3083  -2.3081  -2.1832  -2.1830  -1.8675  -1.8674  -1.6341  -1.6337
    -1.1843  -1.1840  -0.9567  -0.9566  -0.5067  -0.5065  -0.3831  -0.3829
     0.0112   0.0112   0.2321   0.2322   6.0699   6.0701   6.6391   6.6397
     7.2894   7.2894   7.7437   7.7441   8.1013   8.1014   8.3296   8.3297
     8.5723   8.5725   8.9514

          k = 0.0000-0.2666 0.3356 ( 54338 PWs)   bands (ev):

   -19.7152 -19.7150 -19.2804 -19.2804 -19.0171 -19.0171 -18.8726 -18.8726
   -14.9849 -14.9847 -13.0919 -13.0919 -12.4292 -12.4290 -11.1175 -11.1174
   -10.6817 -10.6813  -9.1968  -9.1967  -8.7616  -8.7614  -7.9301  -7.9300
    -7.3412  -7.3411  -7.1205  -7.1203  -6.5873  -6.5871  -6.3330  -6.3329
    -5.9752  -5.9748  -5.3124  -5.3123  -4.8763  -4.8761  -4.5931  -4.5931
    -4.2543  -4.2542  -4.0650  -4.0648  -3.5860  -3.5859  -3.4076  -3.4074
    -3.1188  -3.1185  -2.8964  -2.8962  -2.6554  -2.6552  -2.4689  -2.4689
    -2.1885  -2.1884  -2.0592  -2.0591  -1.7565  -1.7563  -1.5981  -1.5978
    -1.2477  -1.2475  -0.7597  -0.7596  -0.4809  -0.4808  -0.3530  -0.3529
     0.0445   0.0445   0.3007   0.3008   5.9068   5.9069   6.6332   6.6337
     7.2074   7.2077   7.6152   7.6154   7.8425   7.8425   8.1673   8.1675
     8.4158   8.4161   8.7641

          k = 0.0000-0.2666-0.6713 ( 54348 PWs)   bands (ev):

   -19.6379 -19.6378 -19.3971 -19.3970 -19.0216 -19.0216 -18.8245 -18.8245
   -14.9759 -14.9758 -13.0936 -13.0935 -12.4228 -12.4226 -11.1339 -11.1338
   -10.6837 -10.6834  -9.2385  -9.2384  -8.8167  -8.8165  -7.9246  -7.9245
    -7.3906  -7.3904  -7.2050  -7.2046  -6.6125  -6.6123  -6.2866  -6.2864
    -6.0013  -6.0009  -5.3429  -5.3428  -4.7763  -4.7762  -4.6014  -4.6013
    -4.2720  -4.2719  -4.0606  -4.0604  -3.5688  -3.5687  -3.4478  -3.4476
    -3.0996  -3.0995  -2.8377  -2.8376  -2.6534  -2.6532  -2.4242  -2.4241
    -2.1338  -2.1336  -1.9307  -1.9306  -1.6630  -1.6628  -1.5259  -1.5255
    -1.2125  -1.2122  -0.6548  -0.6547  -0.4579  -0.4577  -0.2579  -0.2578
     0.0804   0.0805   0.3576   0.3577   5.6865   5.6866   6.5488   6.5490
     7.0201   7.0201   7.3229   7.3232   7.8762   7.8763   8.0210   8.0211
     8.3438   8.3440   8.5706

          k = 0.3333 0.0000 0.0612 ( 54340 PWs)   bands (ev):

   -19.7154 -19.6939 -19.3171 -19.3010 -19.0866 -19.0666 -18.7986 -18.7934
   -15.0145 -14.9657 -13.1494 -13.0598 -12.4892 -12.4310 -11.1666 -11.0518
   -10.6974 -10.5782  -9.1926  -9.0718  -8.7141  -8.6717  -7.9281  -7.8421
    -7.3420  -7.1498  -7.0835  -6.9233  -6.6218  -6.6028  -6.5281  -6.2504
    -5.9273  -5.8345  -5.4976  -5.2727  -4.9738  -4.9326  -4.6852  -4.6342
    -4.3729  -4.2749  -4.2083  -3.8757  -3.7700  -3.6672  -3.5756  -3.2553
    -3.1963  -3.0787  -3.0187  -2.8839  -2.8635  -2.6607  -2.4935  -2.4640
    -2.3970  -2.2912  -2.1962  -2.0533  -1.8489  -1.7821  -1.7291  -1.5207
    -1.3122  -1.0819  -0.9195  -0.7650  -0.5254  -0.4427  -0.3556  -0.2525
     0.0188   0.1114   0.2542   0.2883   6.0134   6.0542   6.5904   6.6540
     7.0083   7.3707   7.4513   7.8329   8.1493   8.2397   8.3231   8.5595
     8.6512   8.8060   9.0008

          k = 0.3333 0.0000 0.3969 ( 54361 PWs)   bands (ev):

   -19.6678 -19.6471 -19.2951 -19.2758 -19.2147 -19.2025 -18.7343 -18.7267
   -15.0048 -14.9586 -13.1473 -13.0646 -12.4841 -12.4247 -11.1764 -11.0684
   -10.7077 -10.5698  -9.2381  -9.1037  -8.8645  -8.6464  -7.9711  -7.7863
    -7.4123  -7.2289  -7.2156  -6.9744  -6.6218  -6.5659  -6.4925  -6.2393
    -6.0676  -5.7748  -5.4363  -5.3253  -4.9665  -4.8516  -4.6346  -4.5596
    -4.4881  -4.2726  -4.1453  -3.8733  -3.7188  -3.6721  -3.5769  -3.2644
    -3.1860  -3.1211  -3.1024  -2.9013  -2.7524  -2.5294  -2.4353  -2.4022
    -2.3343  -2.1729  -2.1090  -1.9141  -1.8090  -1.7332  -1.6574  -1.4873
    -1.2101  -0.9941  -0.9839  -0.6770  -0.4254  -0.3660  -0.3291  -0.2313
     0.0712   0.0901   0.3136   0.3951   5.8701   5.9986   6.5711   6.6454
     6.9555   7.1833   7.2833   7.8261   7.9744   7.9976   8.0586   8.2570
     8.4705   8.5722   8.6257

          k = 0.3333 0.0000-0.6100 ( 54353 PWs)   bands (ev):

   -19.5795 -19.5687 -19.4011 -19.3830 -19.2152 -19.2094 -18.7035 -18.6944
   -14.9994 -14.9492 -13.1738 -13.0439 -12.4727 -12.4194 -11.2099 -11.0630
   -10.6929 -10.5781  -9.2832  -9.1322  -8.9519  -8.6922  -7.9982  -7.7541
    -7.4915  -7.3549  -7.2111  -7.0678  -6.6143  -6.5384  -6.4212  -6.2801
    -6.1324  -5.6775  -5.4498  -5.3927  -4.9757  -4.8868  -4.6943  -4.5162
    -4.3989  -4.2637  -4.0771  -3.9012  -3.6920  -3.6519  -3.5527  -3.3397
    -3.2506  -3.0870  -2.9932  -2.8378  -2.6554  -2.6038  -2.4603  -2.3662
    -2.2033  -2.0467  -1.9692  -1.9595  -1.6771  -1.6537  -1.5032  -1.4510
    -1.1910  -0.9549  -0.8741  -0.5419  -0.3943  -0.3100  -0.2353  -0.1667
     0.0800   0.1147   0.4033   0.4416   5.8799   5.9247   6.4574   6.6746
     6.8040   7.0297   7.1680   7.3421   7.4900   7.7294   7.8498   8.0769
     8.2441   8.3918   8.5201

          k = 0.3333 0.0000-0.2744 ( 54326 PWs)   bands (ev):

   -19.6606 -19.6406 -19.3644 -19.3444 -19.1337 -19.1230 -18.7530 -18.7439
   -15.0085 -14.9569 -13.1744 -13.0404 -12.4786 -12.4246 -11.2007 -11.0449
   -10.6845 -10.5874  -9.2391  -9.0978  -8.8423  -8.6763  -7.9664  -7.7971
    -7.4433  -7.2335  -7.1721  -6.9948  -6.5910  -6.5700  -6.4653  -6.2810
    -6.0571  -5.6907  -5.4804  -5.3784  -4.9667  -4.9420  -4.6575  -4.5248
    -4.4685  -4.2559  -4.0866  -3.9415  -3.7225  -3.6448  -3.5704  -3.3140
    -3.2505  -3.0526  -2.9889  -2.8572  -2.7302  -2.5361  -2.5086  -2.4008
    -2.3181  -2.2334  -2.0793  -2.0186  -1.8065  -1.6948  -1.6070  -1.4702
    -1.2655  -1.0512  -0.8539  -0.6533  -0.4923  -0.3992  -0.2494  -0.2317
     0.0381   0.1138   0.3333   0.3614   6.0860   6.2093   6.5052   6.6874
     6.9267   7.1973   7.2802   7.4388   7.8204   7.8893   8.2044   8.3032
     8.3534   8.5281   8.6033

          k = 0.3333-0.2666 0.0612 ( 54316 PWs)   bands (ev):

   -19.7050 -19.7049 -19.3088 -19.3087 -19.0767 -19.0766 -18.7960 -18.7959
   -14.9905 -14.9904 -13.1049 -13.1049 -12.4607 -12.4605 -11.1097 -11.1096
   -10.6382 -10.6379  -9.1317  -9.1316  -8.6921  -8.6920  -7.8867  -7.8866
    -7.2351  -7.2350  -7.0572  -7.0568  -6.5608  -6.5607  -6.3894  -6.3892
    -5.9079  -5.9075  -5.3356  -5.3354  -4.9992  -4.9991  -4.7069  -4.7068
    -4.2517  -4.2515  -4.0655  -4.0652  -3.7234  -3.7232  -3.3871  -3.3869
    -3.1577  -3.1575  -2.9758  -2.9756  -2.7097  -2.7095  -2.5163  -2.5162
    -2.3096  -2.3095  -2.1655  -2.1652  -1.8294  -1.8292  -1.6190  -1.6188
    -1.1531  -1.1528  -0.8572  -0.8572  -0.4733  -0.4733  -0.3123  -0.3122
     0.0679   0.0680   0.2705   0.2705   6.0545   6.0546   6.5876   6.5878
     7.0641   7.0645   7.8124   7.8126   8.2250   8.2250   8.5178   8.5180
     8.6956   8.6957   8.9787

          k = 0.3333-0.2666 0.3969 ( 54356 PWs)   bands (ev):

   -19.6578 -19.6577 -19.2848 -19.2848 -19.2090 -19.2089 -18.7305 -18.7304
   -14.9821 -14.9820 -13.1065 -13.1064 -12.4543 -12.4541 -11.1252 -11.1251
   -10.6389 -10.6385  -9.1663  -9.1662  -8.7662  -8.7661  -7.8739  -7.8738
    -7.3244  -7.3243  -7.1246  -7.1242  -6.5376  -6.5375  -6.3920  -6.3919
    -5.9212  -5.9207  -5.3634  -5.3633  -4.9707  -4.9705  -4.6237  -4.6236
    -4.2389  -4.2387  -4.0845  -4.0842  -3.7149  -3.7147  -3.4098  -3.4097
    -3.1467  -3.1464  -2.9554  -2.9553  -2.6943  -2.6942  -2.4246  -2.4245
    -2.2424  -2.2422  -2.0732  -2.0730  -1.7259  -1.7257  -1.5301  -1.5299
    -1.1626  -1.1622  -0.7817  -0.7815  -0.3815  -0.3815  -0.2961  -0.2960
     0.0815   0.0816   0.3541   0.3542   5.9596   5.9596   6.5999   6.6001
     6.8952   6.8956   7.7599   7.7600   7.9403   7.9406   8.1828   8.1829
     8.6485   8.6486   8.7531

          k = 0.3333-0.2666-0.6100 ( 54372 PWs)   bands (ev):

   -19.5743 -19.5743 -19.3920 -19.3919 -19.2124 -19.2122 -18.6990 -18.6989
   -14.9749 -14.9748 -13.1096 -13.1096 -12.4468 -12.4466 -11.1367 -11.1366
   -10.6368 -10.6364  -9.2050  -9.2048  -8.8345  -8.8343  -7.8697  -7.8696
    -7.3930  -7.3929  -7.1988  -7.1984  -6.5489  -6.5488  -6.3605  -6.3603
    -5.8986  -5.8981  -5.4229  -5.4228  -4.9035  -4.9033  -4.6194  -4.6193
    -4.3154  -4.3152  -4.0560  -4.0557  -3.6781  -3.6780  -3.4499  -3.4498
    -3.0485  -3.0483  -2.9410  -2.9409  -2.6774  -2.6772  -2.3892  -2.3889
    -2.1562  -2.1560  -1.9696  -1.9694  -1.6098  -1.6095  -1.4806  -1.4804
    -1.1779  -1.1776  -0.6280  -0.6278  -0.3512  -0.3511  -0.2049  -0.2049
     0.0977   0.0978   0.4213   0.4214   5.9092   5.9093   6.5413   6.5414
     6.9306   6.9307   7.1576   7.1577   7.7499   7.7500   7.9403   7.9404
     8.3369   8.3372   8.5336

          k = 0.3333-0.2666-0.2744 ( 54366 PWs)   bands (ev):

   -19.6510 -19.6509 -19.3542 -19.3541 -19.1284 -19.1283 -18.7485 -18.7484
   -14.9834 -14.9832 -13.1081 -13.1080 -12.4532 -12.4530 -11.1211 -11.1211
   -10.6370 -10.6367  -9.1703  -9.1702  -8.7612  -8.7612  -7.8802  -7.8801
    -7.3207  -7.3206  -7.1396  -7.1393  -6.5535  -6.5534  -6.3550  -6.3548
    -5.9031  -5.9026  -5.3808  -5.3807  -4.9680  -4.9678  -4.6266  -4.6265
    -4.3462  -4.3461  -4.0505  -4.0503  -3.6854  -3.6853  -3.4202  -3.4200
    -3.0690  -3.0688  -2.9610  -2.9609  -2.7066  -2.7065  -2.4425  -2.4424
    -2.1861  -2.1860  -2.0926  -2.0925  -1.7522  -1.7520  -1.5287  -1.5286
    -1.2107  -1.2104  -0.7242  -0.7241  -0.4287  -0.4286  -0.2479  -0.2478
     0.0774   0.0775   0.3469   0.3470   6.1536   6.1538   6.5690   6.5692
     6.9984   6.9986   7.4454   7.4455   7.8866   7.8867   8.2290   8.2292
     8.4282   8.4283   8.6668

     highest occupied, lowest unoccupied level (ev):     0.4416    5.6560

!    total energy              =    -703.39113267 Ry
     Harris-Foulkes estimate   =    -703.39113267 Ry
     estimated scf accuracy    <          8.8E-09 Ry

     total all-electron energy =     -2613.919959 Ry

     The total energy is the sum of the following terms:

     one-electron contribution =    -427.59933276 Ry
     hartree contribution      =     272.80219948 Ry
     xc contribution           =    -157.33126718 Ry
     ewald contribution        =    -195.26009320 Ry
     Dispersion Correction     =      -0.26233340 Ry
     one-center paw contrib.   =    -195.74030561 Ry

     convergence has been achieved in  15 iterations

     Forces acting on atoms (cartesian axes, Ry/au):

     atom    1 type  1   force =     0.00216556    0.00297093   -0.02444187
     atom    2 type  1   force =    -0.00218195    0.00304454    0.02443513
     atom    3 type  1   force =    -0.00282763    0.00571546    0.00489461
     atom    4 type  1   force =     0.00282629    0.00567452   -0.00489850
     atom    5 type  1   force =     0.00130164    0.00167107   -0.00350762
     atom    6 type  1   force =    -0.00129123    0.00158673    0.00350808
     atom    7 type  1   force =     0.00044856   -0.00247421    0.01959649
     atom    8 type  1   force =    -0.00045501   -0.00244145   -0.01958288
     atom    9 type  1   force =     0.00414082    0.00337366   -0.02221807
     atom   10 type  1   force =    -0.00413624    0.00331086    0.02220436
     atom   11 type  1   force =    -0.00687126    0.00058622    0.01223916
     atom   12 type  1   force =     0.00683195    0.00062361   -0.01220246
     atom   13 type  1   force =     0.00672830    0.00343186   -0.02333809
     atom   14 type  1   force =    -0.00672920    0.00336041    0.02335925
     atom   15 type  1   force =    -0.00253698   -0.00642175    0.01998871
     atom   16 type  1   force =     0.00253112   -0.00635272   -0.02000117
     atom   17 type  1   force =     0.00270633   -0.00196288    0.02148654
     atom   18 type  1   force =    -0.00271301   -0.00190075   -0.02147771
     atom   19 type  4   force =    -0.00157187    0.00318001    0.00137207
     atom   20 type  4   force =     0.00162112    0.00321920   -0.00130175
     atom   21 type  4   force =     0.00041615   -0.00185201   -0.00090116
     atom   22 type  4   force =    -0.00044149   -0.00186064    0.00091356
     atom   23 type  4   force =    -0.00051096   -0.00237175   -0.00351290
     atom   24 type  4   force =     0.00065758   -0.00232731    0.00345335
     atom   25 type  4   force =    -0.00177371   -0.00704266    0.00285350
     atom   26 type  4   force =     0.00176651   -0.00706010   -0.00287002
     atom   27 type  3   force =    -0.00431360    0.00773046    0.01723454
     atom   28 type  3   force =     0.00432405    0.00772392   -0.01723482
     atom   29 type  3   force =     0.00084146   -0.00350453   -0.00636562
     atom   30 type  3   force =    -0.00082976   -0.00350904    0.00636067
     atom   31 type  3   force =    -0.00155334    0.00263599    0.00139470
     atom   32 type  3   force =     0.00155104    0.00263186   -0.00140060
     atom   33 type  3   force =     0.00290764   -0.00070249    0.00229235
     atom   34 type  3   force =    -0.00290096   -0.00070527   -0.00229431
     atom   35 type  3   force =     0.00258453    0.00805215   -0.01566795
     atom   36 type  3   force =    -0.00258228    0.00805691    0.01566935
     atom   37 type  3   force =    -0.00651443    0.00262088    0.00029323
     atom   38 type  3   force =     0.00650649    0.00262820   -0.00029404
     atom   39 type  3   force =    -0.00423287   -0.00846577    0.01822158
     atom   40 type  3   force =     0.00423194   -0.00844816   -0.01821941
     atom   41 type  3   force =     0.00119490    0.00408871   -0.00934919
     atom   42 type  3   force =    -0.00119652    0.00409810    0.00934706
     atom   43 type  3   force =    -0.00229907   -0.00917662    0.01769792
     atom   44 type  3   force =     0.00230571   -0.00917078   -0.01770608
     atom   45 type  3   force =     0.00238141   -0.00092063    0.00073063
     atom   46 type  3   force =    -0.00237535   -0.00092299   -0.00073474
     atom   47 type  3   force =     0.00345030    0.00834500   -0.01848894
     atom   48 type  3   force =    -0.00345179    0.00834048    0.01849071
     atom   49 type  3   force =     0.00552204   -0.00828119   -0.01382212
     atom   50 type  3   force =    -0.00552078   -0.00828343    0.01381994
     atom   51 type  3   force =     0.00088668   -0.00041323   -0.00035047
     atom   52 type  3   force =    -0.00090690   -0.00042878    0.00029017
     atom   53 type  3   force =     0.00056941   -0.00119917    0.00048191
     atom   54 type  3   force =    -0.00055855   -0.00118489   -0.00047967
     atom   55 type  3   force =    -0.00185273    0.00026067    0.00008756
     atom   56 type  3   force =     0.00173279    0.00024769   -0.00006906
     atom   57 type  3   force =     0.00021667    0.00008293   -0.00038747
     atom   58 type  3   force =    -0.00021953    0.00009218    0.00040159

     Total force =     0.108606     Total SCF correction =     0.000205


     Computing stress (Cartesian axis) and pressure

          total   stress  (Ry/bohr**3)                   (kbar)     P=  -17.17
  -0.00007094   0.00000013   0.00003242        -10.44      0.02      4.77
   0.00000013  -0.00008035  -0.00000004          0.02    -11.82     -0.01
   0.00003242  -0.00000004  -0.00019896          4.77     -0.01    -29.27


     Writing output data file scf.save
 
     init_run     :     16.88s CPU     17.45s WALL (       1 calls)
     electrons    :    455.25s CPU    473.99s WALL (       1 calls)
     forces       :      8.49s CPU      8.54s WALL (       1 calls)
     stress       :     30.65s CPU     30.68s WALL (       1 calls)

     Called by init_run:
     wfcinit      :     10.80s CPU     11.27s WALL (       1 calls)
     potinit      :      2.14s CPU      2.20s WALL (       1 calls)

     Called by electrons:
     c_bands      :    402.22s CPU    419.52s WALL (      15 calls)
     sum_band     :     45.17s CPU     46.25s WALL (      15 calls)
     v_of_rho     :      0.95s CPU      1.04s WALL (      16 calls)
     newd         :      2.10s CPU      2.13s WALL (      16 calls)
     PAW_pot      :      4.32s CPU      4.33s WALL (      16 calls)
     mix_rho      :      0.22s CPU      0.24s WALL (      15 calls)

     Called by c_bands:
     init_us_2    :      4.67s CPU      4.66s WALL (     462 calls)
     cegterg      :    388.35s CPU    405.58s WALL (     210 calls)

     Called by sum_band:
     sum_band:bec :      0.04s CPU      0.04s WALL (     210 calls)
     addusdens    :      2.19s CPU      2.21s WALL (      15 calls)

     Called by *egterg:
     h_psi        :    256.46s CPU    270.25s WALL (    1002 calls)
     s_psi        :     30.46s CPU     30.46s WALL (    1002 calls)
     g_psi        :      2.36s CPU      2.36s WALL (     778 calls)
     cdiaghg      :     21.53s CPU     21.52s WALL (     988 calls)

     Called by h_psi:
     h_psi:pot    :    254.03s CPU    267.79s WALL (    1002 calls)
     h_psi:calbec :     28.42s CPU     28.56s WALL (    1002 calls)
     vloc_psi     :    195.24s CPU    208.86s WALL (    1002 calls)
     add_vuspsi   :     30.36s CPU     30.36s WALL (    1002 calls)

     General routines
     calbec       :     40.95s CPU     41.12s WALL (    1282 calls)
     fft          :      0.68s CPU      0.82s WALL (     232 calls)
     fftw         :    206.03s CPU    219.87s WALL (  142518 calls)
 
     Parallel routines
     fft_scatter  :     44.31s CPU     52.60s WALL (  142750 calls)
 
     PWSCF        :  8m36.65s CPU     8m57.44s WALL

 
   This run was terminated on:   4:22:13   4Nov2017            

=------------------------------------------------------------------------------=
   JOB DONE.
=------------------------------------------------------------------------------=
