
     Program PWSCF v.6.1 (svn rev. 13369) starts on  4Nov2017 at  5: 7: 7 

     This program is part of the open-source Quantum ESPRESSO suite
     for quantum simulation of materials; please cite
         "P. Giannozzi et al., J. Phys.:Condens. Matter 21 395502 (2009);
          URL http://www.quantum-espresso.org", 
     in publications or presentations arising from this work. More details at
     http://www.quantum-espresso.org/quote

     Parallel version (MPI), running on     8 processors
     R & G space division:  proc/nbgrp/npool/nimage =       8
     Waiting for input...
     Reading input from standard input

     Current dimensions of program PWSCF are:
     Max number of different atomic species (ntypx) = 10
     Max number of k-points (npk) =  40000
     Max angular momentum in pseudopotentials (lmaxx) =  3
               file C.pbe-n-kjpaw_psl.0.1.UPF: wavefunction(s)  2P renormalized
               file N.pbe-n-kjpaw_psl.0.1.UPF: wavefunction(s)  2P renormalized
               file H.pbe-kjpaw_psl.0.1.UPF: wavefunction(s)  1S renormalized
               file O.pbe-n-kjpaw_psl.0.1.UPF: wavefunction(s)  2P renormalized

     -------------------------------------
     Parameters for Dispersion Correction:
     -------------------------------------
       atom      VdW radius       C_6     

        C          2.744         60.710
        N          2.640         42.670
        H          1.892          4.857
        O          2.536         24.284

     Subspace diagonalization in iterative solution of the eigenvalue problem:
     a serial algorithm will be used

 
     Parallelization info
     --------------------
     sticks:   dense  smooth     PW     G-vecs:    dense   smooth      PW
     Min        1366    1366    354               191618   191618   25393
     Max        1367    1367    355               191620   191620   25396
     Sum       10931   10931   2833              1532949  1532949  203161
 


     bravais-lattice index     =            0
     lattice parameter (alat)  =      22.3819  a.u.
     unit-cell volume          =   11347.3667 (a.u.)^3
     number of atoms/cell      =          184
     number of atomic types    =            4
     number of electrons       =       464.00
     number of Kohn-Sham states=          278
     kinetic-energy cutoff     =     100.0000  Ry
     charge density cutoff     =     400.0000  Ry
     convergence threshold     =      1.0E-08
     mixing beta               =       0.5000
     number of iterations used =            8  plain     mixing
     Exchange-correlation      =  SLA  PW   PBX  PBC ( 1  4  3  4 0 0)

     celldm(1)=  22.381916  celldm(2)=   0.000000  celldm(3)=   0.000000
     celldm(4)=   0.000000  celldm(5)=   0.000000  celldm(6)=   0.000000

     crystal axes: (cart. coord. in units of alat)
               a(1) = (   1.000000   0.000000   0.000000 )  
               a(2) = (   0.000000   0.685410   0.000000 )  
               a(3) = (  -0.274465   0.000000   1.476565 )  

     reciprocal axes: (cart. coord. in units 2 pi/alat)
               b(1) = (  1.000000  0.000000  0.185881 )  
               b(2) = (  0.000000  1.458980  0.000000 )  
               b(3) = (  0.000000  0.000000  0.677247 )  


     PseudoPot. # 1 for  C read from file:
     /scratch/ahofstet/pseudo/C.pbe-n-kjpaw_psl.0.1.UPF
     MD5 check sum: 430fe95172b1e11ef3f8ed03bac87931
     Pseudo is Projector augmented-wave + core cor, Zval =  4.0
     Generated using "atomic" code by A. Dal Corso  v.5.0.99 svn rev. 10869
     Shape of augmentation charge: BESSEL
     Using radial grid of 1073 points,  4 beta functions with: 
                l(1) =   0
                l(2) =   0
                l(3) =   1
                l(4) =   1
     Q(r) pseudized with 0 coefficients 


     PseudoPot. # 2 for  N read from file:
     /scratch/ahofstet/pseudo/N.pbe-n-kjpaw_psl.0.1.UPF
     MD5 check sum: f73187c8b701007e77325f868c9291d7
     Pseudo is Projector augmented-wave + core cor, Zval =  5.0
     Generated using "atomic" code by A. Dal Corso  v.5.0.99 svn rev. 10869
     Shape of augmentation charge: PSQ
     Using radial grid of 1085 points,  4 beta functions with: 
                l(1) =   0
                l(2) =   0
                l(3) =   1
                l(4) =   1
     Q(r) pseudized with 0 coefficients 


     PseudoPot. # 3 for  H read from file:
     /scratch/ahofstet/pseudo/H.pbe-kjpaw_psl.0.1.UPF
     MD5 check sum: 94e484f906d9e9773b2f6e52662335b2
     Pseudo is Projector augmented-wave, Zval =  1.0
     Generated using "atomic" code by A. Dal Corso  v.5.0.99 svn rev. 10869
     Shape of augmentation charge: PSQ
     Using radial grid of  929 points,  2 beta functions with: 
                l(1) =   0
                l(2) =   0
     Q(r) pseudized with 0 coefficients 


     PseudoPot. # 4 for  O read from file:
     /scratch/ahofstet/pseudo/O.pbe-n-kjpaw_psl.0.1.UPF
     MD5 check sum: 3f94a2996a3169367d6eb21d9b593f20
     Pseudo is Projector augmented-wave + core cor, Zval =  6.0
     Generated using "atomic" code by A. Dal Corso  v.5.0.99 svn rev. 10869
     Shape of augmentation charge: BESSEL
     Using radial grid of 1095 points,  4 beta functions with: 
                l(1) =   0
                l(2) =   0
                l(3) =   1
                l(4) =   1
     Q(r) pseudized with 0 coefficients 


     atomic species   valence    mass     pseudopotential
        C              4.00    12.01070      C( 1.00)
        N              5.00    14.00670      N( 1.00)
        H              1.00     1.00794      H( 1.00)
        O              6.00    15.99940      O( 1.00)

      2 Sym. Ops., with inversion, found



   Cartesian axes

     site n.     atom                  positions (alat units)
         1           C   tau(   1) = (   0.2018391   0.6791791   0.2588869  )
         2           C   tau(   2) = (   0.6609467   0.3364806   0.4794298  )
         3           C   tau(   3) = (   0.5236960   0.0062312   1.2176783  )
         4           C   tau(   4) = (   0.0645883   0.3489298   0.9971354  )
         5           N   tau(   5) = (   0.2200976   0.6310968   0.3697154  )
         6           N   tau(   6) = (   0.6426664   0.2885101   0.3685606  )
         7           N   tau(   7) = (   0.5054374   0.0543136   1.1068498  )
         8           N   tau(   8) = (   0.0828687   0.3969003   1.1080046  )
         9           C   tau(   9) = (   0.3154980   0.6563197   0.4326643  )
        10           C   tau(  10) = (   0.5472816   0.3138070   0.3056071  )
        11           C   tau(  11) = (   0.4100371   0.0290906   1.0439009  )
        12           C   tau(  12) = (   0.1782535   0.3716034   1.1709581  )
        13           C   tau(  13) = (   0.4073772   0.0322518   0.3884831  )
        14           C   tau(  14) = (   0.4554202   0.3751621   0.3497771  )
        15           C   tau(  15) = (   0.3181578   0.6531586   1.0880821  )
        16           C   tau(  16) = (   0.2701148   0.3102483   1.1267882  )
        17           C   tau(  17) = (   0.5040126   0.0514127   0.4530723  )
        18           C   tau(  18) = (   0.3587406   0.3942448   0.2851890  )
        19           C   tau(  19) = (   0.2215225   0.6339977   1.0234929  )
        20           C   tau(  20) = (   0.3667945   0.2911656   1.1913762  )
        21           C   tau(  21) = (   0.5114072   0.0104659   0.5633565  )
        22           C   tau(  22) = (   0.3513443   0.3532111   0.1749453  )
        23           C   tau(  23) = (   0.2141278   0.6749444   0.9132087  )
        24           C   tau(  24) = (   0.3741907   0.3321992   1.3016199  )
        25           C   tau(  25) = (   0.4193713   0.6372155   0.6086931  )
        26           C   tau(  26) = (   0.4433930   0.2946205   0.1295902  )
        27           C   tau(  27) = (   0.3061638   0.0481949   0.8678722  )
        28           C   tau(  28) = (   0.2821420   0.3907899   1.3469750  )
        29           C   tau(  29) = (   0.3217002   0.6168217   0.5462137  )
        30           C   tau(  30) = (   0.5411013   0.2742916   0.1920680  )
        31           C   tau(  31) = (   0.4038349   0.0685886   0.9303516  )
        32           C   tau(  32) = (   0.1844337   0.4111187   1.2844972  )
        33           C   tau(  33) = (   0.2238621   0.5546918   0.5993816  )
        34           C   tau(  34) = (   0.6389292   0.2121537   0.1389129  )
        35           C   tau(  35) = (   0.5016730   0.1307185   0.8771836  )
        36           C   tau(  36) = (   0.0866059   0.4732567   1.3376523  )
        37           N   tau(  37) = (   0.1175393   0.6153802   0.5810537  )
        38           N   tau(  38) = (   0.7452735   0.2727994   0.1572512  )
        39           N   tau(  39) = (   0.6079958   0.0700301   0.8955115  )
        40           N   tau(  40) = (  -0.0197384   0.4126110   1.3193140  )
        41           C   tau(  41) = (   0.0182889   0.5632452   0.6313003  )
        42           C   tau(  42) = (   0.8444875   0.2206537   0.1069455  )
        43           C   tau(  43) = (   0.7072461   0.1221652   0.8452649  )
        44           C   tau(  44) = (  -0.1189525   0.4647566   1.3696197  )
        45           C   tau(  45) = (  -0.0889694   0.6153944   0.5830103  )
        46           C   tau(  46) = (   0.9517852   0.2726908   0.1552556  )
        47           C   tau(  47) = (   0.8145045   0.0700159   0.8935549  )
        48           C   tau(  48) = (  -0.2262502   0.4127196   1.3213097  )
        49           N   tau(  49) = (   0.8947318   0.5822374   0.4654077  )
        50           N   tau(  50) = (  -0.0319547   0.2395264   0.2728584  )
        51           N   tau(  51) = (  -0.1691967   0.1031729   1.0111576  )
        52           N   tau(  52) = (   0.7574897   0.4458839   1.2037068  )
        53           C   tau(  53) = (   0.8059665   0.6464526   0.4076415  )
        54           C   tau(  54) = (   0.0567657   0.3037637   0.3306680  )
        55           C   tau(  55) = (  -0.0804315   0.0389577   1.0689237  )
        56           C   tau(  56) = (   0.6687693   0.3816466   1.1458972  )
        57           C   tau(  57) = (   0.7957240   0.6142964   0.2847660  )
        58           C   tau(  58) = (   0.0670218   0.2715258   0.4535222  )
        59           C   tau(  59) = (  -0.0701889   0.0711140   1.1917992  )
        60           C   tau(  60) = (   0.6585133   0.4138845   1.0230430  )
        61           C   tau(  61) = (   0.6902651   0.5884688   0.2393364  )
        62           C   tau(  62) = (   0.1725055   0.2457944   0.4989546  )
        63           C   tau(  63) = (   0.0352700   0.0969416   1.2372288  )
        64           C   tau(  64) = (   0.5530295   0.4396160   0.9776106  )
        65           C   tau(  65) = (   0.6763636   0.5633826   0.1246668  )
        66           C   tau(  66) = (   0.1864309   0.2207822   0.6136359  )
        67           C   tau(  67) = (   0.0491714   0.1220277   1.3518985  )
        68           C   tau(  68) = (   0.5391042   0.4646282   0.8629293  )
        69           C   tau(  69) = (   0.7712276   0.5625846   0.0546918  )
        70           C   tau(  70) = (   0.0915691   0.2198947   0.6836079  )
        71           C   tau(  71) = (  -0.0456926   0.1228258   1.4218735  )
        72           C   tau(  72) = (   0.6339660   0.4655156   0.7929573  )
        73           C   tau(  73) = (   0.8783678   0.5862618   0.0984881  )
        74           C   tau(  74) = (  -0.0156045   0.2434141   0.6397991  )
        75           C   tau(  75) = (  -0.1528327   0.0991486   1.3780772  )
        76           C   tau(  76) = (   0.7411395   0.4419962   0.8367662  )
        77           C   tau(  77) = (   0.8926078   0.6136272   0.2134271  )
        78           C   tau(  78) = (  -0.0298617   0.2707722   0.5248601  )
        79           C   tau(  79) = (  -0.1670727   0.0717831   1.2631382  )
        80           C   tau(  80) = (   0.7553968   0.4146382   0.9517052  )
        81           N   tau(  81) = (  -0.0038654   0.6445697   0.2596295  )
        82           N   tau(  82) = (   0.8666034   0.3016802   0.4786620  )
        83           N   tau(  83) = (   0.7294005   0.0408407   1.2169358  )
        84           N   tau(  84) = (  -0.1410684   0.3837301   0.9979033  )
        85           C   tau(  85) = (   0.1014432   0.6248909   0.1993145  )
        86           C   tau(  86) = (   0.7612859   0.2820482   0.5389697  )
        87           C   tau(  87) = (   0.6240918   0.0605194   1.2772507  )
        88           C   tau(  88) = (  -0.0357508   0.4033622   0.9375956  )
        89           H   tau(  89) = (   0.1251838   0.0124190   0.6066372  )
        90           H   tau(  90) = (   0.7376491   0.3552590   0.1317031  )
        91           H   tau(  91) = (   0.6003513   0.6729914   0.8699280  )
        92           H   tau(  92) = (  -0.0121140   0.3301513   1.3448621  )
        93           H   tau(  93) = (   0.1506616   0.6226383   0.4219339  )
        94           H   tau(  94) = (   0.7121048   0.2800283   0.3163519  )
        95           H   tau(  95) = (   0.5748735   0.0627720   1.0546313  )
        96           H   tau(  96) = (   0.0134302   0.4053820   1.1602134  )
        97           H   tau(  97) = (   0.8783520   0.4971319   0.4611241  )
        98           H   tau(  98) = (  -0.0155587   0.1544230   0.2771431  )
        99           H   tau(  99) = (  -0.1528169   0.1882785   1.0154411  )
       100           H   tau( 100) = (   0.7410938   0.5309874   1.1994221  )
       101           H   tau( 101) = (  -0.0031740   0.6252407   0.3449755  )
       102           H   tau( 102) = (   0.8659196   0.2823956   0.3933049  )
       103           H   tau( 103) = (   0.7287090   0.0601696   1.1315897  )
       104           H   tau( 104) = (  -0.1403845   0.4030147   1.0832603  )
       105           H   tau( 105) = (   0.2769335   0.6634410   0.2062901  )
       106           H   tau( 106) = (   0.5858188   0.3208040   0.5319957  )
       107           H   tau( 107) = (   0.4486015   0.0219693   1.2702752  )
       108           H   tau( 108) = (   0.1397162   0.3646063   0.9445696  )
       109           H   tau( 109) = (   0.1898307   0.0866057   0.2624508  )
       110           H   tau( 110) = (   0.6730822   0.4293050   0.4759419  )
       111           H   tau( 111) = (   0.5357044   0.5988046   1.2141144  )
       112           H   tau( 112) = (   0.0524529   0.2561053   1.0006233  )
       113           H   tau( 113) = (   0.4029917   0.0672045   0.3034622  )
       114           H   tau( 114) = (   0.4598034   0.4101611   0.4347757  )
       115           H   tau( 115) = (   0.3225434   0.6182059   1.1731030  )
       116           H   tau( 116) = (   0.2657316   0.2752492   1.0417896  )
       117           H   tau( 117) = (   0.5725399   0.1015368   0.4172552  )
       118           H   tau( 118) = (   0.2902002   0.4443385   0.3210034  )
       119           H   tau( 119) = (   0.1529952   0.5838735   1.0593100  )
       120           H   tau( 120) = (   0.4353349   0.2410719   1.1555618  )
       121           H   tau( 121) = (   0.5864543   0.0259957   0.6145233  )
       122           H   tau( 122) = (   0.2762523   0.3686511   0.1237945  )
       123           H   tau( 123) = (   0.1390808   0.6594146   0.8620420  )
       124           H   tau( 124) = (   0.4492827   0.3167593   1.3527707  )
       125           H   tau( 125) = (   0.4219941   0.6077147   0.6959909  )
       126           H   tau( 126) = (   0.4407786   0.2650703   0.0423120  )
       127           H   tau( 127) = (   0.3035409   0.0776957   0.7805743  )
       128           H   tau( 128) = (   0.2847564   0.4203400   1.4342532  )
       129           H   tau( 129) = (   0.2132344   0.4702787   0.5605260  )
       130           H   tau( 130) = (   0.6495250   0.1277373   0.1777779  )
       131           H   tau( 131) = (   0.5123006   0.2151316   0.9160392  )
       132           H   tau( 132) = (   0.0760101   0.5576730   1.2987873  )
       133           H   tau( 133) = (   0.2423614   0.5406098   0.6900766  )
       134           H   tau( 134) = (   0.6204388   0.1980643   0.0482192  )
       135           H   tau( 135) = (   0.4831737   0.1448005   0.7864887  )
       136           H   tau( 136) = (   0.1050962   0.4873460   1.4283460  )
       137           H   tau( 137) = (   0.0168660   0.5705667   0.7248033  )
       138           H   tau( 138) = (   0.8459003   0.2280507   0.0134480  )
       139           H   tau( 139) = (   0.7086690   0.1148436   0.7517619  )
       140           H   tau( 140) = (  -0.1203653   0.4573597   1.4631172  )
       141           H   tau( 141) = (   0.0203834   0.4720573   0.6118122  )
       142           H   tau( 142) = (   0.8423457   0.1294503   0.1263544  )
       143           H   tau( 143) = (   0.7051516   0.2133530   0.8647530  )
       144           H   tau( 144) = (  -0.1168106   0.5559601   1.3502108  )
       145           H   tau( 145) = (   0.8378109   0.5927128   0.6370175  )
       146           H   tau( 146) = (   0.0249900   0.2499519   0.1012527  )
       147           H   tau( 147) = (  -0.1122759   0.0926976   0.8395477  )
       148           H   tau( 148) = (   0.7005450   0.4354585   1.3753125  )
       149           H   tau( 149) = (  -0.0811876   0.0229010   0.5859821  )
       150           H   tau( 150) = (   0.9440815   0.3656142   0.1522832  )
       151           H   tau( 151) = (   0.8067226   0.6625093   0.8905831  )
       152           H   tau( 152) = (  -0.2185464   0.3197961   1.3242820  )
       153           H   tau( 153) = (   0.7221174   0.6385177   0.4482964  )
       154           H   tau( 154) = (   0.1406221   0.2959085   0.2900118  )
       155           H   tau( 155) = (   0.0034176   0.0468926   1.0282688  )
       156           H   tau( 156) = (   0.5849129   0.3895019   1.1865534  )
       157           H   tau( 157) = (   0.8304219   0.0512338   0.4136483  )
       158           H   tau( 158) = (   0.0322516   0.3939446   0.3247206  )
       159           H   tau( 159) = (  -0.1048869   0.6341765   1.0629169  )
       160           H   tau( 160) = (   0.6932835   0.2914657   1.1518447  )
       161           H   tau( 161) = (   0.6169781   0.5887598   0.2953321  )
       162           H   tau( 162) = (   0.2457910   0.2461661   0.4429589  )
       163           H   tau( 163) = (   0.1085569   0.0966505   1.1812331  )
       164           H   tau( 164) = (   0.4797440   0.4392442   1.0336063  )
       165           H   tau( 165) = (   0.5926674   0.5443750   0.0914643  )
       166           H   tau( 166) = (   0.2701512   0.2018981   0.6468544  )
       167           H   tau( 167) = (   0.1328676   0.1410354   1.3851009  )
       168           H   tau( 168) = (   0.4553839   0.4835122   0.8297108  )
       169           H   tau( 169) = (   0.4878766   0.5421297   1.4417405  )
       170           H   tau( 170) = (   0.1004771   0.1994994   0.7731344  )
       171           H   tau( 171) = (   0.2376584   0.1432807   0.0348248  )
       172           H   tau( 172) = (   0.6250579   0.4859110   0.7034308  )
       173           H   tau( 173) = (   0.9515317   0.5833543   0.0427915  )
       174           H   tau( 174) = (  -0.0887638   0.2404448   0.6954953  )
       175           H   tau( 175) = (  -0.2259967   0.1020561   1.4337737  )
       176           H   tau( 176) = (   0.8142988   0.4449655   0.7810699  )
       177           H   tau( 177) = (   0.0957033   0.6620122   0.1143624  )
       178           H   tau( 178) = (   0.7670675   0.3191086   0.6239465  )
       179           H   tau( 179) = (   0.6298317   0.0233981   1.3622029  )
       180           H   tau( 180) = (  -0.0415325   0.3663018   0.8526187  )
       181           H   tau( 181) = (   0.1182860   0.5336034   0.1881698  )
       182           H   tau( 182) = (   0.7443529   0.1907699   0.5500493  )
       183           H   tau( 183) = (   0.6072491   0.1518069   1.2883954  )
       184           H   tau( 184) = (  -0.0188179   0.4946404   0.9265159  )

     number of k points=     4
                       cart. coord. in units 2pi/alat
        k(    1) = (   0.0000000   0.0000000   0.0000000), wk =   0.3333333
        k(    2) = (   0.0000000   0.4863267   0.0000000), wk =   0.6666667
        k(    3) = (  -0.5000000   0.0000000  -0.0929403), wk =   0.3333333
        k(    4) = (  -0.5000000   0.4863267  -0.0929403), wk =   0.6666667

     Dense  grid:  1532949 G-vectors     FFT dimensions: ( 144, 100, 216)

     Estimated max dynamical RAM per process >    1802.07MB

     Estimated total allocated dynamical RAM >   14416.52MB

     Check: negative/imaginary core charge=   -0.000002    0.000000

     Initial potential from superposition of free atoms

     starting charge  463.99597, renormalised to  464.00000
     Starting wfc are  448 randomized atomic wfcs
     Checking if some PAW data can be deallocated... 

     total cpu time spent up to now is       98.6 secs

     per-process dynamical memory:  1023.3 Mb

     Self-consistent Calculation

     iteration #  1     ecut=   100.00 Ry     beta=0.50
     Davidson diagonalization with overlap
     ethr =  1.00E-02,  avg # of iterations =  4.2

     total cpu time spent up to now is      369.7 secs

     total energy              =   -1890.36499819 Ry
     Harris-Foulkes estimate   =   -1900.25420760 Ry
     estimated scf accuracy    <      19.07968763 Ry

     iteration #  2     ecut=   100.00 Ry     beta=0.50
     Davidson diagonalization with overlap
     ethr =  4.11E-03,  avg # of iterations =  3.0

     total cpu time spent up to now is      501.3 secs

     total energy              =   -1890.68454924 Ry
     Harris-Foulkes estimate   =   -1891.89253373 Ry
     estimated scf accuracy    <       2.34858012 Ry

     iteration #  3     ecut=   100.00 Ry     beta=0.50
     Davidson diagonalization with overlap
     ethr =  5.06E-04,  avg # of iterations =  5.0

     total cpu time spent up to now is      822.0 secs

     total energy              =   -1893.28584221 Ry
     Harris-Foulkes estimate   =   -1894.47894775 Ry
     estimated scf accuracy    <       3.65468592 Ry

     iteration #  4     ecut=   100.00 Ry     beta=0.50
     Davidson diagonalization with overlap
     ethr =  5.06E-04,  avg # of iterations =  1.5

     total cpu time spent up to now is      945.0 secs

     total energy              =   -1892.13358497 Ry
     Harris-Foulkes estimate   =   -1893.37007171 Ry
     estimated scf accuracy    <       1.60615303 Ry

     iteration #  5     ecut=   100.00 Ry     beta=0.50
     Davidson diagonalization with overlap
     ethr =  3.46E-04,  avg # of iterations =  5.0

     total cpu time spent up to now is     1249.3 secs

     total energy              =   -1892.85990561 Ry
     Harris-Foulkes estimate   =   -1894.82848512 Ry
     estimated scf accuracy    <       4.47252572 Ry

     iteration #  6     ecut=   100.00 Ry     beta=0.50
     Davidson diagonalization with overlap
     ethr =  3.46E-04,  avg # of iterations =  4.8

     total cpu time spent up to now is     1383.7 secs

     total energy              =   -1892.66473017 Ry
     Harris-Foulkes estimate   =   -1893.05711589 Ry
     estimated scf accuracy    <       1.18596632 Ry

     iteration #  7     ecut=   100.00 Ry     beta=0.50
     Davidson diagonalization with overlap
     ethr =  2.56E-04,  avg # of iterations =  7.0

     total cpu time spent up to now is     1624.6 secs

     total energy              =   -1893.28805459 Ry
     Harris-Foulkes estimate   =   -1893.27932190 Ry
     estimated scf accuracy    <       0.01396989 Ry

     iteration #  8     ecut=   100.00 Ry     beta=0.50
     Davidson diagonalization with overlap
     ethr =  3.01E-06,  avg # of iterations =  5.0

     total cpu time spent up to now is     1944.5 secs

     total energy              =   -1893.27716638 Ry
     Harris-Foulkes estimate   =   -1893.30209853 Ry
     estimated scf accuracy    <       0.06202975 Ry

     iteration #  9     ecut=   100.00 Ry     beta=0.50
     Davidson diagonalization with overlap
     ethr =  3.01E-06,  avg # of iterations = 15.0

     total cpu time spent up to now is     2177.1 secs

     total energy              =   -1893.27956921 Ry
     Harris-Foulkes estimate   =   -1893.28267744 Ry
     estimated scf accuracy    <       0.00714424 Ry

     iteration # 10     ecut=   100.00 Ry     beta=0.50
     Davidson diagonalization with overlap
     ethr =  1.54E-06,  avg # of iterations =  5.2

     total cpu time spent up to now is     2358.4 secs

     total energy              =   -1893.28146966 Ry
     Harris-Foulkes estimate   =   -1893.28160365 Ry
     estimated scf accuracy    <       0.00041436 Ry

     iteration # 11     ecut=   100.00 Ry     beta=0.50
     Davidson diagonalization with overlap
     ethr =  8.93E-08,  avg # of iterations =  4.8

     total cpu time spent up to now is     2610.5 secs

     total energy              =   -1893.28190391 Ry
     Harris-Foulkes estimate   =   -1893.28195096 Ry
     estimated scf accuracy    <       0.00009187 Ry

     iteration # 12     ecut=   100.00 Ry     beta=0.50
     Davidson diagonalization with overlap
     ethr =  1.98E-08,  avg # of iterations =  2.2

     total cpu time spent up to now is     2737.6 secs

     total energy              =   -1893.28190637 Ry
     Harris-Foulkes estimate   =   -1893.28191237 Ry
     estimated scf accuracy    <       0.00001186 Ry

     iteration # 13     ecut=   100.00 Ry     beta=0.50
     Davidson diagonalization with overlap
     ethr =  2.56E-09,  avg # of iterations =  5.0

     total cpu time spent up to now is     3043.2 secs

     total energy              =   -1893.28192701 Ry
     Harris-Foulkes estimate   =   -1893.28194550 Ry
     estimated scf accuracy    <       0.00006276 Ry

     iteration # 14     ecut=   100.00 Ry     beta=0.50
     Davidson diagonalization with overlap
     ethr =  2.56E-09,  avg # of iterations =  4.0

     total cpu time spent up to now is     3176.5 secs

     total energy              =   -1893.28191115 Ry
     Harris-Foulkes estimate   =   -1893.28192825 Ry
     estimated scf accuracy    <       0.00002927 Ry

     iteration # 15     ecut=   100.00 Ry     beta=0.50
     Davidson diagonalization with overlap
     ethr =  2.56E-09,  avg # of iterations =  4.0

     total cpu time spent up to now is     3465.7 secs

     total energy              =   -1893.28192574 Ry
     Harris-Foulkes estimate   =   -1893.28192912 Ry
     estimated scf accuracy    <       0.00001071 Ry

     iteration # 16     ecut=   100.00 Ry     beta=0.50
     Davidson diagonalization with overlap
     ethr =  2.31E-09,  avg # of iterations =  1.0

     total cpu time spent up to now is     3587.5 secs

     total energy              =   -1893.28192416 Ry
     Harris-Foulkes estimate   =   -1893.28192604 Ry
     estimated scf accuracy    <       0.00000473 Ry

     iteration # 17     ecut=   100.00 Ry     beta=0.50
     Davidson diagonalization with overlap
     ethr =  1.02E-09,  avg # of iterations =  4.0

     total cpu time spent up to now is     3799.4 secs

     total energy              =   -1893.28192585 Ry
     Harris-Foulkes estimate   =   -1893.28192591 Ry
     estimated scf accuracy    <       0.00000024 Ry

     iteration # 18     ecut=   100.00 Ry     beta=0.50
     Davidson diagonalization with overlap
     ethr =  5.19E-11,  avg # of iterations =  3.0

     total cpu time spent up to now is     3961.0 secs

     total energy              =   -1893.28192584 Ry
     Harris-Foulkes estimate   =   -1893.28192590 Ry
     estimated scf accuracy    <       0.00000010 Ry

     iteration # 19     ecut=   100.00 Ry     beta=0.50
     Davidson diagonalization with overlap
     ethr =  2.25E-11,  avg # of iterations =  4.5

     total cpu time spent up to now is     4124.8 secs

     End of self-consistent calculation

          k = 0.0000 0.0000 0.0000 (191753 PWs)   bands (ev):

   -17.7669 -17.7625 -17.7060 -17.7043 -17.2213 -17.2197 -17.2197 -17.2165
   -16.9988 -16.9948 -16.9612 -16.9608 -16.3711 -16.3711 -16.3549 -16.3544
   -15.1387 -15.1378 -15.1352 -15.1274 -14.7581 -14.7512 -14.7422 -14.7290
   -13.4161 -13.3902 -13.3890 -13.3639 -12.9586 -12.9507 -12.9336 -12.9092
   -12.8173 -12.8010 -12.7838 -12.7682 -12.1020 -12.0542 -12.0511 -12.0436
   -11.9448 -11.9226 -11.9214 -11.8679 -11.4164 -11.4004 -11.3855 -11.3592
   -10.5236 -10.5162 -10.5120 -10.5100 -10.0315  -9.9845  -9.9825  -9.9229
    -9.9091  -9.8963  -9.8946  -9.8841  -9.0615  -9.0591  -8.9890  -8.9790
    -8.7553  -8.7404  -8.7363  -8.6948  -8.6759  -8.6576  -8.6567  -8.6248
    -8.2859  -8.2827  -8.2799  -8.2475  -8.1237  -8.1007  -8.0915  -8.0488
    -7.3186  -7.2640  -7.2293  -7.2156  -6.7898  -6.7515  -6.7442  -6.6790
    -6.6374  -6.6227  -6.6078  -6.4942  -6.4638  -6.4488  -6.4483  -6.3984
    -6.2963  -6.2833  -6.2794  -6.2769  -5.8505  -5.8033  -5.7701  -5.7437
    -5.7419  -5.7326  -5.7296  -5.7185  -5.5123  -5.4170  -5.3958  -5.3801
    -5.2673  -5.2389  -5.2213  -5.2073  -5.1513  -5.1374  -5.1238  -5.0626
    -4.9169  -4.8716  -4.8613  -4.8099  -4.8026  -4.7922  -4.7716  -4.7591
    -4.6298  -4.6172  -4.5995  -4.5930  -4.4497  -4.3964  -4.3572  -4.3443
    -4.2766  -4.2731  -4.2019  -4.1683  -4.0951  -4.0619  -4.0607  -4.0557
    -4.0228  -4.0139  -3.9227  -3.8368  -3.8310  -3.7792  -3.6745  -3.6531
    -3.5879  -3.5870  -3.5691  -3.5619  -3.4768  -3.4665  -3.4498  -3.4391
    -3.3894  -3.3602  -3.2882  -3.2546  -3.2112  -3.2059  -3.1999  -3.1887
    -3.1725  -3.1176  -3.0865  -3.0636  -3.0431  -2.9888  -2.9843  -2.9697
    -2.7021  -2.6918  -2.6719  -2.6440  -2.6137  -2.6022  -2.5972  -2.5785
    -2.4647  -2.4062  -2.3612  -2.3536  -2.2384  -2.2220  -2.2183  -2.1685
    -2.1085  -2.0831  -2.0579  -2.0509  -1.8850  -1.8365  -1.8032  -1.7805
    -1.4410  -1.4027  -1.3911  -1.3891  -1.0928  -1.0510  -0.9883  -0.9758
    -0.4135  -0.4015  -0.3810  -0.3611  -0.1077  -0.0077   0.0213   0.1120
     0.3165   0.3673   0.3820   0.4129   0.5352   0.6343   0.6597   0.7165
     0.9728   0.9766   0.9910   1.0039   1.2664   1.2949   1.3093   1.3358
     4.5087   4.5490   4.5606   4.5925   4.7295   4.7648   4.8237   4.8603
     4.9724   4.9971   4.9991   5.1496   5.1879   5.2650   5.3489   5.3505
     5.5550   5.5583   5.9379   5.9737   6.0472   6.0534   6.2882   6.3569
     6.3764   6.4875   6.5394   6.5424   6.6517   6.8591   6.8686   6.9989
     7.0944   7.1901   7.1911   7.3000   7.3507   7.3566   7.4425   7.4673
     7.5481   7.6575   7.7073   7.7750   7.7821   7.7942

          k = 0.0000 0.4863 0.0000 (191621 PWs)   bands (ev):

   -17.7515 -17.7476 -17.7210 -17.7184 -17.2203 -17.2192 -17.2183 -17.2165
   -16.9912 -16.9871 -16.9725 -16.9697 -16.3669 -16.3667 -16.3588 -16.3584
   -15.1406 -15.1403 -15.1343 -15.1306 -14.7572 -14.7542 -14.7378 -14.7317
   -13.4121 -13.4022 -13.3767 -13.3672 -12.9521 -12.9396 -12.9394 -12.9185
   -12.8141 -12.8058 -12.7806 -12.7729 -12.0881 -12.0639 -12.0474 -12.0399
   -11.9480 -11.9429 -11.9006 -11.8789 -11.4115 -11.4038 -11.3801 -11.3667
   -10.5202 -10.5164 -10.5098 -10.5089 -10.0020  -9.9688  -9.9623  -9.9450
    -9.9235  -9.9111  -9.8970  -9.8884  -9.0310  -9.0255  -8.9943  -8.9852
    -8.7536  -8.7491  -8.7204  -8.7015  -8.6765  -8.6645  -8.6412  -8.6270
    -8.2844  -8.2806  -8.2716  -8.2549  -8.1241  -8.1164  -8.0734  -8.0557
    -7.3060  -7.2791  -7.2270  -7.2192  -6.7749  -6.7514  -6.7018  -6.6636
    -6.6445  -6.6186  -6.5771  -6.5329  -6.4560  -6.4239  -6.4218  -6.3944
    -6.3533  -6.3265  -6.2983  -6.2954  -5.8302  -5.8042  -5.7637  -5.7576
    -5.7489  -5.7468  -5.7276  -5.7221  -5.4859  -5.4444  -5.3784  -5.3743
    -5.2770  -5.2480  -5.2148  -5.2129  -5.1716  -5.1601  -5.1146  -5.0964
    -4.9040  -4.8874  -4.8304  -4.8138  -4.7974  -4.7906  -4.7579  -4.7564
    -4.6346  -4.6101  -4.6088  -4.5966  -4.4598  -4.4258  -4.3746  -4.3535
    -4.3010  -4.2826  -4.1782  -4.1658  -4.1339  -4.1253  -4.0968  -4.0966
    -4.0313  -3.9726  -3.9710  -3.8836  -3.7636  -3.7295  -3.7005  -3.6807
    -3.6139  -3.6102  -3.5721  -3.5691  -3.5245  -3.5035  -3.4953  -3.4748
    -3.3845  -3.3706  -3.3146  -3.2948  -3.2923  -3.2716  -3.2467  -3.2462
    -3.1252  -3.1071  -3.0773  -3.0576  -3.0463  -3.0399  -3.0145  -3.0068
    -2.7388  -2.7276  -2.7236  -2.7133  -2.4817  -2.4682  -2.4107  -2.3945
    -2.2951  -2.2874  -2.2610  -2.2553  -2.2241  -2.2010  -2.1921  -2.1627
    -2.0983  -2.0889  -2.0568  -2.0528  -1.8850  -1.8675  -1.8000  -1.7850
    -1.4241  -1.4031  -1.3783  -1.3760  -1.0696  -1.0374  -1.0157  -1.0034
    -0.3880  -0.3768  -0.3646  -0.3501  -0.0691  -0.0125   0.0314   0.0839
     0.3223   0.3494   0.3852   0.4054   0.6143   0.6659   0.6910   0.7115
     0.8925   0.9096   0.9562   0.9749   1.2845   1.3072   1.3090   1.3292
     4.5161   4.5360   4.5509   4.5738   4.7791   4.8070   4.8355   4.8590
     4.9659   4.9787   5.0463   5.1095   5.2137   5.2504   5.3473   5.3488
     5.6452   5.6905   5.9589   5.9909   6.0978   6.1186   6.2748   6.3172
     6.4674   6.4677   6.4907   6.6215   6.6419   6.7037   6.7041   6.8480
     6.8749   6.9375   7.0300   7.1405   7.3427   7.3552   7.3730   7.4825
     7.5611   7.5616   7.5838   7.6520   7.7390   7.8427

          k =-0.5000 0.0000-0.0929 (191686 PWs)   bands (ev):

   -17.7648 -17.7609 -17.7075 -17.7062 -17.2254 -17.2249 -17.2143 -17.2133
   -16.9999 -16.9958 -16.9609 -16.9608 -16.3722 -16.3712 -16.3538 -16.3531
   -15.1378 -15.1295 -15.1265 -15.1195 -14.7657 -14.7537 -14.7480 -14.7402
   -13.4272 -13.4187 -13.4001 -13.3846 -12.9500 -12.9268 -12.9226 -12.8913
   -12.7884 -12.7845 -12.7749 -12.7632 -12.1099 -12.0655 -12.0387 -12.0353
   -11.9321 -11.9300 -11.9262 -11.8836 -11.4251 -11.4177 -11.3790 -11.3708
   -10.5606 -10.5541 -10.5454 -10.5453 -10.0473  -9.9868  -9.9307  -9.9238
    -9.8678  -9.8528  -9.8463  -9.8412  -9.0687  -9.0622  -8.9903  -8.9820
    -8.7765  -8.7604  -8.7512  -8.7330  -8.6845  -8.6478  -8.6209  -8.5978
    -8.2861  -8.2844  -8.2680  -8.2484  -8.1740  -8.1049  -8.0645  -8.0583
    -7.2650  -7.2586  -7.2217  -7.2199  -6.8540  -6.7613  -6.7431  -6.7100
    -6.6624  -6.6437  -6.6025  -6.4916  -6.4232  -6.4131  -6.3924  -6.3736
    -6.3703  -6.2881  -6.2738  -6.2732  -5.8795  -5.8071  -5.8054  -5.7892
    -5.7801  -5.7109  -5.6771  -5.5981  -5.4939  -5.4632  -5.4286  -5.4004
    -5.2766  -5.2652  -5.2507  -5.2116  -5.1877  -5.1631  -5.1370  -5.1229
    -4.9091  -4.9065  -4.8865  -4.8043  -4.7642  -4.7071  -4.7016  -4.6746
    -4.5780  -4.5593  -4.5565  -4.5560  -4.4272  -4.4119  -4.3828  -4.3478
    -4.3334  -4.2708  -4.2110  -4.1676  -4.1543  -4.0955  -4.0868  -4.0558
    -3.9620  -3.9469  -3.9010  -3.8684  -3.8448  -3.7942  -3.6693  -3.6684
    -3.6162  -3.6119  -3.5962  -3.5756  -3.5395  -3.4939  -3.4764  -3.4262
    -3.3222  -3.2987  -3.2748  -3.2698  -3.2181  -3.1944  -3.1940  -3.1914
    -3.1640  -3.1092  -3.0634  -3.0446  -3.0382  -3.0235  -2.9904  -2.9643
    -2.6887  -2.6875  -2.6482  -2.6358  -2.6319  -2.6043  -2.5693  -2.5526
    -2.4758  -2.4248  -2.4211  -2.4124  -2.2124  -2.1928  -2.1924  -2.1701
    -2.0815  -2.0664  -2.0574  -2.0516  -1.9241  -1.8211  -1.8147  -1.7869
    -1.4334  -1.4266  -1.4020  -1.3838  -1.1082  -1.0579  -0.9912  -0.9589
    -0.4051  -0.3955  -0.3809  -0.3756  -0.1191  -0.0200   0.0035   0.1033
     0.2943   0.3462   0.3573   0.3899   0.5945   0.6352   0.7233   0.7244
     0.9718   0.9748   0.9985   1.0071   1.2578   1.2914   1.3110   1.3262
     4.5313   4.5319   4.5631   4.5792   4.7883   4.8431   4.8447   4.8504
     4.9001   4.9230   5.0031   5.1724   5.2128   5.2683   5.3409   5.3437
     5.6209   5.6428   5.6626   5.7313   6.1873   6.2479   6.3423   6.3680
     6.4382   6.4630   6.5938   6.6009   6.7135   6.8848   6.9515   6.9754
     7.0032   7.1753   7.2018   7.2038   7.3615   7.3880   7.4355   7.4566
     7.5484   7.5590   7.5604   7.6379   7.7551   7.7770

          k =-0.5000 0.4863-0.0929 (191556 PWs)   bands (ev):

   -17.7501 -17.7467 -17.7215 -17.7192 -17.2223 -17.2216 -17.2168 -17.2158
   -16.9918 -16.9877 -16.9724 -16.9698 -16.3673 -16.3664 -16.3581 -16.3574
   -15.1382 -15.1347 -15.1247 -15.1219 -14.7639 -14.7585 -14.7449 -14.7417
   -13.4252 -13.4210 -13.3954 -13.3878 -12.9441 -12.9324 -12.9150 -12.8993
   -12.7880 -12.7857 -12.7708 -12.7651 -12.0936 -12.0579 -12.0577 -12.0425
   -11.9333 -11.9319 -11.9145 -11.8935 -11.4153 -11.4051 -11.3921 -11.3818
   -10.5570 -10.5539 -10.5430 -10.5429 -10.0188  -9.9636  -9.9625  -9.9268
    -9.8695  -9.8603  -9.8472  -9.8432  -9.0359  -9.0291  -8.9961  -8.9884
    -8.7752  -8.7686  -8.7422  -8.7344  -8.6754  -8.6595  -8.6085  -8.5993
    -8.2849  -8.2743  -8.2708  -8.2542  -8.1621  -8.1297  -8.0574  -8.0563
    -7.2544  -7.2499  -7.2047  -7.2029  -6.8567  -6.8195  -6.7450  -6.7341
    -6.6597  -6.6503  -6.5604  -6.5055  -6.4248  -6.4213  -6.3989  -6.3938
    -6.3302  -6.2944  -6.2682  -6.2657  -5.8571  -5.8114  -5.8048  -5.7993
    -5.7689  -5.7354  -5.6610  -5.6223  -5.4837  -5.4723  -5.4207  -5.4044
    -5.2763  -5.2723  -5.2497  -5.2394  -5.2069  -5.1695  -5.1058  -5.0885
    -4.9002  -4.8929  -4.8807  -4.8299  -4.7556  -4.7348  -4.6985  -4.6813
    -4.6006  -4.5958  -4.5664  -4.5656  -4.4403  -4.4379  -4.3980  -4.3843
    -4.3286  -4.2936  -4.2051  -4.1878  -4.1634  -4.1302  -4.1224  -4.1124
    -3.9703  -3.9413  -3.9324  -3.8909  -3.7599  -3.7157  -3.7124  -3.6792
    -3.6323  -3.6250  -3.6074  -3.5735  -3.5671  -3.5320  -3.4901  -3.4862
    -3.3127  -3.2966  -3.2873  -3.2761  -3.2569  -3.2422  -3.2241  -3.2175
    -3.1769  -3.1663  -3.1379  -3.1093  -3.0736  -3.0586  -3.0147  -3.0004
    -2.7170  -2.6941  -2.6839  -2.6587  -2.5121  -2.4768  -2.4606  -2.4481
    -2.2956  -2.2783  -2.2628  -2.2591  -2.1903  -2.1773  -2.1672  -2.1611
    -2.0794  -2.0700  -2.0593  -2.0542  -1.8919  -1.8436  -1.8049  -1.7917
    -1.4404  -1.4198  -1.4159  -1.3879  -1.0825  -1.0370  -1.0190  -0.9882
    -0.3822  -0.3773  -0.3593  -0.3543  -0.0846  -0.0306   0.0125   0.0694
     0.3010   0.3276   0.3560   0.3790   0.6626   0.6898   0.7337   0.7610
     0.9055   0.9274   0.9459   0.9759   1.2741   1.2992   1.3011   1.3164
     4.5069   4.5106   4.5742   4.5819   4.7987   4.8366   4.8539   4.8804
     4.9180   4.9975   5.0026   5.1108   5.2452   5.2615   5.3405   5.3525
     5.7150   5.7218   5.7876   5.9053   6.1066   6.2098   6.2631   6.2668
     6.4162   6.4257   6.6377   6.6617   6.6952   6.7287   6.8377   6.8869
     6.9463   7.0669   7.0887   7.1299   7.1891   7.2770   7.3737   7.3862
     7.4151   7.5272   7.5503   7.5989   7.6665   7.6954

     highest occupied, lowest unoccupied level (ev):     1.3358    4.5069

!    total energy              =   -1893.28192587 Ry
     Harris-Foulkes estimate   =   -1893.28192587 Ry
     estimated scf accuracy    <          2.0E-09 Ry

     total all-electron energy =     -7353.077630 Ry

     The total energy is the sum of the following terms:

     one-electron contribution =   -1242.20950410 Ry
     hartree contribution      =     783.92599665 Ry
     xc contribution           =    -454.47496900 Ry
     ewald contribution        =    -368.38870194 Ry
     Dispersion Correction     =      -0.81421425 Ry
     one-center paw contrib.   =    -611.32053324 Ry

     convergence has been achieved in  19 iterations

     Forces acting on atoms (cartesian axes, Ry/au):

     atom    1 type  1   force =    -0.00007073   -0.00017993   -0.00000100
     atom    2 type  1   force =     0.00009281   -0.00007005   -0.00003122
     atom    3 type  1   force =     0.00007073    0.00017993    0.00000100
     atom    4 type  1   force =    -0.00009281    0.00007005    0.00003122
     atom    5 type  2   force =    -0.00053741   -0.00007154    0.00093848
     atom    6 type  2   force =     0.00045461   -0.00006220   -0.00091515
     atom    7 type  2   force =     0.00053741    0.00007154   -0.00093848
     atom    8 type  2   force =    -0.00045461    0.00006220    0.00091515
     atom    9 type  1   force =     0.00016939   -0.00072000   -0.00040636
     atom   10 type  1   force =     0.00011994   -0.00093991    0.00047318
     atom   11 type  1   force =    -0.00016939    0.00072000    0.00040636
     atom   12 type  1   force =    -0.00011994    0.00093991   -0.00047318
     atom   13 type  1   force =    -0.00015953   -0.00002670   -0.00090992
     atom   14 type  1   force =    -0.00030221    0.00006801    0.00068700
     atom   15 type  1   force =     0.00015953    0.00002670    0.00090992
     atom   16 type  1   force =     0.00030221   -0.00006801   -0.00068700
     atom   17 type  1   force =     0.00050055   -0.00008363    0.00147639
     atom   18 type  1   force =    -0.00005508   -0.00023988   -0.00115788
     atom   19 type  1   force =    -0.00050055    0.00008363   -0.00147639
     atom   20 type  1   force =     0.00005508    0.00023988    0.00115788
     atom   21 type  1   force =    -0.00053947   -0.00031254   -0.00017405
     atom   22 type  1   force =     0.00009816   -0.00008169   -0.00002527
     atom   23 type  1   force =     0.00053947    0.00031254    0.00017405
     atom   24 type  1   force =    -0.00009816    0.00008169    0.00002527
     atom   25 type  1   force =    -0.00002446    0.00056856   -0.00010620
     atom   26 type  1   force =     0.00057816    0.00031228    0.00028970
     atom   27 type  1   force =     0.00002446   -0.00056856    0.00010620
     atom   28 type  1   force =    -0.00057816   -0.00031228   -0.00028970
     atom   29 type  1   force =     0.00036431    0.00089471    0.00013964
     atom   30 type  1   force =    -0.00080004    0.00099766   -0.00039204
     atom   31 type  1   force =    -0.00036431   -0.00089471   -0.00013964
     atom   32 type  1   force =     0.00080004   -0.00099766    0.00039204
     atom   33 type  1   force =     0.00048612   -0.00185578   -0.00091272
     atom   34 type  1   force =    -0.00042972   -0.00196951    0.00093219
     atom   35 type  1   force =    -0.00048612    0.00185578    0.00091272
     atom   36 type  1   force =     0.00042972    0.00196951   -0.00093219
     atom   37 type  2   force =    -0.00043183    0.00564821    0.00082852
     atom   38 type  2   force =     0.00044075    0.00563284   -0.00084303
     atom   39 type  2   force =     0.00043183   -0.00564821   -0.00082852
     atom   40 type  2   force =    -0.00044075   -0.00563284    0.00084303
     atom   41 type  1   force =     0.00173324   -0.00294003    0.00010938
     atom   42 type  1   force =    -0.00174964   -0.00303730   -0.00011015
     atom   43 type  1   force =    -0.00173324    0.00294003   -0.00010938
     atom   44 type  1   force =     0.00174964    0.00303730    0.00011015
     atom   45 type  1   force =    -0.00205775    0.00228672   -0.00133940
     atom   46 type  1   force =     0.00205958    0.00239663    0.00133982
     atom   47 type  1   force =     0.00205775   -0.00228672    0.00133940
     atom   48 type  1   force =    -0.00205958   -0.00239663   -0.00133982
     atom   49 type  2   force =     0.00067960   -0.00174266    0.00077802
     atom   50 type  2   force =    -0.00067431   -0.00174190   -0.00078620
     atom   51 type  2   force =    -0.00067960    0.00174266   -0.00077802
     atom   52 type  2   force =     0.00067431    0.00174190    0.00078620
     atom   53 type  1   force =     0.00040839    0.00186165   -0.00082181
     atom   54 type  1   force =    -0.00041943    0.00175386    0.00082627
     atom   55 type  1   force =    -0.00040839   -0.00186165    0.00082181
     atom   56 type  1   force =     0.00041943   -0.00175386   -0.00082627
     atom   57 type  1   force =    -0.00089448   -0.00060571    0.00023485
     atom   58 type  1   force =     0.00097226   -0.00053962   -0.00022608
     atom   59 type  1   force =     0.00089448    0.00060571   -0.00023485
     atom   60 type  1   force =    -0.00097226    0.00053962    0.00022608
     atom   61 type  1   force =     0.00063951   -0.00046714    0.00079088
     atom   62 type  1   force =    -0.00070757   -0.00037677   -0.00081973
     atom   63 type  1   force =    -0.00063951    0.00046714   -0.00079088
     atom   64 type  1   force =     0.00070757    0.00037677    0.00081973
     atom   65 type  1   force =     0.00142014   -0.00017849   -0.00143175
     atom   66 type  1   force =    -0.00133622   -0.00028806    0.00143915
     atom   67 type  1   force =    -0.00142014    0.00017849    0.00143175
     atom   68 type  1   force =     0.00133622    0.00028806   -0.00143915
     atom   69 type  1   force =    -0.00032524   -0.00055529    0.00064808
     atom   70 type  1   force =     0.00021453   -0.00058558   -0.00066052
     atom   71 type  1   force =     0.00032524    0.00055529   -0.00064808
     atom   72 type  1   force =    -0.00021453    0.00058558    0.00066052
     atom   73 type  1   force =    -0.00030188   -0.00104359   -0.00026407
     atom   74 type  1   force =     0.00040758   -0.00097817    0.00027143
     atom   75 type  1   force =     0.00030188    0.00104359    0.00026407
     atom   76 type  1   force =    -0.00040758    0.00097817   -0.00027143
     atom   77 type  1   force =     0.00082327    0.00166854   -0.00020357
     atom   78 type  1   force =    -0.00087077    0.00171979    0.00021570
     atom   79 type  1   force =    -0.00082327   -0.00166854    0.00020357
     atom   80 type  1   force =     0.00087077   -0.00171979   -0.00021570
     atom   81 type  2   force =     0.00006726    0.00081849   -0.00083095
     atom   82 type  2   force =    -0.00005224    0.00080958    0.00079561
     atom   83 type  2   force =    -0.00006726   -0.00081849    0.00083095
     atom   84 type  2   force =     0.00005224   -0.00080958   -0.00079561
     atom   85 type  1   force =    -0.00099161    0.00092627    0.00063229
     atom   86 type  1   force =     0.00098804    0.00092461   -0.00061275
     atom   87 type  1   force =     0.00099161   -0.00092627   -0.00063229
     atom   88 type  1   force =    -0.00098804   -0.00092461    0.00061275
     atom   89 type  3   force =    -0.00034115   -0.00407381   -0.00025275
     atom   90 type  3   force =     0.00033665   -0.00404581    0.00024449
     atom   91 type  3   force =     0.00034115    0.00407381    0.00025275
     atom   92 type  3   force =    -0.00033665    0.00404581   -0.00024449
     atom   93 type  3   force =    -0.00028870    0.00029405    0.00036372
     atom   94 type  3   force =     0.00030923    0.00030110   -0.00037133
     atom   95 type  3   force =     0.00028870   -0.00029405   -0.00036372
     atom   96 type  3   force =    -0.00030923   -0.00030110    0.00037133
     atom   97 type  3   force =    -0.00054898    0.00031326   -0.00057354
     atom   98 type  3   force =     0.00054811    0.00031238    0.00057312
     atom   99 type  3   force =     0.00054898   -0.00031326    0.00057354
     atom  100 type  3   force =    -0.00054811   -0.00031238   -0.00057312
     atom  101 type  3   force =    -0.00014186    0.00035003    0.00050537
     atom  102 type  3   force =     0.00013363    0.00035427   -0.00049543
     atom  103 type  3   force =     0.00014186   -0.00035003   -0.00050537
     atom  104 type  3   force =    -0.00013363   -0.00035427    0.00049543
     atom  105 type  3   force =    -0.00020062    0.00011140    0.00050579
     atom  106 type  3   force =     0.00019575    0.00008762   -0.00050232
     atom  107 type  3   force =     0.00020062   -0.00011140   -0.00050579
     atom  108 type  3   force =    -0.00019575   -0.00008762    0.00050232
     atom  109 type  3   force =    -0.00020390    0.00106471   -0.00044092
     atom  110 type  3   force =     0.00017457    0.00107506    0.00044660
     atom  111 type  3   force =     0.00020390   -0.00106471    0.00044092
     atom  112 type  3   force =    -0.00017457   -0.00107506   -0.00044660
     atom  113 type  3   force =    -0.00007952   -0.00004665    0.00052730
     atom  114 type  3   force =     0.00010992   -0.00004360   -0.00046757
     atom  115 type  3   force =     0.00007952    0.00004665   -0.00052730
     atom  116 type  3   force =    -0.00010992    0.00004360    0.00046757
     atom  117 type  3   force =    -0.00037707   -0.00066443   -0.00032407
     atom  118 type  3   force =     0.00030615   -0.00062117    0.00033232
     atom  119 type  3   force =     0.00037707    0.00066443    0.00032407
     atom  120 type  3   force =    -0.00030615    0.00062117   -0.00033232
     atom  121 type  3   force =     0.00008631   -0.00011981    0.00001075
     atom  122 type  3   force =     0.00005401   -0.00013134    0.00008577
     atom  123 type  3   force =    -0.00008631    0.00011981   -0.00001075
     atom  124 type  3   force =    -0.00005401    0.00013134   -0.00008577
     atom  125 type  3   force =     0.00027098    0.00021920   -0.00004215
     atom  126 type  3   force =    -0.00030703    0.00023533    0.00000334
     atom  127 type  3   force =    -0.00027098   -0.00021920    0.00004215
     atom  128 type  3   force =     0.00030703   -0.00023533   -0.00000334
     atom  129 type  3   force =     0.00113147    0.00190868    0.00050670
     atom  130 type  3   force =    -0.00112853    0.00191444   -0.00052353
     atom  131 type  3   force =    -0.00113147   -0.00190868   -0.00050670
     atom  132 type  3   force =     0.00112853   -0.00191444    0.00052353
     atom  133 type  3   force =     0.00011580   -0.00005256    0.00006124
     atom  134 type  3   force =    -0.00012402   -0.00003413   -0.00008172
     atom  135 type  3   force =    -0.00011580    0.00005256   -0.00006124
     atom  136 type  3   force =     0.00012402    0.00003413    0.00008172
     atom  137 type  3   force =     0.00004710   -0.00025123    0.00027596
     atom  138 type  3   force =    -0.00004908   -0.00024558   -0.00027353
     atom  139 type  3   force =    -0.00004710    0.00025123   -0.00027596
     atom  140 type  3   force =     0.00004908    0.00024558    0.00027353
     atom  141 type  3   force =     0.00015148    0.00267558    0.00075867
     atom  142 type  3   force =    -0.00015969    0.00267320   -0.00074807
     atom  143 type  3   force =    -0.00015148   -0.00267558   -0.00075867
     atom  144 type  3   force =     0.00015969   -0.00267320    0.00074807
     atom  145 type  3   force =    -0.00027866   -0.00007094    0.00041746
     atom  146 type  3   force =     0.00027703   -0.00007330   -0.00041958
     atom  147 type  3   force =     0.00027866    0.00007094   -0.00041746
     atom  148 type  3   force =    -0.00027703    0.00007330    0.00041958
     atom  149 type  3   force =    -0.00069165   -0.00148884    0.00019253
     atom  150 type  3   force =     0.00070084   -0.00147131   -0.00019005
     atom  151 type  3   force =     0.00069165    0.00148884   -0.00019253
     atom  152 type  3   force =    -0.00070084    0.00147131    0.00019005
     atom  153 type  3   force =     0.00019507   -0.00017637    0.00070400
     atom  154 type  3   force =    -0.00019017   -0.00017400   -0.00069842
     atom  155 type  3   force =    -0.00019507    0.00017637   -0.00070400
     atom  156 type  3   force =     0.00019017    0.00017400    0.00069842
     atom  157 type  3   force =    -0.00075119   -0.00193737   -0.00044451
     atom  158 type  3   force =     0.00076274   -0.00195035    0.00045723
     atom  159 type  3   force =     0.00075119    0.00193737    0.00044451
     atom  160 type  3   force =    -0.00076274    0.00195035   -0.00045723
     atom  161 type  3   force =     0.00003330   -0.00010978   -0.00017780
     atom  162 type  3   force =    -0.00001542   -0.00011838    0.00017651
     atom  163 type  3   force =    -0.00003330    0.00010978    0.00017780
     atom  164 type  3   force =     0.00001542    0.00011838   -0.00017651
     atom  165 type  3   force =     0.00056085   -0.00007571    0.00017811
     atom  166 type  3   force =    -0.00058834   -0.00007972   -0.00018621
     atom  167 type  3   force =    -0.00056085    0.00007571   -0.00017811
     atom  168 type  3   force =     0.00058834    0.00007972    0.00018621
     atom  169 type  3   force =     0.00011251    0.00001627    0.00038672
     atom  170 type  3   force =    -0.00010532   -0.00000848   -0.00037354
     atom  171 type  3   force =    -0.00011251   -0.00001627   -0.00038672
     atom  172 type  3   force =     0.00010532    0.00000848    0.00037354
     atom  173 type  3   force =     0.00064315   -0.00014363   -0.00031841
     atom  174 type  3   force =    -0.00066779   -0.00014294    0.00033385
     atom  175 type  3   force =    -0.00064315    0.00014363    0.00031841
     atom  176 type  3   force =     0.00066779    0.00014294   -0.00033385
     atom  177 type  3   force =     0.00005727    0.00070274   -0.00003855
     atom  178 type  3   force =    -0.00006506    0.00069526    0.00003502
     atom  179 type  3   force =    -0.00005727   -0.00070274    0.00003855
     atom  180 type  3   force =     0.00006506   -0.00069526   -0.00003502
     atom  181 type  3   force =    -0.00028112   -0.00157058   -0.00022747
     atom  182 type  3   force =     0.00028683   -0.00157768    0.00022724
     atom  183 type  3   force =     0.00028112    0.00157058    0.00022747
     atom  184 type  3   force =    -0.00028683    0.00157768   -0.00022724

     Total force =     0.023486     Total SCF correction =     0.000076


     Computing stress (Cartesian axis) and pressure

          total   stress  (Ry/bohr**3)                   (kbar)     P=   -6.81
  -0.00003685  -0.00000006  -0.00000106         -5.42     -0.01     -0.16
  -0.00000006  -0.00005971   0.00000012         -0.01     -8.78      0.02
  -0.00000106   0.00000012  -0.00004226         -0.16      0.02     -6.22


     Writing output data file scf.save
 
     init_run     :     95.01s CPU     97.94s WALL (       1 calls)
     electrons    :   3911.43s CPU   4026.51s WALL (       1 calls)
     forces       :     50.94s CPU     51.48s WALL (       1 calls)
     stress       :    220.81s CPU    221.37s WALL (       1 calls)

     Called by init_run:
     wfcinit      :     76.15s CPU     78.75s WALL (       1 calls)
     potinit      :      6.58s CPU      6.67s WALL (       1 calls)

     Called by electrons:
     c_bands      :   3590.55s CPU   3686.94s WALL (      19 calls)
     sum_band     :    288.09s CPU    302.82s WALL (      19 calls)
     v_of_rho     :      4.01s CPU      4.43s WALL (      20 calls)
     newd         :     14.02s CPU     17.52s WALL (      20 calls)
     PAW_pot      :     13.83s CPU     13.84s WALL (      20 calls)
     mix_rho      :      1.00s CPU      1.06s WALL (      19 calls)

     Called by c_bands:
     init_us_2    :     13.16s CPU     13.24s WALL (     164 calls)
     cegterg      :   3540.24s CPU   3636.57s WALL (      76 calls)

     Called by sum_band:
     sum_band:bec :      0.12s CPU      0.12s WALL (      76 calls)
     addusdens    :     13.65s CPU     17.12s WALL (      19 calls)

     Called by *egterg:
     h_psi        :   1680.57s CPU   1758.94s WALL (     433 calls)
     s_psi        :    505.14s CPU    505.17s WALL (     433 calls)
     g_psi        :      7.03s CPU      7.03s WALL (     353 calls)
     cdiaghg      :    165.40s CPU    165.46s WALL (     429 calls)

     Called by h_psi:
     h_psi:pot    :   1671.39s CPU   1749.62s WALL (     433 calls)
     h_psi:calbec :    492.10s CPU    492.60s WALL (     433 calls)
     vloc_psi     :    675.85s CPU    753.52s WALL (     433 calls)
     add_vuspsi   :    503.43s CPU    503.49s WALL (     433 calls)

     General routines
     calbec       :    683.92s CPU    684.62s WALL (     529 calls)
     fft          :      3.14s CPU      3.85s WALL (     284 calls)
     fftw         :    700.91s CPU    789.31s WALL (  156350 calls)
 
     Parallel routines
     fft_scatter  :    123.23s CPU    211.66s WALL (  156634 calls)
 
     PWSCF        :     1h11m CPU        1h14m WALL

 
   This run was terminated on:   6:21: 7   4Nov2017            

=------------------------------------------------------------------------------=
   JOB DONE.
=------------------------------------------------------------------------------=
