
     Program PWSCF v.6.1 (svn rev. 13369) starts on  7Dec2017 at 17:14:15 

     This program is part of the open-source Quantum ESPRESSO suite
     for quantum simulation of materials; please cite
         "P. Giannozzi et al., J. Phys.:Condens. Matter 21 395502 (2009);
          URL http://www.quantum-espresso.org", 
     in publications or presentations arising from this work. More details at
     http://www.quantum-espresso.org/quote

     Parallel version (MPI), running on     8 processors
     R & G space division:  proc/nbgrp/npool/nimage =       8
     Waiting for input...
     Reading input from standard input

     Current dimensions of program PWSCF are:
     Max number of different atomic species (ntypx) = 10
     Max number of k-points (npk) =  40000
     Max angular momentum in pseudopotentials (lmaxx) =  3
               file C.pbe-n-kjpaw_psl.0.1.UPF: wavefunction(s)  2P renormalized
               file N.pbe-n-kjpaw_psl.0.1.UPF: wavefunction(s)  2P renormalized
               file H.pbe-kjpaw_psl.0.1.UPF: wavefunction(s)  1S renormalized
               file O.pbe-n-kjpaw_psl.0.1.UPF: wavefunction(s)  2P renormalized

     -------------------------------------
     Parameters for Dispersion Correction:
     -------------------------------------
       atom      VdW radius       C_6     

        C          2.744         60.710
        N          2.640         42.670
        H          1.892          4.857
        O          2.536         24.284

     Subspace diagonalization in iterative solution of the eigenvalue problem:
     a serial algorithm will be used

 
     Parallelization info
     --------------------
     sticks:   dense  smooth     PW     G-vecs:    dense   smooth      PW
     Min        1601    1601    429               101895   101895   14220
     Max        1602    1602    430               101898   101898   14222
     Sum       12815   12815   3437               815173   815173  113767
 


     bravais-lattice index     =            0
     lattice parameter (alat)  =      15.7792  a.u.
     unit-cell volume          =    6034.8735 (a.u.)^3
     number of atoms/cell      =           88
     number of atomic types    =            4
     number of electrons       =       280.00
     number of Kohn-Sham states=          168
     kinetic-energy cutoff     =     100.0000  Ry
     charge density cutoff     =     400.0000  Ry
     convergence threshold     =      1.0E-08
     mixing beta               =       0.5000
     number of iterations used =            8  plain     mixing
     Exchange-correlation      =  SLA  PW   PBX  PBC ( 1  4  3  4 0 0)

     celldm(1)=  15.779213  celldm(2)=   0.000000  celldm(3)=   0.000000
     celldm(4)=   0.000000  celldm(5)=   0.000000  celldm(6)=   0.000000

     crystal axes: (cart. coord. in units of alat)
               a(1) = (   1.000000   0.000000   0.000000 )  
               a(2) = (   0.000000   1.615689   0.000000 )  
               a(3) = (  -0.378973   0.000000   0.950724 )  

     reciprocal axes: (cart. coord. in units 2 pi/alat)
               b(1) = (  1.000000  0.000000  0.398616 )  
               b(2) = (  0.000000  0.618931  0.000000 )  
               b(3) = (  0.000000  0.000000  1.051830 )  


     PseudoPot. # 1 for  C read from file:
     /scratch/ahofstet/pseudo/C.pbe-n-kjpaw_psl.0.1.UPF
     MD5 check sum: 430fe95172b1e11ef3f8ed03bac87931
     Pseudo is Projector augmented-wave + core cor, Zval =  4.0
     Generated using "atomic" code by A. Dal Corso  v.5.0.99 svn rev. 10869
     Shape of augmentation charge: BESSEL
     Using radial grid of 1073 points,  4 beta functions with: 
                l(1) =   0
                l(2) =   0
                l(3) =   1
                l(4) =   1
     Q(r) pseudized with 0 coefficients 


     PseudoPot. # 2 for  N read from file:
     /scratch/ahofstet/pseudo/N.pbe-n-kjpaw_psl.0.1.UPF
     MD5 check sum: f73187c8b701007e77325f868c9291d7
     Pseudo is Projector augmented-wave + core cor, Zval =  5.0
     Generated using "atomic" code by A. Dal Corso  v.5.0.99 svn rev. 10869
     Shape of augmentation charge: PSQ
     Using radial grid of 1085 points,  4 beta functions with: 
                l(1) =   0
                l(2) =   0
                l(3) =   1
                l(4) =   1
     Q(r) pseudized with 0 coefficients 


     PseudoPot. # 3 for  H read from file:
     /scratch/ahofstet/pseudo/H.pbe-kjpaw_psl.0.1.UPF
     MD5 check sum: 94e484f906d9e9773b2f6e52662335b2
     Pseudo is Projector augmented-wave, Zval =  1.0
     Generated using "atomic" code by A. Dal Corso  v.5.0.99 svn rev. 10869
     Shape of augmentation charge: PSQ
     Using radial grid of  929 points,  2 beta functions with: 
                l(1) =   0
                l(2) =   0
     Q(r) pseudized with 0 coefficients 


     PseudoPot. # 4 for  O read from file:
     /scratch/ahofstet/pseudo/O.pbe-n-kjpaw_psl.0.1.UPF
     MD5 check sum: 3f94a2996a3169367d6eb21d9b593f20
     Pseudo is Projector augmented-wave + core cor, Zval =  6.0
     Generated using "atomic" code by A. Dal Corso  v.5.0.99 svn rev. 10869
     Shape of augmentation charge: BESSEL
     Using radial grid of 1095 points,  4 beta functions with: 
                l(1) =   0
                l(2) =   0
                l(3) =   1
                l(4) =   1
     Q(r) pseudized with 0 coefficients 


     atomic species   valence    mass     pseudopotential
        C              4.00    12.01070      C( 1.00)
        N              5.00    14.00670      N( 1.00)
        H              1.00     1.00794      H( 1.00)
        O              6.00    15.99940      O( 1.00)

      2 Sym. Ops., with inversion, found



   Cartesian axes

     site n.     atom                  positions (alat units)
         1           C   tau(   1) = (  -0.0175068   0.0967662   0.3867792  )
         2           C   tau(   2) = (   0.8280777   0.9051691   0.0885117  )
         3           C   tau(   3) = (   0.6385333   1.5189224   0.5639449  )
         4           C   tau(   4) = (  -0.2070512   0.7105195   0.8622123  )
         5           O   tau(   5) = (   0.2277457   1.4063161   0.5608048  )
         6           O   tau(   6) = (   0.2042889   0.5986081   0.8652692  )
         7           O   tau(   7) = (   0.3932808   0.2093726   0.3899192  )
         8           O   tau(   8) = (   0.4167376   1.0170806   0.0854548  )
         9           C   tau(   9) = (   0.0829723   1.6060024   0.4808838  )
        10           C   tau(  10) = (   0.3487573   0.7985372   0.9451935  )
        11           C   tau(  11) = (   0.5380542   0.0096862   0.4698402  )
        12           C   tau(  12) = (   0.2722692   0.8171514   0.0055305  )
        13           N   tau(  13) = (   0.1405048   1.4652618   0.4379610  )
        14           N   tau(  14) = (   0.6704406   0.6576720   0.0373782  )
        15           N   tau(  15) = (   0.4805217   0.1504269   0.5127630  )
        16           N   tau(  16) = (  -0.0494141   0.9580166   0.9133459  )
        17           C   tau(  17) = (  -0.0412985   0.2532412   0.4469777  )
        18           C   tau(  18) = (   0.8517644   1.0616156   0.0282018  )
        19           C   tau(  19) = (   0.6623250   1.3624474   0.5037463  )
        20           C   tau(  20) = (  -0.2307379   0.5540730   0.9225222  )
        21           C   tau(  21) = (   0.1314469   0.0332800   0.6381665  )
        22           C   tau(  22) = (   0.3001748   0.8414201   0.7878985  )
        23           C   tau(  23) = (   0.4895797   1.5824087   0.3125576  )
        24           C   tau(  24) = (   0.3208517   0.7742685   0.1628256  )
        25           N   tau(  25) = (   0.2214668   1.5340346   0.6974027  )
        26           N   tau(  26) = (   0.2103399   0.7263534   0.7286683  )
        27           N   tau(  27) = (   0.3995597   0.0816540   0.2533213  )
        28           N   tau(  28) = (   0.4106867   0.8893352   0.2220557  )
        29           C   tau(  29) = (   0.8573607   0.3558189   0.3619234  )
        30           C   tau(  30) = (  -0.0469180   1.1643282   0.1130682  )
        31           C   tau(  31) = (  -0.2363342   1.2598697   0.5888006  )
        32           C   tau(  32) = (   0.6679445   0.4513604   0.8376558  )
        33           H   tau(  33) = (   0.8357854   0.4760038   0.4086464  )
        34           H   tau(  34) = (  -0.0253672   1.2844470   0.0661812  )
        35           H   tau(  35) = (  -0.2147589   1.1396848   0.5420777  )
        36           H   tau(  36) = (   0.6463937   0.3312416   0.8845429  )
        37           C   tau(  37) = (  -0.0917364   0.0473717   0.2444943  )
        38           C   tau(  38) = (   0.9023069   0.8560097   0.2308941  )
        39           C   tau(  39) = (   0.7127629   1.5683169   0.7062298  )
        40           C   tau(  40) = (  -0.2812803   0.7596790   0.7198300  )
        41           H   tau(  41) = (  -0.0712256   1.5413655   0.2018067  )
        42           H   tau(  42) = (   0.8818596   0.7343849   0.2737510  )
        43           H   tau(  43) = (   0.6922521   0.0743231   0.7489173  )
        44           H   tau(  44) = (  -0.2608331   0.8813037   0.6769730  )
        45           C   tau(  45) = (   0.0844774   0.1842254   0.7198487  )
        46           C   tau(  46) = (   0.3470081   0.9923460   0.7061376  )
        47           C   tau(  47) = (   0.5365491   1.4314632   0.2308753  )
        48           C   tau(  48) = (   0.2740185   0.6233427   0.2445865  )
        49           H   tau(  49) = (  -0.0217114   0.1605511   0.7943276  )
        50           H   tau(  50) = (   0.4532146   0.9687205   0.6316620  )
        51           H   tau(  51) = (   0.6427379   1.4551375   0.1563964  )
        52           H   tau(  52) = (   0.1678119   0.6469681   0.3190620  )
        53           H   tau(  53) = (   0.1799183   0.2240453   0.8013060  )
        54           H   tau(  54) = (   0.2515376   1.0320802   0.6246644  )
        55           H   tau(  55) = (   0.4411082   1.3916433   0.1494181  )
        56           H   tau(  56) = (   0.3694889   0.5836084   0.3260596  )
        57           C   tau(  57) = (   0.7828572   0.3065040   0.2207241  )
        58           C   tau(  58) = (   0.0276776   1.1152483   0.2543377  )
        59           C   tau(  59) = (  -0.1618306   1.3091846   0.7299999  )
        60           C   tau(  60) = (   0.5933489   0.5004404   0.6963864  )
        61           H   tau(  61) = (   0.7054987   0.3901314   0.1572784  )
        62           H   tau(  62) = (   0.1050095   1.1989280   0.3176295  )
        63           H   tau(  63) = (  -0.0844721   1.2255573   0.7934457  )
        64           H   tau(  64) = (   0.5160171   0.4167606   0.6330945  )
        65           C   tau(  65) = (   0.8090380   0.1521092   0.1612207  )
        66           C   tau(  66) = (   0.0014985   0.9608912   0.3140645  )
        67           C   tau(  67) = (  -0.1880115   1.4635794   0.7895034  )
        68           C   tau(  68) = (   0.6195280   0.6547974   0.6366595  )
        69           H   tau(  69) = (   0.7511648   0.1121616   0.0510527  )
        70           H   tau(  70) = (   0.0593641   0.9211020   0.4242537  )
        71           H   tau(  71) = (  -0.1301383   1.5035271   0.8996714  )
        72           H   tau(  72) = (   0.5616624   0.6945866   0.5264703  )
        73           C   tau(  73) = (   0.0472093   0.3132269   0.5934199  )
        74           C   tau(  74) = (   0.3841775   1.1214374   0.8324817  )
        75           C   tau(  75) = (   0.5738172   1.3024618   0.3573041  )
        76           C   tau(  76) = (   0.2368490   0.4942512   0.1182424  )
        77           H   tau(  77) = (   0.1610595   0.3663433   0.5527989  )
        78           H   tau(  78) = (   0.2702926   1.1744549   0.8731478  )
        79           H   tau(  79) = (   0.4599670   1.2493454   0.3979251  )
        80           H   tau(  80) = (   0.3507339   0.4412337   0.0775763  )
        81           H   tau(  81) = (  -0.0209995   0.4107698   0.6492904  )
        82           H   tau(  82) = (   0.4522517   1.2190376   0.7765642  )
        83           H   tau(  83) = (   0.6420261   1.2049188   0.3014337  )
        84           H   tau(  84) = (   0.1687749   0.3966510   0.1741599  )
        85           O   tau(  85) = (   0.2956820   1.5083906   0.8209605  )
        86           O   tau(  86) = (   0.1361612   0.7006181   0.6050972  )
        87           O   tau(  87) = (   0.3253445   0.1072981   0.1297636  )
        88           O   tau(  88) = (   0.4848654   0.9150706   0.3456269  )

     number of k points=     8
                       cart. coord. in units 2pi/alat
        k(    1) = (   0.0000000   0.0000000   0.0000000), wk =   0.2500000
        k(    2) = (   0.0000000   0.0000000  -0.5259150), wk =   0.2500000
        k(    3) = (   0.0000000  -0.3094656   0.0000000), wk =   0.2500000
        k(    4) = (   0.0000000  -0.3094656  -0.5259150), wk =   0.2500000
        k(    5) = (  -0.5000000   0.0000000  -0.1993078), wk =   0.2500000
        k(    6) = (  -0.5000000   0.0000000  -0.7252228), wk =   0.2500000
        k(    7) = (  -0.5000000  -0.3094656  -0.1993078), wk =   0.2500000
        k(    8) = (  -0.5000000  -0.3094656  -0.7252228), wk =   0.2500000

     Dense  grid:   815173 G-vectors     FFT dimensions: ( 108, 180, 108)

     Estimated max dynamical RAM per process >     733.89MB

     Estimated total allocated dynamical RAM >    5871.09MB

     Check: negative/imaginary core charge=   -0.000002    0.000000

     Initial potential from superposition of free atoms

     starting charge  279.99796, renormalised to  280.00000
     Starting wfc are  256 randomized atomic wfcs
     Checking if some PAW data can be deallocated... 

     total cpu time spent up to now is       51.7 secs

     per-process dynamical memory:   515.8 Mb

     Self-consistent Calculation

     iteration #  1     ecut=   100.00 Ry     beta=0.50
     Davidson diagonalization with overlap
     ethr =  1.00E-02,  avg # of iterations =  4.2

     total cpu time spent up to now is      188.6 secs

     total energy              =   -1331.90909050 Ry
     Harris-Foulkes estimate   =   -1336.88633375 Ry
     estimated scf accuracy    <       9.30953971 Ry

     iteration #  2     ecut=   100.00 Ry     beta=0.50
     Davidson diagonalization with overlap
     ethr =  3.32E-03,  avg # of iterations =  1.4

     total cpu time spent up to now is      255.2 secs

     total energy              =   -1331.92802135 Ry
     Harris-Foulkes estimate   =   -1332.95583580 Ry
     estimated scf accuracy    <       1.91570533 Ry

     iteration #  3     ecut=   100.00 Ry     beta=0.50
     Davidson diagonalization with overlap
     ethr =  6.84E-04,  avg # of iterations =  5.1

     total cpu time spent up to now is      404.4 secs

     total energy              =   -1333.32129114 Ry
     Harris-Foulkes estimate   =   -1334.11618853 Ry
     estimated scf accuracy    <       2.14366087 Ry

     iteration #  4     ecut=   100.00 Ry     beta=0.50
     Davidson diagonalization with overlap
     ethr =  6.84E-04,  avg # of iterations =  2.0

     total cpu time spent up to now is      472.2 secs

     total energy              =   -1333.31298989 Ry
     Harris-Foulkes estimate   =   -1333.53572545 Ry
     estimated scf accuracy    <       0.61011360 Ry

     iteration #  5     ecut=   100.00 Ry     beta=0.50
     Davidson diagonalization with overlap
     ethr =  2.18E-04,  avg # of iterations =  6.4

     total cpu time spent up to now is      582.1 secs

     total energy              =   -1333.51836500 Ry
     Harris-Foulkes estimate   =   -1333.53739627 Ry
     estimated scf accuracy    <       0.07731868 Ry

     iteration #  6     ecut=   100.00 Ry     beta=0.50
     Davidson diagonalization with overlap
     ethr =  2.76E-05,  avg # of iterations =  9.0

     total cpu time spent up to now is      677.8 secs

     total energy              =   -1333.52466326 Ry
     Harris-Foulkes estimate   =   -1333.53808308 Ry
     estimated scf accuracy    <       0.02935240 Ry

     iteration #  7     ecut=   100.00 Ry     beta=0.50
     Davidson diagonalization with overlap
     ethr =  1.05E-05,  avg # of iterations =  2.5

     total cpu time spent up to now is      748.5 secs

     total energy              =   -1333.52489516 Ry
     Harris-Foulkes estimate   =   -1333.52820577 Ry
     estimated scf accuracy    <       0.00545805 Ry

     iteration #  8     ecut=   100.00 Ry     beta=0.50
     Davidson diagonalization with overlap
     ethr =  1.95E-06,  avg # of iterations =  5.1

     total cpu time spent up to now is      898.3 secs

     total energy              =   -1333.52901298 Ry
     Harris-Foulkes estimate   =   -1333.52964911 Ry
     estimated scf accuracy    <       0.00183223 Ry

     iteration #  9     ecut=   100.00 Ry     beta=0.50
     Davidson diagonalization with overlap
     c_bands:  1 eigenvalues not converged
     c_bands:  2 eigenvalues not converged
     ethr =  6.54E-07,  avg # of iterations =  5.8

     total cpu time spent up to now is      970.7 secs

     total energy              =   -1333.52878389 Ry
     Harris-Foulkes estimate   =   -1333.52908075 Ry
     estimated scf accuracy    <       0.00061210 Ry

     iteration # 10     ecut=   100.00 Ry     beta=0.50
     Davidson diagonalization with overlap
     ethr =  2.19E-07,  avg # of iterations =  6.1

     total cpu time spent up to now is     1096.3 secs

     total energy              =   -1333.52907281 Ry
     Harris-Foulkes estimate   =   -1333.52916119 Ry
     estimated scf accuracy    <       0.00029317 Ry

     iteration # 11     ecut=   100.00 Ry     beta=0.50
     Davidson diagonalization with overlap
     ethr =  1.05E-07,  avg # of iterations =  1.0

     total cpu time spent up to now is     1161.9 secs

     total energy              =   -1333.52907086 Ry
     Harris-Foulkes estimate   =   -1333.52909336 Ry
     estimated scf accuracy    <       0.00009529 Ry

     iteration # 12     ecut=   100.00 Ry     beta=0.50
     Davidson diagonalization with overlap
     ethr =  3.40E-08,  avg # of iterations =  3.0

     total cpu time spent up to now is     1237.3 secs

     total energy              =   -1333.52906589 Ry
     Harris-Foulkes estimate   =   -1333.52908447 Ry
     estimated scf accuracy    <       0.00002841 Ry

     iteration # 13     ecut=   100.00 Ry     beta=0.50
     Davidson diagonalization with overlap
     ethr =  1.01E-08,  avg # of iterations =  4.0

     total cpu time spent up to now is     1372.3 secs

     total energy              =   -1333.52908625 Ry
     Harris-Foulkes estimate   =   -1333.52909911 Ry
     estimated scf accuracy    <       0.00003574 Ry

     iteration # 14     ecut=   100.00 Ry     beta=0.50
     Davidson diagonalization with overlap
     ethr =  1.01E-08,  avg # of iterations =  1.0

     total cpu time spent up to now is     1437.6 secs

     total energy              =   -1333.52908212 Ry
     Harris-Foulkes estimate   =   -1333.52908743 Ry
     estimated scf accuracy    <       0.00001328 Ry

     iteration # 15     ecut=   100.00 Ry     beta=0.50
     Davidson diagonalization with overlap
     ethr =  4.74E-09,  avg # of iterations =  4.0

     total cpu time spent up to now is     1544.4 secs

     total energy              =   -1333.52908799 Ry
     Harris-Foulkes estimate   =   -1333.52908802 Ry
     estimated scf accuracy    <       0.00000057 Ry

     iteration # 16     ecut=   100.00 Ry     beta=0.50
     Davidson diagonalization with overlap
     ethr =  2.05E-10,  avg # of iterations =  3.0

     total cpu time spent up to now is     1621.2 secs

     total energy              =   -1333.52908787 Ry
     Harris-Foulkes estimate   =   -1333.52908808 Ry
     estimated scf accuracy    <       0.00000053 Ry

     iteration # 17     ecut=   100.00 Ry     beta=0.50
     Davidson diagonalization with overlap
     ethr =  1.89E-10,  avg # of iterations =  2.6

     total cpu time spent up to now is     1689.5 secs

     total energy              =   -1333.52908786 Ry
     Harris-Foulkes estimate   =   -1333.52908791 Ry
     estimated scf accuracy    <       0.00000019 Ry

     iteration # 18     ecut=   100.00 Ry     beta=0.50
     Davidson diagonalization with overlap
     ethr =  6.68E-11,  avg # of iterations =  4.0

     total cpu time spent up to now is     1796.0 secs

     total energy              =   -1333.52908792 Ry
     Harris-Foulkes estimate   =   -1333.52908792 Ry
     estimated scf accuracy    <       0.00000003 Ry

     iteration # 19     ecut=   100.00 Ry     beta=0.50
     Davidson diagonalization with overlap
     ethr =  9.57E-12,  avg # of iterations =  1.8

     total cpu time spent up to now is     1862.6 secs

     total energy              =   -1333.52908792 Ry
     Harris-Foulkes estimate   =   -1333.52908792 Ry
     estimated scf accuracy    <       0.00000002 Ry

     iteration # 20     ecut=   100.00 Ry     beta=0.50
     Davidson diagonalization with overlap
     ethr =  5.65E-12,  avg # of iterations =  4.1

     total cpu time spent up to now is     1941.3 secs

     total energy              =   -1333.52908792 Ry
     Harris-Foulkes estimate   =   -1333.52908792 Ry
     estimated scf accuracy    <       0.00000001 Ry

     iteration # 21     ecut=   100.00 Ry     beta=0.50
     Davidson diagonalization with overlap
     ethr =  3.58E-12,  avg # of iterations =  5.0

     total cpu time spent up to now is     2034.2 secs

     End of self-consistent calculation

          k = 0.0000 0.0000 0.0000 (101883 PWs)   bands (ev):

   -23.4435 -23.4393 -23.4142 -23.4102 -21.5054 -21.5019 -21.4956 -21.4921
   -16.1365 -16.1194 -16.1194 -16.1115 -15.2186 -15.2125 -15.2122 -15.1863
   -14.5510 -14.5198 -14.5127 -14.4973 -13.3707 -13.3601 -13.3465 -13.3418
   -12.2181 -12.1763 -12.1645 -12.1271 -11.9621 -11.9233 -11.8537 -11.8275
   -10.1301 -10.0919 -10.0466  -9.9953  -9.7560  -9.7415  -9.7364  -9.7275
    -8.8932  -8.8564  -8.7990  -8.7853  -8.0919  -8.0842  -8.0522  -7.9867
    -7.6023  -7.5330  -7.5232  -7.5071  -6.6490  -6.6283  -6.6258  -6.6106
    -6.6094  -6.6037  -6.1913  -6.1586  -6.1012  -6.0875  -5.9801  -5.9682
    -5.3064  -5.2794  -5.1698  -5.1648  -5.1523  -5.1242  -5.0966  -4.9206
    -4.8743  -4.8647  -4.7145  -4.6842  -4.4523  -4.4386  -4.4027  -4.3501
    -4.0370  -4.0216  -3.9163  -3.9012  -3.8943  -3.8206  -3.8172  -3.7673
    -3.5715  -3.5237  -3.4942  -3.4813  -3.2988  -3.2616  -3.1235  -3.0987
    -2.9120  -2.9086  -2.8858  -2.8517  -2.8317  -2.7592  -2.7451  -2.6600
    -2.6055  -2.5314  -2.4247  -2.3175  -2.3109  -2.3076  -2.2160  -2.0696
    -1.8052  -1.8011  -1.6729  -1.6493  -1.5682  -1.5334  -1.4797  -1.4414
    -1.4271  -1.3701  -1.0577  -0.9707  -0.3523  -0.3414  -0.2970  -0.2641
     0.1222   0.1273   0.1487   0.1626   0.3428   0.4920   0.6433   0.7014
     0.7678   0.7807   0.8882   0.9525   3.9534   3.9543   4.0050   4.0855
     4.8391   4.9263   4.9315   5.1215   5.1243   5.1517   5.1880   5.2035
     5.2140   5.3858   5.4465   5.6002   6.4748   6.7462   6.8835   7.0122
     7.1032   7.1427   7.1646   7.4228   7.6340   7.6493   7.8566   7.9230

          k = 0.0000 0.0000-0.5259 (101878 PWs)   bands (ev):

   -23.4411 -23.4369 -23.4167 -23.4126 -21.5037 -21.5001 -21.4973 -21.4939
   -16.1290 -16.1281 -16.1167 -16.1158 -15.2066 -15.2044 -15.1951 -15.1931
   -14.5431 -14.5404 -14.5135 -14.5108 -13.3915 -13.3902 -13.3517 -13.3508
   -12.1913 -12.1896 -12.1442 -12.1427 -11.8875 -11.8856 -11.8298 -11.8292
   -10.1261 -10.1243 -10.0339 -10.0327  -9.8216  -9.8205  -9.7313  -9.7309
    -8.8442  -8.8424  -8.7918  -8.7897  -8.0499  -8.0495  -7.9573  -7.9569
    -7.6099  -7.6085  -7.5141  -7.5131  -6.8659  -6.8651  -6.8081  -6.8077
    -6.5450  -6.5407  -6.1415  -6.1395  -5.8698  -5.8687  -5.8084  -5.8065
    -5.3380  -5.3359  -5.1944  -5.1941  -5.0925  -5.0916  -5.0234  -5.0228
    -4.8347  -4.8321  -4.6804  -4.6795  -4.4001  -4.3977  -4.3439  -4.3417
    -4.0592  -4.0590  -3.8557  -3.8532  -3.8178  -3.8159  -3.7848  -3.7841
    -3.5826  -3.5824  -3.4313  -3.4306  -3.3854  -3.3841  -3.3081  -3.3075
    -3.0457  -3.0444  -2.9303  -2.9301  -2.7408  -2.7393  -2.7060  -2.7059
    -2.5269  -2.5262  -2.3738  -2.3725  -2.3491  -2.3482  -2.1128  -2.1117
    -1.7974  -1.7973  -1.6252  -1.6242  -1.5868  -1.5862  -1.5145  -1.5142
    -1.3760  -1.3733  -1.0131  -1.0128  -0.2397  -0.2384  -0.2275  -0.2260
     0.0835   0.0843   0.2193   0.2215   0.4631   0.4643   0.4997   0.5008
     0.7828   0.7830   0.9669   0.9688   3.9660   3.9665   4.0370   4.0375
     4.9015   4.9026   5.0755   5.0763   5.1942   5.1942   5.2013   5.2019
     5.2801   5.2822   5.4119   5.4120   6.6941   6.6969   6.8669   6.8670
     7.0911   7.0929   7.3243   7.3260   7.4773   7.4782   7.9857   7.9876

          k = 0.0000-0.3095 0.0000 (101894 PWs)   bands (ev):

   -23.4435 -23.4393 -23.4142 -23.4102 -21.5054 -21.5019 -21.4956 -21.4921
   -16.1294 -16.1272 -16.1163 -16.1140 -15.2180 -15.2158 -15.1990 -15.1970
   -14.5399 -14.5376 -14.5025 -14.5001 -13.3592 -13.3587 -13.3513 -13.3502
   -12.2055 -12.2039 -12.1393 -12.1380 -11.9458 -11.9438 -11.8384 -11.8377
   -10.0924 -10.0909 -10.0486 -10.0477  -9.7471  -9.7465  -9.7255  -9.7254
    -8.8768  -8.8736  -8.7928  -8.7901  -8.0755  -8.0740  -8.0375  -8.0359
    -7.5688  -7.5678  -7.5154  -7.5140  -6.6360  -6.6353  -6.6224  -6.6188
    -6.5996  -6.5995  -6.1810  -6.1770  -6.0956  -6.0925  -5.9759  -5.9725
    -5.3093  -5.3072  -5.1708  -5.1700  -5.1235  -5.1234  -4.9983  -4.9982
    -4.8967  -4.8946  -4.6893  -4.6885  -4.4376  -4.4355  -4.3947  -4.3932
    -3.9397  -3.9397  -3.9115  -3.9110  -3.8877  -3.8856  -3.8217  -3.8194
    -3.5479  -3.5470  -3.4956  -3.4953  -3.3052  -3.3039  -3.1111  -3.1106
    -2.8919  -2.8906  -2.8688  -2.8688  -2.8011  -2.8007  -2.6921  -2.6910
    -2.5365  -2.5362  -2.4558  -2.4546  -2.3148  -2.3133  -2.1179  -2.1170
    -1.7240  -1.7234  -1.6995  -1.6988  -1.5324  -1.5313  -1.5059  -1.5058
    -1.3848  -1.3818  -1.0185  -1.0180  -0.3473  -0.3452  -0.2809  -0.2787
     0.1040   0.1049   0.1678   0.1691   0.4200   0.4203   0.6729   0.6755
     0.7606   0.7609   0.9333   0.9353   3.9781   3.9794   4.0182   4.0192
     4.8804   4.8823   5.0348   5.0375   5.1368   5.1368   5.1967   5.1971
     5.2486   5.2503   5.5709   5.5721   6.5470   6.5485   7.0321   7.0323
     7.0368   7.0373   7.4538   7.4540   7.7131   7.7149   7.8139   7.8140

          k = 0.0000-0.3095-0.5259 (101816 PWs)   bands (ev):

   -23.4411 -23.4369 -23.4167 -23.4126 -21.5037 -21.5001 -21.4973 -21.4939
   -16.1260 -16.1237 -16.1212 -16.1189 -15.2061 -15.2036 -15.1959 -15.1936
   -14.5417 -14.5387 -14.5151 -14.5120 -13.3871 -13.3853 -13.3567 -13.3554
   -12.1891 -12.1872 -12.1456 -12.1440 -11.8873 -11.8854 -11.8312 -11.8306
   -10.1215 -10.1196 -10.0394 -10.0380  -9.7924  -9.7899  -9.7625  -9.7606
    -8.8421  -8.8401  -8.7945  -8.7923  -8.0145  -8.0129  -7.9917  -7.9902
    -7.5989  -7.5969  -7.5232  -7.5214  -6.8468  -6.8436  -6.8347  -6.8316
    -6.5450  -6.5407  -6.1444  -6.1424  -5.8677  -5.8665  -5.8089  -5.8070
    -5.3533  -5.3516  -5.2317  -5.2314  -5.0315  -5.0313  -5.0183  -5.0178
    -4.8342  -4.8314  -4.6855  -4.6846  -4.4010  -4.3985  -4.3325  -4.3302
    -3.9425  -3.9400  -3.9346  -3.9326  -3.8565  -3.8541  -3.8121  -3.8099
    -3.5146  -3.5140  -3.5129  -3.5121  -3.3781  -3.3764  -3.3141  -3.3140
    -3.0189  -3.0171  -2.9554  -2.9548  -2.7595  -2.7577  -2.6852  -2.6840
    -2.4772  -2.4750  -2.4210  -2.4197  -2.3570  -2.3545  -2.1133  -2.1125
    -1.6928  -1.6919  -1.6620  -1.6606  -1.5841  -1.5821  -1.5614  -1.5589
    -1.3857  -1.3827  -1.0059  -1.0053  -0.2408  -0.2393  -0.2287  -0.2272
     0.1053   0.1074   0.1855   0.1894   0.4788   0.4817   0.4969   0.4980
     0.7869   0.7876   0.9604   0.9625   3.9834   3.9851   4.0214   4.0226
     4.9106   4.9119   5.0521   5.0533   5.1857   5.1871   5.1989   5.1993
     5.3082   5.3101   5.4044   5.4047   6.7122   6.7157   6.8368   6.8372
     7.0920   7.0936   7.2321   7.2345   7.7181   7.7208   7.8353   7.8356

          k =-0.5000 0.0000-0.1993 (101902 PWs)   bands (ev):

   -23.4434 -23.4393 -23.4143 -23.4102 -21.5053 -21.5018 -21.4957 -21.4923
   -16.1658 -16.1499 -16.0911 -16.0835 -15.2320 -15.2183 -15.1781 -15.1723
   -14.5466 -14.5264 -14.5168 -14.5113 -13.4285 -13.3863 -13.3421 -13.3274
   -12.1963 -12.1725 -12.1565 -12.1462 -11.9001 -11.8612 -11.8458 -11.8253
   -10.1215 -10.0825 -10.0765 -10.0300  -9.8312  -9.8115  -9.7686  -9.7049
    -8.8385  -8.8365  -8.8112  -8.7750  -8.0508  -8.0448  -7.9888  -7.9323
    -7.6163  -7.5669  -7.5623  -7.5059  -6.9117  -6.8341  -6.8298  -6.8030
    -6.5669  -6.5308  -6.0640  -6.0492  -5.9101  -5.8866  -5.7969  -5.7897
    -5.3314  -5.2874  -5.2488  -5.1819  -5.1382  -5.1253  -5.0657  -4.9822
    -4.7901  -4.7802  -4.7423  -4.7293  -4.4138  -4.3785  -4.3500  -4.3090
    -4.0654  -4.0563  -3.9584  -3.9513  -3.8587  -3.8072  -3.7808  -3.7745
    -3.6006  -3.5227  -3.4440  -3.4173  -3.3825  -3.3391  -3.3192  -3.3073
    -3.0353  -3.0030  -2.9960  -2.9826  -2.8518  -2.7917  -2.6442  -2.5973
    -2.5341  -2.5194  -2.4052  -2.3571  -2.2889  -2.2615  -2.1712  -2.0876
    -1.7846  -1.7756  -1.6397  -1.6081  -1.5948  -1.5918  -1.5235  -1.5232
    -1.2518  -1.1701  -1.1220  -1.0653  -0.3003  -0.2766  -0.2295  -0.2076
     0.0511   0.1172   0.2734   0.2854   0.4402   0.4468   0.4777   0.6178
     0.7597   0.7647   0.9355   0.9424   3.9161   3.9188   3.9637   4.0356
     4.8832   4.9246   5.0516   5.0732   5.1157   5.1664   5.1959   5.1987
     5.2585   5.3013   5.3772   5.5726   6.7362   6.8670   6.9224   6.9947
     7.0434   7.1709   7.3899   7.4703   7.4773   7.6014   7.6863   7.7611

          k =-0.5000 0.0000-0.7252 (101960 PWs)   bands (ev):

   -23.4410 -23.4369 -23.4167 -23.4127 -21.5036 -21.5000 -21.4974 -21.4940
   -16.1501 -16.1477 -16.0957 -16.0937 -15.2291 -15.2267 -15.1881 -15.1859
   -14.5282 -14.5258 -14.5133 -14.5108 -13.3836 -13.3816 -13.3280 -13.3272
   -12.1797 -12.1778 -12.1662 -12.1644 -11.9257 -11.9238 -11.8590 -11.8581
   -10.1135 -10.1129 -10.0175 -10.0171  -9.7510  -9.7503  -9.7323  -9.7319
    -8.8699  -8.8670  -8.8029  -8.8004  -8.0846  -8.0842  -8.0183  -8.0178
    -7.6012  -7.6001  -7.4810  -7.4800  -6.6469  -6.6463  -6.6112  -6.6103
    -6.5303  -6.5267  -6.3015  -6.2984  -6.0087  -6.0054  -5.9964  -5.9941
    -5.2763  -5.2760  -5.2199  -5.2191  -5.1358  -5.1357  -4.9869  -4.9864
    -4.8245  -4.8232  -4.7923  -4.7905  -4.4508  -4.4488  -4.3376  -4.3366
    -4.0323  -4.0317  -3.9971  -3.9955  -3.8452  -3.8450  -3.7244  -3.7223
    -3.5519  -3.5518  -3.5275  -3.5271  -3.2871  -3.2855  -3.1217  -3.1214
    -2.9342  -2.9340  -2.8954  -2.8945  -2.8192  -2.8178  -2.6932  -2.6913
    -2.5683  -2.5672  -2.3113  -2.3111  -2.2540  -2.2527  -2.1605  -2.1595
    -1.8118  -1.8115  -1.6546  -1.6545  -1.5442  -1.5441  -1.4742  -1.4742
    -1.2207  -1.2198  -1.0877  -1.0845  -0.3172  -0.3168  -0.2937  -0.2934
     0.0169   0.0188   0.2719   0.2750   0.3555   0.3556   0.6498   0.6504
     0.7247   0.7280   0.9891   0.9906   3.8896   3.8906   4.0821   4.0834
     4.9395   4.9413   5.0047   5.0060   5.1186   5.1211   5.1837   5.1837
     5.2553   5.2560   5.4946   5.4948   6.7392   6.7402   6.9402   6.9417
     7.1541   7.1558   7.2846   7.2864   7.3876   7.3900   8.0422   8.0436

          k =-0.5000-0.3095-0.1993 (101936 PWs)   bands (ev):

   -23.4434 -23.4393 -23.4143 -23.4102 -21.5053 -21.5018 -21.4957 -21.4923
   -16.1592 -16.1567 -16.0883 -16.0862 -15.2270 -15.2245 -15.1757 -15.1735
   -14.5377 -14.5367 -14.5138 -14.5128 -13.4094 -13.4074 -13.3345 -13.3334
   -12.1850 -12.1846 -12.1498 -12.1494 -11.8874 -11.8857 -11.8314 -11.8309
   -10.1037 -10.1020 -10.0541 -10.0525  -9.8033  -9.8014  -9.7569  -9.7554
    -8.8403  -8.8386  -8.7924  -8.7905  -8.0223  -8.0219  -7.9847  -7.9843
    -7.5858  -7.5854  -7.5365  -7.5363  -6.8642  -6.8615  -6.8351  -6.8321
    -6.5513  -6.5473  -6.0600  -6.0574  -5.8970  -5.8963  -5.7933  -5.7917
    -5.3251  -5.3249  -5.2527  -5.2519  -5.1112  -5.1109  -4.9834  -4.9834
    -4.7785  -4.7770  -4.7414  -4.7393  -4.3971  -4.3946  -4.3261  -4.3242
    -3.9709  -3.9691  -3.9339  -3.9321  -3.9125  -3.9112  -3.8350  -3.8324
    -3.5172  -3.5162  -3.4846  -3.4833  -3.3585  -3.3585  -3.3179  -3.3165
    -3.0121  -3.0116  -2.9898  -2.9896  -2.8300  -2.8281  -2.6329  -2.6328
    -2.4686  -2.4675  -2.4335  -2.4326  -2.2921  -2.2903  -2.1155  -2.1149
    -1.6846  -1.6839  -1.6417  -1.6412  -1.5904  -1.5890  -1.5604  -1.5586
    -1.2416  -1.2406  -1.0832  -1.0804  -0.2891  -0.2877  -0.2208  -0.2193
     0.0860   0.0874   0.2757   0.2772   0.4288   0.4310   0.5648   0.5655
     0.7589   0.7617   0.9375   0.9388   3.9381   3.9388   3.9819   3.9829
     4.9147   4.9157   5.0265   5.0290   5.1721   5.1725   5.2075   5.2079
     5.2265   5.2278   5.5042   5.5052   6.7863   6.7870   6.9945   6.9965
     7.0710   7.0733   7.3687   7.3700   7.6670   7.6702   7.6955   7.6970

          k =-0.5000-0.3095-0.7252 (101904 PWs)   bands (ev):

   -23.4410 -23.4369 -23.4167 -23.4127 -21.5036 -21.5000 -21.4974 -21.4940
   -16.1494 -16.1469 -16.0966 -16.0945 -15.2278 -15.2251 -15.1897 -15.1873
   -14.5271 -14.5242 -14.5146 -14.5117 -13.3808 -13.3788 -13.3311 -13.3302
   -12.1790 -12.1771 -12.1672 -12.1655 -11.9259 -11.9241 -11.8583 -11.8574
   -10.0856 -10.0840 -10.0546 -10.0531  -9.7421  -9.7401  -9.7337  -9.7321
    -8.8678  -8.8646  -8.8048  -8.8020  -8.0600  -8.0581  -8.0482  -8.0462
    -7.5951  -7.5938  -7.4880  -7.4868  -6.6409  -6.6401  -6.6114  -6.6104
    -6.5300  -6.5265  -6.3016  -6.2985  -6.0100  -6.0061  -5.9978  -5.9948
    -5.2648  -5.2635  -5.2419  -5.2401  -5.1134  -5.1129  -4.9933  -4.9928
    -4.8441  -4.8425  -4.7944  -4.7925  -4.4520  -4.4499  -4.3400  -4.3386
    -4.0020  -3.9997  -3.9302  -3.9284  -3.9024  -3.9006  -3.7422  -3.7395
    -3.5489  -3.5478  -3.5325  -3.5314  -3.2764  -3.2748  -3.1372  -3.1370
    -2.9504  -2.9487  -2.9030  -2.9021  -2.7896  -2.7876  -2.7279  -2.7269
    -2.5051  -2.5027  -2.3951  -2.3940  -2.2363  -2.2349  -2.1534  -2.1523
    -1.7238  -1.7225  -1.7047  -1.7034  -1.5338  -1.5334  -1.5094  -1.5087
    -1.2072  -1.2061  -1.0932  -1.0901  -0.3081  -0.3061  -0.3028  -0.3009
     0.0130   0.0152   0.2500   0.2533   0.3890   0.3900   0.6350   0.6359
     0.7292   0.7325   0.9884   0.9900   3.8955   3.8968   4.0737   4.0753
     4.9342   4.9360   5.0079   5.0094   5.1519   5.1548   5.1740   5.1746
     5.2487   5.2497   5.4787   5.4791   6.7620   6.7630   6.8953   6.8970
     7.1746   7.1788   7.2158   7.2178   7.5795   7.5829   7.8260   7.8274

     highest occupied, lowest unoccupied level (ev):     0.9906    3.8896

!    total energy              =   -1333.52908792 Ry
     Harris-Foulkes estimate   =   -1333.52908792 Ry
     estimated scf accuracy    <          1.5E-09 Ry

     total all-electron energy =     -5165.258554 Ry

     The total energy is the sum of the following terms:

     one-electron contribution =    -803.55005179 Ry
     hartree contribution      =     506.60311397 Ry
     xc contribution           =    -289.99401805 Ry
     ewald contribution        =    -337.56613260 Ry
     Dispersion Correction     =      -0.39117849 Ry
     one-center paw contrib.   =    -408.63082097 Ry

     convergence has been achieved in  21 iterations

     Forces acting on atoms (cartesian axes, Ry/au):

     atom    1 type  1   force =    -0.00044853   -0.00107734    0.00009119
     atom    2 type  1   force =     0.00057213   -0.00109612    0.00024313
     atom    3 type  1   force =     0.00044853    0.00107734   -0.00009119
     atom    4 type  1   force =    -0.00057213    0.00109612   -0.00024313
     atom    5 type  4   force =    -0.00094863    0.00128837    0.00045423
     atom    6 type  4   force =     0.00093240    0.00131330   -0.00040147
     atom    7 type  4   force =     0.00094863   -0.00128837   -0.00045423
     atom    8 type  4   force =    -0.00093240   -0.00131330    0.00040147
     atom    9 type  1   force =     0.00055004    0.00148473    0.00153230
     atom   10 type  1   force =    -0.00076673    0.00131120   -0.00173148
     atom   11 type  1   force =    -0.00055004   -0.00148473   -0.00153230
     atom   12 type  1   force =     0.00076673   -0.00131120    0.00173148
     atom   13 type  2   force =     0.00049198   -0.00039191   -0.00014534
     atom   14 type  2   force =    -0.00040148   -0.00021652    0.00014876
     atom   15 type  2   force =    -0.00049198    0.00039191    0.00014534
     atom   16 type  2   force =     0.00040148    0.00021652   -0.00014876
     atom   17 type  1   force =     0.00017667    0.00005384    0.00048067
     atom   18 type  1   force =    -0.00035478   -0.00005582   -0.00079843
     atom   19 type  1   force =    -0.00017667   -0.00005384   -0.00048067
     atom   20 type  1   force =     0.00035478    0.00005582    0.00079843
     atom   21 type  1   force =     0.00197249   -0.00059622   -0.00058216
     atom   22 type  1   force =    -0.00183280   -0.00069345    0.00081872
     atom   23 type  1   force =    -0.00197249    0.00059622    0.00058216
     atom   24 type  1   force =     0.00183280    0.00069345   -0.00081872
     atom   25 type  2   force =     0.00047878    0.00019632   -0.00027115
     atom   26 type  2   force =    -0.00063063    0.00010027    0.00010881
     atom   27 type  2   force =    -0.00047878   -0.00019632    0.00027115
     atom   28 type  2   force =     0.00063063   -0.00010027   -0.00010881
     atom   29 type  1   force =    -0.00116337    0.00090237    0.00005694
     atom   30 type  1   force =     0.00158363    0.00091426    0.00057402
     atom   31 type  1   force =     0.00116337   -0.00090237   -0.00005694
     atom   32 type  1   force =    -0.00158363   -0.00091426   -0.00057402
     atom   33 type  3   force =    -0.00006548    0.00005657   -0.00004870
     atom   34 type  3   force =     0.00002207    0.00011486   -0.00001608
     atom   35 type  3   force =     0.00006548   -0.00005657    0.00004870
     atom   36 type  3   force =    -0.00002207   -0.00011486    0.00001608
     atom   37 type  1   force =     0.00065158   -0.00008248    0.00116926
     atom   38 type  1   force =    -0.00047394    0.00017650   -0.00120896
     atom   39 type  1   force =    -0.00065158    0.00008248   -0.00116926
     atom   40 type  1   force =     0.00047394   -0.00017650    0.00120896
     atom   41 type  3   force =    -0.00046086   -0.00010191   -0.00078922
     atom   42 type  3   force =     0.00041001   -0.00031651    0.00084012
     atom   43 type  3   force =     0.00046086    0.00010191    0.00078922
     atom   44 type  3   force =    -0.00041001    0.00031651   -0.00084012
     atom   45 type  1   force =    -0.00059802   -0.00037545   -0.00044528
     atom   46 type  1   force =     0.00057852   -0.00019802    0.00036261
     atom   47 type  1   force =     0.00059802    0.00037545    0.00044528
     atom   48 type  1   force =    -0.00057852    0.00019802   -0.00036261
     atom   49 type  3   force =     0.00044225   -0.00011542   -0.00036452
     atom   50 type  3   force =    -0.00044799   -0.00013171    0.00036022
     atom   51 type  3   force =    -0.00044225    0.00011542    0.00036452
     atom   52 type  3   force =     0.00044799    0.00013171   -0.00036022
     atom   53 type  3   force =    -0.00049933    0.00049653   -0.00045523
     atom   54 type  3   force =     0.00054212    0.00042270    0.00046566
     atom   55 type  3   force =     0.00049933   -0.00049653    0.00045523
     atom   56 type  3   force =    -0.00054212   -0.00042270   -0.00046566
     atom   57 type  1   force =     0.00015562    0.00070089    0.00014961
     atom   58 type  1   force =    -0.00085406   -0.00026653   -0.00056255
     atom   59 type  1   force =    -0.00015562   -0.00070089   -0.00014961
     atom   60 type  1   force =     0.00085406    0.00026653    0.00056255
     atom   61 type  3   force =    -0.00002993    0.00000853   -0.00056500
     atom   62 type  3   force =     0.00034351    0.00034816    0.00079107
     atom   63 type  3   force =     0.00002993   -0.00000853    0.00056500
     atom   64 type  3   force =    -0.00034351   -0.00034816   -0.00079107
     atom   65 type  1   force =    -0.00019439   -0.00124765   -0.00133199
     atom   66 type  1   force =    -0.00000159   -0.00078094    0.00063068
     atom   67 type  1   force =     0.00019439    0.00124765    0.00133199
     atom   68 type  1   force =     0.00000159    0.00078094   -0.00063068
     atom   69 type  3   force =     0.00073342    0.00047540    0.00070967
     atom   70 type  3   force =    -0.00055634    0.00032369   -0.00037319
     atom   71 type  3   force =    -0.00073342   -0.00047540   -0.00070967
     atom   72 type  3   force =     0.00055634   -0.00032369    0.00037319
     atom   73 type  1   force =     0.00052730    0.00038808   -0.00045425
     atom   74 type  1   force =    -0.00053163    0.00038755    0.00055425
     atom   75 type  1   force =    -0.00052730   -0.00038808    0.00045425
     atom   76 type  1   force =     0.00053163   -0.00038755   -0.00055425
     atom   77 type  3   force =    -0.00064461   -0.00037894   -0.00005421
     atom   78 type  3   force =     0.00063693   -0.00041019    0.00001099
     atom   79 type  3   force =     0.00064461    0.00037894    0.00005421
     atom   80 type  3   force =    -0.00063693    0.00041019   -0.00001099
     atom   81 type  3   force =     0.00049193   -0.00004993   -0.00048334
     atom   82 type  3   force =    -0.00046753   -0.00003254    0.00044991
     atom   83 type  3   force =    -0.00049193    0.00004993    0.00048334
     atom   84 type  3   force =     0.00046753    0.00003254   -0.00044991
     atom   85 type  4   force =    -0.00049235   -0.00011180    0.00040844
     atom   86 type  4   force =     0.00053518   -0.00012699   -0.00026047
     atom   87 type  4   force =     0.00049235    0.00011180   -0.00040844
     atom   88 type  4   force =    -0.00053518    0.00012699    0.00026047

     Total force =     0.010761     Total SCF correction =     0.000071


     Computing stress (Cartesian axis) and pressure

          total   stress  (Ry/bohr**3)                   (kbar)     P=   -2.94
  -0.00002997   0.00000024   0.00001084         -4.41      0.04      1.59
   0.00000024  -0.00001901   0.00000037          0.04     -2.80      0.05
   0.00001084   0.00000037  -0.00001106          1.59      0.05     -1.63


     Writing output data file scf.save
 
     init_run     :     49.21s CPU     51.08s WALL (       1 calls)
     electrons    :   1907.85s CPU   1982.56s WALL (       1 calls)
     forces       :     21.72s CPU     21.92s WALL (       1 calls)
     stress       :     94.90s CPU     95.26s WALL (       1 calls)

     Called by init_run:
     wfcinit      :     39.20s CPU     40.94s WALL (       1 calls)
     potinit      :      3.50s CPU      3.53s WALL (       1 calls)

     Called by electrons:
     c_bands      :   1696.46s CPU   1761.00s WALL (      21 calls)
     sum_band     :    193.99s CPU    202.61s WALL (      21 calls)
     v_of_rho     :      3.12s CPU      3.37s WALL (      22 calls)
     newd         :      6.13s CPU      7.40s WALL (      22 calls)
     PAW_pot      :      7.45s CPU      7.45s WALL (      22 calls)
     mix_rho      :      0.68s CPU      0.75s WALL (      21 calls)

     Called by c_bands:
     init_us_2    :      9.23s CPU      9.26s WALL (     360 calls)
     cegterg      :   1659.41s CPU   1723.87s WALL (     168 calls)

     Called by sum_band:
     sum_band:bec :      0.10s CPU      0.10s WALL (     168 calls)
     addusdens    :      6.20s CPU      7.47s WALL (      21 calls)

     Called by *egterg:
     h_psi        :    981.82s CPU   1033.58s WALL (     825 calls)
     s_psi        :    186.76s CPU    186.81s WALL (     825 calls)
     g_psi        :      4.10s CPU      4.10s WALL (     649 calls)
     cdiaghg      :     76.07s CPU     76.05s WALL (     817 calls)

     Called by h_psi:
     h_psi:pot    :    975.61s CPU   1027.27s WALL (     825 calls)
     h_psi:calbec :    185.07s CPU    185.38s WALL (     825 calls)
     vloc_psi     :    602.99s CPU    654.28s WALL (     825 calls)
     add_vuspsi   :    187.54s CPU    187.59s WALL (     825 calls)

     General routines
     calbec       :    270.79s CPU    271.29s WALL (    1033 calls)
     fft          :      3.44s CPU      3.87s WALL (     310 calls)
     fftw         :    643.82s CPU    701.15s WALL (  184766 calls)
 
     Parallel routines
     fft_scatter  :    116.05s CPU    167.59s WALL (  185076 calls)
 
     PWSCF        : 34m43.12s CPU    36m51.95s WALL

 
   This run was terminated on:  17:51: 7   7Dec2017            

=------------------------------------------------------------------------------=
   JOB DONE.
=------------------------------------------------------------------------------=
