
     Program PWSCF v.6.1 (svn rev. 13369) starts on  4Nov2017 at  3:46: 1 

     This program is part of the open-source Quantum ESPRESSO suite
     for quantum simulation of materials; please cite
         "P. Giannozzi et al., J. Phys.:Condens. Matter 21 395502 (2009);
          URL http://www.quantum-espresso.org", 
     in publications or presentations arising from this work. More details at
     http://www.quantum-espresso.org/quote

     Parallel version (MPI), running on     8 processors
     R & G space division:  proc/nbgrp/npool/nimage =       8
     Waiting for input...
     Reading input from standard input

     Current dimensions of program PWSCF are:
     Max number of different atomic species (ntypx) = 10
     Max number of k-points (npk) =  40000
     Max angular momentum in pseudopotentials (lmaxx) =  3
               file C.pbe-n-kjpaw_psl.0.1.UPF: wavefunction(s)  2P renormalized
               file N.pbe-n-kjpaw_psl.0.1.UPF: wavefunction(s)  2P renormalized
               file H.pbe-kjpaw_psl.0.1.UPF: wavefunction(s)  1S renormalized
               file O.pbe-n-kjpaw_psl.0.1.UPF: wavefunction(s)  2P renormalized

     -------------------------------------
     Parameters for Dispersion Correction:
     -------------------------------------
       atom      VdW radius       C_6     

        C          2.744         60.710
        N          2.640         42.670
        H          1.892          4.857
        O          2.536         24.284

     Subspace diagonalization in iterative solution of the eigenvalue problem:
     a serial algorithm will be used

 
     Parallelization info
     --------------------
     sticks:   dense  smooth     PW     G-vecs:    dense   smooth      PW
     Min        2996    2996    783               169442   169442   22657
     Max        2998    2998    785               169443   169443   22658
     Sum       23977   23977   6273              1355541  1355541  181259
 


     bravais-lattice index     =            0
     lattice parameter (alat)  =      29.2964  a.u.
     unit-cell volume          =   10033.7567 (a.u.)^3
     number of atoms/cell      =          140
     number of atomic types    =            4
     number of electrons       =       568.00
     number of Kohn-Sham states=          340
     kinetic-energy cutoff     =     100.0000  Ry
     charge density cutoff     =     400.0000  Ry
     convergence threshold     =      1.0E-08
     mixing beta               =       0.5000
     number of iterations used =            8  plain     mixing
     Exchange-correlation      =  SLA  PW   PBX  PBC ( 1  4  3  4 0 0)

     celldm(1)=  29.296424  celldm(2)=   0.000000  celldm(3)=   0.000000
     celldm(4)=   0.000000  celldm(5)=   0.000000  celldm(6)=   0.000000

     crystal axes: (cart. coord. in units of alat)
               a(1) = (   1.000000   0.000000   0.000000 )  
               a(2) = (   0.000000   0.877250   0.000000 )  
               a(3) = (   0.000000   0.000000   0.454880 )  

     reciprocal axes: (cart. coord. in units 2 pi/alat)
               b(1) = (  1.000000  0.000000  0.000000 )  
               b(2) = (  0.000000  1.139926  0.000000 )  
               b(3) = (  0.000000  0.000000  2.198383 )  


     PseudoPot. # 1 for  C read from file:
     /scratch/ahofstet/pseudo/C.pbe-n-kjpaw_psl.0.1.UPF
     MD5 check sum: 430fe95172b1e11ef3f8ed03bac87931
     Pseudo is Projector augmented-wave + core cor, Zval =  4.0
     Generated using "atomic" code by A. Dal Corso  v.5.0.99 svn rev. 10869
     Shape of augmentation charge: BESSEL
     Using radial grid of 1073 points,  4 beta functions with: 
                l(1) =   0
                l(2) =   0
                l(3) =   1
                l(4) =   1
     Q(r) pseudized with 0 coefficients 


     PseudoPot. # 2 for  N read from file:
     /scratch/ahofstet/pseudo/N.pbe-n-kjpaw_psl.0.1.UPF
     MD5 check sum: f73187c8b701007e77325f868c9291d7
     Pseudo is Projector augmented-wave + core cor, Zval =  5.0
     Generated using "atomic" code by A. Dal Corso  v.5.0.99 svn rev. 10869
     Shape of augmentation charge: PSQ
     Using radial grid of 1085 points,  4 beta functions with: 
                l(1) =   0
                l(2) =   0
                l(3) =   1
                l(4) =   1
     Q(r) pseudized with 0 coefficients 


     PseudoPot. # 3 for  H read from file:
     /scratch/ahofstet/pseudo/H.pbe-kjpaw_psl.0.1.UPF
     MD5 check sum: 94e484f906d9e9773b2f6e52662335b2
     Pseudo is Projector augmented-wave, Zval =  1.0
     Generated using "atomic" code by A. Dal Corso  v.5.0.99 svn rev. 10869
     Shape of augmentation charge: PSQ
     Using radial grid of  929 points,  2 beta functions with: 
                l(1) =   0
                l(2) =   0
     Q(r) pseudized with 0 coefficients 


     PseudoPot. # 4 for  O read from file:
     /scratch/ahofstet/pseudo/O.pbe-n-kjpaw_psl.0.1.UPF
     MD5 check sum: 3f94a2996a3169367d6eb21d9b593f20
     Pseudo is Projector augmented-wave + core cor, Zval =  6.0
     Generated using "atomic" code by A. Dal Corso  v.5.0.99 svn rev. 10869
     Shape of augmentation charge: BESSEL
     Using radial grid of 1095 points,  4 beta functions with: 
                l(1) =   0
                l(2) =   0
                l(3) =   1
                l(4) =   1
     Q(r) pseudized with 0 coefficients 


     atomic species   valence    mass     pseudopotential
        C              4.00    12.01070      C( 1.00)
        N              5.00    14.00670      N( 1.00)
        H              1.00     1.00794      H( 1.00)
        O              6.00    15.99940      O( 1.00)

      4 Sym. Ops. (no inversion) found ( 3 have fractional translation)



   Cartesian axes

     site n.     atom                  positions (alat units)
         1           C   tau(   1) = (   0.3940656   0.3263746   0.3951789  )
         2           C   tau(   2) = (   0.8940656   0.1122502   0.0597008  )
         3           C   tau(   3) = (   0.6059344   0.7649994   0.2871407  )
         4           C   tau(   4) = (   0.1059344   0.5508750   0.1677390  )
         5           C   tau(   5) = (   0.4428743   0.3000731   0.3129588  )
         6           C   tau(   6) = (   0.9428743   0.1385517   0.1419209  )
         7           C   tau(   7) = (   0.5571257   0.7386979   0.3693608  )
         8           C   tau(   8) = (   0.0571257   0.5771765   0.0855189  )
         9           C   tau(   9) = (   0.5384621   0.2809391   0.3290620  )
        10           C   tau(  10) = (   0.0384621   0.1576856   0.1258177  )
        11           C   tau(  11) = (   0.4615379   0.7195639   0.3532575  )
        12           C   tau(  12) = (   0.9615379   0.5963104   0.1016222  )
        13           C   tau(  13) = (   0.5809719   0.3476121   0.3884280  )
        14           C   tau(  14) = (   0.0809719   0.0910127   0.0664517  )
        15           C   tau(  15) = (   0.4190281   0.7862369   0.2938916  )
        16           C   tau(  16) = (   0.9190281   0.5296375   0.1609881  )
        17           C   tau(  17) = (   0.5223821   0.3696940   0.0112991  )
        18           C   tau(  18) = (   0.0223821   0.0689308   0.4435806  )
        19           C   tau(  19) = (   0.4776179   0.8083188   0.2161407  )
        20           C   tau(  20) = (   0.9776179   0.5075555   0.2387390  )
        21           C   tau(  21) = (   0.5596757   0.4451332   0.0610249  )
        22           C   tau(  22) = (   0.0596757   0.8707412   0.3938548  )
        23           C   tau(  23) = (   0.4403243   0.0065084   0.1664149  )
        24           C   tau(  24) = (   0.9403243   0.4321164   0.2884648  )
        25           C   tau(  25) = (   0.2547199   0.3674081   0.4405914  )
        26           C   tau(  26) = (   0.7547199   0.0712167   0.0142883  )
        27           C   tau(  27) = (   0.7452801   0.8060329   0.2417282  )
        28           C   tau(  28) = (   0.2452801   0.5098415   0.2131515  )
        29           O   tau(  29) = (   0.3139117   0.3552189   0.3699714  )
        30           O   tau(  30) = (   0.8139117   0.0834058   0.0849083  )
        31           O   tau(  31) = (   0.6860883   0.7938437   0.3123481  )
        32           O   tau(  32) = (   0.1860883   0.5220306   0.1425316  )
        33           O   tau(  33) = (   0.4059823   0.2213908   0.2799847  )
        34           O   tau(  34) = (   0.9059823   0.2172340   0.1748950  )
        35           O   tau(  35) = (   0.5940177   0.6600156   0.4023349  )
        36           O   tau(  36) = (   0.0940177   0.6558587   0.0525448  )
        37           O   tau(  37) = (   0.3022591   0.1677987   0.1987346  )
        38           O   tau(  38) = (   0.8022591   0.2708261   0.2561451  )
        39           O   tau(  39) = (   0.6977409   0.6064235   0.0287052  )
        40           O   tau(  40) = (   0.1977409   0.7094509   0.4261745  )
        41           O   tau(  41) = (   0.3433988   0.3005326   0.1713009  )
        42           O   tau(  42) = (   0.8433988   0.1380922   0.2835788  )
        43           O   tau(  43) = (   0.6566012   0.7391574   0.0561389  )
        44           O   tau(  44) = (   0.1566012   0.5767170   0.3987408  )
        45           O   tau(  45) = (   0.5810755   0.2835023   0.2464638  )
        46           O   tau(  46) = (   0.0810755   0.1551225   0.2084159  )
        47           O   tau(  47) = (   0.4189245   0.7221271   0.4358558  )
        48           O   tau(  48) = (   0.9189245   0.5937472   0.0190239  )
        49           O   tau(  49) = (   0.6276212   0.1436999   0.2701064  )
        50           O   tau(  50) = (   0.1276212   0.2949249   0.1847733  )
        51           O   tau(  51) = (   0.3723788   0.5823246   0.4122132  )
        52           O   tau(  52) = (   0.8723788   0.7335497   0.0426665  )
        53           O   tau(  53) = (   0.6501410   0.2087398   0.1461423  )
        54           O   tau(  54) = (   0.1501410   0.2298850   0.3087374  )
        55           O   tau(  55) = (   0.3498590   0.6473646   0.0812976  )
        56           O   tau(  56) = (   0.8498590   0.6685098   0.3735821  )
        57           O   tau(  57) = (   0.6596382   0.3088082   0.4196238  )
        58           O   tau(  58) = (   0.1596382   0.1298166   0.0352559  )
        59           O   tau(  59) = (   0.3403618   0.7474330   0.2626958  )
        60           O   tau(  60) = (   0.8403618   0.5684413   0.1921839  )
        61           O   tau(  61) = (   0.7327662   0.4291687   0.3733051  )
        62           O   tau(  62) = (   0.2327662   0.0094561   0.0815746  )
        63           O   tau(  63) = (   0.2672338   0.8677935   0.3090144  )
        64           O   tau(  64) = (   0.7672338   0.4480808   0.1458653  )
        65           O   tau(  65) = (   0.7990109   0.3252893   0.4432372  )
        66           O   tau(  66) = (   0.2990109   0.1133354   0.0116425  )
        67           O   tau(  67) = (   0.2009891   0.7639141   0.2390824  )
        68           O   tau(  68) = (   0.7009891   0.5519602   0.2157973  )
        69           O   tau(  69) = (   0.4403630   0.3958476   0.4352030  )
        70           O   tau(  70) = (   0.9403630   0.0427772   0.0196767  )
        71           O   tau(  71) = (   0.5596370   0.8344724   0.2471166  )
        72           O   tau(  72) = (   0.0596370   0.4814020   0.2077631  )
        73           O   tau(  73) = (   0.5157026   0.4467333   0.1435882  )
        74           O   tau(  74) = (   0.0157026   0.8691410   0.3112915  )
        75           O   tau(  75) = (   0.4842974   0.0081085   0.0838517  )
        76           O   tau(  76) = (   0.9842974   0.4305162   0.3710280  )
        77           O   tau(  77) = (   0.4779030   0.5247258   0.2547337  )
        78           O   tau(  78) = (   0.9779030   0.7911486   0.2001460  )
        79           O   tau(  79) = (   0.5220970   0.0861010   0.4275859  )
        80           O   tau(  80) = (   0.0220970   0.3525238   0.0272938  )
        81           O   tau(  81) = (   0.5283140   0.5930925   0.1413379  )
        82           O   tau(  82) = (   0.0283140   0.7227819   0.3135418  )
        83           O   tau(  83) = (   0.4716860   0.1544677   0.0861019  )
        84           O   tau(  84) = (   0.9716860   0.2841571   0.3687778  )
        85           N   tau(  85) = (   0.3440397   0.2327186   0.2095495  )
        86           N   tau(  86) = (   0.8440397   0.2059061   0.2453302  )
        87           N   tau(  87) = (   0.6559603   0.6713434   0.0178903  )
        88           N   tau(  88) = (   0.1559603   0.6445309   0.4369894  )
        89           N   tau(  89) = (   0.6241386   0.2023039   0.2191186  )
        90           N   tau(  90) = (   0.1241386   0.2363209   0.2357611  )
        91           N   tau(  91) = (   0.3758614   0.6409287   0.0083212  )
        92           N   tau(  92) = (   0.8758614   0.6749456   0.4465585  )
        93           N   tau(  93) = (   0.7379470   0.3606392   0.4106127  )
        94           N   tau(  94) = (   0.2379470   0.0779856   0.0442670  )
        95           N   tau(  95) = (   0.2620530   0.7992639   0.2717069  )
        96           N   tau(  96) = (   0.7620530   0.5166104   0.1831728  )
        97           N   tau(  97) = (   0.5073022   0.5296229   0.1823672  )
        98           N   tau(  98) = (   0.0073022   0.7862514   0.2725125  )
        99           N   tau(  99) = (   0.4926978   0.0909981   0.0450727  )
       100           N   tau( 100) = (   0.9926978   0.3476266   0.4098070  )
       101           H   tau( 101) = (   0.3894444   0.2717680   0.4413628  )
       102           H   tau( 102) = (   0.8894444   0.1668568   0.0135169  )
       103           H   tau( 103) = (   0.6105556   0.7103928   0.2409567  )
       104           H   tau( 104) = (   0.1105556   0.6054816   0.2139230  )
       105           H   tau( 105) = (   0.4365442   0.3522451   0.2654148  )
       106           H   tau( 106) = (   0.9365442   0.0863796   0.1894649  )
       107           H   tau( 107) = (   0.5634558   0.7908699   0.4169048  )
       108           H   tau( 108) = (   0.0634558   0.5250044   0.0379749  )
       109           H   tau( 109) = (   0.5457232   0.2164407   0.3576686  )
       110           H   tau( 110) = (   0.0457232   0.2221841   0.0972111  )
       111           H   tau( 111) = (   0.4542768   0.6550655   0.3246510  )
       112           H   tau( 112) = (   0.9542768   0.6608088   0.1302287  )
       113           H   tau( 113) = (   0.5955568   0.4065103   0.3518885  )
       114           H   tau( 114) = (   0.0955568   0.0321145   0.1029912  )
       115           H   tau( 115) = (   0.4044432   0.8451351   0.3304310  )
       116           H   tau( 116) = (   0.9044432   0.4707392   0.1244487  )
       117           H   tau( 117) = (   0.5174020   0.3124393   0.0534617  )
       118           H   tau( 118) = (   0.0174020   0.1261855   0.4014180  )
       119           H   tau( 119) = (   0.4825980   0.7510641   0.1739782  )
       120           H   tau( 120) = (   0.9825980   0.5648103   0.2809015  )
       121           H   tau( 121) = (   0.6287748   0.4367084   0.0736899  )
       122           H   tau( 122) = (   0.1287748   0.8791660   0.3811898  )
       123           H   tau( 123) = (   0.3712252  -0.0019164   0.1537499  )
       124           H   tau( 124) = (   0.8712252   0.4405412   0.3011298  )
       125           H   tau( 125) = (   0.5482369   0.5052476   0.0255537  )
       126           H   tau( 126) = (   0.0482369   0.8106268   0.4293260  )
       127           H   tau( 127) = (   0.4517631   0.0666228   0.2018861  )
       128           H   tau( 128) = (   0.9517631   0.3720020   0.2529936  )
       129           H   tau( 129) = (   0.1933978   0.3867360   0.4114634  )
       130           H   tau( 130) = (   0.6933978   0.0518888   0.0434163  )
       131           H   tau( 131) = (   0.8066022   0.8253608   0.2708561  )
       132           H   tau( 132) = (   0.3066022   0.4905136   0.1840236  )
       133           H   tau( 133) = (   0.2461955   0.3067463   0.0216403  )
       134           H   tau( 134) = (   0.7461955   0.1318785   0.4332394  )
       135           H   tau( 135) = (   0.7538045   0.7453711   0.2057995  )
       136           H   tau( 136) = (   0.2538045   0.5705033   0.2490802  )
       137           H   tau( 137) = (   0.2774749   0.4185511   0.0291619  )
       138           H   tau( 138) = (   0.7774749   0.0200737   0.4257178  )
       139           H   tau( 139) = (   0.7225251   0.8571759   0.1982779  )
       140           H   tau( 140) = (   0.2225251   0.4586984   0.2566018  )

     number of k points=     8
                       cart. coord. in units 2pi/alat
        k(    1) = (   0.0000000   0.0000000   0.0000000), wk =   0.1666667
        k(    2) = (   0.0000000   0.0000000   0.7327945), wk =   0.3333333
        k(    3) = (   0.0000000  -0.5699632   0.0000000), wk =   0.1666667
        k(    4) = (   0.0000000  -0.5699632   0.7327945), wk =   0.3333333
        k(    5) = (  -0.5000000   0.0000000   0.0000000), wk =   0.1666667
        k(    6) = (  -0.5000000   0.0000000   0.7327945), wk =   0.3333333
        k(    7) = (  -0.5000000  -0.5699632   0.0000000), wk =   0.1666667
        k(    8) = (  -0.5000000  -0.5699632   0.7327945), wk =   0.3333333

     Dense  grid:  1355541 G-vectors     FFT dimensions: ( 192, 180,  90)

     Estimated max dynamical RAM per process >    2317.40MB

     Estimated total allocated dynamical RAM >   18539.18MB

     Check: negative/imaginary core charge=   -0.000003    0.000000

     Initial potential from superposition of free atoms

     starting charge  567.99826, renormalised to  568.00000
     Starting wfc are  440 randomized atomic wfcs
     Checking if some PAW data can be deallocated... 

     total cpu time spent up to now is      153.8 secs

     per-process dynamical memory:  1449.5 Mb

     Self-consistent Calculation

     iteration #  1     ecut=   100.00 Ry     beta=0.50
     Davidson diagonalization with overlap
     ethr =  1.00E-02,  avg # of iterations =  3.0

     total cpu time spent up to now is      703.9 secs

     total energy              =   -3339.78620820 Ry
     Harris-Foulkes estimate   =   -3348.07231570 Ry
     estimated scf accuracy    <      14.76605832 Ry

     iteration #  2     ecut=   100.00 Ry     beta=0.50
     Davidson diagonalization with overlap
     ethr =  2.60E-03,  avg # of iterations =  4.6

     total cpu time spent up to now is     1129.3 secs

     total energy              =   -3342.52242309 Ry
     Harris-Foulkes estimate   =   -3345.09943162 Ry
     estimated scf accuracy    <       5.75040257 Ry

     iteration #  3     ecut=   100.00 Ry     beta=0.50
     Davidson diagonalization with overlap
     ethr =  1.01E-03,  avg # of iterations =  3.0

     total cpu time spent up to now is     1464.4 secs

     total energy              =   -3343.61361878 Ry
     Harris-Foulkes estimate   =   -3343.82604532 Ry
     estimated scf accuracy    <       0.53611293 Ry

     iteration #  4     ecut=   100.00 Ry     beta=0.50
     Davidson diagonalization with overlap
     ethr =  9.44E-05,  avg # of iterations =  8.1

     total cpu time spent up to now is     2003.3 secs

     total energy              =   -3343.70753067 Ry
     Harris-Foulkes estimate   =   -3343.82949357 Ry
     estimated scf accuracy    <       0.31865175 Ry

     iteration #  5     ecut=   100.00 Ry     beta=0.50
     Davidson diagonalization with overlap
     ethr =  5.61E-05,  avg # of iterations =  2.0

     total cpu time spent up to now is     2314.0 secs

     total energy              =   -3343.75872919 Ry
     Harris-Foulkes estimate   =   -3343.77269494 Ry
     estimated scf accuracy    <       0.03753914 Ry

     iteration #  6     ecut=   100.00 Ry     beta=0.50
     Davidson diagonalization with overlap
     ethr =  6.61E-06,  avg # of iterations =  7.8

     total cpu time spent up to now is     2831.5 secs

     total energy              =   -3343.76760075 Ry
     Harris-Foulkes estimate   =   -3343.77302002 Ry
     estimated scf accuracy    <       0.01474609 Ry

     iteration #  7     ecut=   100.00 Ry     beta=0.50
     Davidson diagonalization with overlap
     ethr =  2.60E-06,  avg # of iterations =  2.0

     total cpu time spent up to now is     3129.4 secs

     total energy              =   -3343.76902714 Ry
     Harris-Foulkes estimate   =   -3343.76983233 Ry
     estimated scf accuracy    <       0.00181965 Ry

     iteration #  8     ecut=   100.00 Ry     beta=0.50
     Davidson diagonalization with overlap
     ethr =  3.20E-07,  avg # of iterations =  4.0

     total cpu time spent up to now is     3605.9 secs

     total energy              =   -3343.76989510 Ry
     Harris-Foulkes estimate   =   -3343.77000438 Ry
     estimated scf accuracy    <       0.00047453 Ry

     iteration #  9     ecut=   100.00 Ry     beta=0.50
     Davidson diagonalization with overlap
     ethr =  8.35E-08,  avg # of iterations =  2.0

     total cpu time spent up to now is     3902.4 secs

     total energy              =   -3343.76988115 Ry
     Harris-Foulkes estimate   =   -3343.76994555 Ry
     estimated scf accuracy    <       0.00017430 Ry

     iteration # 10     ecut=   100.00 Ry     beta=0.50
     Davidson diagonalization with overlap
     ethr =  3.07E-08,  avg # of iterations =  3.0

     total cpu time spent up to now is     4280.9 secs

     total energy              =   -3343.76991062 Ry
     Harris-Foulkes estimate   =   -3343.76992236 Ry
     estimated scf accuracy    <       0.00003498 Ry

     iteration # 11     ecut=   100.00 Ry     beta=0.50
     Davidson diagonalization with overlap
     ethr =  6.16E-09,  avg # of iterations =  2.2

     total cpu time spent up to now is     4579.0 secs

     total energy              =   -3343.76991296 Ry
     Harris-Foulkes estimate   =   -3343.76991528 Ry
     estimated scf accuracy    <       0.00000612 Ry

     iteration # 12     ecut=   100.00 Ry     beta=0.50
     Davidson diagonalization with overlap
     ethr =  1.08E-09,  avg # of iterations =  4.0

     total cpu time spent up to now is     5089.9 secs

     total energy              =   -3343.76991586 Ry
     Harris-Foulkes estimate   =   -3343.76991721 Ry
     estimated scf accuracy    <       0.00000392 Ry

     iteration # 13     ecut=   100.00 Ry     beta=0.50
     Davidson diagonalization with overlap
     ethr =  6.89E-10,  avg # of iterations =  2.0

     total cpu time spent up to now is     5379.8 secs

     total energy              =   -3343.76991565 Ry
     Harris-Foulkes estimate   =   -3343.76991611 Ry
     estimated scf accuracy    <       0.00000115 Ry

     iteration # 14     ecut=   100.00 Ry     beta=0.50
     Davidson diagonalization with overlap
     ethr =  2.02E-10,  avg # of iterations =  4.0

     total cpu time spent up to now is     5843.1 secs

     total energy              =   -3343.76991624 Ry
     Harris-Foulkes estimate   =   -3343.76991623 Ry
     estimated scf accuracy    <       0.00000023 Ry

     iteration # 15     ecut=   100.00 Ry     beta=0.50
     Davidson diagonalization with overlap
     ethr =  3.99E-11,  avg # of iterations =  3.8

     total cpu time spent up to now is     6146.8 secs

     total energy              =   -3343.76991619 Ry
     Harris-Foulkes estimate   =   -3343.76991627 Ry
     estimated scf accuracy    <       0.00000025 Ry

     iteration # 16     ecut=   100.00 Ry     beta=0.50
     Davidson diagonalization with overlap
     ethr =  3.99E-11,  avg # of iterations =  2.4

     total cpu time spent up to now is     6439.6 secs

     total energy              =   -3343.76991617 Ry
     Harris-Foulkes estimate   =   -3343.76991621 Ry
     estimated scf accuracy    <       0.00000010 Ry

     iteration # 17     ecut=   100.00 Ry     beta=0.50
     Davidson diagonalization with overlap
     ethr =  1.70E-11,  avg # of iterations =  3.8

     total cpu time spent up to now is     6825.4 secs

     total energy              =   -3343.76991619 Ry
     Harris-Foulkes estimate   =   -3343.76991619 Ry
     estimated scf accuracy    <       0.00000001 Ry

     iteration # 18     ecut=   100.00 Ry     beta=0.50
     Davidson diagonalization with overlap
     ethr =  2.18E-12,  avg # of iterations =  2.4

     total cpu time spent up to now is     7116.9 secs

     End of self-consistent calculation

          k = 0.0000 0.0000 0.0000 (169335 PWs)   bands (ev):

   -25.7301 -25.7290 -25.7138 -25.7127 -25.6923 -25.6921 -25.6914 -25.6902
   -25.5928 -25.5923 -25.5891 -25.5890 -25.4896 -25.4894 -25.4853 -25.4852
   -21.2294 -21.2292 -21.2135 -21.2135 -21.1117 -21.1100 -21.1093 -21.1082
   -21.0899 -21.0889 -21.0867 -21.0859 -21.0385 -21.0385 -21.0378 -21.0378
   -20.6313 -20.6309 -20.6247 -20.6241 -20.2832 -20.2795 -20.2774 -20.2744
   -20.2217 -20.2215 -20.2212 -20.2200 -20.0191 -20.0162 -20.0147 -20.0136
   -19.6571 -19.6550 -19.6538 -19.6525 -18.8721 -18.8714 -18.8685 -18.8664
   -13.9819 -13.9784 -13.9766 -13.9701 -13.5350 -13.5242 -13.5237 -13.5207
   -12.2885 -12.2870 -12.2685 -12.2633 -11.2733 -11.2349 -11.2168 -11.2133
   -10.8683 -10.8396 -10.8331 -10.8190 -10.2248 -10.2117 -10.1991 -10.1913
    -9.6003  -9.5801  -9.5512  -9.5184  -8.9266  -8.8827  -8.8666  -8.8243
    -8.5972  -8.5174  -8.5133  -8.5077  -8.4843  -8.4705  -8.4660  -8.4523
    -8.3953  -8.3679  -8.3097  -8.2957  -8.0870  -8.0419  -8.0027  -7.9925
    -7.9454  -7.8887  -7.8854  -7.8664  -7.8470  -7.7987  -7.7453  -7.7329
    -7.7067  -7.6893  -7.6826  -7.6779  -7.6394  -7.6274  -7.6259  -7.6015
    -7.5782  -7.5548  -7.5328  -7.5285  -7.4903  -7.4810  -7.4401  -7.4286
    -7.2566  -7.2546  -7.1846  -7.1722  -6.8657  -6.8616  -6.8294  -6.8257
    -6.8123  -6.7645  -6.7505  -6.7295  -6.6611  -6.6457  -6.6430  -6.6308
    -6.5578  -6.5196  -6.5067  -6.5042  -6.4441  -6.3917  -6.3908  -6.3657
    -5.8280  -5.7932  -5.7852  -5.7057  -5.4110  -5.3972  -5.3929  -5.3807
    -5.0285  -5.0074  -4.9767  -4.9750  -4.8657  -4.8412  -4.8233  -4.7895
    -4.4972  -4.4681  -4.4573  -4.4455  -4.3090  -4.3064  -4.2806  -4.2800
    -4.0496  -4.0399  -4.0354  -4.0169  -3.7347  -3.6987  -3.6937  -3.6836
    -3.4109  -3.3794  -3.3762  -3.3751  -3.2267  -3.2220  -3.1661  -3.1535
    -3.0632  -3.0604  -3.0474  -3.0452  -2.6157  -2.6156  -2.5758  -2.5364
    -2.5267  -2.4879  -2.4115  -2.3676  -2.2720  -2.2660  -2.2314  -2.2280
    -2.0708  -2.0703  -2.0443  -2.0054  -1.9750  -1.9675  -1.9616  -1.9272
    -1.8956  -1.8658  -1.8556  -1.8553  -1.8213  -1.8128  -1.8059  -1.7936
    -1.7591  -1.7500  -1.7275  -1.7172  -1.7005  -1.6985  -1.6686  -1.6681
    -1.6566  -1.6464  -1.6214  -1.6187  -1.5720  -1.5515  -1.5251  -1.5010
    -1.4863  -1.4742  -1.4620  -1.4439  -1.2885  -1.2491  -1.2152  -1.2049
    -1.1206  -1.1157  -1.0796  -1.0754  -1.0651  -1.0261  -1.0171  -0.9760
    -0.9595  -0.9386  -0.9266  -0.9038  -0.8791  -0.8761  -0.8605  -0.8443
    -0.8389  -0.7900  -0.7878  -0.7841  -0.7812  -0.7496  -0.7426  -0.7183
    -0.4910  -0.4772  -0.4695  -0.4688   0.2953   0.3104   0.3363   0.3788
     0.3916   0.4185   0.4734   0.4740   3.5548   3.5563   3.5606   3.5746
     3.6134   3.6193   3.6211   3.6313   3.7076   3.7152   3.7207   3.7366
     3.8242   3.8254   3.8273   3.8276   5.3796   5.4851   5.5435   5.6453
     5.7342   5.7881   5.8674   5.8750   5.9231   5.9518   6.0846   6.1366
     6.2377   6.2821   6.3180   6.3339   7.3894   7.4132   7.4475   7.5044
     7.7505   7.7571   7.8052   7.8827   8.0125   8.0139   8.0409   8.0448
     8.1659   8.2397   8.2547   8.2580   8.3339   8.3442   8.3478   8.4394
     8.6003   8.6450   8.6976   8.7024

          k = 0.0000 0.0000 0.7328 (169476 PWs)   bands (ev):

   -25.7254 -25.7248 -25.7171 -25.7166 -25.6917 -25.6916 -25.6914 -25.6907
   -25.5930 -25.5927 -25.5891 -25.5891 -25.4898 -25.4897 -25.4854 -25.4854
   -21.2254 -21.2252 -21.2175 -21.2173 -21.1105 -21.1095 -21.1088 -21.1083
   -21.0870 -21.0862 -21.0846 -21.0844 -21.0417 -21.0417 -21.0412 -21.0411
   -20.6286 -20.6284 -20.6246 -20.6244 -20.2927 -20.2919 -20.2880 -20.2860
   -20.2204 -20.2203 -20.2193 -20.2189 -20.0113 -20.0083 -20.0068 -20.0057
   -19.6557 -19.6546 -19.6528 -19.6522 -18.8710 -18.8694 -18.8683 -18.8678
   -13.9896 -13.9841 -13.9749 -13.9740 -13.5297 -13.5275 -13.5185 -13.5131
   -12.2875 -12.2816 -12.2767 -12.2704 -11.2628 -11.2421 -11.2254 -11.2245
   -10.8423 -10.8305 -10.8197 -10.8083 -10.2140 -10.2023 -10.2009 -10.1906
    -9.6049  -9.6000  -9.5710  -9.5656  -8.9686  -8.9568  -8.9094  -8.8979
    -8.5240  -8.5050  -8.4991  -8.4882  -8.4745  -8.4478  -8.3964  -8.3827
    -8.3581  -8.3243  -8.2451  -8.2399  -8.0293  -8.0221  -7.9998  -7.9965
    -7.9441  -7.9154  -7.9003  -7.8636  -7.8104  -7.8021  -7.7394  -7.7215
    -7.7083  -7.6899  -7.6884  -7.6818  -7.6762  -7.6464  -7.6420  -7.6310
    -7.6066  -7.5863  -7.5649  -7.5462  -7.4859  -7.4765  -7.4619  -7.4345
    -7.2661  -7.2563  -7.1743  -7.1732  -6.8379  -6.8304  -6.8199  -6.8064
    -6.7959  -6.7892  -6.7661  -6.7628  -6.7078  -6.6908  -6.6854  -6.6670
    -6.5596  -6.5470  -6.5441  -6.5172  -6.4094  -6.3888  -6.3601  -6.3503
    -5.7898  -5.7620  -5.7582  -5.7291  -5.4138  -5.4110  -5.3795  -5.3701
    -5.0316  -5.0052  -5.0023  -4.9872  -4.8910  -4.8697  -4.8691  -4.8446
    -4.5033  -4.4900  -4.4706  -4.4605  -4.2572  -4.2533  -4.2394  -4.2384
    -4.0487  -4.0435  -4.0072  -4.0001  -3.7420  -3.7240  -3.7044  -3.6908
    -3.3833  -3.3546  -3.3518  -3.3475  -3.1590  -3.1462  -3.1374  -3.1341
    -3.0421  -3.0392  -3.0313  -3.0262  -2.6242  -2.6240  -2.6104  -2.5751
    -2.5551  -2.5357  -2.4641  -2.4567  -2.3488  -2.3411  -2.2448  -2.2386
    -2.0527  -2.0274  -2.0256  -2.0028  -1.9785  -1.9687  -1.9361  -1.9142
    -1.9040  -1.8974  -1.8774  -1.8671  -1.8268  -1.8114  -1.8063  -1.7934
    -1.7678  -1.7571  -1.7559  -1.7523  -1.7192  -1.6937  -1.6846  -1.6807
    -1.6548  -1.6534  -1.6196  -1.5883  -1.5785  -1.5611  -1.5154  -1.5005
    -1.4754  -1.4482  -1.4441  -1.4000  -1.3030  -1.2808  -1.2576  -1.2271
    -1.1494  -1.1487  -1.1367  -1.1256  -1.0529  -1.0337  -1.0145  -1.0070
    -0.9513  -0.9416  -0.9209  -0.9034  -0.8688  -0.8509  -0.8137  -0.8059
    -0.7777  -0.7654  -0.7428  -0.7395  -0.7241  -0.7206  -0.7123  -0.6955
    -0.4885  -0.4852  -0.4670  -0.4640   0.3037   0.3256   0.3310   0.3531
     0.4166   0.4344   0.4514   0.4637   3.5601   3.5610   3.5704   3.5761
     3.6166   3.6191   3.6202   3.6261   3.6990   3.7038   3.7069   3.7137
     3.8262   3.8285   3.8342   3.8367   5.4094   5.5067   5.6254   5.6849
     5.7345   5.7630   5.7819   5.8324   5.9081   5.9279   6.0725   6.0949
     6.2221   6.2682   6.3575   6.3649   7.3332   7.3468   7.4767   7.5088
     7.6012   7.7129   7.7823   7.8147   7.8755   7.9577   8.0657   8.1358
     8.1948   8.2192   8.3185   8.3691   8.4018   8.4238   8.5183   8.5198
     8.6063   8.6525   8.6691   8.7115

          k = 0.0000-0.5700 0.0000 (169538 PWs)   bands (ev):

   -25.7295 -25.7295 -25.7132 -25.7132 -25.6923 -25.6923 -25.6907 -25.6907
   -25.5926 -25.5926 -25.5890 -25.5890 -25.4895 -25.4895 -25.4852 -25.4852
   -21.2293 -21.2293 -21.2135 -21.2135 -21.1109 -21.1109 -21.1088 -21.1088
   -21.0894 -21.0894 -21.0862 -21.0862 -21.0386 -21.0386 -21.0378 -21.0378
   -20.6280 -20.6280 -20.6275 -20.6275 -20.2802 -20.2802 -20.2769 -20.2769
   -20.2217 -20.2217 -20.2206 -20.2206 -20.0179 -20.0179 -20.0139 -20.0139
   -19.6560 -19.6560 -19.6531 -19.6531 -18.8718 -18.8718 -18.8674 -18.8674
   -13.9801 -13.9801 -13.9734 -13.9734 -13.5297 -13.5297 -13.5221 -13.5221
   -12.2877 -12.2877 -12.2659 -12.2659 -11.2572 -11.2572 -11.2117 -11.2117
   -10.8584 -10.8584 -10.8220 -10.8220 -10.2201 -10.2201 -10.1936 -10.1936
    -9.5891  -9.5891  -9.5347  -9.5347  -8.8983  -8.8983  -8.8604  -8.8604
    -8.5526  -8.5526  -8.5092  -8.5092  -8.4716  -8.4716  -8.4494  -8.4494
    -8.3655  -8.3655  -8.3417  -8.3417  -8.0704  -8.0704  -8.0130  -8.0130
    -7.8955  -7.8955  -7.8749  -7.8749  -7.7841  -7.7841  -7.7381  -7.7381
    -7.7085  -7.7085  -7.6887  -7.6887  -7.6482  -7.6482  -7.6039  -7.6039
    -7.5643  -7.5643  -7.5404  -7.5404  -7.4933  -7.4933  -7.4309  -7.4309
    -7.2556  -7.2556  -7.1781  -7.1781  -6.8300  -6.8300  -6.8052  -6.8052
    -6.7951  -6.7951  -6.7873  -6.7873  -6.6533  -6.6533  -6.6369  -6.6369
    -6.5440  -6.5440  -6.5076  -6.5076  -6.4276  -6.4276  -6.3625  -6.3625
    -5.8118  -5.8118  -5.7411  -5.7411  -5.4066  -5.4066  -5.3836  -5.3836
    -5.0183  -5.0183  -4.9756  -4.9756  -4.8535  -4.8535  -4.8058  -4.8058
    -4.4863  -4.4863  -4.4501  -4.4501  -4.2951  -4.2951  -4.2928  -4.2928
    -4.0437  -4.0437  -4.0299  -4.0299  -3.7183  -3.7183  -3.6878  -3.6878
    -3.4003  -3.4003  -3.3669  -3.3669  -3.2051  -3.2051  -3.1807  -3.1807
    -3.0621  -3.0621  -3.0467  -3.0467  -2.5839  -2.5839  -2.5599  -2.5599
    -2.5042  -2.5042  -2.4545  -2.4545  -2.2318  -2.2318  -2.2176  -2.2176
    -2.0710  -2.0710  -2.0195  -2.0195  -1.9639  -1.9639  -1.9465  -1.9465
    -1.8748  -1.8748  -1.8664  -1.8664  -1.8409  -1.8409  -1.7797  -1.7797
    -1.7547  -1.7547  -1.7342  -1.7342  -1.7135  -1.7135  -1.6627  -1.6627
    -1.6370  -1.6370  -1.6224  -1.6224  -1.5373  -1.5373  -1.5219  -1.5219
    -1.5051  -1.5051  -1.4600  -1.4600  -1.2763  -1.2763  -1.2118  -1.2118
    -1.0942  -1.0942  -1.0762  -1.0762  -1.0670  -1.0670  -0.9833  -0.9833
    -0.9564  -0.9564  -0.9035  -0.9035  -0.8790  -0.8790  -0.8541  -0.8541
    -0.8296  -0.8296  -0.7825  -0.7825  -0.7594  -0.7594  -0.7256  -0.7256
    -0.4827  -0.4827  -0.4672  -0.4672   0.3012   0.3012   0.3578   0.3578
     0.4049   0.4049   0.4746   0.4746   3.5530   3.5530   3.5692   3.5692
     3.6152   3.6152   3.6280   3.6280   3.7028   3.7028   3.7355   3.7355
     3.8256   3.8256   3.8281   3.8281   5.4162   5.4162   5.6363   5.6363
     5.7257   5.7257   5.8796   5.8796   5.9348   5.9348   6.1151   6.1151
     6.2763   6.2763   6.3060   6.3060   7.3942   7.3942   7.4735   7.4735
     7.7588   7.7588   7.8777   7.8777   7.9714   7.9714   8.1052   8.1052
     8.1825   8.1825   8.2544   8.2544   8.2799   8.2799   8.4842   8.4842
     8.5120   8.5120   8.6378   8.6378

          k = 0.0000-0.5700 0.7328 (169466 PWs)   bands (ev):

   -25.7251 -25.7251 -25.7169 -25.7169 -25.6917 -25.6917 -25.6910 -25.6910
   -25.5929 -25.5929 -25.5891 -25.5891 -25.4898 -25.4898 -25.4854 -25.4854
   -21.2253 -21.2253 -21.2174 -21.2174 -21.1100 -21.1100 -21.1085 -21.1085
   -21.0866 -21.0866 -21.0844 -21.0844 -21.0416 -21.0416 -21.0412 -21.0412
   -20.6266 -20.6266 -20.6264 -20.6264 -20.2904 -20.2904 -20.2889 -20.2889
   -20.2199 -20.2199 -20.2196 -20.2196 -20.0095 -20.0095 -20.0065 -20.0065
   -19.6550 -19.6550 -19.6527 -19.6527 -18.8703 -18.8703 -18.8679 -18.8679
   -13.9830 -13.9830 -13.9785 -13.9785 -13.5243 -13.5243 -13.5199 -13.5199
   -12.2847 -12.2847 -12.2734 -12.2734 -11.2524 -11.2524 -11.2252 -11.2252
   -10.8374 -10.8374 -10.8129 -10.8129 -10.2088 -10.2088 -10.1948 -10.1948
    -9.6003  -9.6003  -9.5719  -9.5719  -8.9426  -8.9426  -8.9237  -8.9237
    -8.5183  -8.5183  -8.4929  -8.4929  -8.4476  -8.4476  -8.4176  -8.4176
    -8.3023  -8.3023  -8.2629  -8.2629  -8.0440  -8.0440  -8.0045  -8.0045
    -7.9079  -7.9079  -7.8512  -7.8512  -7.7917  -7.7917  -7.7549  -7.7549
    -7.7152  -7.7152  -7.6817  -7.6817  -7.6640  -7.6640  -7.6464  -7.6464
    -7.5880  -7.5880  -7.5688  -7.5688  -7.4787  -7.4787  -7.4442  -7.4442
    -7.2579  -7.2579  -7.1734  -7.1734  -6.8177  -6.8177  -6.8129  -6.8129
    -6.7952  -6.7952  -6.7759  -6.7759  -6.6986  -6.6986  -6.6733  -6.6733
    -6.5549  -6.5549  -6.5326  -6.5326  -6.3874  -6.3874  -6.3705  -6.3705
    -5.7750  -5.7750  -5.7425  -5.7425  -5.4138  -5.4138  -5.3737  -5.3737
    -5.0162  -5.0162  -4.9947  -4.9947  -4.8826  -4.8826  -4.8565  -4.8565
    -4.4958  -4.4958  -4.4649  -4.4649  -4.2480  -4.2480  -4.2459  -4.2459
    -4.0396  -4.0396  -4.0119  -4.0119  -3.7296  -3.7296  -3.6993  -3.6993
    -3.3742  -3.3742  -3.3466  -3.3466  -3.1545  -3.1545  -3.1338  -3.1338
    -3.0386  -3.0386  -3.0335  -3.0335  -2.6154  -2.6154  -2.5641  -2.5641
    -2.5345  -2.5345  -2.5020  -2.5020  -2.3136  -2.3136  -2.2929  -2.2929
    -2.0405  -2.0405  -2.0116  -2.0116  -1.9624  -1.9624  -1.9221  -1.9221
    -1.8925  -1.8925  -1.8655  -1.8655  -1.8431  -1.8431  -1.7996  -1.7996
    -1.7626  -1.7626  -1.7492  -1.7492  -1.6887  -1.6887  -1.6762  -1.6762
    -1.6520  -1.6520  -1.6197  -1.6197  -1.5605  -1.5605  -1.5137  -1.5137
    -1.4820  -1.4820  -1.4276  -1.4276  -1.2936  -1.2936  -1.2413  -1.2413
    -1.1314  -1.1314  -1.1209  -1.1209  -1.0491  -1.0491  -1.0075  -1.0075
    -0.9479  -0.9479  -0.9122  -0.9122  -0.8517  -0.8517  -0.8416  -0.8416
    -0.7609  -0.7609  -0.7417  -0.7417  -0.7245  -0.7245  -0.6964  -0.6964
    -0.4828  -0.4828  -0.4677  -0.4677   0.3118   0.3118   0.3456   0.3456
     0.4257   0.4257   0.4566   0.4566   3.5611   3.5611   3.5715   3.5715
     3.6155   3.6155   3.6243   3.6243   3.6990   3.6990   3.7152   3.7152
     3.8298   3.8298   3.8326   3.8326   5.4598   5.4598   5.6304   5.6304
     5.7565   5.7565   5.8139   5.8139   5.9161   5.9161   6.0838   6.0838
     6.2936   6.2936   6.3192   6.3192   7.4164   7.4164   7.4601   7.4601
     7.6677   7.6677   7.7471   7.7471   7.9292   7.9292   8.0460   8.0460
     8.2213   8.2213   8.3000   8.3000   8.4204   8.4204   8.5761   8.5761
     8.6439   8.6439   8.7087   8.7087

          k =-0.5000 0.0000 0.0000 (169374 PWs)   bands (ev):

   -25.7295 -25.7295 -25.7133 -25.7133 -25.6922 -25.6922 -25.6907 -25.6907
   -25.5910 -25.5910 -25.5906 -25.5906 -25.4874 -25.4874 -25.4872 -25.4872
   -21.2293 -21.2293 -21.2135 -21.2135 -21.1106 -21.1106 -21.1092 -21.1092
   -21.0882 -21.0882 -21.0873 -21.0873 -21.0383 -21.0383 -21.0381 -21.0381
   -20.6313 -20.6313 -20.6242 -20.6242 -20.2818 -20.2818 -20.2755 -20.2755
   -20.2223 -20.2223 -20.2199 -20.2199 -20.0164 -20.0164 -20.0154 -20.0154
   -19.6554 -19.6554 -19.6537 -19.6537 -18.8720 -18.8720 -18.8673 -18.8673
   -13.9810 -13.9810 -13.9725 -13.9725 -13.5302 -13.5302 -13.5217 -13.5217
   -12.2864 -12.2864 -12.2675 -12.2675 -11.2441 -11.2441 -11.2248 -11.2248
   -10.8496 -10.8496 -10.8308 -10.8308 -10.2138 -10.2138 -10.2000 -10.2000
    -9.5753  -9.5753  -9.5485  -9.5485  -8.9271  -8.9271  -8.8219  -8.8219
    -8.5603  -8.5603  -8.4998  -8.4998  -8.4871  -8.4871  -8.4630  -8.4630
    -8.3819  -8.3819  -8.3039  -8.3039  -8.0654  -8.0654  -7.9910  -7.9910
    -7.9266  -7.9266  -7.8705  -7.8705  -7.8320  -7.8320  -7.7135  -7.7135
    -7.6957  -7.6957  -7.6694  -7.6694  -7.6581  -7.6581  -7.6051  -7.6051
    -7.5788  -7.5788  -7.5392  -7.5392  -7.4745  -7.4745  -7.4324  -7.4324
    -7.2202  -7.2202  -7.2123  -7.2123  -6.8636  -6.8636  -6.8284  -6.8284
    -6.7913  -6.7913  -6.7397  -6.7397  -6.6532  -6.6532  -6.6450  -6.6450
    -6.5289  -6.5289  -6.5055  -6.5055  -6.4031  -6.4031  -6.3957  -6.3957
    -5.8235  -5.8235  -5.7323  -5.7323  -5.4143  -5.4143  -5.3751  -5.3751
    -5.0142  -5.0142  -4.9791  -4.9791  -4.8512  -4.8512  -4.8095  -4.8095
    -4.4749  -4.4749  -4.4612  -4.4612  -4.3081  -4.3081  -4.2801  -4.2801
    -4.0458  -4.0458  -4.0254  -4.0254  -3.7162  -3.7162  -3.6897  -3.6897
    -3.3936  -3.3936  -3.3718  -3.3718  -3.2277  -3.2277  -3.1530  -3.1530
    -3.0581  -3.0581  -3.0526  -3.0526  -2.6181  -2.6181  -2.5612  -2.5612
    -2.5076  -2.5076  -2.3900  -2.3900  -2.2705  -2.2705  -2.2289  -2.2289
    -2.0747  -2.0747  -2.0304  -2.0304  -1.9550  -1.9550  -1.9434  -1.9434
    -1.8888  -1.8888  -1.8533  -1.8533  -1.8052  -1.8052  -1.7781  -1.7781
    -1.7524  -1.7524  -1.7241  -1.7241  -1.7176  -1.7176  -1.6749  -1.6749
    -1.6410  -1.6410  -1.6385  -1.6385  -1.5646  -1.5646  -1.5101  -1.5101
    -1.4734  -1.4734  -1.4569  -1.4569  -1.2580  -1.2580  -1.2115  -1.2115
    -1.1269  -1.1269  -1.1034  -1.1034  -1.0559  -1.0559  -0.9595  -0.9595
    -0.9401  -0.9401  -0.9013  -0.9013  -0.8802  -0.8802  -0.8547  -0.8547
    -0.8389  -0.8389  -0.7908  -0.7908  -0.7601  -0.7601  -0.7262  -0.7262
    -0.4850  -0.4850  -0.4686  -0.4686   0.3059   0.3059   0.3494   0.3494
     0.4092   0.4092   0.4753   0.4753   3.5556   3.5556   3.5668   3.5668
     3.6134   3.6134   3.6288   3.6288   3.7114   3.7114   3.7294   3.7294
     3.8246   3.8246   3.8281   3.8281   5.4497   5.4497   5.5628   5.5628
     5.7449   5.7449   5.8543   5.8543   6.0321   6.0321   6.0577   6.0577
     6.2677   6.2677   6.3231   6.3231   7.3897   7.3897   7.5001   7.5001
     7.7362   7.7362   7.9222   7.9222   7.9966   7.9966   8.0419   8.0419
     8.0998   8.0998   8.2443   8.2443   8.3395   8.3395   8.4389   8.4389
     8.5548   8.5548   8.6784   8.6784

          k =-0.5000 0.0000 0.7328 (169444 PWs)   bands (ev):

   -25.7251 -25.7251 -25.7169 -25.7169 -25.6917 -25.6917 -25.6910 -25.6910
   -25.5912 -25.5912 -25.5909 -25.5909 -25.4876 -25.4876 -25.4875 -25.4875
   -21.2253 -21.2253 -21.2174 -21.2174 -21.1097 -21.1097 -21.1089 -21.1089
   -21.0858 -21.0858 -21.0852 -21.0852 -21.0415 -21.0415 -21.0412 -21.0412
   -20.6286 -20.6286 -20.6244 -20.6244 -20.2924 -20.2924 -20.2869 -20.2869
   -20.2205 -20.2205 -20.2190 -20.2190 -20.0095 -20.0095 -20.0066 -20.0066
   -19.6546 -19.6546 -19.6530 -19.6530 -18.8703 -18.8703 -18.8679 -18.8679
   -13.9870 -13.9870 -13.9743 -13.9743 -13.5286 -13.5286 -13.5158 -13.5158
   -12.2844 -12.2844 -12.2738 -12.2738 -11.2471 -11.2471 -11.2302 -11.2302
   -10.8295 -10.8295 -10.8202 -10.8202 -10.2088 -10.2088 -10.1969 -10.1969
    -9.5945  -9.5945  -9.5731  -9.5731  -8.9714  -8.9714  -8.9007  -8.9007
    -8.5163  -8.5163  -8.4857  -8.4857  -8.4575  -8.4575  -8.3882  -8.3882
    -8.3495  -8.3495  -8.2450  -8.2450  -8.0320  -8.0320  -7.9930  -7.9930
    -7.9246  -7.9246  -7.8792  -7.8792  -7.8047  -7.8047  -7.7442  -7.7442
    -7.7014  -7.7014  -7.6759  -7.6759  -7.6540  -7.6540  -7.6384  -7.6384
    -7.6119  -7.6119  -7.5518  -7.5518  -7.4705  -7.4705  -7.4498  -7.4498
    -7.2203  -7.2203  -7.2144  -7.2144  -6.8348  -6.8348  -6.8136  -6.8136
    -6.7827  -6.7827  -6.7723  -6.7723  -6.7038  -6.7038  -6.6794  -6.6794
    -6.5420  -6.5420  -6.5302  -6.5302  -6.4013  -6.4013  -6.3600  -6.3600
    -5.7834  -5.7834  -5.7353  -5.7353  -5.4034  -5.4034  -5.3843  -5.3843
    -5.0218  -5.0218  -4.9906  -4.9906  -4.8832  -4.8832  -4.8549  -4.8549
    -4.4869  -4.4869  -4.4773  -4.4773  -4.2562  -4.2562  -4.2392  -4.2392
    -4.0371  -4.0371  -4.0114  -4.0114  -3.7287  -3.7287  -3.6983  -3.6983
    -3.3659  -3.3659  -3.3551  -3.3551  -3.1488  -3.1488  -3.1340  -3.1340
    -3.0427  -3.0427  -3.0287  -3.0287  -2.6322  -2.6322  -2.5820  -2.5820
    -2.5513  -2.5513  -2.4609  -2.4609  -2.3461  -2.3461  -2.2428  -2.2428
    -2.0591  -2.0591  -2.0098  -2.0098  -1.9565  -1.9565  -1.9357  -1.9357
    -1.8918  -1.8918  -1.8411  -1.8411  -1.8299  -1.8299  -1.7829  -1.7829
    -1.7687  -1.7687  -1.7531  -1.7531  -1.7207  -1.7207  -1.6923  -1.6923
    -1.6727  -1.6727  -1.5960  -1.5960  -1.5656  -1.5656  -1.4989  -1.4989
    -1.4706  -1.4706  -1.4219  -1.4219  -1.2794  -1.2794  -1.2542  -1.2542
    -1.1497  -1.1497  -1.1379  -1.1379  -1.0478  -1.0478  -1.0010  -1.0010
    -0.9425  -0.9425  -0.9104  -0.9104  -0.8604  -0.8604  -0.8090  -0.8090
    -0.7752  -0.7752  -0.7447  -0.7447  -0.7207  -0.7207  -0.7033  -0.7033
    -0.4834  -0.4834  -0.4668  -0.4668   0.3124   0.3124   0.3423   0.3423
     0.4241   0.4241   0.4606   0.4606   3.5614   3.5614   3.5728   3.5728
     3.6156   3.6156   3.6240   3.6240   3.7032   3.7032   3.7094   3.7094
     3.8270   3.8270   3.8361   3.8361   5.4854   5.4854   5.5861   5.5861
     5.7646   5.7646   5.8022   5.8022   6.0018   6.0018   6.0263   6.0263
     6.2479   6.2479   6.3627   6.3627   7.3394   7.3394   7.4971   7.4971
     7.6473   7.6473   7.7981   7.7981   7.9861   7.9861   8.0297   8.0297
     8.1880   8.1880   8.3336   8.3336   8.4254   8.4254   8.5205   8.5205
     8.5987   8.5987   8.7344   8.7344

          k =-0.5000-0.5700 0.0000 (169488 PWs)   bands (ev):

   -25.7295 -25.7295 -25.7133 -25.7133 -25.6922 -25.6922 -25.6908 -25.6908
   -25.5909 -25.5909 -25.5907 -25.5907 -25.4873 -25.4873 -25.4873 -25.4873
   -21.2293 -21.2293 -21.2135 -21.2135 -21.1100 -21.1100 -21.1098 -21.1098
   -21.0882 -21.0882 -21.0873 -21.0873 -21.0383 -21.0383 -21.0381 -21.0381
   -20.6289 -20.6289 -20.6266 -20.6266 -20.2802 -20.2802 -20.2769 -20.2769
   -20.2222 -20.2222 -20.2200 -20.2200 -20.0161 -20.0161 -20.0157 -20.0157
   -19.6548 -19.6548 -19.6544 -19.6544 -18.8719 -18.8719 -18.8674 -18.8674
   -13.9801 -13.9801 -13.9734 -13.9734 -13.5280 -13.5280 -13.5239 -13.5239
   -12.2863 -12.2863 -12.2676 -12.2676 -11.2375 -11.2375 -11.2314 -11.2314
   -10.8487 -10.8487 -10.8319 -10.8319 -10.2140 -10.2140 -10.2001 -10.2001
    -9.5644  -9.5644  -9.5578  -9.5578  -8.9218  -8.9218  -8.8362  -8.8362
    -8.5477  -8.5477  -8.4843  -8.4843  -8.4804  -8.4804  -8.4755  -8.4755
    -8.3677  -8.3677  -8.3423  -8.3423  -8.0699  -8.0699  -8.0071  -8.0071
    -7.8968  -7.8968  -7.8726  -7.8726  -7.7841  -7.7841  -7.7523  -7.7523
    -7.6831  -7.6831  -7.6824  -7.6824  -7.6580  -7.6580  -7.6192  -7.6192
    -7.5571  -7.5571  -7.5427  -7.5427  -7.4914  -7.4914  -7.4290  -7.4290
    -7.2235  -7.2235  -7.2096  -7.2096  -6.8307  -6.8307  -6.8044  -6.8044
    -6.7918  -6.7918  -6.7900  -6.7900  -6.6514  -6.6514  -6.6503  -6.6503
    -6.5285  -6.5285  -6.5169  -6.5169  -6.4014  -6.4014  -6.3879  -6.3879
    -5.8137  -5.8137  -5.7390  -5.7390  -5.4140  -5.4140  -5.3747  -5.3747
    -5.0131  -5.0131  -4.9809  -4.9809  -4.8448  -4.8448  -4.8144  -4.8144
    -4.4757  -4.4757  -4.4633  -4.4633  -4.2980  -4.2980  -4.2901  -4.2901
    -4.0383  -4.0383  -4.0357  -4.0357  -3.7063  -3.7063  -3.6993  -3.6993
    -3.3891  -3.3891  -3.3751  -3.3751  -3.2049  -3.2049  -3.1768  -3.1768
    -3.0557  -3.0557  -3.0545  -3.0545  -2.5808  -2.5808  -2.5702  -2.5702
    -2.4980  -2.4980  -2.4605  -2.4605  -2.2273  -2.2273  -2.2261  -2.2261
    -2.0627  -2.0627  -2.0349  -2.0349  -1.9551  -1.9551  -1.9315  -1.9315
    -1.8813  -1.8813  -1.8732  -1.8732  -1.8085  -1.8085  -1.8023  -1.8023
    -1.7389  -1.7389  -1.7369  -1.7369  -1.7048  -1.7048  -1.6795  -1.6795
    -1.6373  -1.6373  -1.6341  -1.6341  -1.5433  -1.5433  -1.5257  -1.5257
    -1.4849  -1.4849  -1.4690  -1.4690  -1.2637  -1.2637  -1.2150  -1.2150
    -1.1080  -1.1080  -1.1041  -1.1041  -1.0558  -1.0558  -0.9728  -0.9728
    -0.9242  -0.9242  -0.8933  -0.8933  -0.8861  -0.8861  -0.8709  -0.8709
    -0.8245  -0.8245  -0.8034  -0.8034  -0.7506  -0.7506  -0.7263  -0.7263
    -0.4807  -0.4807  -0.4695  -0.4695   0.3058   0.3058   0.3527   0.3527
     0.4044   0.4044   0.4762   0.4762   3.5543   3.5543   3.5670   3.5670
     3.6141   3.6141   3.6291   3.6291   3.7038   3.7038   3.7349   3.7349
     3.8257   3.8257   3.8286   3.8286   5.4551   5.4551   5.5625   5.5625
     5.7493   5.7493   5.8372   5.8372   6.0315   6.0315   6.0717   6.0717
     6.2873   6.2873   6.2949   6.2949   7.3905   7.3905   7.4909   7.4909
     7.7749   7.7749   7.8540   7.8540   8.0192   8.0192   8.0582   8.0582
     8.1810   8.1810   8.2181   8.2181   8.3265   8.3265   8.3527   8.3527
     8.6316   8.6316   8.6999   8.6999

          k =-0.5000-0.5700 0.7328 (169448 PWs)   bands (ev):

   -25.7251 -25.7251 -25.7169 -25.7169 -25.6917 -25.6917 -25.6911 -25.6911
   -25.5911 -25.5911 -25.5910 -25.5910 -25.4875 -25.4875 -25.4875 -25.4875
   -21.2253 -21.2253 -21.2174 -21.2174 -21.1093 -21.1093 -21.1092 -21.1092
   -21.0858 -21.0858 -21.0852 -21.0852 -21.0415 -21.0415 -21.0413 -21.0413
   -20.6271 -20.6271 -20.6259 -20.6259 -20.2903 -20.2903 -20.2890 -20.2890
   -20.2201 -20.2201 -20.2193 -20.2193 -20.0081 -20.0081 -20.0079 -20.0079
   -19.6539 -19.6539 -19.6537 -19.6537 -18.8702 -18.8702 -18.8680 -18.8680
   -13.9825 -13.9825 -13.9790 -13.9790 -13.5230 -13.5230 -13.5212 -13.5212
   -12.2837 -12.2837 -12.2745 -12.2745 -11.2406 -11.2406 -11.2370 -11.2370
   -10.8288 -10.8288 -10.8208 -10.8208 -10.2069 -10.2069 -10.1985 -10.1985
    -9.5873  -9.5873  -9.5820  -9.5820  -8.9547  -8.9547  -8.9173  -8.9173
    -8.5172  -8.5172  -8.4960  -8.4960  -8.4306  -8.4306  -8.4218  -8.4218
    -8.2892  -8.2892  -8.2868  -8.2868  -8.0413  -8.0413  -8.0092  -8.0092
    -7.8785  -7.8785  -7.8737  -7.8737  -7.7832  -7.7832  -7.7760  -7.7760
    -7.6967  -7.6967  -7.6930  -7.6930  -7.6550  -7.6550  -7.6491  -7.6491
    -7.5931  -7.5931  -7.5736  -7.5736  -7.4661  -7.4661  -7.4470  -7.4470
    -7.2181  -7.2181  -7.2138  -7.2138  -6.8191  -6.8191  -6.8062  -6.8062
    -6.7958  -6.7958  -6.7794  -6.7794  -6.7000  -6.7000  -6.6800  -6.6800
    -6.5385  -6.5385  -6.5361  -6.5361  -6.3830  -6.3830  -6.3829  -6.3829
    -5.7758  -5.7758  -5.7408  -5.7408  -5.4030  -5.4030  -5.3849  -5.3849
    -5.0133  -5.0133  -4.9975  -4.9975  -4.8781  -4.8781  -4.8614  -4.8614
    -4.4847  -4.4847  -4.4780  -4.4780  -4.2488  -4.2488  -4.2461  -4.2461
    -4.0255  -4.0255  -4.0243  -4.0243  -3.7143  -3.7143  -3.7126  -3.7126
    -3.3605  -3.3605  -3.3604  -3.3604  -3.1476  -3.1476  -3.1375  -3.1375
    -3.0371  -3.0371  -3.0360  -3.0360  -2.5987  -2.5987  -2.5922  -2.5922
    -2.5201  -2.5201  -2.5082  -2.5082  -2.3058  -2.3058  -2.3053  -2.3053
    -2.0402  -2.0402  -2.0225  -2.0225  -1.9445  -1.9445  -1.9302  -1.9302
    -1.8770  -1.8770  -1.8755  -1.8755  -1.8085  -1.8085  -1.7984  -1.7984
    -1.7644  -1.7644  -1.7437  -1.7437  -1.7192  -1.7192  -1.6956  -1.6956
    -1.6496  -1.6496  -1.6192  -1.6192  -1.5480  -1.5480  -1.5191  -1.5191
    -1.4610  -1.4610  -1.4472  -1.4472  -1.2777  -1.2777  -1.2588  -1.2588
    -1.1308  -1.1308  -1.1263  -1.1263  -1.0475  -1.0475  -1.0097  -1.0097
    -0.9398  -0.9398  -0.9107  -0.9107  -0.8482  -0.8482  -0.8431  -0.8431
    -0.7582  -0.7582  -0.7577  -0.7577  -0.7083  -0.7083  -0.7055  -0.7055
    -0.4769  -0.4769  -0.4715  -0.4715   0.3143   0.3143   0.3408   0.3408
     0.4266   0.4266   0.4576   0.4576   3.5642   3.5642   3.5683   3.5683
     3.6149   3.6149   3.6243   3.6243   3.7006   3.7006   3.7140   3.7140
     3.8310   3.8310   3.8318   3.8318   5.5041   5.5041   5.5632   5.5632
     5.7585   5.7585   5.7951   5.7951   6.0127   6.0127   6.0244   6.0244
     6.3055   6.3055   6.3098   6.3098   7.4210   7.4210   7.4566   7.4566
     7.6932   7.6932   7.7182   7.7182   7.9730   7.9730   8.0056   8.0056
     8.2088   8.2088   8.2976   8.2976   8.4492   8.4492   8.4924   8.4924
     8.7166   8.7166   8.7305   8.7305

     highest occupied, lowest unoccupied level (ev):     0.4762    3.5530

!    total energy              =   -3343.76991619 Ry
     Harris-Foulkes estimate   =   -3343.76991619 Ry
     estimated scf accuracy    <          5.0E-09 Ry

     total all-electron energy =    -12357.371375 Ry

     The total energy is the sum of the following terms:

     one-electron contribution =   -1969.80380004 Ry
     hartree contribution      =    1211.49936640 Ry
     xc contribution           =    -642.78444736 Ry
     ewald contribution        =   -1090.05746289 Ry
     Dispersion Correction     =      -0.56547631 Ry
     one-center paw contrib.   =    -852.05809600 Ry

     convergence has been achieved in  18 iterations

     Forces acting on atoms (cartesian axes, Ry/au):

     atom    1 type  1   force =     0.00035093   -0.00025139   -0.00000480
     atom    2 type  1   force =     0.00035093    0.00025139    0.00000480
     atom    3 type  1   force =    -0.00035093   -0.00025139    0.00000480
     atom    4 type  1   force =    -0.00035093    0.00025139   -0.00000480
     atom    5 type  1   force =    -0.00062073    0.00137989    0.00028373
     atom    6 type  1   force =    -0.00062073   -0.00137989   -0.00028373
     atom    7 type  1   force =     0.00062073    0.00137989   -0.00028373
     atom    8 type  1   force =     0.00062073   -0.00137989    0.00028373
     atom    9 type  1   force =    -0.00036675   -0.00058774   -0.00102712
     atom   10 type  1   force =    -0.00036675    0.00058774    0.00102712
     atom   11 type  1   force =     0.00036675   -0.00058774    0.00102712
     atom   12 type  1   force =     0.00036675    0.00058774   -0.00102712
     atom   13 type  1   force =    -0.00042386    0.00134480    0.00100389
     atom   14 type  1   force =    -0.00042386   -0.00134480   -0.00100389
     atom   15 type  1   force =     0.00042386    0.00134480   -0.00100389
     atom   16 type  1   force =     0.00042386   -0.00134480    0.00100389
     atom   17 type  1   force =     0.00139443    0.00007834   -0.00097953
     atom   18 type  1   force =     0.00139443   -0.00007834    0.00097953
     atom   19 type  1   force =    -0.00139443    0.00007834    0.00097953
     atom   20 type  1   force =    -0.00139443   -0.00007834   -0.00097953
     atom   21 type  1   force =    -0.00046003   -0.00061239    0.00044593
     atom   22 type  1   force =    -0.00046003    0.00061239   -0.00044593
     atom   23 type  1   force =     0.00046003   -0.00061239   -0.00044593
     atom   24 type  1   force =     0.00046003    0.00061239    0.00044593
     atom   25 type  1   force =    -0.00026210   -0.00004549   -0.00028478
     atom   26 type  1   force =    -0.00026210    0.00004549    0.00028478
     atom   27 type  1   force =     0.00026210   -0.00004549    0.00028478
     atom   28 type  1   force =     0.00026210    0.00004549   -0.00028478
     atom   29 type  4   force =    -0.00017325    0.00027601   -0.00020720
     atom   30 type  4   force =    -0.00017325   -0.00027601    0.00020720
     atom   31 type  4   force =     0.00017325    0.00027601    0.00020720
     atom   32 type  4   force =     0.00017325   -0.00027601   -0.00020720
     atom   33 type  4   force =     0.00047862   -0.00042878    0.00000949
     atom   34 type  4   force =     0.00047862    0.00042878   -0.00000949
     atom   35 type  4   force =    -0.00047862   -0.00042878   -0.00000949
     atom   36 type  4   force =    -0.00047862    0.00042878    0.00000949
     atom   37 type  4   force =     0.00048591    0.00042028   -0.00019386
     atom   38 type  4   force =     0.00048591   -0.00042028    0.00019386
     atom   39 type  4   force =    -0.00048591    0.00042028    0.00019386
     atom   40 type  4   force =    -0.00048591   -0.00042028   -0.00019386
     atom   41 type  4   force =    -0.00056807   -0.00115463    0.00109057
     atom   42 type  4   force =    -0.00056807    0.00115463   -0.00109057
     atom   43 type  4   force =     0.00056807   -0.00115463   -0.00109057
     atom   44 type  4   force =     0.00056807    0.00115463    0.00109057
     atom   45 type  4   force =    -0.00084264   -0.00040790    0.00185906
     atom   46 type  4   force =    -0.00084264    0.00040790   -0.00185906
     atom   47 type  4   force =     0.00084264   -0.00040790   -0.00185906
     atom   48 type  4   force =     0.00084264    0.00040790    0.00185906
     atom   49 type  4   force =     0.00034623    0.00110717   -0.00046635
     atom   50 type  4   force =     0.00034623   -0.00110717    0.00046635
     atom   51 type  4   force =    -0.00034623    0.00110717    0.00046635
     atom   52 type  4   force =    -0.00034623   -0.00110717   -0.00046635
     atom   53 type  4   force =    -0.00022481   -0.00018683    0.00142951
     atom   54 type  4   force =    -0.00022481    0.00018683   -0.00142951
     atom   55 type  4   force =     0.00022481   -0.00018683   -0.00142951
     atom   56 type  4   force =     0.00022481    0.00018683    0.00142951
     atom   57 type  4   force =     0.00005171    0.00036770   -0.00064375
     atom   58 type  4   force =     0.00005171   -0.00036770    0.00064375
     atom   59 type  4   force =    -0.00005171    0.00036770    0.00064375
     atom   60 type  4   force =    -0.00005171   -0.00036770   -0.00064375
     atom   61 type  4   force =     0.00012529   -0.00040441    0.00074417
     atom   62 type  4   force =     0.00012529    0.00040441   -0.00074417
     atom   63 type  4   force =    -0.00012529   -0.00040441   -0.00074417
     atom   64 type  4   force =    -0.00012529    0.00040441    0.00074417
     atom   65 type  4   force =    -0.00051373    0.00024305    0.00008719
     atom   66 type  4   force =    -0.00051373   -0.00024305   -0.00008719
     atom   67 type  4   force =     0.00051373    0.00024305   -0.00008719
     atom   68 type  4   force =     0.00051373   -0.00024305    0.00008719
     atom   69 type  4   force =    -0.00000429   -0.00026653    0.00064517
     atom   70 type  4   force =    -0.00000429    0.00026653   -0.00064517
     atom   71 type  4   force =     0.00000429   -0.00026653   -0.00064517
     atom   72 type  4   force =     0.00000429    0.00026653    0.00064517
     atom   73 type  4   force =    -0.00002811   -0.00072279   -0.00136881
     atom   74 type  4   force =    -0.00002811    0.00072279    0.00136881
     atom   75 type  4   force =     0.00002811   -0.00072279    0.00136881
     atom   76 type  4   force =     0.00002811    0.00072279   -0.00136881
     atom   77 type  4   force =     0.00035080   -0.00022866   -0.00060730
     atom   78 type  4   force =     0.00035080    0.00022866    0.00060730
     atom   79 type  4   force =    -0.00035080   -0.00022866    0.00060730
     atom   80 type  4   force =    -0.00035080    0.00022866   -0.00060730
     atom   81 type  4   force =    -0.00045334   -0.00058015    0.00029876
     atom   82 type  4   force =    -0.00045334    0.00058015   -0.00029876
     atom   83 type  4   force =     0.00045334   -0.00058015   -0.00029876
     atom   84 type  4   force =     0.00045334    0.00058015    0.00029876
     atom   85 type  2   force =     0.00010905    0.00073943   -0.00070444
     atom   86 type  2   force =     0.00010905   -0.00073943    0.00070444
     atom   87 type  2   force =    -0.00010905    0.00073943    0.00070444
     atom   88 type  2   force =    -0.00010905   -0.00073943   -0.00070444
     atom   89 type  2   force =     0.00010743   -0.00018088   -0.00117612
     atom   90 type  2   force =     0.00010743    0.00018088    0.00117612
     atom   91 type  2   force =    -0.00010743   -0.00018088    0.00117612
     atom   92 type  2   force =    -0.00010743    0.00018088   -0.00117612
     atom   93 type  2   force =     0.00023361    0.00012110   -0.00000084
     atom   94 type  2   force =     0.00023361   -0.00012110    0.00000084
     atom   95 type  2   force =    -0.00023361    0.00012110    0.00000084
     atom   96 type  2   force =    -0.00023361   -0.00012110   -0.00000084
     atom   97 type  2   force =    -0.00011397    0.00096197    0.00026520
     atom   98 type  2   force =    -0.00011397   -0.00096197   -0.00026520
     atom   99 type  2   force =     0.00011397    0.00096197   -0.00026520
     atom  100 type  2   force =     0.00011397   -0.00096197    0.00026520
     atom  101 type  3   force =     0.00106545    0.00003843   -0.00067892
     atom  102 type  3   force =     0.00106545   -0.00003843    0.00067892
     atom  103 type  3   force =    -0.00106545    0.00003843    0.00067892
     atom  104 type  3   force =    -0.00106545   -0.00003843   -0.00067892
     atom  105 type  3   force =    -0.00015985    0.00019682    0.00093154
     atom  106 type  3   force =    -0.00015985   -0.00019682   -0.00093154
     atom  107 type  3   force =     0.00015985    0.00019682   -0.00093154
     atom  108 type  3   force =     0.00015985   -0.00019682    0.00093154
     atom  109 type  3   force =    -0.00002576   -0.00029557    0.00013491
     atom  110 type  3   force =    -0.00002576    0.00029557   -0.00013491
     atom  111 type  3   force =     0.00002576   -0.00029557   -0.00013491
     atom  112 type  3   force =     0.00002576    0.00029557    0.00013491
     atom  113 type  3   force =     0.00000728    0.00077813   -0.00082992
     atom  114 type  3   force =     0.00000728   -0.00077813    0.00082992
     atom  115 type  3   force =    -0.00000728    0.00077813    0.00082992
     atom  116 type  3   force =    -0.00000728   -0.00077813   -0.00082992
     atom  117 type  3   force =    -0.00054587   -0.00101566   -0.00042237
     atom  118 type  3   force =    -0.00054587    0.00101566    0.00042237
     atom  119 type  3   force =     0.00054587   -0.00101566    0.00042237
     atom  120 type  3   force =     0.00054587    0.00101566   -0.00042237
     atom  121 type  3   force =     0.00088993    0.00032093   -0.00035967
     atom  122 type  3   force =     0.00088993   -0.00032093    0.00035967
     atom  123 type  3   force =    -0.00088993    0.00032093    0.00035967
     atom  124 type  3   force =    -0.00088993   -0.00032093   -0.00035967
     atom  125 type  3   force =     0.00042253    0.00025038   -0.00025813
     atom  126 type  3   force =     0.00042253   -0.00025038    0.00025813
     atom  127 type  3   force =    -0.00042253    0.00025038    0.00025813
     atom  128 type  3   force =    -0.00042253   -0.00025038   -0.00025813
     atom  129 type  3   force =    -0.00040410    0.00050763   -0.00027638
     atom  130 type  3   force =    -0.00040410   -0.00050763    0.00027638
     atom  131 type  3   force =     0.00040410    0.00050763    0.00027638
     atom  132 type  3   force =     0.00040410   -0.00050763   -0.00027638
     atom  133 type  3   force =     0.00029958   -0.00005324   -0.00009973
     atom  134 type  3   force =     0.00029958    0.00005324    0.00009973
     atom  135 type  3   force =    -0.00029958   -0.00005324    0.00009973
     atom  136 type  3   force =    -0.00029958    0.00005324   -0.00009973
     atom  137 type  3   force =    -0.00057620   -0.00039502   -0.00053415
     atom  138 type  3   force =    -0.00057620    0.00039502    0.00053415
     atom  139 type  3   force =     0.00057620   -0.00039502    0.00053415
     atom  140 type  3   force =     0.00057620    0.00039502   -0.00053415

     Total force =     0.012680     Total SCF correction =     0.000129


     Computing stress (Cartesian axis) and pressure

          total   stress  (Ry/bohr**3)                   (kbar)     P=   -2.06
  -0.00000863   0.00000000   0.00000000         -1.27      0.00      0.00
   0.00000000  -0.00001388   0.00000000          0.00     -2.04      0.00
   0.00000000   0.00000000  -0.00001941          0.00      0.00     -2.86


     Writing output data file scf.save
 
     init_run     :    148.64s CPU    153.06s WALL (       1 calls)
     electrons    :   6784.52s CPU   6963.31s WALL (       1 calls)
     forces       :     78.44s CPU     78.90s WALL (       1 calls)
     stress       :    416.72s CPU    417.55s WALL (       1 calls)

     Called by init_run:
     wfcinit      :    139.15s CPU    143.32s WALL (       1 calls)
     potinit      :      3.32s CPU      3.38s WALL (       1 calls)

     Called by electrons:
     c_bands      :   6144.79s CPU   6302.13s WALL (      18 calls)
     sum_band     :    615.32s CPU    633.77s WALL (      18 calls)
     v_of_rho     :      3.95s CPU      4.33s WALL (      19 calls)
     newd         :      9.35s CPU     11.88s WALL (      19 calls)
     PAW_pot      :     10.44s CPU     10.44s WALL (      19 calls)
     mix_rho      :      0.85s CPU      0.94s WALL (      18 calls)

     Called by c_bands:
     init_us_2    :     19.71s CPU     19.79s WALL (     312 calls)
     cegterg      :   6055.89s CPU   6213.12s WALL (     144 calls)

     Called by sum_band:
     sum_band:bec :      0.31s CPU      0.31s WALL (     144 calls)
     addusdens    :      9.57s CPU     11.94s WALL (      18 calls)

     Called by *egterg:
     h_psi        :   3010.25s CPU   3127.99s WALL (     664 calls)
     s_psi        :    816.63s CPU    816.75s WALL (     664 calls)
     g_psi        :     10.36s CPU     10.36s WALL (     512 calls)
     cdiaghg      :    364.67s CPU    364.73s WALL (     656 calls)

     Called by h_psi:
     h_psi:pot    :   2994.71s CPU   3112.23s WALL (     664 calls)
     h_psi:calbec :    795.12s CPU    796.05s WALL (     664 calls)
     vloc_psi     :   1383.61s CPU   1500.05s WALL (     664 calls)
     add_vuspsi   :    815.98s CPU    816.12s WALL (     664 calls)

     General routines
     calbec       :   1182.46s CPU   1183.87s WALL (     848 calls)
     fft          :      2.83s CPU      3.50s WALL (     271 calls)
     fftw         :   1482.90s CPU   1614.66s WALL (  303566 calls)
 
     Parallel routines
     fft_scatter  :    262.58s CPU    391.40s WALL (  303837 calls)
 
     PWSCF        :     2h 4m CPU        2h 8m WALL

 
   This run was terminated on:   5:54:38   4Nov2017            

=------------------------------------------------------------------------------=
   JOB DONE.
=------------------------------------------------------------------------------=
