
     Program PWSCF v.6.1 (svn rev. 13369) starts on  3Nov2017 at 18:47:25 

     This program is part of the open-source Quantum ESPRESSO suite
     for quantum simulation of materials; please cite
         "P. Giannozzi et al., J. Phys.:Condens. Matter 21 395502 (2009);
          URL http://www.quantum-espresso.org", 
     in publications or presentations arising from this work. More details at
     http://www.quantum-espresso.org/quote

     Parallel version (MPI), running on     8 processors
     R & G space division:  proc/nbgrp/npool/nimage =       8
     Waiting for input...
     Reading input from standard input

     Current dimensions of program PWSCF are:
     Max number of different atomic species (ntypx) = 10
     Max number of k-points (npk) =  40000
     Max angular momentum in pseudopotentials (lmaxx) =  3
               file C.pbe-n-kjpaw_psl.0.1.UPF: wavefunction(s)  2P renormalized
               file N.pbe-n-kjpaw_psl.0.1.UPF: wavefunction(s)  2P renormalized
               file H.pbe-kjpaw_psl.0.1.UPF: wavefunction(s)  1S renormalized
               file O.pbe-n-kjpaw_psl.0.1.UPF: wavefunction(s)  2P renormalized

     -------------------------------------
     Parameters for Dispersion Correction:
     -------------------------------------
       atom      VdW radius       C_6     

        C          2.744         60.710
        N          2.640         42.670
        H          1.892          4.857
        O          2.536         24.284

     Subspace diagonalization in iterative solution of the eigenvalue problem:
     a serial algorithm will be used

 
     Parallelization info
     --------------------
     sticks:   dense  smooth     PW     G-vecs:    dense   smooth      PW
     Min         561     561    154                21194    21194    3056
     Max         562     562    155                21196    21196    3058
     Sum        4493    4493   1235               169561   169561   24457
 


     bravais-lattice index     =            0
     lattice parameter (alat)  =      10.9015  a.u.
     unit-cell volume          =    1254.4463 (a.u.)^3
     number of atoms/cell      =           18
     number of atomic types    =            4
     number of electrons       =        60.00
     number of Kohn-Sham states=           36
     kinetic-energy cutoff     =     100.0000  Ry
     charge density cutoff     =     400.0000  Ry
     convergence threshold     =      1.0E-08
     mixing beta               =       0.5000
     number of iterations used =            8  plain     mixing
     Exchange-correlation      =  SLA  PW   PBX  PBC ( 1  4  3  4 0 0)

     celldm(1)=  10.901452  celldm(2)=   0.000000  celldm(3)=   0.000000
     celldm(4)=   0.000000  celldm(5)=   0.000000  celldm(6)=   0.000000

     crystal axes: (cart. coord. in units of alat)
               a(1) = (   1.000000   0.000000   0.000000 )  
               a(2) = (  -0.110096   1.186346   0.000000 )  
               a(3) = (  -0.399116  -0.376090   0.816183 )  

     reciprocal axes: (cart. coord. in units 2 pi/alat)
               b(1) = (  1.000000  0.092802  0.531765 )  
               b(2) = (  0.000000  0.842924  0.388412 )  
               b(3) = (  0.000000  0.000000  1.225215 )  


     PseudoPot. # 1 for  C read from file:
     /scratch/ahofstet/pseudo/C.pbe-n-kjpaw_psl.0.1.UPF
     MD5 check sum: 430fe95172b1e11ef3f8ed03bac87931
     Pseudo is Projector augmented-wave + core cor, Zval =  4.0
     Generated using "atomic" code by A. Dal Corso  v.5.0.99 svn rev. 10869
     Shape of augmentation charge: BESSEL
     Using radial grid of 1073 points,  4 beta functions with: 
                l(1) =   0
                l(2) =   0
                l(3) =   1
                l(4) =   1
     Q(r) pseudized with 0 coefficients 


     PseudoPot. # 2 for  N read from file:
     /scratch/ahofstet/pseudo/N.pbe-n-kjpaw_psl.0.1.UPF
     MD5 check sum: f73187c8b701007e77325f868c9291d7
     Pseudo is Projector augmented-wave + core cor, Zval =  5.0
     Generated using "atomic" code by A. Dal Corso  v.5.0.99 svn rev. 10869
     Shape of augmentation charge: PSQ
     Using radial grid of 1085 points,  4 beta functions with: 
                l(1) =   0
                l(2) =   0
                l(3) =   1
                l(4) =   1
     Q(r) pseudized with 0 coefficients 


     PseudoPot. # 3 for  H read from file:
     /scratch/ahofstet/pseudo/H.pbe-kjpaw_psl.0.1.UPF
     MD5 check sum: 94e484f906d9e9773b2f6e52662335b2
     Pseudo is Projector augmented-wave, Zval =  1.0
     Generated using "atomic" code by A. Dal Corso  v.5.0.99 svn rev. 10869
     Shape of augmentation charge: PSQ
     Using radial grid of  929 points,  2 beta functions with: 
                l(1) =   0
                l(2) =   0
     Q(r) pseudized with 0 coefficients 


     PseudoPot. # 4 for  O read from file:
     /scratch/ahofstet/pseudo/O.pbe-n-kjpaw_psl.0.1.UPF
     MD5 check sum: 3f94a2996a3169367d6eb21d9b593f20
     Pseudo is Projector augmented-wave + core cor, Zval =  6.0
     Generated using "atomic" code by A. Dal Corso  v.5.0.99 svn rev. 10869
     Shape of augmentation charge: BESSEL
     Using radial grid of 1095 points,  4 beta functions with: 
                l(1) =   0
                l(2) =   0
                l(3) =   1
                l(4) =   1
     Q(r) pseudized with 0 coefficients 


     atomic species   valence    mass     pseudopotential
        C              4.00    12.01070      C( 1.00)
        N              5.00    14.00670      N( 1.00)
        H              1.00     1.00794      H( 1.00)
        O              6.00    15.99940      O( 1.00)

      2 Sym. Ops., with inversion, found



   Cartesian axes

     site n.     atom                  positions (alat units)
         1           N   tau(   1) = (   0.7010665   0.3134068   0.1006930  )
         2           N   tau(   2) = (  -0.2102780   0.4968491   0.7154902  )
         3           N   tau(   3) = (   0.8237175   0.2022949   0.2596508  )
         4           N   tau(   4) = (  -0.3329290   0.6079610   0.5565324  )
         5           N   tau(   5) = (   0.7275325   0.0633366   0.4116244  )
         6           N   tau(   6) = (  -0.2367440   0.7469193   0.4045588  )
         7           C   tau(   7) = (   0.3553036   0.1430391   0.2501539  )
         8           C   tau(   8) = (   0.1354849   0.6672169   0.5660293  )
         9           C   tau(   9) = (   0.4698491   0.2859509   0.0946970  )
        10           C   tau(  10) = (   0.0209394   0.5243050   0.7214862  )
        11           C   tau(  11) = (   0.4964974   0.0307359   0.4092204  )
        12           C   tau(  12) = (  -0.0057089   0.7795201   0.4069628  )
        13           H   tau(  13) = (   0.4317460  -0.0836692   0.5450220  )
        14           H   tau(  14) = (   0.0590425   0.8939251   0.2711612  )
        15           H   tau(  15) = (   0.1649961   0.1313040   0.2460790  )
        16           H   tau(  16) = (   0.3257923   0.6789519   0.5701042  )
        17           H   tau(  17) = (   0.3779273   0.3779857  -0.0441310  )
        18           H   tau(  18) = (   0.1128612   0.4322703   0.8603142  )

     number of k points=    14
                       cart. coord. in units 2pi/alat
        k(    1) = (   0.0000000   0.0000000   0.0000000), wk =   0.0740741
        k(    2) = (   0.0000000   0.0000000   0.4084050), wk =   0.1481481
        k(    3) = (   0.0000000   0.2809748   0.1294707), wk =   0.1481481
        k(    4) = (   0.0000000   0.2809748   0.5378758), wk =   0.1481481
        k(    5) = (   0.0000000   0.2809748  -0.2789343), wk =   0.1481481
        k(    6) = (   0.3333333   0.0309341   0.1772551), wk =   0.1481481
        k(    7) = (   0.3333333   0.0309341   0.5856601), wk =   0.1481481
        k(    8) = (   0.3333333   0.0309341  -0.2311500), wk =   0.1481481
        k(    9) = (   0.3333333   0.3119089   0.3067258), wk =   0.1481481
        k(   10) = (   0.3333333   0.3119089   0.7151308), wk =   0.1481481
        k(   11) = (   0.3333333   0.3119089  -0.1016792), wk =   0.1481481
        k(   12) = (   0.3333333  -0.2500407   0.0477843), wk =   0.1481481
        k(   13) = (   0.3333333  -0.2500407   0.4561894), wk =   0.1481481
        k(   14) = (   0.3333333  -0.2500407  -0.3606207), wk =   0.1481481

     Dense  grid:   169561 G-vectors     FFT dimensions: (  72,  90,  72)

     Estimated max dynamical RAM per process >      51.98MB

     Estimated total allocated dynamical RAM >     415.81MB

     Check: negative/imaginary core charge=   -0.000002    0.000000

     Initial potential from superposition of free atoms

     starting charge   59.99965, renormalised to   60.00000
     Starting wfc are   54 randomized atomic wfcs
     Checking if some PAW data can be deallocated... 

     total cpu time spent up to now is        4.6 secs

     per-process dynamical memory:    81.2 Mb

     Self-consistent Calculation

     iteration #  1     ecut=   100.00 Ry     beta=0.50
     Davidson diagonalization with overlap
     ethr =  1.00E-02,  avg # of iterations =  3.0

     total cpu time spent up to now is       10.2 secs

     total energy              =    -286.54440790 Ry
     Harris-Foulkes estimate   =    -287.29446077 Ry
     estimated scf accuracy    <       1.56392671 Ry

     iteration #  2     ecut=   100.00 Ry     beta=0.50
     Davidson diagonalization with overlap
     ethr =  2.61E-03,  avg # of iterations =  1.9

     total cpu time spent up to now is       13.4 secs

     total energy              =    -286.54553372 Ry
     Harris-Foulkes estimate   =    -286.66298190 Ry
     estimated scf accuracy    <       0.24275252 Ry

     iteration #  3     ecut=   100.00 Ry     beta=0.50
     Davidson diagonalization with overlap
     ethr =  4.05E-04,  avg # of iterations =  5.8

     total cpu time spent up to now is       19.6 secs

     total energy              =    -286.70115223 Ry
     Harris-Foulkes estimate   =    -286.74927698 Ry
     estimated scf accuracy    <       0.11786685 Ry

     iteration #  4     ecut=   100.00 Ry     beta=0.50
     Davidson diagonalization with overlap
     ethr =  1.96E-04,  avg # of iterations =  1.0

     total cpu time spent up to now is       22.8 secs

     total energy              =    -286.68437041 Ry
     Harris-Foulkes estimate   =    -286.70730590 Ry
     estimated scf accuracy    <       0.03407213 Ry

     iteration #  5     ecut=   100.00 Ry     beta=0.50
     Davidson diagonalization with overlap
     ethr =  5.68E-05,  avg # of iterations =  5.9

     total cpu time spent up to now is       29.1 secs

     total energy              =    -286.70323947 Ry
     Harris-Foulkes estimate   =    -286.73532653 Ry
     estimated scf accuracy    <       0.07469982 Ry

     iteration #  6     ecut=   100.00 Ry     beta=0.50
     Davidson diagonalization with overlap
     ethr =  5.68E-05,  avg # of iterations =  2.7

     total cpu time spent up to now is       32.4 secs

     total energy              =    -286.70061550 Ry
     Harris-Foulkes estimate   =    -286.70733252 Ry
     estimated scf accuracy    <       0.01667756 Ry

     iteration #  7     ecut=   100.00 Ry     beta=0.50
     Davidson diagonalization with overlap
     ethr =  2.78E-05,  avg # of iterations =  4.8

     total cpu time spent up to now is       37.9 secs

     total energy              =    -286.70936758 Ry
     Harris-Foulkes estimate   =    -286.70949604 Ry
     estimated scf accuracy    <       0.00039719 Ry

     iteration #  8     ecut=   100.00 Ry     beta=0.50
     Davidson diagonalization with overlap
     ethr =  6.62E-07,  avg # of iterations =  3.3

     total cpu time spent up to now is       41.8 secs

     total energy              =    -286.70942850 Ry
     Harris-Foulkes estimate   =    -286.70944615 Ry
     estimated scf accuracy    <       0.00005248 Ry

     iteration #  9     ecut=   100.00 Ry     beta=0.50
     Davidson diagonalization with overlap
     ethr =  8.75E-08,  avg # of iterations =  4.0

     total cpu time spent up to now is       46.6 secs

     total energy              =    -286.70946161 Ry
     Harris-Foulkes estimate   =    -286.70946276 Ry
     estimated scf accuracy    <       0.00000894 Ry

     iteration # 10     ecut=   100.00 Ry     beta=0.50
     Davidson diagonalization with overlap
     ethr =  1.49E-08,  avg # of iterations =  2.8

     total cpu time spent up to now is       50.2 secs

     total energy              =    -286.70945931 Ry
     Harris-Foulkes estimate   =    -286.70946305 Ry
     estimated scf accuracy    <       0.00000591 Ry

     iteration # 11     ecut=   100.00 Ry     beta=0.50
     Davidson diagonalization with overlap
     ethr =  9.85E-09,  avg # of iterations =  3.4

     total cpu time spent up to now is       54.2 secs

     total energy              =    -286.70946083 Ry
     Harris-Foulkes estimate   =    -286.70946097 Ry
     estimated scf accuracy    <       0.00000026 Ry

     iteration # 12     ecut=   100.00 Ry     beta=0.50
     Davidson diagonalization with overlap
     ethr =  4.29E-10,  avg # of iterations =  4.1

     total cpu time spent up to now is       60.0 secs

     total energy              =    -286.70946109 Ry
     Harris-Foulkes estimate   =    -286.70946112 Ry
     estimated scf accuracy    <       0.00000006 Ry

     iteration # 13     ecut=   100.00 Ry     beta=0.50
     Davidson diagonalization with overlap
     ethr =  9.21E-11,  avg # of iterations =  2.1

     total cpu time spent up to now is       63.5 secs

     End of self-consistent calculation

          k = 0.0000 0.0000 0.0000 ( 21179 PWs)   bands (ev):

   -20.3251 -20.1618 -16.0508 -16.0062 -14.1941 -14.0476 -10.5480 -10.5105
   -10.3087 -10.1993  -7.0667  -6.7221  -6.6890  -6.4858  -5.4132  -4.1258
    -4.0999  -4.0341  -3.3414  -3.1970  -1.9658  -1.8412  -1.7607  -1.6009
    -1.3442  -0.9444   0.1585   0.2623   0.3055   0.5143   3.7451   3.9249
     4.0261   4.4291   7.2908   8.0406

          k = 0.0000 0.0000 0.4084 ( 21212 PWs)   bands (ev):

   -20.3024 -20.1684 -16.0952 -16.0543 -14.1505 -14.0659 -10.5364 -10.4971
   -10.2857 -10.1910  -6.7744  -6.6474  -6.5468  -6.2088  -5.2091  -4.5428
    -4.3473  -4.1919  -3.8808  -3.5734  -2.1839  -2.0162  -1.7626  -1.4602
    -1.2457  -0.9708   0.3947   0.4895   0.6580   0.7498   3.6442   3.9512
     4.1613   4.3593   8.0544   8.1883

          k = 0.0000 0.2810 0.1295 ( 21183 PWs)   bands (ev):

   -20.3017 -20.1865 -16.0784 -15.9782 -14.1868 -14.0529 -10.5724 -10.4856
   -10.2846 -10.2297  -7.0277  -6.7310  -6.7035  -6.5508  -5.1239  -4.3474
    -4.1448  -4.0452  -3.3504  -3.2101  -1.9645  -1.8424  -1.8038  -1.4631
    -1.2766  -1.0180   0.0122   0.2831   0.3561   0.4776   3.7105   3.9888
     4.1333   4.3800   7.6318   8.0191

          k = 0.0000 0.2810 0.5379 ( 21171 PWs)   bands (ev):

   -20.2902 -20.1811 -16.1377 -16.0103 -14.1487 -14.0674 -10.5584 -10.4830
   -10.3178 -10.1507  -6.7721  -6.6526  -6.6030  -6.1685  -5.1084  -4.6233
    -4.3551  -4.2065  -3.8699  -3.5232  -2.1641  -2.0519  -1.8948  -1.3439
    -1.1831  -1.0317   0.3764   0.4902   0.5946   0.7878   3.6646   3.9426
     4.1027   4.4760   7.8982   8.2431

          k = 0.0000 0.2810-0.2789 ( 21198 PWs)   bands (ev):

   -20.3043 -20.1662 -16.1425 -16.0050 -14.1398 -14.0781 -10.5363 -10.4965
   -10.3042 -10.1751  -6.7645  -6.6274  -6.5491  -6.2620  -5.3353  -4.4470
    -4.3704  -4.0303  -3.7501  -3.7079  -2.1257  -2.0438  -1.9362  -1.5285
    -1.0565  -0.9514   0.4174   0.4328   0.5523   0.8255   3.7577   3.8636
     4.0039   4.5565   7.7947   8.1026

          k = 0.3333 0.0309 0.1773 ( 21157 PWs)   bands (ev):

   -20.3043 -20.1693 -16.0630 -16.0150 -14.2929 -14.0967 -10.4355 -10.3865
   -10.2624 -10.1811  -6.8533  -6.6297  -6.5075  -6.1721  -5.1994  -4.6660
    -4.5664  -4.1928  -3.5659  -3.5044  -2.4805  -2.3290  -1.7611  -1.6208
    -1.3747  -0.8776   0.3665   0.4464   0.9453   1.1285   3.7699   4.0782
     4.2063   4.3708   7.9422   7.9814

          k = 0.3333 0.0309 0.5857 ( 21183 PWs)   bands (ev):

   -20.2959 -20.1648 -16.0958 -16.0498 -14.2502 -14.1230 -10.3911 -10.3246
   -10.2998 -10.2143  -6.7117  -6.6055  -6.2804  -6.0475  -5.1393  -4.8295
    -4.5611  -4.2852  -3.7814  -3.6640  -2.8053  -2.5916  -1.7460  -1.5472
    -1.2567  -1.0112   0.6664   0.7482   0.9879   1.1235   3.7745   4.0653
     4.2099   4.2890   7.9346   8.1850

          k = 0.3333 0.0309-0.2311 ( 21185 PWs)   bands (ev):

   -20.3108 -20.1533 -16.0865 -16.0348 -14.2248 -14.1525 -10.3697 -10.3495
   -10.3208 -10.2364  -6.7071  -6.6371  -6.4561  -6.1031  -5.3221  -4.6964
    -4.5281  -4.0584  -3.7350  -3.4759  -2.5681  -2.3571  -1.8331  -1.5434
    -1.2809  -1.0973   0.4378   0.4869   0.9659   1.0752   3.9158   3.9752
     4.0953   4.3320   7.8675   8.0110

          k = 0.3333 0.3119 0.3067 ( 21143 PWs)   bands (ev):

   -20.2915 -20.1827 -16.0994 -15.9774 -14.2702 -14.1216 -10.4469 -10.3796
   -10.2297 -10.2118  -6.8476  -6.6106  -6.4958  -6.2332  -5.1102  -4.6972
    -4.4455  -4.3431  -3.6081  -3.4000  -2.4290  -2.3985  -1.9096  -1.4881
    -1.2603  -1.0409   0.2939   0.4651   0.9800   1.0820   3.7757   4.1680
     4.2665   4.2943   7.9299   8.0128

          k = 0.3333 0.3119 0.7151 ( 21183 PWs)   bands (ev):

   -20.2973 -20.1632 -16.1384 -16.0052 -14.2123 -14.1642 -10.4214 -10.3352
   -10.3053 -10.1645  -6.7089  -6.6016  -6.3544  -5.9638  -5.3098  -4.8106
    -4.5042  -4.1351  -3.8399  -3.6028  -2.7330  -2.6121  -1.9048  -1.4480
    -1.2326  -1.0760   0.5114   0.8551   1.0306   1.0597   3.8823   4.0204
     4.0919   4.3969   7.7693   8.1659

          k = 0.3333 0.3119-0.1017 ( 21195 PWs)   bands (ev):

   -20.2909 -20.1743 -16.1098 -16.0116 -14.2379 -14.1358 -10.4177 -10.3445
   -10.3040 -10.2076  -6.7174  -6.6322  -6.4471  -6.1541  -5.0601  -4.7050
    -4.5135  -4.4171  -3.6184  -3.5924  -2.4937  -2.3914  -1.8948  -1.5161
    -1.2183  -0.9374   0.2288   0.6161   0.9765   1.0462   3.8905   4.0353
     4.1025   4.4349   7.7857   8.1278

          k = 0.3333-0.2500 0.0478 ( 21185 PWs)   bands (ev):

   -20.3049 -20.1685 -16.1009 -15.9757 -14.2506 -14.1444 -10.4368 -10.3853
   -10.2538 -10.1904  -6.8506  -6.6090  -6.4400  -6.2774  -5.2862  -4.6893
    -4.4789  -4.0600  -3.6071  -3.4163  -2.5177  -2.3317  -1.8874  -1.4834
    -1.2391  -1.1368   0.2471   0.5081   0.9766   1.0862   3.8816   4.0614
     4.1883   4.3340   7.8787   7.9934

          k = 0.3333-0.2500 0.4562 ( 21165 PWs)   bands (ev):

   -20.2872 -20.1739 -16.1327 -16.0120 -14.2343 -14.1392 -10.4121 -10.3256
   -10.3088 -10.1796  -6.7207  -6.5968  -6.2908  -6.0238  -5.1690  -4.7704
    -4.6234  -4.3229  -3.7958  -3.6312  -2.7020  -2.6181  -1.9612  -1.4063
    -1.2583  -0.9075   0.5361   0.8132   1.0032   1.1102   3.8266   4.0235
     4.1097   4.4884   7.8568   8.1297

          k = 0.3333-0.2500-0.3606 ( 21176 PWs)   bands (ev):

   -20.2900 -20.1752 -16.1067 -16.0147 -14.2095 -14.1659 -10.4339 -10.3550
   -10.3008 -10.1806  -6.7125  -6.6334  -6.5183  -6.0499  -5.1126  -4.6797
    -4.5807  -4.3241  -3.7438  -3.4663  -2.5679  -2.3569  -1.8550  -1.4597
    -1.2011  -1.0794   0.2128   0.6213   0.9802   1.0472   3.8874   4.0250
     4.2125   4.3034   7.8369   8.0004

     highest occupied, lowest unoccupied level (ev):     1.1285    3.6442

!    total energy              =    -286.70946109 Ry
     Harris-Foulkes estimate   =    -286.70946110 Ry
     estimated scf accuracy    <          5.6E-09 Ry

     total all-electron energy =     -1121.086850 Ry

     The total energy is the sum of the following terms:

     one-electron contribution =    -138.55460585 Ry
     hartree contribution      =      92.09178647 Ry
     xc contribution           =     -61.25636540 Ry
     ewald contribution        =     -89.25986727 Ry
     Dispersion Correction     =      -0.08648303 Ry
     one-center paw contrib.   =     -89.64392601 Ry

     convergence has been achieved in  13 iterations

     Forces acting on atoms (cartesian axes, Ry/au):

     atom    1 type  2   force =    -0.00805520    0.00356486   -0.01269911
     atom    2 type  2   force =     0.00805520   -0.00356486    0.01269911
     atom    3 type  2   force =     0.00714655    0.00686708   -0.00862181
     atom    4 type  2   force =    -0.00714655   -0.00686708    0.00862181
     atom    5 type  2   force =    -0.00670286   -0.01277930    0.01571031
     atom    6 type  2   force =     0.00670286    0.01277930   -0.01571031
     atom    7 type  1   force =    -0.00655123    0.00136031    0.00384927
     atom    8 type  1   force =     0.00655123   -0.00136031   -0.00384927
     atom    9 type  1   force =     0.00340274    0.00290675   -0.00616192
     atom   10 type  1   force =    -0.00340274   -0.00290675    0.00616192
     atom   11 type  1   force =     0.00341697    0.00329771    0.00128192
     atom   12 type  1   force =    -0.00341697   -0.00329771   -0.00128192
     atom   13 type  3   force =    -0.00063212    0.00244415   -0.00286186
     atom   14 type  3   force =     0.00063212   -0.00244415    0.00286186
     atom   15 type  3   force =     0.00733618   -0.00243399    0.00335503
     atom   16 type  3   force =    -0.00733618    0.00243399   -0.00335503
     atom   17 type  3   force =     0.00085850   -0.00029679    0.00364481
     atom   18 type  3   force =    -0.00085850    0.00029679   -0.00364481

     Total force =     0.047073     Total SCF correction =     0.000142


     Computing stress (Cartesian axis) and pressure

          total   stress  (Ry/bohr**3)                   (kbar)     P=   14.98
   0.00011616   0.00004910  -0.00008950         17.09      7.22    -13.17
   0.00004910   0.00008798  -0.00004748          7.22     12.94     -6.98
  -0.00008950  -0.00004748   0.00010130        -13.17     -6.98     14.90


     Writing output data file scf.save
 
     init_run     :      3.88s CPU      3.99s WALL (       1 calls)
     electrons    :     57.65s CPU     58.99s WALL (       1 calls)
     forces       :      2.12s CPU      2.13s WALL (       1 calls)
     stress       :      3.90s CPU      3.91s WALL (       1 calls)

     Called by init_run:
     wfcinit      :      1.67s CPU      1.72s WALL (       1 calls)
     potinit      :      0.77s CPU      0.82s WALL (       1 calls)

     Called by electrons:
     c_bands      :     48.36s CPU     49.37s WALL (      13 calls)
     sum_band     :      6.98s CPU      7.15s WALL (      13 calls)
     v_of_rho     :      0.38s CPU      0.42s WALL (      14 calls)
     newd         :      0.53s CPU      0.54s WALL (      14 calls)
     PAW_pot      :      1.28s CPU      1.28s WALL (      14 calls)
     mix_rho      :      0.07s CPU      0.07s WALL (      13 calls)

     Called by c_bands:
     init_us_2    :      0.65s CPU      0.65s WALL (     406 calls)
     cegterg      :     46.54s CPU     47.54s WALL (     182 calls)

     Called by sum_band:
     sum_band:bec :      0.01s CPU      0.01s WALL (     182 calls)
     addusdens    :      0.54s CPU      0.55s WALL (      13 calls)

     Called by *egterg:
     h_psi        :     35.73s CPU     36.77s WALL (     822 calls)
     s_psi        :      2.32s CPU      2.32s WALL (     822 calls)
     g_psi        :      0.22s CPU      0.22s WALL (     626 calls)
     cdiaghg      :      2.37s CPU      2.37s WALL (     808 calls)

     Called by h_psi:
     h_psi:pot    :     35.55s CPU     36.59s WALL (     822 calls)
     h_psi:calbec :      2.55s CPU      2.55s WALL (     822 calls)
     vloc_psi     :     30.67s CPU     31.71s WALL (     822 calls)
     add_vuspsi   :      2.33s CPU      2.33s WALL (     822 calls)

     General routines
     calbec       :      3.62s CPU      3.63s WALL (    1074 calls)
     fft          :      0.24s CPU      0.30s WALL (     206 calls)
     fftw         :     32.87s CPU     33.96s WALL (   46276 calls)
 
     Parallel routines
     fft_scatter  :      8.41s CPU      8.80s WALL (   46482 calls)
 
     PWSCF        :  1m 9.10s CPU     1m11.48s WALL

 
   This run was terminated on:  18:48:37   3Nov2017            

=------------------------------------------------------------------------------=
   JOB DONE.
=------------------------------------------------------------------------------=
