
     Program PWSCF v.6.1 (svn rev. 13369) starts on  3Nov2017 at 23:48:12 

     This program is part of the open-source Quantum ESPRESSO suite
     for quantum simulation of materials; please cite
         "P. Giannozzi et al., J. Phys.:Condens. Matter 21 395502 (2009);
          URL http://www.quantum-espresso.org", 
     in publications or presentations arising from this work. More details at
     http://www.quantum-espresso.org/quote

     Parallel version (MPI), running on     8 processors
     R & G space division:  proc/nbgrp/npool/nimage =       8
     Waiting for input...
     Reading input from standard input

     Current dimensions of program PWSCF are:
     Max number of different atomic species (ntypx) = 10
     Max number of k-points (npk) =  40000
     Max angular momentum in pseudopotentials (lmaxx) =  3
               file C.pbe-n-kjpaw_psl.0.1.UPF: wavefunction(s)  2P renormalized
               file N.pbe-n-kjpaw_psl.0.1.UPF: wavefunction(s)  2P renormalized
               file H.pbe-kjpaw_psl.0.1.UPF: wavefunction(s)  1S renormalized
               file O.pbe-n-kjpaw_psl.0.1.UPF: wavefunction(s)  2P renormalized

     -------------------------------------
     Parameters for Dispersion Correction:
     -------------------------------------
       atom      VdW radius       C_6     

        C          2.744         60.710
        N          2.640         42.670
        H          1.892          4.857
        O          2.536         24.284

     Subspace diagonalization in iterative solution of the eigenvalue problem:
     a serial algorithm will be used

 
     Parallelization info
     --------------------
     sticks:   dense  smooth     PW     G-vecs:    dense   smooth      PW
     Min        1293    1293    337               163734   163734   21875
     Max        1294    1294    338               163738   163738   21880
     Sum       10345   10345   2703              1309879  1309879  175021
 


     bravais-lattice index     =            0
     lattice parameter (alat)  =      24.9973  a.u.
     unit-cell volume          =    9695.6419 (a.u.)^3
     number of atoms/cell      =          152
     number of atomic types    =            4
     number of electrons       =       448.00
     number of Kohn-Sham states=          268
     kinetic-energy cutoff     =     100.0000  Ry
     charge density cutoff     =     400.0000  Ry
     convergence threshold     =      1.0E-08
     mixing beta               =       0.5000
     number of iterations used =            8  plain     mixing
     Exchange-correlation      =  SLA  PW   PBX  PBC ( 1  4  3  4 0 0)

     celldm(1)=  24.997297  celldm(2)=   0.000000  celldm(3)=   0.000000
     celldm(4)=   0.000000  celldm(5)=   0.000000  celldm(6)=   0.000000

     crystal axes: (cart. coord. in units of alat)
               a(1) = (   1.000000   0.000000   0.000000 )  
               a(2) = (   0.000000   0.519655   0.000000 )  
               a(3) = (  -0.900537   0.000000   1.194489 )  

     reciprocal axes: (cart. coord. in units 2 pi/alat)
               b(1) = (  1.000000  0.000000  0.753910 )  
               b(2) = (  0.000000  1.924353  0.000000 )  
               b(3) = (  0.000000  0.000000  0.837178 )  


     PseudoPot. # 1 for  C read from file:
     /scratch/ahofstet/pseudo/C.pbe-n-kjpaw_psl.0.1.UPF
     MD5 check sum: 430fe95172b1e11ef3f8ed03bac87931
     Pseudo is Projector augmented-wave + core cor, Zval =  4.0
     Generated using "atomic" code by A. Dal Corso  v.5.0.99 svn rev. 10869
     Shape of augmentation charge: BESSEL
     Using radial grid of 1073 points,  4 beta functions with: 
                l(1) =   0
                l(2) =   0
                l(3) =   1
                l(4) =   1
     Q(r) pseudized with 0 coefficients 


     PseudoPot. # 2 for  N read from file:
     /scratch/ahofstet/pseudo/N.pbe-n-kjpaw_psl.0.1.UPF
     MD5 check sum: f73187c8b701007e77325f868c9291d7
     Pseudo is Projector augmented-wave + core cor, Zval =  5.0
     Generated using "atomic" code by A. Dal Corso  v.5.0.99 svn rev. 10869
     Shape of augmentation charge: PSQ
     Using radial grid of 1085 points,  4 beta functions with: 
                l(1) =   0
                l(2) =   0
                l(3) =   1
                l(4) =   1
     Q(r) pseudized with 0 coefficients 


     PseudoPot. # 3 for  H read from file:
     /scratch/ahofstet/pseudo/H.pbe-kjpaw_psl.0.1.UPF
     MD5 check sum: 94e484f906d9e9773b2f6e52662335b2
     Pseudo is Projector augmented-wave, Zval =  1.0
     Generated using "atomic" code by A. Dal Corso  v.5.0.99 svn rev. 10869
     Shape of augmentation charge: PSQ
     Using radial grid of  929 points,  2 beta functions with: 
                l(1) =   0
                l(2) =   0
     Q(r) pseudized with 0 coefficients 


     PseudoPot. # 4 for  O read from file:
     /scratch/ahofstet/pseudo/O.pbe-n-kjpaw_psl.0.1.UPF
     MD5 check sum: 3f94a2996a3169367d6eb21d9b593f20
     Pseudo is Projector augmented-wave + core cor, Zval =  6.0
     Generated using "atomic" code by A. Dal Corso  v.5.0.99 svn rev. 10869
     Shape of augmentation charge: BESSEL
     Using radial grid of 1095 points,  4 beta functions with: 
                l(1) =   0
                l(2) =   0
                l(3) =   1
                l(4) =   1
     Q(r) pseudized with 0 coefficients 


     atomic species   valence    mass     pseudopotential
        C              4.00    12.01070      C( 1.00)
        N              5.00    14.00670      N( 1.00)
        H              1.00     1.00794      H( 1.00)
        O              6.00    15.99940      O( 1.00)

      4 Sym. Ops., with inversion, found ( 2 have fractional translation)



   Cartesian axes

     site n.     atom                  positions (alat units)
         1           C   tau(   1) = (   0.0078983   0.1074925   0.4804004  )
         2           C   tau(   2) = (   0.5418333   0.3673201   0.1168440  )
         3           C   tau(   3) = (   0.0915649   0.4121628   0.7140883  )
         4           C   tau(   4) = (  -0.4423701   0.1523351   1.0776448  )
         5           C   tau(   5) = (   0.1635804   0.1159212   0.3931489  )
         6           C   tau(   6) = (   0.3861512   0.3757489   0.2040955  )
         7           C   tau(   7) = (  -0.0641172   0.4037340   0.8013399  )
         8           C   tau(   8) = (  -0.2866880   0.1439064   0.9903932  )
         9           C   tau(   9) = (   0.2148945   0.1370586   0.4792998  )
        10           C   tau(  10) = (   0.3348371   0.3968862   0.1179445  )
        11           C   tau(  11) = (  -0.1154314   0.3825967   0.7151889  )
        12           C   tau(  12) = (  -0.2353739   0.1227691   1.0765442  )
        13           H   tau(  13) = (   0.2966364   0.1482657   0.4760050  )
        14           H   tau(  14) = (   0.2530951   0.4080933   0.1212394  )
        15           H   tau(  15) = (  -0.1971733   0.3713896   0.7184837  )
        16           H   tau(  16) = (  -0.1536320   0.1115619   1.0732494  )
        17           C   tau(  17) = (   0.1633623   0.1452953   0.5748615  )
        18           C   tau(  18) = (   0.3863692   0.4051230   0.0223828  )
        19           C   tau(  19) = (  -0.0638992   0.3743599   0.6196272  )
        20           C   tau(  20) = (  -0.2869061   0.1145323   1.1721059  )
        21           C   tau(  21) = (   0.2084945   0.1657107   0.6668647  )
        22           C   tau(  22) = (  -0.5592997   0.4255384   1.1248684  )
        23           C   tau(  23) = (  -0.1090313   0.3539446   0.5276240  )
        24           C   tau(  24) = (   0.6587629   0.0941169   0.0696203  )
        25           H   tau(  25) = (   0.2899742   0.1779484   0.6714876  )
        26           H   tau(  26) = (  -0.6407794   0.4377760   1.1202455  )
        27           H   tau(  27) = (  -0.1905110   0.3417069   0.5230011  )
        28           H   tau(  28) = (   0.7402426   0.0818793   0.0742433  )
        29           C   tau(  29) = (   0.1507903   0.1702671   0.7585810  )
        30           C   tau(  30) = (  -0.5015956   0.4300948   1.0331521  )
        31           C   tau(  31) = (  -0.0513271   0.3493882   0.4359078  )
        32           C   tau(  32) = (   0.6010587   0.0895605   0.1613366  )
        33           C   tau(  33) = (   0.0435773   0.1550011   0.7527789  )
        34           C   tau(  34) = (  -0.3943826   0.4148288   1.0389542  )
        35           C   tau(  35) = (   0.0558859   0.3646541   0.4417098  )
        36           C   tau(  36) = (   0.4938457   0.1048265   0.1555345  )
        37           H   tau(  37) = (  -0.0012273   0.1598666   0.8217488  )
        38           H   tau(  38) = (  -0.3495780   0.4196942   0.9699843  )
        39           H   tau(  39) = (   0.1006905   0.3597887   0.3727399  )
        40           H   tau(  40) = (   0.4490411   0.0999611   0.2245045  )
        41           C   tau(  41) = (  -0.0011126   0.1352153   0.6609738  )
        42           C   tau(  42) = (  -0.3496927   0.3950429   1.1307593  )
        43           C   tau(  43) = (   0.1005757   0.3844400   0.5335149  )
        44           C   tau(  44) = (   0.4491558   0.1246123   0.0637295  )
        45           C   tau(  45) = (  -0.1502382   0.0992885   0.5667247  )
        46           C   tau(  46) = (   0.6999698   0.3591161   0.0305197  )
        47           C   tau(  47) = (   0.2497014   0.4203668   0.6277640  )
        48           C   tau(  48) = (  -0.6005066   0.1605391   1.1639691  )
        49           C   tau(  49) = (  -0.0976838   0.0921203   0.4780271  )
        50           C   tau(  50) = (   0.6474154   0.3519480   0.1192173  )
        51           C   tau(  51) = (   0.1971470   0.4275349   0.7164616  )
        52           C   tau(  52) = (  -0.5479522   0.1677073   1.0752715  )
        53           H   tau(  53) = (  -0.1354145   0.0738933   0.4070157  )
        54           H   tau(  54) = (   0.6851461   0.3337210   0.1902286  )
        55           H   tau(  55) = (   0.2348777   0.4457619   0.7874730  )
        56           H   tau(  56) = (  -0.5856829   0.1859343   1.0042601  )
        57           C   tau(  57) = (   0.0565925   0.1290547   0.5708587  )
        58           C   tau(  58) = (   0.4931391   0.3888824   0.0263857  )
        59           C   tau(  59) = (   0.0428707   0.3906005   0.6236300  )
        60           C   tau(  60) = (  -0.3936759   0.1307729   1.1681031  )
        61           C   tau(  61) = (   0.2058198   0.1065907   0.2896613  )
        62           C   tau(  62) = (   0.3439118   0.3664184   0.3075830  )
        63           C   tau(  63) = (  -0.1063566   0.4130646   0.9048274  )
        64           C   tau(  64) = (  -0.2444487   0.1532369   0.8869057  )
        65           H   tau(  65) = (   0.1834769   0.0343647   0.2549786  )
        66           H   tau(  66) = (   0.3662547   0.2941923   0.3422658  )
        67           H   tau(  67) = (  -0.0840137   0.4852906   0.9395102  )
        68           H   tau(  68) = (  -0.2667915   0.2254630   0.8522230  )
        69           H   tau(  69) = (   0.1756381   0.1672325   0.2411468  )
        70           H   tau(  70) = (   0.3740935   0.4270602   0.3560976  )
        71           H   tau(  71) = (  -0.0761749   0.3524228   0.9533419  )
        72           H   tau(  72) = (  -0.2746303   0.0925951   0.8383912  )
        73           H   tau(  73) = (   0.2885364   0.1109058   0.2924454  )
        74           H   tau(  74) = (   0.2611952   0.3707335   0.3047990  )
        75           H   tau(  75) = (  -0.1890732   0.4087494   0.9020433  )
        76           H   tau(  76) = (  -0.1617320   0.1489218   0.8896898  )
        77           C   tau(  77) = (  -0.2609420   0.0869722   0.5786177  )
        78           C   tau(  78) = (   0.8106736   0.3467998   0.0186267  )
        79           C   tau(  79) = (   0.3604052   0.4326831   0.6158711  )
        80           C   tau(  80) = (  -0.7112104   0.1728554   1.1758621  )
        81           H   tau(  81) = (  -0.2775444   0.0282768   0.6352506  )
        82           H   tau(  82) = (  -0.0732608   0.2881045   1.1564825  )
        83           H   tau(  83) = (   0.3770076   0.4913784   0.5592381  )
        84           H   tau(  84) = (   0.1727240   0.2315508   0.0380063  )
        85           H   tau(  85) = (  -0.2944225   0.1579798   0.6065688  )
        86           H   tau(  86) = (  -0.0563828   0.4178074   1.1851643  )
        87           H   tau(  87) = (   0.3938856   0.3616755   0.5879200  )
        88           H   tau(  88) = (   0.1558459   0.1018479   0.0093244  )
        89           H   tau(  89) = (  -0.2964079   0.0667843   0.5065280  )
        90           H   tau(  90) = (   0.8461395   0.3266119   0.0907164  )
        91           H   tau(  91) = (   0.3958711   0.4528710   0.6879608  )
        92           H   tau(  92) = (  -0.7466763   0.1930434   1.1037724  )
        93           O   tau(  93) = (   0.0595351   0.1010768   0.3929678  )
        94           O   tau(  94) = (   0.4901965   0.3609045   0.2042766  )
        95           O   tau(  95) = (   0.0399281   0.4185784   0.8015210  )
        96           O   tau(  96) = (  -0.3907333   0.1587508   0.9902121  )
        97           O   tau(  97) = (  -0.1038980   0.1201864   0.6561879  )
        98           O   tau(  98) = (  -0.2469072   0.3800140   1.1355452  )
        99           O   tau(  99) = (   0.2033612   0.3994689   0.5383008  )
       100           O   tau( 100) = (   0.3463704   0.1396413   0.0589436  )
       101           O   tau( 101) = (   0.1940057   0.1879824   0.8447466  )
       102           O   tau( 102) = (  -0.5448109   0.4478101   0.9469865  )
       103           O   tau( 103) = (  -0.0945425   0.3316729   0.3497422  )
       104           O   tau( 104) = (   0.6442741   0.0718452   0.2475022  )
       105           O   tau( 105) = (  -0.0319891   0.0903586   0.1222473  )
       106           O   tau( 106) = (   0.5817207   0.3501862   0.4749971  )
       107           O   tau( 107) = (   0.1314523   0.4292967   1.0722414  )
       108           O   tau( 108) = (  -0.4822575   0.1694691   0.7194917  )
       109           H   tau( 109) = (  -0.0805091   0.0622244   0.1726060  )
       110           H   tau( 110) = (   0.6302407   0.3220521   0.4246384  )
       111           H   tau( 111) = (   0.1799722   0.4574309   1.0218827  )
       112           H   tau( 112) = (  -0.5307775   0.1976032   0.7698504  )
       113           H   tau( 113) = (  -0.0088025   0.1574826   0.1481023  )
       114           H   tau( 114) = (   0.5585341   0.4173103   0.4491421  )
       115           H   tau( 115) = (   0.1082657   0.3621727   1.0463864  )
       116           H   tau( 116) = (  -0.4590709   0.1023450   0.7453467  )
       117           O   tau( 117) = (   0.0313680   0.2734017   0.1949520  )
       118           O   tau( 118) = (   0.5183636   0.0135741   0.4022924  )
       119           O   tau( 119) = (   0.0680952   0.2462536   0.9995368  )
       120           O   tau( 120) = (  -0.4189004   0.5060812   0.7921963  )
       121           H   tau( 121) = (  -0.0142253   0.2964446   0.2502697  )
       122           H   tau( 122) = (   0.5639569   0.0366170   0.3469747  )
       123           H   tau( 123) = (   0.1136885   0.2232107   0.9442191  )
       124           H   tau( 124) = (  -0.4644937   0.4830383   0.8475140  )
       125           H   tau( 125) = (   0.0442975   0.3335536   0.1517136  )
       126           H   tau( 126) = (   0.5054341   0.0737260   0.4455308  )
       127           H   tau( 127) = (   0.0551657   0.1861016   1.0427752  )
       128           H   tau( 128) = (  -0.4059709   0.4459293   0.7489579  )
       129           O   tau( 129) = (  -0.1630288   0.5249378   0.2543633  )
       130           O   tau( 130) = (   0.7127604   0.2651102   0.3428810  )
       131           O   tau( 131) = (   0.2624920  -0.0052826   0.9401254  )
       132           O   tau( 132) = (  -0.6132972   0.2545451   0.8516077  )
       133           H   tau( 133) = (   0.7630944   0.0206937   0.2498113  )
       134           H   tau( 134) = (  -0.2133628   0.2805213   0.3474331  )
       135           H   tau( 135) = (  -0.6636312   0.4989616   0.9446775  )
       136           H   tau( 136) = (   0.3128260   0.2391340   0.8470556  )
       137           H   tau( 137) = (  -0.1528432   0.4569314   0.2819343  )
       138           H   tau( 138) = (   0.7025748   0.1971038   0.3153101  )
       139           H   tau( 139) = (   0.2523064   0.0627238   0.9125544  )
       140           H   tau( 140) = (  -0.6031117   0.3225515   0.8791787  )
       141           O   tau( 141) = (   0.0837330   0.4397701   0.0786645  )
       142           O   tau( 142) = (   0.4659986   0.1799424   0.5185799  )
       143           O   tau( 143) = (   0.0157302   0.0798852   1.1158243  )
       144           O   tau( 144) = (  -0.3665354   0.3397128   0.6759088  )
       145           H   tau( 145) = (   0.0674421   0.4320145   0.0055901  )
       146           H   tau( 146) = (   0.4822895   0.1721868   0.5916542  )
       147           H   tau( 147) = (   0.0320211   0.0876408   1.1888986  )
       148           H   tau( 148) = (  -0.3828263   0.3474684   0.6028345  )
       149           H   tau( 149) = (   0.0472441   0.5019123   0.0994117  )
       150           H   tau( 150) = (   0.5024875   0.2420847   0.4978326  )
       151           H   tau( 151) = (   0.0522191   0.0177430   1.0950770  )
       152           H   tau( 152) = (  -0.4030243   0.2775706   0.6966561  )

     number of k points=     4
                       cart. coord. in units 2pi/alat
        k(    1) = (   0.0000000   0.0000000   0.0000000), wk =   0.3333333
        k(    2) = (   0.0000000   0.6414509   0.0000000), wk =   0.6666667
        k(    3) = (  -0.5000000   0.0000000  -0.3769549), wk =   0.3333333
        k(    4) = (  -0.5000000   0.6414509  -0.3769549), wk =   0.6666667

     Dense  grid:  1309879 G-vectors     FFT dimensions: ( 160,  90, 240)

     Estimated max dynamical RAM per process >    1473.86MB

     Estimated total allocated dynamical RAM >   11790.84MB

     Check: negative/imaginary core charge=   -0.000002    0.000000

     Initial potential from superposition of free atoms

     starting charge  447.99711, renormalised to  448.00000
     Starting wfc are  392 randomized atomic wfcs
     Checking if some PAW data can be deallocated... 

     total cpu time spent up to now is       69.3 secs

     per-process dynamical memory:   843.5 Mb

     Self-consistent Calculation

     iteration #  1     ecut=   100.00 Ry     beta=0.50
     Davidson diagonalization with overlap
     ethr =  1.00E-02,  avg # of iterations =  4.5

     total cpu time spent up to now is      240.0 secs

     total energy              =   -2208.04475002 Ry
     Harris-Foulkes estimate   =   -2217.29193507 Ry
     estimated scf accuracy    <      16.70344222 Ry

     iteration #  2     ecut=   100.00 Ry     beta=0.50
     Davidson diagonalization with overlap
     ethr =  3.73E-03,  avg # of iterations =  2.8

     total cpu time spent up to now is      344.8 secs

     total energy              =   -2210.34539087 Ry
     Harris-Foulkes estimate   =   -2211.40579181 Ry
     estimated scf accuracy    <       2.26196435 Ry

     iteration #  3     ecut=   100.00 Ry     beta=0.50
     Davidson diagonalization with overlap
     ethr =  5.05E-04,  avg # of iterations =  7.8

     total cpu time spent up to now is      537.2 secs

     total energy              =   -2211.37723615 Ry
     Harris-Foulkes estimate   =   -2211.79493693 Ry
     estimated scf accuracy    <       1.02411572 Ry

     iteration #  4     ecut=   100.00 Ry     beta=0.50
     Davidson diagonalization with overlap
     ethr =  2.29E-04,  avg # of iterations =  2.0

     total cpu time spent up to now is      627.7 secs

     total energy              =   -2211.39243804 Ry
     Harris-Foulkes estimate   =   -2211.49506864 Ry
     estimated scf accuracy    <       0.22206680 Ry

     iteration #  5     ecut=   100.00 Ry     beta=0.50
     Davidson diagonalization with overlap
     ethr =  4.96E-05,  avg # of iterations =  8.5

     total cpu time spent up to now is      816.8 secs

     total energy              =   -2211.51855431 Ry
     Harris-Foulkes estimate   =   -2211.55679786 Ry
     estimated scf accuracy    <       0.12899259 Ry

     iteration #  6     ecut=   100.00 Ry     beta=0.50
     Davidson diagonalization with overlap
     ethr =  2.88E-05,  avg # of iterations =  2.0

     total cpu time spent up to now is      905.5 secs

     total energy              =   -2211.49789820 Ry
     Harris-Foulkes estimate   =   -2211.52595900 Ry
     estimated scf accuracy    <       0.05111224 Ry

     iteration #  7     ecut=   100.00 Ry     beta=0.50
     Davidson diagonalization with overlap
     ethr =  1.14E-05,  avg # of iterations =  7.2

     total cpu time spent up to now is     1058.5 secs

     total energy              =   -2211.52062902 Ry
     Harris-Foulkes estimate   =   -2211.52270768 Ry
     estimated scf accuracy    <       0.00895290 Ry

     iteration #  8     ecut=   100.00 Ry     beta=0.50
     Davidson diagonalization with overlap
     ethr =  2.00E-06,  avg # of iterations =  2.0

     total cpu time spent up to now is     1148.7 secs

     total energy              =   -2211.51864612 Ry
     Harris-Foulkes estimate   =   -2211.52101167 Ry
     estimated scf accuracy    <       0.00497220 Ry

     iteration #  9     ecut=   100.00 Ry     beta=0.50
     Davidson diagonalization with overlap
     ethr =  1.11E-06,  avg # of iterations =  4.0

     total cpu time spent up to now is     1264.6 secs

     total energy              =   -2211.52008235 Ry
     Harris-Foulkes estimate   =   -2211.52012923 Ry
     estimated scf accuracy    <       0.00017147 Ry

     iteration # 10     ecut=   100.00 Ry     beta=0.50
     Davidson diagonalization with overlap
     ethr =  3.83E-08,  avg # of iterations =  4.0

     total cpu time spent up to now is     1409.1 secs

     total energy              =   -2211.52011765 Ry
     Harris-Foulkes estimate   =   -2211.52015940 Ry
     estimated scf accuracy    <       0.00008312 Ry

     iteration # 11     ecut=   100.00 Ry     beta=0.50
     Davidson diagonalization with overlap
     ethr =  1.86E-08,  avg # of iterations =  4.5

     total cpu time spent up to now is     1511.1 secs

     total energy              =   -2211.52013242 Ry
     Harris-Foulkes estimate   =   -2211.52013408 Ry
     estimated scf accuracy    <       0.00000610 Ry

     iteration # 12     ecut=   100.00 Ry     beta=0.50
     Davidson diagonalization with overlap
     ethr =  1.36E-09,  avg # of iterations =  4.0

     total cpu time spent up to now is     1682.5 secs

     total energy              =   -2211.52013769 Ry
     Harris-Foulkes estimate   =   -2211.52013999 Ry
     estimated scf accuracy    <       0.00000480 Ry

     iteration # 13     ecut=   100.00 Ry     beta=0.50
     Davidson diagonalization with overlap
     ethr =  1.07E-09,  avg # of iterations =  1.0

     total cpu time spent up to now is     1768.4 secs

     total energy              =   -2211.52013800 Ry
     Harris-Foulkes estimate   =   -2211.52013821 Ry
     estimated scf accuracy    <       0.00000043 Ry

     iteration # 14     ecut=   100.00 Ry     beta=0.50
     Davidson diagonalization with overlap
     ethr =  9.51E-11,  avg # of iterations =  4.0

     total cpu time spent up to now is     1947.6 secs

     total energy              =   -2211.52013875 Ry
     Harris-Foulkes estimate   =   -2211.52013907 Ry
     estimated scf accuracy    <       0.00000107 Ry

     iteration # 15     ecut=   100.00 Ry     beta=0.50
     Davidson diagonalization with overlap
     ethr =  9.51E-11,  avg # of iterations =  1.0

     total cpu time spent up to now is     2033.4 secs

     total energy              =   -2211.52013854 Ry
     Harris-Foulkes estimate   =   -2211.52013877 Ry
     estimated scf accuracy    <       0.00000045 Ry

     iteration # 16     ecut=   100.00 Ry     beta=0.50
     Davidson diagonalization with overlap
     ethr =  9.51E-11,  avg # of iterations =  4.0

     total cpu time spent up to now is     2177.4 secs

     total energy              =   -2211.52013876 Ry
     Harris-Foulkes estimate   =   -2211.52013879 Ry
     estimated scf accuracy    <       0.00000010 Ry

     iteration # 17     ecut=   100.00 Ry     beta=0.50
     Davidson diagonalization with overlap
     ethr =  2.34E-11,  avg # of iterations =  1.0

     total cpu time spent up to now is     2263.2 secs

     total energy              =   -2211.52013875 Ry
     Harris-Foulkes estimate   =   -2211.52013876 Ry
     estimated scf accuracy    <       0.00000005 Ry

     iteration # 18     ecut=   100.00 Ry     beta=0.50
     Davidson diagonalization with overlap
     ethr =  1.14E-11,  avg # of iterations =  4.0

     total cpu time spent up to now is     2382.9 secs

     End of self-consistent calculation

          k = 0.0000 0.0000 0.0000 (163743 PWs)   bands (ev):

   -22.4086 -22.4083 -22.3835 -22.3833 -22.2709 -22.2705 -22.2522 -22.2519
   -19.1973 -19.1928 -19.1081 -19.1076 -18.8317 -18.7904 -18.6593 -18.5892
   -18.4602 -18.4510 -18.4156 -18.3865 -18.2680 -18.2638 -18.0424 -18.0374
   -17.9731 -17.9658 -17.9534 -17.9396 -16.0520 -16.0509 -15.8929 -15.8913
   -15.2168 -15.2140 -15.1911 -15.1817 -14.5909 -14.5837 -14.5765 -14.5745
   -13.3259 -13.3119 -13.2743 -13.2704 -13.1485 -13.1295 -13.0963 -13.0612
   -11.9420 -11.9400 -11.9259 -11.9024 -11.4996 -11.4757 -11.4738 -11.4539
   -10.7134 -10.6451 -10.6401 -10.5944 -10.4364 -10.4324 -10.4080 -10.3986
    -9.4117  -9.4084  -9.4027  -9.3976  -8.4298  -8.4145  -8.4011  -8.3794
    -7.6477  -7.6336  -7.6231  -7.6081  -7.3778  -7.3665  -7.3578  -7.3494
    -7.2975  -7.2593  -7.1479  -7.1072  -6.7012  -6.7007  -6.6298  -6.6262
    -6.6245  -6.6217  -6.5697  -6.5362  -6.5223  -6.5132  -6.4050  -6.3701
    -6.3696  -6.3421  -6.3385  -6.3298  -6.1310  -6.1275  -5.9710  -5.9639
    -5.8552  -5.8422  -5.8309  -5.8232  -5.8085  -5.7689  -5.5831  -5.5521
    -5.5335  -5.5010  -5.4636  -5.4415  -5.1570  -5.1476  -5.1467  -5.1376
    -5.0045  -5.0000  -4.9949  -4.9769  -4.5547  -4.4903  -4.4355  -4.4318
    -4.3986  -4.3651  -4.3401  -4.2763  -4.2668  -4.2167  -4.1957  -4.1911
    -4.1803  -4.1390  -4.0272  -3.9965  -3.9930  -3.9713  -3.9277  -3.8890
    -3.8822  -3.8721  -3.8004  -3.7623  -3.7554  -3.7207  -3.7186  -3.7096
    -3.6906  -3.5871  -3.5806  -3.5574  -3.5426  -3.5363  -3.4679  -3.4167
    -3.4051  -3.4021  -3.3978  -3.2877  -3.1576  -3.1106  -3.0249  -3.0084
    -2.7453  -2.7247  -2.6822  -2.6513  -2.6358  -2.6277  -2.6182  -2.5626
    -2.5492  -2.5303  -2.4438  -2.4236  -2.3855  -2.3684  -2.3438  -2.2437
    -2.1201  -2.0375  -1.8799  -1.8146  -1.6300  -1.6271  -1.6001  -1.5796
    -1.4072  -1.3943  -1.2059  -1.1513  -1.0200  -1.0115  -0.9280  -0.8948
    -0.8769  -0.8705  -0.8367  -0.8364  -0.7477  -0.7267  -0.7069  -0.7035
    -0.5361  -0.5179  -0.5094  -0.5020  -0.0726  -0.0684  -0.0188  -0.0172
     0.2209   0.2913   0.4853   0.4941   0.5651   0.5729   0.6831   0.7335
     3.0534   3.0599   3.2510   3.2621   3.9561   3.9679   3.9909   4.0152
     4.3685   4.3892   4.5969   4.6306   5.3822   5.8478   5.8957   5.9335
     6.1872   6.2394   6.2797   6.3596   6.4327   6.5534   6.5679   6.6825
     6.7038   6.8138   6.8638   6.8788   6.8842   6.9708   7.1351   7.2087
     7.2719   7.2893   7.3937   7.5324   7.5793   7.8792   7.8895   7.9002
     7.9622   8.0096   8.2220   8.2307

          k = 0.0000 0.6415 0.0000 (163724 PWs)   bands (ev):

   -22.4038 -22.4036 -22.3880 -22.3878 -22.2678 -22.2675 -22.2551 -22.2549
   -19.1735 -19.1707 -19.1284 -19.1278 -18.7895 -18.7615 -18.6486 -18.6182
   -18.4590 -18.4496 -18.3873 -18.3814 -18.3221 -18.3043 -18.1792 -18.1611
   -17.9757 -17.9717 -17.8112 -17.8088 -16.0213 -16.0208 -15.9268 -15.9260
   -15.2113 -15.2104 -15.1932 -15.1880 -14.6117 -14.6059 -14.5569 -14.5509
   -13.3275 -13.3214 -13.2714 -13.2703 -13.1295 -13.1228 -13.1040 -13.0837
   -11.9391 -11.9329 -11.9300 -11.9129 -11.4975 -11.4895 -11.4612 -11.4553
   -10.6963 -10.6597 -10.6342 -10.6088 -10.4358 -10.4338 -10.4080 -10.4032
    -9.4138  -9.4130  -9.3984  -9.3966  -8.4218  -8.4148  -8.4009  -8.3894
    -7.6503  -7.6439  -7.6173  -7.6093  -7.3723  -7.3636  -7.3584  -7.3541
    -7.2748  -7.2294  -7.1978  -7.1526  -6.6226  -6.6220  -6.6114  -6.6062
    -6.5562  -6.5402  -6.5288  -6.5170  -6.4736  -6.4686  -6.4029  -6.3949
    -6.3889  -6.3730  -6.3042  -6.3012  -6.1409  -6.1385  -6.0696  -6.0632
    -5.8395  -5.8378  -5.8213  -5.8203  -5.7354  -5.6982  -5.5740  -5.5591
    -5.5211  -5.5085  -5.5052  -5.5016  -5.1571  -5.1516  -5.1353  -5.1289
    -5.0037  -4.9998  -4.9804  -4.9786  -4.5272  -4.5173  -4.5010  -4.4543
    -4.3927  -4.3667  -4.3633  -4.3420  -4.2859  -4.2694  -4.1791  -4.1742
    -4.1629  -4.1375  -4.0087  -3.9908  -3.9668  -3.9644  -3.9230  -3.9162
    -3.8785  -3.8669  -3.7945  -3.7679  -3.7611  -3.7464  -3.7343  -3.6786
    -3.6627  -3.6459  -3.6004  -3.5836  -3.5414  -3.5397  -3.4861  -3.4562
    -3.4380  -3.4192  -3.3735  -3.3678  -3.0788  -3.0180  -2.9456  -2.8675
    -2.7667  -2.7066  -2.7027  -2.6647  -2.6165  -2.5663  -2.5519  -2.5376
    -2.5356  -2.5071  -2.5070  -2.4852  -2.4240  -2.3875  -2.3492  -2.3383
    -2.1031  -2.0971  -1.8454  -1.8280  -1.7647  -1.7577  -1.7068  -1.7048
    -1.3802  -1.3706  -1.1768  -1.1693  -0.9769  -0.9677  -0.9298  -0.9081
    -0.8674  -0.8629  -0.8297  -0.8245  -0.7033  -0.6947  -0.6904  -0.6902
    -0.5585  -0.5538  -0.5431  -0.5337  -0.0595  -0.0580  -0.0338  -0.0322
     0.2510   0.2540   0.2897   0.3245   0.5915   0.6182   0.6977   0.7005
     3.0166   3.0206   3.2507   3.2548   3.9073   3.9109   3.9807   3.9933
     4.3349   4.3566   4.5895   4.6123   5.8933   5.9603   6.0543   6.1389
     6.1656   6.2280   6.3370   6.4655   6.5536   6.6472   6.6541   6.7620
     6.7769   6.9406   6.9963   7.0642   7.1374   7.2606   7.2963   7.3259
     7.3942   7.4331   7.5851   7.6399   7.7382   7.7643   7.7709   7.8463
     7.8533   7.9576   8.0617   8.1247

          k =-0.5000 0.0000-0.3770 (163772 PWs)   bands (ev):

   -22.4086 -22.4083 -22.3835 -22.3833 -22.2709 -22.2705 -22.2521 -22.2519
   -19.1975 -19.1926 -19.1079 -19.1078 -18.8317 -18.7901 -18.6593 -18.5895
   -18.4603 -18.4508 -18.4156 -18.3867 -18.2680 -18.2639 -18.0423 -18.0372
   -17.9731 -17.9657 -17.9535 -17.9399 -16.0520 -16.0509 -15.8925 -15.8916
   -15.2171 -15.2136 -15.1919 -15.1808 -14.5914 -14.5841 -14.5762 -14.5745
   -13.3270 -13.3105 -13.2742 -13.2706 -13.1496 -13.1286 -13.0969 -13.0606
   -11.9427 -11.9386 -11.9263 -11.9006 -11.4997 -11.4757 -11.4748 -11.4532
   -10.7144 -10.6459 -10.6400 -10.5939 -10.4369 -10.4319 -10.4070 -10.3999
    -9.4119  -9.4099  -9.4065  -9.3953  -8.4250  -8.4187  -8.3902  -8.3900
    -7.6408  -7.6373  -7.6199  -7.6178  -7.3850  -7.3637  -7.3476  -7.3253
    -7.3103  -7.2718  -7.1291  -7.1235  -6.7136  -6.6952  -6.6324  -6.6245
    -6.6224  -6.6220  -6.5627  -6.5261  -6.5228  -6.5128  -6.4049  -6.3940
    -6.3712  -6.3520  -6.3278  -6.3221  -6.1212  -6.1095  -5.9683  -5.9661
    -5.8539  -5.8431  -5.8430  -5.8343  -5.8043  -5.7724  -5.5823  -5.5516
    -5.5306  -5.4995  -5.4598  -5.4389  -5.1661  -5.1479  -5.1396  -5.1271
    -5.0270  -4.9901  -4.9797  -4.9667  -4.5172  -4.5022  -4.4711  -4.4624
    -4.4523  -4.4028  -4.3713  -4.2909  -4.2595  -4.1984  -4.1885  -4.1745
    -4.1266  -4.1047  -4.0881  -3.9972  -3.9833  -3.9068  -3.9022  -3.8940
    -3.8732  -3.8664  -3.8516  -3.7476  -3.7154  -3.7112  -3.7040  -3.6975
    -3.6895  -3.6431  -3.6319  -3.6021  -3.5765  -3.4882  -3.4693  -3.4559
    -3.3864  -3.3839  -3.3818  -3.3485  -3.1421  -3.0258  -3.0077  -2.9934
    -2.7238  -2.7048  -2.6688  -2.6676  -2.6493  -2.6173  -2.6104  -2.5800
    -2.5609  -2.5010  -2.4992  -2.4631  -2.3758  -2.3597  -2.2889  -2.2634
    -2.1398  -2.0356  -1.8660  -1.8047  -1.6374  -1.6326  -1.6149  -1.5741
    -1.4154  -1.4100  -1.1753  -1.1529  -1.0352  -1.0135  -0.9141  -0.9127
    -0.8764  -0.8521  -0.8476  -0.8400  -0.7461  -0.7398  -0.7083  -0.6971
    -0.5243  -0.5169  -0.5139  -0.5060  -0.0798  -0.0673  -0.0196  -0.0187
     0.2162   0.2937   0.4889   0.4935   0.5665   0.5724   0.6831   0.7342
     3.0577   3.0585   3.2503   3.2579   3.9554   3.9689   3.9934   4.0110
     4.3732   4.3846   4.6034   4.6283   5.6273   5.6702   5.8990   5.9298
     5.9315   6.1632   6.3526   6.4352   6.5404   6.5549   6.6221   6.6863
     6.7006   6.8310   6.8345   6.8907   6.9598   7.0139   7.0176   7.0897
     7.2509   7.2670   7.4423   7.4768   7.7211   7.8289   7.8961   8.0585
     8.1173   8.1176   8.2010   8.2196

          k =-0.5000 0.6415-0.3770 (163684 PWs)   bands (ev):

   -22.4038 -22.4036 -22.3880 -22.3878 -22.2678 -22.2675 -22.2551 -22.2549
   -19.1736 -19.1707 -19.1285 -19.1277 -18.7895 -18.7613 -18.6486 -18.6184
   -18.4589 -18.4496 -18.3873 -18.3814 -18.3220 -18.3045 -18.1792 -18.1613
   -17.9756 -17.9715 -17.8113 -17.8088 -16.0213 -16.0207 -15.9266 -15.9262
   -15.2113 -15.2103 -15.1937 -15.1874 -14.6119 -14.6059 -14.5572 -14.5509
   -13.3281 -13.3205 -13.2723 -13.2700 -13.1301 -13.1222 -13.1042 -13.0834
   -11.9397 -11.9328 -11.9289 -11.9111 -11.4976 -11.4899 -11.4612 -11.4548
   -10.6971 -10.6599 -10.6347 -10.6087 -10.4364 -10.4339 -10.4072 -10.4037
    -9.4156  -9.4136  -9.4002  -9.3956  -8.4202  -8.4160  -8.3955  -8.3943
    -7.6443  -7.6427  -7.6186  -7.6179  -7.3801  -7.3615  -7.3476  -7.3323
    -7.2717  -7.2488  -7.1809  -7.1735  -6.6301  -6.6204  -6.6108  -6.6108
    -6.5597  -6.5444  -6.5440  -6.5279  -6.4731  -6.4680  -6.3910  -6.3832
    -6.3543  -6.3503  -6.3158  -6.3149  -6.1411  -6.1359  -6.0725  -6.0667
    -5.8488  -5.8423  -5.8129  -5.8072  -5.7388  -5.6981  -5.5651  -5.5445
    -5.5385  -5.5118  -5.5080  -5.5022  -5.1585  -5.1478  -5.1291  -5.1252
    -5.0250  -5.0063  -4.9693  -4.9635  -4.5440  -4.5068  -4.4790  -4.4622
    -4.4569  -4.4284  -4.3659  -4.3513  -4.2592  -4.2286  -4.2202  -4.1640
    -4.1330  -4.1213  -4.0803  -4.0207  -3.9887  -3.9333  -3.9050  -3.8967
    -3.8897  -3.8322  -3.7628  -3.7536  -3.7238  -3.7182  -3.6869  -3.6827
    -3.6547  -3.6522  -3.6319  -3.6105  -3.5725  -3.5471  -3.5130  -3.4937
    -3.4422  -3.4361  -3.3490  -3.3469  -3.1058  -3.0176  -2.8798  -2.8269
    -2.7282  -2.6995  -2.6679  -2.6544  -2.6477  -2.6198  -2.5608  -2.5536
    -2.5379  -2.5235  -2.4918  -2.4782  -2.4553  -2.3952  -2.3463  -2.3200
    -2.1234  -2.0830  -1.8586  -1.8048  -1.7626  -1.7582  -1.7073  -1.7019
    -1.3767  -1.3674  -1.1965  -1.1762  -0.9820  -0.9679  -0.9247  -0.9179
    -0.8529  -0.8466  -0.8366  -0.8287  -0.7097  -0.7068  -0.6910  -0.6841
    -0.5592  -0.5514  -0.5398  -0.5366  -0.0648  -0.0580  -0.0371  -0.0327
     0.2531   0.2558   0.2874   0.3255   0.5901   0.6181   0.7007   0.7025
     3.0197   3.0203   3.2487   3.2510   3.9116   3.9139   3.9818   3.9907
     4.3439   4.3548   4.5920   4.6077   5.9146   5.9158   5.9480   6.1221
     6.2873   6.3027   6.3229   6.4371   6.5594   6.6732   6.7159   6.7218
     6.8538   6.9601   7.0185   7.0391   7.0943   7.1661   7.3342   7.3923
     7.4727   7.4739   7.5132   7.5542   7.6139   7.7308   7.7401   7.8776
     7.8807   7.9118   7.9683   8.0503

     highest occupied, lowest unoccupied level (ev):     0.7342    3.0166

!    total energy              =   -2211.52013876 Ry
     Harris-Foulkes estimate   =   -2211.52013876 Ry
     estimated scf accuracy    <          1.0E-09 Ry

     total all-electron energy =     -8262.966088 Ry

     The total energy is the sum of the following terms:

     one-electron contribution =   -1357.51964696 Ry
     hartree contribution      =     846.35609457 Ry
     xc contribution           =    -474.49769510 Ry
     ewald contribution        =    -613.07660863 Ry
     Dispersion Correction     =      -0.60844007 Ry
     one-center paw contrib.   =    -612.17384257 Ry

     convergence has been achieved in  18 iterations

     Forces acting on atoms (cartesian axes, Ry/au):

     atom    1 type  1   force =     0.00135546    0.00078666   -0.00091260
     atom    2 type  1   force =    -0.00135546    0.00078666    0.00091260
     atom    3 type  1   force =    -0.00135546   -0.00078666    0.00091260
     atom    4 type  1   force =     0.00135546   -0.00078666   -0.00091260
     atom    5 type  1   force =     0.00024468    0.00041851   -0.00004241
     atom    6 type  1   force =    -0.00024468    0.00041851    0.00004241
     atom    7 type  1   force =    -0.00024468   -0.00041851    0.00004241
     atom    8 type  1   force =     0.00024468   -0.00041851   -0.00004241
     atom    9 type  1   force =     0.00026920    0.00045633   -0.00036729
     atom   10 type  1   force =    -0.00026920    0.00045633    0.00036729
     atom   11 type  1   force =    -0.00026920   -0.00045633    0.00036729
     atom   12 type  1   force =     0.00026920   -0.00045633   -0.00036729
     atom   13 type  3   force =    -0.00072375    0.00007779   -0.00031734
     atom   14 type  3   force =     0.00072375    0.00007779    0.00031734
     atom   15 type  3   force =     0.00072375   -0.00007779    0.00031734
     atom   16 type  3   force =    -0.00072375   -0.00007779   -0.00031734
     atom   17 type  1   force =     0.00031351   -0.00230704   -0.00130043
     atom   18 type  1   force =    -0.00031351   -0.00230704    0.00130043
     atom   19 type  1   force =    -0.00031351    0.00230704    0.00130043
     atom   20 type  1   force =     0.00031351    0.00230704   -0.00130043
     atom   21 type  1   force =     0.00347014    0.00189480    0.00356921
     atom   22 type  1   force =    -0.00347014    0.00189480   -0.00356921
     atom   23 type  1   force =    -0.00347014   -0.00189480   -0.00356921
     atom   24 type  1   force =     0.00347014   -0.00189480    0.00356921
     atom   25 type  3   force =    -0.00071608   -0.00050282   -0.00055158
     atom   26 type  3   force =     0.00071608   -0.00050282    0.00055158
     atom   27 type  3   force =     0.00071608    0.00050282    0.00055158
     atom   28 type  3   force =    -0.00071608    0.00050282   -0.00055158
     atom   29 type  1   force =     0.00286799    0.00051072    0.00071915
     atom   30 type  1   force =    -0.00286799    0.00051072   -0.00071915
     atom   31 type  1   force =    -0.00286799   -0.00051072   -0.00071915
     atom   32 type  1   force =     0.00286799   -0.00051072    0.00071915
     atom   33 type  1   force =    -0.00123222    0.00016615    0.00170836
     atom   34 type  1   force =     0.00123222    0.00016615   -0.00170836
     atom   35 type  1   force =     0.00123222   -0.00016615   -0.00170836
     atom   36 type  1   force =    -0.00123222   -0.00016615    0.00170836
     atom   37 type  3   force =     0.00051661    0.00007673   -0.00082274
     atom   38 type  3   force =    -0.00051661    0.00007673    0.00082274
     atom   39 type  3   force =    -0.00051661   -0.00007673    0.00082274
     atom   40 type  3   force =     0.00051661   -0.00007673   -0.00082274
     atom   41 type  1   force =    -0.00051871   -0.00177748   -0.00088024
     atom   42 type  1   force =     0.00051871   -0.00177748    0.00088024
     atom   43 type  1   force =     0.00051871    0.00177748    0.00088024
     atom   44 type  1   force =    -0.00051871    0.00177748   -0.00088024
     atom   45 type  1   force =     0.00005656    0.00187199   -0.00096655
     atom   46 type  1   force =    -0.00005656    0.00187199    0.00096655
     atom   47 type  1   force =    -0.00005656   -0.00187199    0.00096655
     atom   48 type  1   force =     0.00005656   -0.00187199   -0.00096655
     atom   49 type  1   force =    -0.00059271   -0.00069637    0.00008436
     atom   50 type  1   force =     0.00059271   -0.00069637   -0.00008436
     atom   51 type  1   force =     0.00059271    0.00069637   -0.00008436
     atom   52 type  1   force =    -0.00059271    0.00069637    0.00008436
     atom   53 type  3   force =    -0.00046692    0.00042699    0.00068734
     atom   54 type  3   force =     0.00046692    0.00042699   -0.00068734
     atom   55 type  3   force =     0.00046692   -0.00042699   -0.00068734
     atom   56 type  3   force =    -0.00046692   -0.00042699    0.00068734
     atom   57 type  1   force =     0.00087113    0.00140958    0.00132305
     atom   58 type  1   force =    -0.00087113    0.00140958   -0.00132305
     atom   59 type  1   force =    -0.00087113   -0.00140958   -0.00132305
     atom   60 type  1   force =     0.00087113   -0.00140958    0.00132305
     atom   61 type  1   force =     0.00067854   -0.00003625    0.00002969
     atom   62 type  1   force =    -0.00067854   -0.00003625   -0.00002969
     atom   63 type  1   force =    -0.00067854    0.00003625   -0.00002969
     atom   64 type  1   force =     0.00067854    0.00003625    0.00002969
     atom   65 type  3   force =     0.00002268   -0.00041009   -0.00026640
     atom   66 type  3   force =    -0.00002268   -0.00041009    0.00026640
     atom   67 type  3   force =    -0.00002268    0.00041009    0.00026640
     atom   68 type  3   force =     0.00002268    0.00041009   -0.00026640
     atom   69 type  3   force =    -0.00022555   -0.00019424    0.00049931
     atom   70 type  3   force =     0.00022555   -0.00019424   -0.00049931
     atom   71 type  3   force =     0.00022555    0.00019424   -0.00049931
     atom   72 type  3   force =    -0.00022555    0.00019424    0.00049931
     atom   73 type  3   force =    -0.00085747    0.00049573   -0.00001840
     atom   74 type  3   force =     0.00085747    0.00049573    0.00001840
     atom   75 type  3   force =     0.00085747   -0.00049573    0.00001840
     atom   76 type  3   force =    -0.00085747   -0.00049573   -0.00001840
     atom   77 type  1   force =     0.00004969    0.00018348    0.00052877
     atom   78 type  1   force =    -0.00004969    0.00018348   -0.00052877
     atom   79 type  1   force =    -0.00004969   -0.00018348   -0.00052877
     atom   80 type  1   force =     0.00004969   -0.00018348    0.00052877
     atom   81 type  3   force =    -0.00030875   -0.00025662   -0.00037650
     atom   82 type  3   force =     0.00030875   -0.00025662    0.00037650
     atom   83 type  3   force =     0.00030875    0.00025662    0.00037650
     atom   84 type  3   force =    -0.00030875    0.00025662   -0.00037650
     atom   85 type  3   force =    -0.00002564   -0.00020880   -0.00009814
     atom   86 type  3   force =     0.00002564   -0.00020880    0.00009814
     atom   87 type  3   force =     0.00002564    0.00020880    0.00009814
     atom   88 type  3   force =    -0.00002564    0.00020880   -0.00009814
     atom   89 type  3   force =     0.00023408   -0.00016189    0.00041845
     atom   90 type  3   force =    -0.00023408   -0.00016189   -0.00041845
     atom   91 type  3   force =    -0.00023408    0.00016189   -0.00041845
     atom   92 type  3   force =     0.00023408    0.00016189    0.00041845
     atom   93 type  4   force =     0.00079817    0.00102490    0.00169079
     atom   94 type  4   force =    -0.00079817    0.00102490   -0.00169079
     atom   95 type  4   force =    -0.00079817   -0.00102490   -0.00169079
     atom   96 type  4   force =     0.00079817   -0.00102490    0.00169079
     atom   97 type  4   force =    -0.00047641    0.00066129    0.00179319
     atom   98 type  4   force =     0.00047641    0.00066129   -0.00179319
     atom   99 type  4   force =     0.00047641   -0.00066129   -0.00179319
     atom  100 type  4   force =    -0.00047641   -0.00066129    0.00179319
     atom  101 type  4   force =    -0.00036962   -0.00120322    0.00004103
     atom  102 type  4   force =     0.00036962   -0.00120322   -0.00004103
     atom  103 type  4   force =     0.00036962    0.00120322   -0.00004103
     atom  104 type  4   force =    -0.00036962    0.00120322    0.00004103
     atom  105 type  4   force =     0.00064304    0.00001504   -0.00009970
     atom  106 type  4   force =    -0.00064304    0.00001504    0.00009970
     atom  107 type  4   force =    -0.00064304   -0.00001504    0.00009970
     atom  108 type  4   force =     0.00064304   -0.00001504   -0.00009970
     atom  109 type  3   force =     0.00009085   -0.00020489   -0.00067958
     atom  110 type  3   force =    -0.00009085   -0.00020489    0.00067958
     atom  111 type  3   force =    -0.00009085    0.00020489    0.00067958
     atom  112 type  3   force =     0.00009085    0.00020489   -0.00067958
     atom  113 type  3   force =    -0.00027833    0.00016001    0.00049819
     atom  114 type  3   force =     0.00027833    0.00016001   -0.00049819
     atom  115 type  3   force =     0.00027833   -0.00016001   -0.00049819
     atom  116 type  3   force =    -0.00027833   -0.00016001    0.00049819
     atom  117 type  4   force =    -0.00023189    0.00002334   -0.00084664
     atom  118 type  4   force =     0.00023189    0.00002334    0.00084664
     atom  119 type  4   force =     0.00023189   -0.00002334    0.00084664
     atom  120 type  4   force =    -0.00023189   -0.00002334   -0.00084664
     atom  121 type  3   force =     0.00000617    0.00005832   -0.00019961
     atom  122 type  3   force =    -0.00000617    0.00005832    0.00019961
     atom  123 type  3   force =    -0.00000617   -0.00005832    0.00019961
     atom  124 type  3   force =     0.00000617   -0.00005832   -0.00019961
     atom  125 type  3   force =     0.00058294   -0.00008344   -0.00007369
     atom  126 type  3   force =    -0.00058294   -0.00008344    0.00007369
     atom  127 type  3   force =    -0.00058294    0.00008344    0.00007369
     atom  128 type  3   force =     0.00058294    0.00008344   -0.00007369
     atom  129 type  4   force =     0.00005845   -0.00061508    0.00087988
     atom  130 type  4   force =    -0.00005845   -0.00061508   -0.00087988
     atom  131 type  4   force =    -0.00005845    0.00061508   -0.00087988
     atom  132 type  4   force =     0.00005845    0.00061508    0.00087988
     atom  133 type  3   force =     0.00043657   -0.00063484    0.00075223
     atom  134 type  3   force =    -0.00043657   -0.00063484   -0.00075223
     atom  135 type  3   force =    -0.00043657    0.00063484   -0.00075223
     atom  136 type  3   force =     0.00043657    0.00063484    0.00075223
     atom  137 type  3   force =    -0.00036397    0.00077543   -0.00020932
     atom  138 type  3   force =     0.00036397    0.00077543    0.00020932
     atom  139 type  3   force =     0.00036397   -0.00077543    0.00020932
     atom  140 type  3   force =    -0.00036397   -0.00077543   -0.00020932
     atom  141 type  4   force =    -0.00024999    0.00033122   -0.00040738
     atom  142 type  4   force =     0.00024999    0.00033122    0.00040738
     atom  143 type  4   force =     0.00024999   -0.00033122    0.00040738
     atom  144 type  4   force =    -0.00024999   -0.00033122   -0.00040738
     atom  145 type  3   force =     0.00052341   -0.00049528    0.00022460
     atom  146 type  3   force =    -0.00052341   -0.00049528   -0.00022460
     atom  147 type  3   force =    -0.00052341    0.00049528   -0.00022460
     atom  148 type  3   force =     0.00052341    0.00049528    0.00022460
     atom  149 type  3   force =    -0.00043404    0.00011382    0.00017638
     atom  150 type  3   force =     0.00043404    0.00011382   -0.00017638
     atom  151 type  3   force =     0.00043404   -0.00011382   -0.00017638
     atom  152 type  3   force =    -0.00043404   -0.00011382    0.00017638

     Total force =     0.018979     Total SCF correction =     0.000061


     Computing stress (Cartesian axis) and pressure

          total   stress  (Ry/bohr**3)                   (kbar)     P=   -8.93
  -0.00005018   0.00000000  -0.00000678         -7.38      0.00     -1.00
   0.00000000  -0.00007141   0.00000000          0.00    -10.51      0.00
  -0.00000678   0.00000000  -0.00006061         -1.00      0.00     -8.92


     Writing output data file scf.save
 
     init_run     :     65.60s CPU     68.61s WALL (       1 calls)
     electrons    :   2202.34s CPU   2313.86s WALL (       1 calls)
     forces       :     33.93s CPU     34.37s WALL (       1 calls)
     stress       :    234.96s CPU    235.50s WALL (       1 calls)

     Called by init_run:
     wfcinit      :     46.52s CPU     49.19s WALL (       1 calls)
     potinit      :      6.45s CPU      6.55s WALL (       1 calls)

     Called by electrons:
     c_bands      :   1963.83s CPU   2055.54s WALL (      18 calls)
     sum_band     :    212.02s CPU    228.50s WALL (      18 calls)
     v_of_rho     :      4.58s CPU      5.09s WALL (      19 calls)
     newd         :     10.92s CPU     13.68s WALL (      19 calls)
     PAW_pot      :      9.64s CPU      9.64s WALL (      19 calls)
     mix_rho      :      1.09s CPU      1.20s WALL (      18 calls)

     Called by c_bands:
     init_us_2    :     11.30s CPU     11.37s WALL (     156 calls)
     cegterg      :   1920.32s CPU   2011.96s WALL (      72 calls)

     Called by sum_band:
     sum_band:bec :      0.09s CPU      0.09s WALL (      72 calls)
     addusdens    :     11.31s CPU     13.93s WALL (      18 calls)

     Called by *egterg:
     h_psi        :   1104.83s CPU   1182.31s WALL (     349 calls)
     s_psi        :    211.64s CPU    211.67s WALL (     349 calls)
     g_psi        :      6.03s CPU      6.03s WALL (     273 calls)
     cdiaghg      :    112.64s CPU    112.70s WALL (     345 calls)

     Called by h_psi:
     h_psi:pot    :   1097.89s CPU   1175.26s WALL (     349 calls)
     h_psi:calbec :    200.55s CPU    200.88s WALL (     349 calls)
     vloc_psi     :    685.76s CPU    762.78s WALL (     349 calls)
     add_vuspsi   :    211.58s CPU    211.61s WALL (     349 calls)

     General routines
     calbec       :    306.31s CPU    306.83s WALL (     441 calls)
     fft          :     10.29s CPU     11.18s WALL (     271 calls)
     fftw         :    734.16s CPU    824.56s WALL (  130450 calls)
 
     Parallel routines
     fft_scatter  :    124.44s CPU    215.43s WALL (  130721 calls)
 
     PWSCF        : 42m29.01s CPU    44m51.93s WALL

 
   This run was terminated on:   0:33: 4   4Nov2017            

=------------------------------------------------------------------------------=
   JOB DONE.
=------------------------------------------------------------------------------=
