
     Program PWSCF v.6.1 (svn rev. 13369) starts on 20Dec2017 at  6:27:52 

     This program is part of the open-source Quantum ESPRESSO suite
     for quantum simulation of materials; please cite
         "P. Giannozzi et al., J. Phys.:Condens. Matter 21 395502 (2009);
          URL http://www.quantum-espresso.org", 
     in publications or presentations arising from this work. More details at
     http://www.quantum-espresso.org/quote

     Parallel version (MPI), running on     8 processors
     R & G space division:  proc/nbgrp/npool/nimage =       8
     Waiting for input...
     Reading input from standard input

     Current dimensions of program PWSCF are:
     Max number of different atomic species (ntypx) = 10
     Max number of k-points (npk) =  40000
     Max angular momentum in pseudopotentials (lmaxx) =  3
               file C.pbe-n-kjpaw_psl.0.1.UPF: wavefunction(s)  2P renormalized
               file N.pbe-n-kjpaw_psl.0.1.UPF: wavefunction(s)  2P renormalized
               file H.pbe-kjpaw_psl.0.1.UPF: wavefunction(s)  1S renormalized
               file O.pbe-n-kjpaw_psl.0.1.UPF: wavefunction(s)  2P renormalized

     -------------------------------------
     Parameters for Dispersion Correction:
     -------------------------------------
       atom      VdW radius       C_6     

        C          2.744         60.710
        N          2.640         42.670
        H          1.892          4.857
        O          2.536         24.284

     Subspace diagonalization in iterative solution of the eigenvalue problem:
     a serial algorithm will be used

 
     Parallelization info
     --------------------
     sticks:   dense  smooth     PW     G-vecs:    dense   smooth      PW
     Min        1695    1695    445               131879   131879   17813
     Max        1696    1696    446               131881   131881   17814
     Sum       13561   13561   3565              1055035  1055035  142505
 


     bravais-lattice index     =            0
     lattice parameter (alat)  =      29.0848  a.u.
     unit-cell volume          =    7808.4526 (a.u.)^3
     number of atoms/cell      =          120
     number of atomic types    =            4
     number of electrons       =       296.00
     number of Kohn-Sham states=          177
     kinetic-energy cutoff     =     100.0000  Ry
     charge density cutoff     =     400.0000  Ry
     convergence threshold     =      1.0E-08
     mixing beta               =       0.5000
     number of iterations used =            8  plain     mixing
     Exchange-correlation      =  SLA  PW   PBX  PBC ( 1  4  3  4 0 0)

     celldm(1)=  29.084775  celldm(2)=   0.000000  celldm(3)=   0.000000
     celldm(4)=   0.000000  celldm(5)=   0.000000  celldm(6)=   0.000000

     crystal axes: (cart. coord. in units of alat)
               a(1) = (   1.000000   0.000000   0.000000 )  
               a(2) = (   0.000000   0.503476   0.000000 )  
               a(3) = (  -0.117149   0.000000   0.630361 )  

     reciprocal axes: (cart. coord. in units 2 pi/alat)
               b(1) = (  1.000000  0.000000  0.185845 )  
               b(2) = (  0.000000  1.986192  0.000000 )  
               b(3) = (  0.000000  0.000000  1.586394 )  


     PseudoPot. # 1 for  C read from file:
     /scratch/ahofstet/pseudo/C.pbe-n-kjpaw_psl.0.1.UPF
     MD5 check sum: 430fe95172b1e11ef3f8ed03bac87931
     Pseudo is Projector augmented-wave + core cor, Zval =  4.0
     Generated using "atomic" code by A. Dal Corso  v.5.0.99 svn rev. 10869
     Shape of augmentation charge: BESSEL
     Using radial grid of 1073 points,  4 beta functions with: 
                l(1) =   0
                l(2) =   0
                l(3) =   1
                l(4) =   1
     Q(r) pseudized with 0 coefficients 


     PseudoPot. # 2 for  N read from file:
     /scratch/ahofstet/pseudo/N.pbe-n-kjpaw_psl.0.1.UPF
     MD5 check sum: f73187c8b701007e77325f868c9291d7
     Pseudo is Projector augmented-wave + core cor, Zval =  5.0
     Generated using "atomic" code by A. Dal Corso  v.5.0.99 svn rev. 10869
     Shape of augmentation charge: PSQ
     Using radial grid of 1085 points,  4 beta functions with: 
                l(1) =   0
                l(2) =   0
                l(3) =   1
                l(4) =   1
     Q(r) pseudized with 0 coefficients 


     PseudoPot. # 3 for  H read from file:
     /scratch/ahofstet/pseudo/H.pbe-kjpaw_psl.0.1.UPF
     MD5 check sum: 94e484f906d9e9773b2f6e52662335b2
     Pseudo is Projector augmented-wave, Zval =  1.0
     Generated using "atomic" code by A. Dal Corso  v.5.0.99 svn rev. 10869
     Shape of augmentation charge: PSQ
     Using radial grid of  929 points,  2 beta functions with: 
                l(1) =   0
                l(2) =   0
     Q(r) pseudized with 0 coefficients 


     PseudoPot. # 4 for  O read from file:
     /scratch/ahofstet/pseudo/O.pbe-n-kjpaw_psl.0.1.UPF
     MD5 check sum: 3f94a2996a3169367d6eb21d9b593f20
     Pseudo is Projector augmented-wave + core cor, Zval =  6.0
     Generated using "atomic" code by A. Dal Corso  v.5.0.99 svn rev. 10869
     Shape of augmentation charge: BESSEL
     Using radial grid of 1095 points,  4 beta functions with: 
                l(1) =   0
                l(2) =   0
                l(3) =   1
                l(4) =   1
     Q(r) pseudized with 0 coefficients 


     atomic species   valence    mass     pseudopotential
        C              4.00    12.01070      C( 1.00)
        N              5.00    14.00670      N( 1.00)
        H              1.00     1.00794      H( 1.00)
        O              6.00    15.99940      O( 1.00)

      2 Sym. Ops., with inversion, found



   Cartesian axes

     site n.     atom                  positions (alat units)
         1           N   tau(   1) = (   0.6956246   0.0972035   0.5127710  )
         2           N   tau(   2) = (   0.1286614   0.3489009   0.4327599  )
         3           N   tau(   3) = (   0.1872263   0.4062726   0.1175896  )
         4           N   tau(   4) = (   0.7541895   0.1545752   0.1976006  )
         5           N   tau(   5) = (   0.7101989   0.1007773   0.3677583  )
         6           N   tau(   6) = (   0.1140576   0.3525284   0.5777777  )
         7           N   tau(   7) = (   0.1726521   0.4026988   0.2626023  )
         8           N   tau(   8) = (   0.7687933   0.1509476   0.0525828  )
         9           C   tau(   9) = (   0.7574481   0.0353951   0.4928798  )
        10           C   tau(  10) = (   0.0668522   0.2871183   0.4526689  )
        11           C   tau(  11) = (   0.1254028   0.4680810   0.1374808  )
        12           C   tau(  12) = (   0.8159987   0.2163578   0.1776916  )
        13           C   tau(  13) = (   0.6700321   0.1346329   0.4365721  )
        14           C   tau(  14) = (   0.1542502   0.3863792   0.5089797  )
        15           C   tau(  15) = (   0.2128188   0.3688432   0.1937885  )
        16           C   tau(  16) = (   0.7286007   0.1170969   0.1213809  )
        17           C   tau(  17) = (   0.7660987   0.0382454   0.4011025  )
        18           C   tau(  18) = (   0.0581611   0.2899821   0.5444474  )
        19           C   tau(  19) = (   0.1167522   0.4652307   0.2292581  )
        20           C   tau(  20) = (   0.8246898   0.2134940   0.0859132  )
        21           C   tau(  21) = (   0.8247468   0.4862297   0.3590265  )
        22           C   tau(  22) = (  -0.0004932   0.2345072   0.5865114  )
        23           C   tau(  23) = (   0.0581041   0.0172463   0.2713341  )
        24           C   tau(  24) = (   0.8833441   0.2689688   0.0438492  )
        25           H   tau(  25) = (   0.8325842   0.4875031   0.2886151  )
        26           H   tau(  26) = (   0.1088084   0.2357878   0.0265702  )
        27           H   tau(  27) = (   0.0502667   0.0159730   0.3417455  )
        28           H   tau(  28) = (   0.7740425   0.2676883   0.6037903  )
        29           C   tau(  29) = (   0.8731810   0.4295394   0.4104536  )
        30           C   tau(  30) = (  -0.0489241   0.1778241   0.5351011  )
        31           C   tau(  31) = (   0.0096699   0.0739367   0.2199070  )
        32           C   tau(  32) = (   0.9317751   0.3256519   0.0952594  )
        33           H   tau(  33) = (   0.9198124   0.3857359   0.3800435  )
        34           H   tau(  34) = (  -0.0955667   0.1340192   0.5654987  )
        35           H   tau(  35) = (  -0.0369615   0.1177402   0.2503171  )
        36           H   tau(  36) = (   0.9784176   0.3694568   0.0648619  )
        37           C   tau(  37) = (   0.8634990   0.4270087   0.5014835  )
        38           C   tau(  38) = (  -0.0392458   0.1752620   0.4440527  )
        39           C   tau(  39) = (   0.0193519   0.0764673   0.1288770  )
        40           C   tau(  40) = (   0.9220967   0.3282140   0.1863079  )
        41           H   tau(  41) = (   0.9024171   0.3808243   0.5385874  )
        42           H   tau(  42) = (  -0.0781570   0.1291028   0.4069629  )
        43           H   tau(  43) = (  -0.0195662   0.1226518   0.0917732  )
        44           H   tau(  44) = (   0.9610079   0.3743733   0.2233976  )
        45           C   tau(  45) = (   0.8053393   0.4816948   0.5443873  )
        46           C   tau(  46) = (   0.0189474   0.2299414   0.4011541  )
        47           C   tau(  47) = (   0.0775116   0.0217812   0.0859732  )
        48           C   tau(  48) = (   0.8639035   0.2735347   0.2292065  )
        49           H   tau(  49) = (   0.7979259   0.4799569   0.6147783  )
        50           H   tau(  50) = (   0.0263718   0.2281854   0.3307726  )
        51           H   tau(  51) = (   0.0849250   0.0235191   0.0155823  )
        52           H   tau(  52) = (   0.8564791   0.2752907   0.2995880  )
        53           H   tau(  53) = (   0.6736859   0.1147604   0.5752152  )
        54           H   tau(  54) = (   0.1506135   0.3664685   0.3703352  )
        55           H   tau(  55) = (   0.2091650   0.3887157   0.0551453  )
        56           H   tau(  56) = (   0.7322374   0.1370076   0.2600253  )
        57           C   tau(  57) = (   0.5911362   0.3726079   0.4212070  )
        58           C   tau(  58) = (   0.2331941   0.1208440   0.5243793  )
        59           C   tau(  59) = (   0.2917147   0.1308682   0.2091536  )
        60           C   tau(  60) = (   0.6496568   0.3826320   0.1059812  )
        61           H   tau(  61) = (   0.5281721   0.3686078   0.3878875  )
        62           H   tau(  62) = (   0.2961558   0.1168133   0.5577009  )
        63           H   tau(  63) = (   0.3546788   0.1348682   0.2424731  )
        64           H   tau(  64) = (   0.5866951   0.3866628   0.0726597  )
        65           H   tau(  65) = (   0.6238630   0.4319713   0.3985727  )
        66           H   tau(  66) = (   0.2004897   0.1802171   0.5470186  )
        67           H   tau(  67) = (   0.2589879   0.0715047   0.2317878  )
        68           H   tau(  68) = (   0.6823612   0.3232590   0.0833419  )
        69           H   tau(  69) = (   0.5785312   0.3799215   0.4912888  )
        70           H   tau(  70) = (   0.2458064   0.1281575   0.4542987  )
        71           H   tau(  71) = (   0.3043197   0.1235546   0.1390717  )
        72           H   tau(  72) = (   0.6370445   0.3753186   0.1760618  )
        73           C   tau(  73) = (   0.6474622   0.2924723   0.4037739  )
        74           C   tau(  74) = (   0.1768422   0.0407251   0.5418004  )
        75           C   tau(  75) = (   0.2353887   0.2110037   0.2265867  )
        76           C   tau(  76) = (   0.7060087   0.4627510   0.0885601  )
        77           H   tau(  77) = (   0.7103951   0.3009296   0.4366987  )
        78           H   tau(  78) = (   0.1139040   0.0492076   0.5088904  )
        79           H   tau(  79) = (   0.1724558   0.2025464   0.1936619  )
        80           H   tau(  80) = (   0.7689469   0.4542685   0.1214701  )
        81           H   tau(  81) = (   0.6617626   0.2869070   0.3338051  )
        82           H   tau(  82) = (   0.1625554   0.0351390   0.6117695  )
        83           H   tau(  83) = (   0.2210883   0.2165691   0.2965554  )
        84           H   tau(  84) = (   0.7202955   0.4683370   0.0185911  )
        85           H   tau(  85) = (   0.5818556   0.2159330   0.5017478  )
        86           H   tau(  86) = (   0.2424149   0.4676737   0.4437917  )
        87           H   tau(  87) = (   0.3009953   0.2875430   0.1286128  )
        88           H   tau(  88) = (   0.6404360   0.0358024   0.1865688  )
        89           C   tau(  89) = (   0.5262402   0.1819646   0.3772161  )
        90           C   tau(  90) = (   0.2980400   0.4336663   0.5683143  )
        91           C   tau(  91) = (   0.3566107   0.3215114   0.2531444  )
        92           C   tau(  92) = (   0.5848109   0.0698098   0.0620462  )
        93           H   tau(  93) = (   0.5494058   0.1749728   0.3097734  )
        94           H   tau(  94) = (   0.3920265   0.4266853   0.0053978  )
        95           H   tau(  95) = (   0.3334451   0.3285032   0.3205872  )
        96           H   tau(  96) = (   0.4908244   0.0767908   0.6249628  )
        97           H   tau(  97) = (   0.4797669   0.2362056   0.3778208  )
        98           H   tau(  98) = (   0.3445312   0.4878936   0.5677062  )
        99           H   tau(  99) = (   0.4030841   0.2672705   0.2525398  )
       100           H   tau( 100) = (   0.5383197   0.0155824   0.0626543  )
       101           C   tau( 101) = (   0.4809327   0.0984460   0.4060556  )
       102           C   tau( 102) = (   0.3433175   0.3501356   0.5394724  )
       103           C   tau( 103) = (   0.4019182   0.4050301   0.2243049  )
       104           C   tau( 104) = (   0.5395334   0.1533404   0.0908882  )
       105           H   tau( 105) = (   0.5264118   0.0433184   0.4054497  )
       106           H   tau( 106) = (   0.2978128   0.2950279   0.5400693  )
       107           H   tau( 107) = (   0.3564391   0.4601577   0.2249109  )
       108           H   tau( 108) = (   0.5850381   0.2084482   0.0902912  )
       109           H   tau( 109) = (   0.4265638   0.0821454   0.3626430  )
       110           H   tau( 110) = (   0.3976713   0.3338050   0.5828935  )
       111           H   tau( 111) = (   0.4562871   0.4213307   0.2677175  )
       112           H   tau( 112) = (   0.4851796   0.1696711   0.0474671  )
       113           H   tau( 113) = (   0.4547147   0.1045682   0.4723304  )
       114           H   tau( 114) = (   0.3695471   0.3562461   0.4732016  )
       115           H   tau( 115) = (   0.4281362   0.3989078   0.1580302  )
       116           H   tau( 116) = (   0.5133038   0.1472300   0.1571590  )
       117           C   tau( 117) = (   0.6046776   0.2066995   0.4343249  )
       118           C   tau( 118) = (   0.2195979   0.4584265   0.5112155  )
       119           C   tau( 119) = (   0.2781733   0.2967766   0.1960357  )
       120           C   tau( 120) = (   0.6632530   0.0450495   0.1191450  )

     number of k points=     8
                       cart. coord. in units 2pi/alat
        k(    1) = (   0.0000000   0.0000000   0.0000000), wk =   0.1666667
        k(    2) = (   0.0000000   0.0000000  -0.7931968), wk =   0.1666667
        k(    3) = (   0.0000000   0.6620639   0.0000000), wk =   0.3333333
        k(    4) = (   0.0000000   0.6620639  -0.7931968), wk =   0.3333333
        k(    5) = (  -0.5000000   0.0000000  -0.0929223), wk =   0.1666667
        k(    6) = (  -0.5000000   0.0000000  -0.8861191), wk =   0.1666667
        k(    7) = (  -0.5000000   0.6620639  -0.0929223), wk =   0.3333333
        k(    8) = (  -0.5000000   0.6620639  -0.8861191), wk =   0.3333333

     Dense  grid:  1055035 G-vectors     FFT dimensions: ( 192,  96, 120)

     Estimated max dynamical RAM per process >     996.31MB

     Estimated total allocated dynamical RAM >    7970.47MB

     Check: negative/imaginary core charge=   -0.000002    0.000000

     Initial potential from superposition of free atoms

     starting charge  295.99733, renormalised to  296.00000
     Starting wfc are  288 randomized atomic wfcs
     Checking if some PAW data can be deallocated... 

     total cpu time spent up to now is       71.8 secs

     per-process dynamical memory:   690.1 Mb

     Self-consistent Calculation

     iteration #  1     ecut=   100.00 Ry     beta=0.50
     Davidson diagonalization with overlap
     ethr =  1.00E-02,  avg # of iterations =  4.1

     total cpu time spent up to now is      258.5 secs

     total energy              =   -1185.11630970 Ry
     Harris-Foulkes estimate   =   -1192.07123834 Ry
     estimated scf accuracy    <      13.15518579 Ry

     iteration #  2     ecut=   100.00 Ry     beta=0.50
     Davidson diagonalization with overlap
     ethr =  4.44E-03,  avg # of iterations =  1.8

     total cpu time spent up to now is      345.3 secs

     total energy              =   -1185.03293838 Ry
     Harris-Foulkes estimate   =   -1186.01342006 Ry
     estimated scf accuracy    <       1.74950078 Ry

     iteration #  3     ecut=   100.00 Ry     beta=0.50
     Davidson diagonalization with overlap
     ethr =  5.91E-04,  avg # of iterations =  5.0

     total cpu time spent up to now is      572.4 secs

     total energy              =   -1187.50989224 Ry
     Harris-Foulkes estimate   =   -1188.52123131 Ry
     estimated scf accuracy    <       3.92021037 Ry

     iteration #  4     ecut=   100.00 Ry     beta=0.50
     Davidson diagonalization with overlap
     ethr =  5.91E-04,  avg # of iterations =  1.0

     total cpu time spent up to now is      661.6 secs

     total energy              =   -1185.90406881 Ry
     Harris-Foulkes estimate   =   -1187.56205073 Ry
     estimated scf accuracy    <       2.17381357 Ry

     iteration #  5     ecut=   100.00 Ry     beta=0.50
     Davidson diagonalization with overlap
     ethr =  5.91E-04,  avg # of iterations =  4.9

     total cpu time spent up to now is      869.3 secs

     total energy              =   -1187.15674005 Ry
     Harris-Foulkes estimate   =   -1188.41917048 Ry
     estimated scf accuracy    <       3.50475504 Ry

     iteration #  6     ecut=   100.00 Ry     beta=0.50
     Davidson diagonalization with overlap
     ethr =  5.91E-04,  avg # of iterations =  1.0

     total cpu time spent up to now is      958.3 secs

     total energy              =   -1186.64347418 Ry
     Harris-Foulkes estimate   =   -1187.24770561 Ry
     estimated scf accuracy    <       1.39233507 Ry

     iteration #  7     ecut=   100.00 Ry     beta=0.50
     Davidson diagonalization with overlap
     ethr =  4.70E-04,  avg # of iterations =  3.9

     total cpu time spent up to now is     1101.2 secs

     total energy              =   -1187.23523024 Ry
     Harris-Foulkes estimate   =   -1187.24864786 Ry
     estimated scf accuracy    <       0.03824731 Ry

     iteration #  8     ecut=   100.00 Ry     beta=0.50
     Davidson diagonalization with overlap
     ethr =  1.29E-05,  avg # of iterations = 12.8

     total cpu time spent up to now is     1331.5 secs

     total energy              =   -1187.24750959 Ry
     Harris-Foulkes estimate   =   -1187.25123965 Ry
     estimated scf accuracy    <       0.01034525 Ry

     iteration #  9     ecut=   100.00 Ry     beta=0.50
     Davidson diagonalization with overlap
     c_bands:  1 eigenvalues not converged
     ethr =  3.50E-06,  avg # of iterations =  6.6

     total cpu time spent up to now is     1437.8 secs

     total energy              =   -1187.24601757 Ry
     Harris-Foulkes estimate   =   -1187.24794199 Ry
     estimated scf accuracy    <       0.00323053 Ry

     iteration # 10     ecut=   100.00 Ry     beta=0.50
     Davidson diagonalization with overlap
     ethr =  1.09E-06,  avg # of iterations =  6.2

     total cpu time spent up to now is     1612.7 secs

     total energy              =   -1187.24832620 Ry
     Harris-Foulkes estimate   =   -1187.24908239 Ry
     estimated scf accuracy    <       0.00224108 Ry

     iteration # 11     ecut=   100.00 Ry     beta=0.50
     Davidson diagonalization with overlap
     ethr =  7.57E-07,  avg # of iterations =  1.0

     total cpu time spent up to now is     1701.4 secs

     total energy              =   -1187.24788185 Ry
     Harris-Foulkes estimate   =   -1187.24838453 Ry
     estimated scf accuracy    <       0.00092295 Ry

     iteration # 12     ecut=   100.00 Ry     beta=0.50
     Davidson diagonalization with overlap
     ethr =  3.12E-07,  avg # of iterations =  3.5

     total cpu time spent up to now is     1857.5 secs

     total energy              =   -1187.24841361 Ry
     Harris-Foulkes estimate   =   -1187.24845526 Ry
     estimated scf accuracy    <       0.00024595 Ry

     iteration # 13     ecut=   100.00 Ry     beta=0.50
     Davidson diagonalization with overlap
     ethr =  8.31E-08,  avg # of iterations =  1.2

     total cpu time spent up to now is     1946.4 secs

     total energy              =   -1187.24834058 Ry
     Harris-Foulkes estimate   =   -1187.24841856 Ry
     estimated scf accuracy    <       0.00017332 Ry

     iteration # 14     ecut=   100.00 Ry     beta=0.50
     Davidson diagonalization with overlap
     ethr =  5.86E-08,  avg # of iterations =  4.0

     total cpu time spent up to now is     2051.4 secs

     total energy              =   -1187.24836677 Ry
     Harris-Foulkes estimate   =   -1187.24836938 Ry
     estimated scf accuracy    <       0.00001281 Ry

     iteration # 15     ecut=   100.00 Ry     beta=0.50
     Davidson diagonalization with overlap
     ethr =  4.33E-09,  avg # of iterations =  4.0

     total cpu time spent up to now is     2239.3 secs

     total energy              =   -1187.24837902 Ry
     Harris-Foulkes estimate   =   -1187.24837941 Ry
     estimated scf accuracy    <       0.00000131 Ry

     iteration # 16     ecut=   100.00 Ry     beta=0.50
     Davidson diagonalization with overlap
     ethr =  4.42E-10,  avg # of iterations =  3.0

     total cpu time spent up to now is     2337.7 secs

     total energy              =   -1187.24837902 Ry
     Harris-Foulkes estimate   =   -1187.24837918 Ry
     estimated scf accuracy    <       0.00000072 Ry

     iteration # 17     ecut=   100.00 Ry     beta=0.50
     Davidson diagonalization with overlap
     ethr =  2.44E-10,  avg # of iterations =  4.1

     total cpu time spent up to now is     2506.9 secs

     total energy              =   -1187.24837912 Ry
     Harris-Foulkes estimate   =   -1187.24837941 Ry
     estimated scf accuracy    <       0.00000120 Ry

     iteration # 18     ecut=   100.00 Ry     beta=0.50
     Davidson diagonalization with overlap
     ethr =  2.44E-10,  avg # of iterations =  1.0

     total cpu time spent up to now is     2593.5 secs

     total energy              =   -1187.24837879 Ry
     Harris-Foulkes estimate   =   -1187.24837913 Ry
     estimated scf accuracy    <       0.00000069 Ry

     iteration # 19     ecut=   100.00 Ry     beta=0.50
     Davidson diagonalization with overlap
     ethr =  2.34E-10,  avg # of iterations =  3.8

     total cpu time spent up to now is     2739.1 secs

     total energy              =   -1187.24837902 Ry
     Harris-Foulkes estimate   =   -1187.24837903 Ry
     estimated scf accuracy    <       0.00000003 Ry

     iteration # 20     ecut=   100.00 Ry     beta=0.50
     Davidson diagonalization with overlap
     ethr =  1.01E-11,  avg # of iterations =  4.6

     total cpu time spent up to now is     2885.2 secs

     End of self-consistent calculation

          k = 0.0000 0.0000 0.0000 (131901 PWs)   bands (ev):

   -19.9175 -19.9166 -19.8272 -19.8267 -16.4105 -16.4088 -16.0714 -16.0711
   -15.5637 -15.5124 -15.4898 -15.4884 -14.8393 -14.7918 -14.7910 -14.7853
   -13.1207 -13.1062 -13.0861 -13.0826 -12.9095 -12.7937 -12.7874 -12.7767
   -12.7104 -12.6892 -12.6628 -12.6535 -11.4716 -11.4606 -11.4391 -11.4091
    -9.9907  -9.9868  -9.9469  -9.8706  -9.8149  -9.7684  -9.5501  -9.4824
    -9.4694  -9.4164  -9.3091  -9.2784  -9.2157  -9.1803  -9.0719  -9.0388
    -8.3287  -8.2503  -8.2286  -8.1955  -7.7237  -7.5849  -7.4660  -7.3765
    -6.9468  -6.9045  -6.8550  -6.8527  -6.2201  -6.2139  -6.1894  -6.1778
    -5.9527  -5.8268  -5.7883  -5.6644  -5.5667  -5.5664  -5.5380  -5.5123
    -5.3876  -5.3161  -5.2064  -5.1819  -5.1488  -5.1370  -5.1002  -5.0908
    -5.0253  -4.9986  -4.9937  -4.9798  -4.8984  -4.8765  -4.8409  -4.8344
    -4.5531  -4.5502  -4.4415  -4.3312  -4.0782  -4.0648  -4.0596  -3.9203
    -3.6925  -3.6330  -3.6199  -3.5974  -3.5302  -3.5063  -3.4640  -3.3195
    -3.3029  -3.2913  -3.2680  -3.2358  -3.1669  -3.1454  -3.0225  -3.0170
    -2.9076  -2.9061  -2.8756  -2.7890  -2.7683  -2.7533  -2.7087  -2.6362
    -2.6163  -2.5622  -2.4286  -2.4168  -2.3831  -2.3696  -2.3223  -2.2725
    -2.2699  -2.2589  -2.0979  -2.0928  -2.0886  -2.0153  -1.9649  -1.9360
    -1.4816  -1.4615  -1.0656  -1.0609  -0.2764  -0.1912  -0.1451  -0.1215
    -0.1014   0.0395   0.0403   0.1072   3.9317   4.0535   4.0869   4.1014
     4.7573   4.8694   4.9605   5.0163   5.1178   5.1425   5.2200   5.4097
     5.5137   5.5319   5.6470   5.6643   5.8383   5.9412   6.1883   6.2367
     6.4977   6.5675   6.5714   6.6357   6.6867   6.7495   6.7592   7.0020
     7.1037

          k = 0.0000 0.0000-0.7932 (131850 PWs)   bands (ev):

   -19.8739 -19.8738 -19.8726 -19.8725 -16.2451 -16.2449 -16.2440 -16.2438
   -15.5380 -15.5380 -15.4886 -15.4886 -14.8168 -14.8164 -14.7885 -14.7882
   -13.1044 -13.1042 -13.0941 -13.0939 -12.8408 -12.8405 -12.7858 -12.7855
   -12.6993 -12.6992 -12.6653 -12.6651 -11.4691 -11.4686 -11.4203 -11.4198
    -9.9181  -9.9180  -9.8783  -9.8782  -9.6029  -9.6028  -9.5637  -9.5635
    -9.4140  -9.4137  -9.3751  -9.3750  -9.2568  -9.2564  -9.1910  -9.1905
    -8.2874  -8.2867  -8.2623  -8.2617  -7.5749  -7.5745  -7.5421  -7.5416
    -6.9010  -6.9008  -6.8652  -6.8649  -6.1964  -6.1963  -6.1814  -6.1813
    -5.9091  -5.9090  -5.7110  -5.7109  -5.5557  -5.5555  -5.5146  -5.5146
    -5.2925  -5.2924  -5.2223  -5.2222  -5.2084  -5.2081  -5.1634  -5.1631
    -4.9849  -4.9848  -4.9308  -4.9302  -4.8632  -4.8629  -4.7557  -4.7551
    -4.5648  -4.5639  -4.3877  -4.3872  -4.0823  -4.0819  -3.9874  -3.9871
    -3.6505  -3.6504  -3.6102  -3.6097  -3.5231  -3.5225  -3.3507  -3.3503
    -3.2306  -3.2294  -3.2154  -3.2144  -3.1113  -3.1107  -3.0544  -3.0534
    -2.8766  -2.8765  -2.8630  -2.8627  -2.8399  -2.8397  -2.7023  -2.7018
    -2.5095  -2.5091  -2.4612  -2.4608  -2.4022  -2.4020  -2.3595  -2.3595
    -2.2942  -2.2940  -2.0952  -2.0947  -1.9929  -1.9922  -1.9669  -1.9662
    -1.3103  -1.3102  -1.2982  -1.2981  -0.1805  -0.1794  -0.1336  -0.1326
    -0.0683  -0.0675   0.0550   0.0556   4.0032   4.0036   4.0690   4.0698
     4.8215   4.8219   5.0985   5.0985   5.1410   5.1411   5.3326   5.3329
     5.3536   5.3537   5.7261   5.7265   5.8876   5.8876   6.3079   6.3082
     6.3315   6.3319   6.6663   6.6667   6.9065   6.9068   7.0036   7.0037
     7.1448

          k = 0.0000 0.6621 0.0000 (131854 PWs)   bands (ev):

   -19.9170 -19.9165 -19.8270 -19.8267 -16.4094 -16.4085 -16.0715 -16.0714
   -15.5540 -15.5233 -15.5151 -15.4976 -14.8023 -14.7925 -14.7852 -14.7725
   -13.1482 -13.1357 -13.1191 -13.1144 -12.8828 -12.8294 -12.7746 -12.7639
   -12.6757 -12.6746 -12.6564 -12.6487 -11.4440 -11.4435 -11.4079 -11.4050
   -10.0165 -10.0128  -9.8871  -9.8467  -9.7815  -9.7627  -9.5720  -9.5305
    -9.5102  -9.4946  -9.2830  -9.2730  -9.2233  -9.2033  -9.0681  -9.0489
    -8.3190  -8.2773  -8.1895  -8.1685  -7.6535  -7.5642  -7.4725  -7.4044
    -6.9302  -6.8823  -6.8603  -6.8421  -6.2331  -6.1713  -6.1208  -6.0649
    -5.8868  -5.8422  -5.8222  -5.8173  -5.5466  -5.5366  -5.4744  -5.4581
    -5.4283  -5.4083  -5.2983  -5.2788  -5.1981  -5.1693  -5.1526  -5.1008
    -5.0900  -5.0583  -5.0490  -5.0276  -4.9443  -4.9059  -4.8001  -4.7626
    -4.5998  -4.5466  -4.4643  -4.3850  -4.0555  -4.0483  -4.0265  -3.9621
    -3.7414  -3.7104  -3.6012  -3.5650  -3.3765  -3.3624  -3.3244  -3.2902
    -3.2335  -3.1945  -3.1515  -3.1402  -3.1371  -3.0808  -3.0761  -3.0010
    -2.9861  -2.8987  -2.8972  -2.8661  -2.8329  -2.8218  -2.7773  -2.7545
    -2.6224  -2.5921  -2.4827  -2.4261  -2.3912  -2.3663  -2.2994  -2.2721
    -2.2000  -2.1999  -2.1301  -2.0846  -1.9892  -1.9485  -1.9369  -1.9262
    -1.4561  -1.4436  -1.0677  -1.0633  -0.2800  -0.2473  -0.1486  -0.0987
    -0.0912  -0.0359   0.0017   0.0725   3.9453   3.9613   4.0799   4.1068
     4.7923   4.8926   4.9443   5.0137   5.0149   5.1944   5.2392   5.3038
     5.4722   5.5516   5.7115   5.8062   5.8217   6.0138   6.1049   6.2156
     6.2785   6.3728   6.4571   6.7349   6.8309   6.8409   6.9365   6.9968
     7.0454

          k = 0.0000 0.6621-0.7932 (131878 PWs)   bands (ev):

   -19.8736 -19.8735 -19.8725 -19.8724 -16.2448 -16.2446 -16.2440 -16.2437
   -15.5343 -15.5342 -15.5097 -15.5096 -14.7999 -14.7995 -14.7775 -14.7771
   -13.1409 -13.1404 -13.1187 -13.1184 -12.8248 -12.8245 -12.8014 -12.8011
   -12.6811 -12.6807 -12.6475 -12.6471 -11.4427 -11.4422 -11.4064 -11.4060
    -9.9018  -9.9017  -9.8484  -9.8483  -9.6238  -9.6235  -9.5914  -9.5911
    -9.4171  -9.4167  -9.4012  -9.4008  -9.2679  -9.2671  -9.2135  -9.2127
    -8.2872  -8.2864  -8.2273  -8.2266  -7.5733  -7.5728  -7.5386  -7.5380
    -6.8863  -6.8853  -6.8528  -6.8517  -6.1823  -6.1821  -6.1137  -6.1135
    -5.8604  -5.8603  -5.8160  -5.8158  -5.5125  -5.5123  -5.4417  -5.4416
    -5.2961  -5.2957  -5.2651  -5.2647  -5.1952  -5.1949  -5.1314  -5.1312
    -5.1082  -5.1082  -4.9992  -4.9991  -4.9430  -4.9423  -4.8519  -4.8516
    -4.5834  -4.5824  -4.4269  -4.4262  -4.0607  -4.0602  -4.0020  -4.0016
    -3.7202  -3.7199  -3.5775  -3.5770  -3.2910  -3.2904  -3.2675  -3.2662
    -3.2004  -3.1996  -3.1408  -3.1400  -3.1025  -3.1021  -3.0280  -3.0275
    -2.9375  -2.9369  -2.8925  -2.8923  -2.8463  -2.8460  -2.8013  -2.8009
    -2.5179  -2.5176  -2.5045  -2.5040  -2.4213  -2.4210  -2.3631  -2.3627
    -2.1988  -2.1988  -2.0830  -2.0825  -1.9554  -1.9548  -1.9196  -1.9192
    -1.3118  -1.3115  -1.2913  -1.2910  -0.1966  -0.1955  -0.1374  -0.1362
    -0.0757  -0.0747  -0.0152  -0.0145   3.9779   3.9785   4.0594   4.0602
     4.8524   4.8529   4.9953   4.9955   5.1198   5.1200   5.3215   5.3224
     5.4656   5.4665   5.7232   5.7234   5.8892   5.8895   6.0978   6.0980
     6.4225   6.4226   6.6395   6.6399   6.8289   6.8292   7.0534   7.0542
     7.1280

          k =-0.5000 0.0000-0.0929 (131878 PWs)   bands (ev):

   -19.9174 -19.9166 -19.8272 -19.8267 -16.4105 -16.4088 -16.0713 -16.0713
   -15.5610 -15.5142 -15.4934 -15.4864 -14.8169 -14.8127 -14.7992 -14.7782
   -13.1205 -13.1062 -13.0859 -13.0830 -12.9085 -12.7998 -12.7912 -12.7792
   -12.6955 -12.6743 -12.6669 -12.6662 -11.5107 -11.4361 -11.4333 -11.4010
    -9.9920  -9.9887  -9.9265  -9.8926  -9.8248  -9.7560  -9.5472  -9.4838
    -9.4722  -9.4123  -9.3088  -9.2786  -9.2196  -9.1775  -9.0716  -9.0396
    -8.3062  -8.2777  -8.2290  -8.1925  -7.7131  -7.5924  -7.4688  -7.3729
    -6.9699  -6.8812  -6.8695  -6.8393  -6.2695  -6.2156  -6.1790  -6.1512
    -5.8970  -5.8591  -5.7395  -5.7236  -5.5585  -5.5358  -5.5349  -5.5246
    -5.3898  -5.3221  -5.2174  -5.2169  -5.1757  -5.1474  -5.0913  -5.0738
    -5.0471  -4.9930  -4.9605  -4.9574  -4.9334  -4.8920  -4.8692  -4.7441
    -4.6143  -4.4634  -4.4362  -4.3729  -4.0768  -4.0758  -4.0428  -3.9285
    -3.7048  -3.6324  -3.6201  -3.6040  -3.5592  -3.5053  -3.4039  -3.3364
    -3.3039  -3.2884  -3.2734  -3.2386  -3.1641  -3.1378  -3.0369  -3.0318
    -2.9038  -2.8292  -2.8238  -2.8182  -2.7983  -2.7672  -2.7240  -2.6807
    -2.5854  -2.5787  -2.4520  -2.3908  -2.3664  -2.3582  -2.3171  -2.2948
    -2.2776  -2.2602  -2.1187  -2.0946  -2.0411  -2.0343  -1.9627  -1.9400
    -1.4755  -1.4661  -1.0635  -1.0623  -0.2768  -0.1910  -0.1485  -0.1211
    -0.0957   0.0339   0.0444   0.1068   3.9545   4.0258   4.0828   4.1054
     4.7532   4.8715   4.9415   5.0512   5.1107   5.1219   5.2561   5.3891
     5.4753   5.4801   5.6448   5.8420   5.9003   5.9417   6.1296   6.2209
     6.3211   6.4516   6.5967   6.6914   6.7046   6.7669   6.8313   7.0515
     7.1394

          k =-0.5000 0.0000-0.8861 (131956 PWs)   bands (ev):

   -19.8739 -19.8738 -19.8726 -19.8725 -16.2450 -16.2449 -16.2439 -16.2439
   -15.5376 -15.5375 -15.4892 -15.4892 -14.8145 -14.8140 -14.7908 -14.7904
   -13.1041 -13.1039 -13.0943 -13.0941 -12.8361 -12.8359 -12.7904 -12.7901
   -12.7115 -12.7111 -12.6527 -12.6524 -11.4823 -11.4819 -11.4073 -11.4069
    -9.9348  -9.9348  -9.8564  -9.8563  -9.6120  -9.6117  -9.5621  -9.5619
    -9.4107  -9.4104  -9.3760  -9.3759  -9.2581  -9.2576  -9.1903  -9.1898
    -8.3084  -8.3077  -8.2394  -8.2388  -7.5775  -7.5771  -7.5407  -7.5402
    -6.9073  -6.9064  -6.8603  -6.8594  -6.2296  -6.2296  -6.1541  -6.1539
    -5.8907  -5.8906  -5.7123  -5.7123  -5.5503  -5.5500  -5.5225  -5.5224
    -5.3036  -5.3032  -5.2316  -5.2313  -5.2065  -5.2063  -5.1639  -5.1634
    -4.9788  -4.9788  -4.9337  -4.9330  -4.8629  -4.8628  -4.7550  -4.7549
    -4.5591  -4.5582  -4.3819  -4.3812  -4.0849  -4.0845  -3.9890  -3.9887
    -3.6584  -3.6583  -3.6082  -3.6078  -3.5206  -3.5200  -3.3560  -3.3558
    -3.2224  -3.2207  -3.2024  -3.2010  -3.1072  -3.1068  -3.0550  -3.0540
    -2.8964  -2.8962  -2.8949  -2.8948  -2.8204  -2.8203  -2.6940  -2.6937
    -2.4849  -2.4844  -2.4519  -2.4513  -2.4226  -2.4224  -2.3721  -2.3719
    -2.2910  -2.2908  -2.0924  -2.0920  -2.0011  -2.0002  -1.9582  -1.9575
    -1.3155  -1.3152  -1.2943  -1.2940  -0.1802  -0.1791  -0.1326  -0.1316
    -0.0702  -0.0694   0.0559   0.0565   3.9864   3.9869   4.0887   4.0895
     4.8187   4.8191   5.1039   5.1039   5.1325   5.1325   5.2916   5.2925
     5.3877   5.3888   5.7033   5.7037   5.9826   5.9828   6.2576   6.2577
     6.3311   6.3316   6.6022   6.6024   6.8998   6.9003   7.0546   7.0548
     7.1941

          k =-0.5000 0.6621-0.0929 (131842 PWs)   bands (ev):

   -19.9170 -19.9165 -19.8270 -19.8267 -16.4094 -16.4085 -16.0715 -16.0715
   -15.5556 -15.5223 -15.5125 -15.4995 -14.8067 -14.7938 -14.7774 -14.7747
   -13.1480 -13.1360 -13.1193 -13.1142 -12.8845 -12.8271 -12.7688 -12.7674
   -12.6910 -12.6696 -12.6549 -12.6425 -11.4572 -11.4282 -11.4186 -11.3967
   -10.0166 -10.0134  -9.8753  -9.8575  -9.7869  -9.7581  -9.5662  -9.5350
    -9.5109  -9.4947  -9.2857  -9.2705  -9.2236  -9.2029  -9.0648  -9.0527
    -8.3076  -8.2878  -8.1909  -8.1674  -7.6520  -7.5647  -7.4769  -7.4013
    -6.9209  -6.8814  -6.8586  -6.8543  -6.2076  -6.1887  -6.1124  -6.1016
    -5.8742  -5.8393  -5.8126  -5.8087  -5.5322  -5.5252  -5.5225  -5.4639
    -5.4224  -5.4025  -5.2828  -5.2778  -5.2095  -5.1900  -5.1533  -5.1041
    -5.0965  -5.0595  -5.0234  -5.0180  -4.9438  -4.9051  -4.8229  -4.7616
    -4.5983  -4.4921  -4.4678  -4.4170  -4.0599  -4.0373  -4.0239  -3.9736
    -3.7427  -3.7149  -3.6003  -3.5652  -3.3709  -3.3563  -3.3399  -3.2559
    -3.2334  -3.1893  -3.1832  -3.1669  -3.1352  -3.0671  -3.0429  -3.0313
    -2.9928  -2.9250  -2.9086  -2.8601  -2.8418  -2.8218  -2.7465  -2.7220
    -2.6207  -2.5905  -2.4700  -2.4350  -2.3925  -2.3566  -2.2899  -2.2769
    -2.2521  -2.2002  -2.0896  -2.0866  -2.0103  -1.9764  -1.9216  -1.9068
    -1.4543  -1.4465  -1.0666  -1.0647  -0.2808  -0.2477  -0.1429  -0.1036
    -0.0901  -0.0356   0.0009   0.0729   3.9320   3.9765   4.0805   4.1023
     4.8052   4.9057   4.9110   4.9795   5.0803   5.1559   5.2560   5.3085
     5.4651   5.5530   5.6694   5.7471   5.9655   6.0053   6.0403   6.2794
     6.2826   6.4626   6.5284   6.5467   6.8013   6.8130   6.9044   6.9944
     6.9983

          k =-0.5000 0.6621-0.8861 (131806 PWs)   bands (ev):

   -19.8736 -19.8735 -19.8725 -19.8724 -16.2449 -16.2446 -16.2440 -16.2437
   -15.5338 -15.5338 -15.5102 -15.5101 -14.7979 -14.7975 -14.7795 -14.7790
   -13.1408 -13.1404 -13.1188 -13.1185 -12.8285 -12.8282 -12.7971 -12.7968
   -12.6820 -12.6818 -12.6468 -12.6465 -11.4469 -11.4465 -11.4023 -11.4020
    -9.8963  -9.8963  -9.8555  -9.8555  -9.6208  -9.6205  -9.5918  -9.5915
    -9.4220  -9.4215  -9.3968  -9.3965  -9.2686  -9.2678  -9.2132  -9.2125
    -8.2777  -8.2770  -8.2373  -8.2367  -7.5722  -7.5717  -7.5389  -7.5383
    -6.8828  -6.8822  -6.8562  -6.8556  -6.1668  -6.1665  -6.1368  -6.1366
    -5.8410  -5.8409  -5.8197  -5.8196  -5.5214  -5.5212  -5.4429  -5.4428
    -5.2854  -5.2849  -5.2712  -5.2710  -5.2221  -5.2219  -5.1167  -5.1166
    -5.0975  -5.0974  -4.9985  -4.9983  -4.9473  -4.9470  -4.8446  -4.8441
    -4.5816  -4.5807  -4.4342  -4.4333  -4.0581  -4.0576  -4.0052  -4.0047
    -3.7190  -3.7187  -3.5778  -3.5773  -3.3069  -3.3060  -3.2499  -3.2488
    -3.1910  -3.1899  -3.1265  -3.1259  -3.0815  -3.0812  -3.0699  -3.0697
    -2.9675  -2.9670  -2.9053  -2.9050  -2.8248  -2.8244  -2.7752  -2.7749
    -2.5393  -2.5388  -2.4970  -2.4969  -2.4094  -2.4090  -2.3621  -2.3619
    -2.2145  -2.2145  -2.0702  -2.0699  -1.9587  -1.9582  -1.9210  -1.9206
    -1.3083  -1.3081  -1.2943  -1.2940  -0.1991  -0.1979  -0.1352  -0.1340
    -0.0735  -0.0725  -0.0168  -0.0161   3.9833   3.9838   4.0508   4.0517
     4.8568   4.8573   4.9945   4.9947   5.1419   5.1420   5.2851   5.2859
     5.4662   5.4673   5.7394   5.7396   5.8847   5.8851   6.1233   6.1234
     6.4127   6.4127   6.6213   6.6219   6.8581   6.8582   6.9692   6.9694
     7.1234

     highest occupied, lowest unoccupied level (ev):     0.1072    3.9317

!    total energy              =   -1187.24837903 Ry
     Harris-Foulkes estimate   =   -1187.24837903 Ry
     estimated scf accuracy    <          2.5E-09 Ry

     total all-electron energy =     -4610.315379 Ry

     The total energy is the sum of the following terms:

     one-electron contribution =    -844.15801386 Ry
     hartree contribution      =     520.18238194 Ry
     xc contribution           =    -288.31946168 Ry
     ewald contribution        =    -188.96727601 Ry
     Dispersion Correction     =      -0.47286456 Ry
     one-center paw contrib.   =    -385.51314485 Ry

     convergence has been achieved in  20 iterations

     Forces acting on atoms (cartesian axes, Ry/au):

     atom    1 type  2   force =    -0.00046117   -0.00011413   -0.00164967
     atom    2 type  2   force =     0.00096686    0.00051728    0.00248684
     atom    3 type  2   force =     0.00046117    0.00011413    0.00164967
     atom    4 type  2   force =    -0.00096686   -0.00051728   -0.00248684
     atom    5 type  2   force =     0.00134177    0.00198298   -0.00047352
     atom    6 type  2   force =    -0.00133680    0.00201902    0.00061263
     atom    7 type  2   force =    -0.00134177   -0.00198298    0.00047352
     atom    8 type  2   force =     0.00133680   -0.00201902   -0.00061263
     atom    9 type  1   force =    -0.00088996   -0.00021281   -0.00117413
     atom   10 type  1   force =     0.00034964   -0.00069497    0.00103516
     atom   11 type  1   force =     0.00088996    0.00021281    0.00117413
     atom   12 type  1   force =    -0.00034964    0.00069497   -0.00103516
     atom   13 type  1   force =     0.00129408    0.00053479   -0.00021474
     atom   14 type  1   force =    -0.00183094   -0.00011408   -0.00042716
     atom   15 type  1   force =    -0.00129408   -0.00053479    0.00021474
     atom   16 type  1   force =     0.00183094    0.00011408    0.00042716
     atom   17 type  1   force =    -0.00115817    0.00006546   -0.00067946
     atom   18 type  1   force =     0.00155816    0.00037950    0.00030055
     atom   19 type  1   force =     0.00115817   -0.00006546    0.00067946
     atom   20 type  1   force =    -0.00155816   -0.00037950   -0.00030055
     atom   21 type  1   force =    -0.00001410   -0.00015000    0.00009744
     atom   22 type  1   force =    -0.00000717   -0.00010995    0.00042754
     atom   23 type  1   force =     0.00001410    0.00015000   -0.00009744
     atom   24 type  1   force =     0.00000717    0.00010995   -0.00042754
     atom   25 type  3   force =     0.00030396   -0.00007945   -0.00000019
     atom   26 type  3   force =    -0.00028567   -0.00006862   -0.00016916
     atom   27 type  3   force =    -0.00030396    0.00007945    0.00000019
     atom   28 type  3   force =     0.00028567    0.00006862    0.00016916
     atom   29 type  1   force =    -0.00012150    0.00002384   -0.00085191
     atom   30 type  1   force =    -0.00013929   -0.00035600    0.00022224
     atom   31 type  1   force =     0.00012150   -0.00002384    0.00085191
     atom   32 type  1   force =     0.00013929    0.00035600   -0.00022224
     atom   33 type  3   force =    -0.00018112    0.00022303    0.00034949
     atom   34 type  3   force =     0.00022305    0.00028592   -0.00030553
     atom   35 type  3   force =     0.00018112   -0.00022303   -0.00034949
     atom   36 type  3   force =    -0.00022305   -0.00028592    0.00030553
     atom   37 type  1   force =     0.00057338   -0.00070739    0.00050034
     atom   38 type  1   force =     0.00006835    0.00003778    0.00004135
     atom   39 type  1   force =    -0.00057338    0.00070739   -0.00050034
     atom   40 type  1   force =    -0.00006835   -0.00003778   -0.00004135
     atom   41 type  3   force =     0.00016601    0.00029319    0.00022866
     atom   42 type  3   force =    -0.00045565   -0.00005904   -0.00048387
     atom   43 type  3   force =    -0.00016601   -0.00029319   -0.00022866
     atom   44 type  3   force =     0.00045565    0.00005904    0.00048387
     atom   45 type  1   force =     0.00048027   -0.00094757    0.00107612
     atom   46 type  1   force =    -0.00065654   -0.00111425   -0.00065752
     atom   47 type  1   force =    -0.00048027    0.00094757   -0.00107612
     atom   48 type  1   force =     0.00065654    0.00111425    0.00065752
     atom   49 type  3   force =    -0.00023041   -0.00060566    0.00024061
     atom   50 type  3   force =     0.00026181   -0.00057967   -0.00039354
     atom   51 type  3   force =     0.00023041    0.00060566   -0.00024061
     atom   52 type  3   force =    -0.00026181    0.00057967    0.00039354
     atom   53 type  3   force =    -0.00044563    0.00103504    0.00231497
     atom   54 type  3   force =     0.00042675    0.00102251   -0.00250171
     atom   55 type  3   force =     0.00044563   -0.00103504   -0.00231497
     atom   56 type  3   force =    -0.00042675   -0.00102251    0.00250171
     atom   57 type  1   force =     0.00219584   -0.00062229   -0.00012381
     atom   58 type  1   force =    -0.00218144   -0.00064133    0.00012676
     atom   59 type  1   force =    -0.00219584    0.00062229    0.00012381
     atom   60 type  1   force =     0.00218144    0.00064133   -0.00012676
     atom   61 type  3   force =    -0.00206843   -0.00058442   -0.00047050
     atom   62 type  3   force =     0.00205441   -0.00056859    0.00046497
     atom   63 type  3   force =     0.00206843    0.00058442    0.00047050
     atom   64 type  3   force =    -0.00205441    0.00056859   -0.00046497
     atom   65 type  3   force =     0.00098310   -0.00168940    0.00089878
     atom   66 type  3   force =    -0.00099438   -0.00168082   -0.00089587
     atom   67 type  3   force =    -0.00098310    0.00168940   -0.00089878
     atom   68 type  3   force =     0.00099438    0.00168082    0.00089587
     atom   69 type  3   force =    -0.00001264   -0.00011549   -0.00094140
     atom   70 type  3   force =     0.00000715   -0.00010403    0.00094295
     atom   71 type  3   force =     0.00001264    0.00011549    0.00094140
     atom   72 type  3   force =    -0.00000715    0.00010403   -0.00094295
     atom   73 type  1   force =    -0.00150843    0.00084295    0.00089606
     atom   74 type  1   force =     0.00148416    0.00084624   -0.00092441
     atom   75 type  1   force =     0.00150843   -0.00084295   -0.00089606
     atom   76 type  1   force =    -0.00148416   -0.00084624    0.00092441
     atom   77 type  3   force =     0.00008350   -0.00062851    0.00020603
     atom   78 type  3   force =    -0.00006891   -0.00061946   -0.00020378
     atom   79 type  3   force =    -0.00008350    0.00062851   -0.00020603
     atom   80 type  3   force =     0.00006891    0.00061946    0.00020378
     atom   81 type  3   force =     0.00045649   -0.00021140    0.00039953
     atom   82 type  3   force =    -0.00046183   -0.00020198   -0.00038634
     atom   83 type  3   force =    -0.00045649    0.00021140   -0.00039953
     atom   84 type  3   force =     0.00046183    0.00020198    0.00038634
     atom   85 type  3   force =    -0.00008494   -0.00007693   -0.00100469
     atom   86 type  3   force =     0.00006120   -0.00010004    0.00102448
     atom   87 type  3   force =     0.00008494    0.00007693    0.00100469
     atom   88 type  3   force =    -0.00006120    0.00010004   -0.00102448
     atom   89 type  1   force =     0.00055024   -0.00090287    0.00036928
     atom   90 type  1   force =    -0.00051419   -0.00083261   -0.00038904
     atom   91 type  1   force =    -0.00055024    0.00090287   -0.00036928
     atom   92 type  1   force =     0.00051419    0.00083261    0.00038904
     atom   93 type  3   force =     0.00010932    0.00023745    0.00037049
     atom   94 type  3   force =    -0.00011160    0.00022436   -0.00035619
     atom   95 type  3   force =    -0.00010932   -0.00023745   -0.00037049
     atom   96 type  3   force =     0.00011160   -0.00022436    0.00035619
     atom   97 type  3   force =     0.00016987    0.00023621   -0.00038114
     atom   98 type  3   force =    -0.00018762    0.00022100    0.00037601
     atom   99 type  3   force =    -0.00016987   -0.00023621    0.00038114
     atom  100 type  3   force =     0.00018762   -0.00022100   -0.00037601
     atom  101 type  1   force =    -0.00055744   -0.00110588   -0.00029073
     atom  102 type  1   force =     0.00054926   -0.00117353    0.00030729
     atom  103 type  1   force =     0.00055744    0.00110588    0.00029073
     atom  104 type  1   force =    -0.00054926    0.00117353   -0.00030729
     atom  105 type  3   force =    -0.00065949    0.00012837    0.00046842
     atom  106 type  3   force =     0.00068073    0.00013497   -0.00047232
     atom  107 type  3   force =     0.00065949   -0.00012837   -0.00046842
     atom  108 type  3   force =    -0.00068073   -0.00013497    0.00047232
     atom  109 type  3   force =    -0.00023779    0.00070514    0.00031773
     atom  110 type  3   force =     0.00023598    0.00071480   -0.00032769
     atom  111 type  3   force =     0.00023779   -0.00070514   -0.00031773
     atom  112 type  3   force =    -0.00023598   -0.00071480    0.00032769
     atom  113 type  3   force =     0.00052070    0.00083285    0.00031953
     atom  114 type  3   force =    -0.00051928    0.00084644   -0.00032393
     atom  115 type  3   force =    -0.00052070   -0.00083285   -0.00031953
     atom  116 type  3   force =     0.00051928   -0.00084644    0.00032393
     atom  117 type  1   force =    -0.00000183    0.00205391   -0.00002963
     atom  118 type  1   force =     0.00020344    0.00220507    0.00009496
     atom  119 type  1   force =     0.00000183   -0.00205391    0.00002963
     atom  120 type  1   force =    -0.00020344   -0.00220507   -0.00009496

     Total force =     0.015652     Total SCF correction =     0.000092


     Computing stress (Cartesian axis) and pressure

          total   stress  (Ry/bohr**3)                   (kbar)     P=   -6.43
  -0.00003720   0.00000009   0.00000965         -5.47      0.01      1.42
   0.00000009  -0.00004657  -0.00000001          0.01     -6.85     -0.00
   0.00000965  -0.00000001  -0.00004734          1.42     -0.00     -6.96


     Writing output data file scf.save
 
     init_run     :     68.96s CPU     71.17s WALL (       1 calls)
     electrons    :   2716.21s CPU   2813.49s WALL (       1 calls)
     forces       :     32.92s CPU     33.24s WALL (       1 calls)
     stress       :    142.44s CPU    142.94s WALL (       1 calls)

     Called by init_run:
     wfcinit      :     55.87s CPU     57.91s WALL (       1 calls)
     potinit      :      4.64s CPU      4.67s WALL (       1 calls)

     Called by electrons:
     c_bands      :   2451.71s CPU   2534.54s WALL (      20 calls)
     sum_band     :    241.57s CPU    253.62s WALL (      20 calls)
     v_of_rho     :      3.36s CPU      3.63s WALL (      21 calls)
     newd         :      8.61s CPU     10.77s WALL (      21 calls)
     PAW_pot      :      9.93s CPU      9.93s WALL (      21 calls)
     mix_rho      :      1.07s CPU      1.12s WALL (      20 calls)

     Called by c_bands:
     init_us_2    :     14.62s CPU     14.68s WALL (     344 calls)
     cegterg      :   2400.24s CPU   2482.97s WALL (     160 calls)

     Called by sum_band:
     sum_band:bec :      0.11s CPU      0.11s WALL (     160 calls)
     addusdens    :      8.75s CPU     10.89s WALL (      20 calls)

     Called by *egterg:
     h_psi        :   1295.81s CPU   1360.23s WALL (     788 calls)
     s_psi        :    308.42s CPU    308.51s WALL (     788 calls)
     g_psi        :      6.18s CPU      6.18s WALL (     620 calls)
     cdiaghg      :    100.43s CPU    100.46s WALL (     780 calls)

     Called by h_psi:
     h_psi:pot    :   1286.58s CPU   1350.86s WALL (     788 calls)
     h_psi:calbec :    297.76s CPU    298.18s WALL (     788 calls)
     vloc_psi     :    679.57s CPU    743.29s WALL (     788 calls)
     add_vuspsi   :    309.25s CPU    309.38s WALL (     788 calls)

     General routines
     calbec       :    424.64s CPU    425.23s WALL (     988 calls)
     fft          :      2.02s CPU      2.48s WALL (     297 calls)
     fftw         :    693.32s CPU    766.37s WALL (  199462 calls)
 
     Parallel routines
     fft_scatter  :    154.79s CPU    224.81s WALL (  199759 calls)
 
     PWSCF        : 49m33.68s CPU    52m 3.71s WALL

 
   This run was terminated on:   7:19:56  20Dec2017            

=------------------------------------------------------------------------------=
   JOB DONE.
=------------------------------------------------------------------------------=
