
     Program PWSCF v.6.1 (svn rev. 13369) starts on  4Nov2017 at  2:24: 9 

     This program is part of the open-source Quantum ESPRESSO suite
     for quantum simulation of materials; please cite
         "P. Giannozzi et al., J. Phys.:Condens. Matter 21 395502 (2009);
          URL http://www.quantum-espresso.org", 
     in publications or presentations arising from this work. More details at
     http://www.quantum-espresso.org/quote

     Parallel version (MPI), running on     8 processors
     R & G space division:  proc/nbgrp/npool/nimage =       8
     Waiting for input...
     Reading input from standard input

     Current dimensions of program PWSCF are:
     Max number of different atomic species (ntypx) = 10
     Max number of k-points (npk) =  40000
     Max angular momentum in pseudopotentials (lmaxx) =  3
               file C.pbe-n-kjpaw_psl.0.1.UPF: wavefunction(s)  2P renormalized
               file N.pbe-n-kjpaw_psl.0.1.UPF: wavefunction(s)  2P renormalized
               file H.pbe-kjpaw_psl.0.1.UPF: wavefunction(s)  1S renormalized
               file O.pbe-n-kjpaw_psl.0.1.UPF: wavefunction(s)  2P renormalized

     -------------------------------------
     Parameters for Dispersion Correction:
     -------------------------------------
       atom      VdW radius       C_6     

        C          2.744         60.710
        N          2.640         42.670
        H          1.892          4.857
        O          2.536         24.284

     Subspace diagonalization in iterative solution of the eigenvalue problem:
     a serial algorithm will be used

 
     Parallelization info
     --------------------
     sticks:   dense  smooth     PW     G-vecs:    dense   smooth      PW
     Min         483     483    131                64776    64776    9136
     Max         484     484    133                64783    64783    9138
     Sum        3865    3865   1051               518231   518231   73095
 


     bravais-lattice index     =            0
     lattice parameter (alat)  =       6.6707  a.u.
     unit-cell volume          =    3836.4998 (a.u.)^3
     number of atoms/cell      =           64
     number of atomic types    =            4
     number of electrons       =       232.00
     number of Kohn-Sham states=          139
     kinetic-energy cutoff     =     100.0000  Ry
     charge density cutoff     =     400.0000  Ry
     convergence threshold     =      1.0E-08
     mixing beta               =       0.5000
     number of iterations used =            8  plain     mixing
     Exchange-correlation      =  SLA  PW   PBX  PBC ( 1  4  3  4 0 0)

     celldm(1)=   6.670733  celldm(2)=   0.000000  celldm(3)=   0.000000
     celldm(4)=   0.000000  celldm(5)=   0.000000  celldm(6)=   0.000000

     crystal axes: (cart. coord. in units of alat)
               a(1) = (   1.000000   0.000000   0.000000 )  
               a(2) = (   0.000000   2.731445   0.000000 )  
               a(3) = (  -0.088376   0.000000   4.731753 )  

     reciprocal axes: (cart. coord. in units 2 pi/alat)
               b(1) = (  1.000000  0.000000  0.018677 )  
               b(2) = (  0.000000  0.366107  0.000000 )  
               b(3) = (  0.000000  0.000000  0.211338 )  


     PseudoPot. # 1 for  C read from file:
     /scratch/ahofstet/pseudo/C.pbe-n-kjpaw_psl.0.1.UPF
     MD5 check sum: 430fe95172b1e11ef3f8ed03bac87931
     Pseudo is Projector augmented-wave + core cor, Zval =  4.0
     Generated using "atomic" code by A. Dal Corso  v.5.0.99 svn rev. 10869
     Shape of augmentation charge: BESSEL
     Using radial grid of 1073 points,  4 beta functions with: 
                l(1) =   0
                l(2) =   0
                l(3) =   1
                l(4) =   1
     Q(r) pseudized with 0 coefficients 


     PseudoPot. # 2 for  N read from file:
     /scratch/ahofstet/pseudo/N.pbe-n-kjpaw_psl.0.1.UPF
     MD5 check sum: f73187c8b701007e77325f868c9291d7
     Pseudo is Projector augmented-wave + core cor, Zval =  5.0
     Generated using "atomic" code by A. Dal Corso  v.5.0.99 svn rev. 10869
     Shape of augmentation charge: PSQ
     Using radial grid of 1085 points,  4 beta functions with: 
                l(1) =   0
                l(2) =   0
                l(3) =   1
                l(4) =   1
     Q(r) pseudized with 0 coefficients 


     PseudoPot. # 3 for  H read from file:
     /scratch/ahofstet/pseudo/H.pbe-kjpaw_psl.0.1.UPF
     MD5 check sum: 94e484f906d9e9773b2f6e52662335b2
     Pseudo is Projector augmented-wave, Zval =  1.0
     Generated using "atomic" code by A. Dal Corso  v.5.0.99 svn rev. 10869
     Shape of augmentation charge: PSQ
     Using radial grid of  929 points,  2 beta functions with: 
                l(1) =   0
                l(2) =   0
     Q(r) pseudized with 0 coefficients 


     PseudoPot. # 4 for  O read from file:
     /scratch/ahofstet/pseudo/O.pbe-n-kjpaw_psl.0.1.UPF
     MD5 check sum: 3f94a2996a3169367d6eb21d9b593f20
     Pseudo is Projector augmented-wave + core cor, Zval =  6.0
     Generated using "atomic" code by A. Dal Corso  v.5.0.99 svn rev. 10869
     Shape of augmentation charge: BESSEL
     Using radial grid of 1095 points,  4 beta functions with: 
                l(1) =   0
                l(2) =   0
                l(3) =   1
                l(4) =   1
     Q(r) pseudized with 0 coefficients 


     atomic species   valence    mass     pseudopotential
        C              4.00    12.01070      C( 1.00)
        N              5.00    14.00670      N( 1.00)
        H              1.00     1.00794      H( 1.00)
        O              6.00    15.99940      O( 1.00)

      2 Sym. Ops. (no inversion) found ( 1 have fractional translation)



   Cartesian axes

     site n.     atom                  positions (alat units)
         1           O   tau(   1) = (   0.7283510   0.7742943   0.9437894  )
         2           O   tau(   2) = (   0.6841631   1.9571505   3.3096657  )
         3           O   tau(   3) = (   0.2430792   0.7618516   1.3105085  )
         4           O   tau(   4) = (   0.1988912   1.9695932   3.6763849  )
         5           C   tau(   5) = (  -0.0337971   0.9302098   1.1431635  )
         6           C   tau(   6) = (  -0.0779850   1.8012350   3.5090398  )
         7           C   tau(   7) = (   0.9519834   1.3545401   1.2226324  )
         8           C   tau(   8) = (   0.9077954   1.3769047   3.5885087  )
         9           O   tau(   9) = (   0.7075564   1.5607278   1.0896531  )
        10           O   tau(  10) = (   0.6633685   1.1707170   3.4555294  )
        11           O   tau(  11) = (   0.2211413   1.4668374   1.4450073  )
        12           O   tau(  12) = (   0.1769533   1.2646073   3.8108836  )
        13           H   tau(  13) = (   1.1789490   1.7268055   1.5544529  )
        14           H   tau(  14) = (   1.1347611   1.0046393   3.9203292  )
        15           N   tau(  15) = (   0.6047961   2.2596923   0.6564040  )
        16           N   tau(  16) = (   0.5606082   0.4717524   3.0222803  )
        17           C   tau(  17) = (   0.3336820   2.4874673   0.5557646  )
        18           C   tau(  18) = (   0.2894941   0.2439775   2.9216410  )
        19           N   tau(  19) = (   0.3359729   0.1061126   0.4307308  )
        20           N   tau(  20) = (   0.2917850   2.6253322   2.7966072  )
        21           O   tau(  21) = (   0.8360879   0.1798724   0.4039213  )
        22           O   tau(  22) = (   0.7918999   2.5515724   2.7697977  )
        23           H   tau(  23) = (   0.8302089   0.3938237   0.5853139  )
        24           H   tau(  24) = (   0.7860209   2.3376211   2.9511903  )
        25           H   tau(  25) = (  -0.2043080   0.3617909   0.0179325  )
        26           H   tau(  26) = (  -0.2484960   2.3696539   2.3838088  )
        27           H   tau(  27) = (   0.0764311   2.3115329   0.5505827  )
        28           H   tau(  28) = (   0.0322431   0.4199118   2.9164591  )
        29           H   tau(  29) = (   0.8471861   2.4080105   0.7327251  )
        30           H   tau(  30) = (   0.8029982   0.3234343   3.0986015  )
        31           H   tau(  31) = (   0.5612863   2.0161141   0.8074434  )
        32           H   tau(  32) = (   0.5170984   0.7153306   3.1733197  )
        33           O   tau(  33) = (  -0.3485144   2.1794597   2.1775708  )
        34           O   tau(  34) = (  -0.3927023   0.5519850   4.5434472  )
        35           O   tau(  35) = (   0.1439359   2.0956685   1.8329190  )
        36           O   tau(  36) = (   0.0997479   0.6357763   4.1987954  )
        37           C   tau(  37) = (   0.3906646   2.3060492   1.9542885  )
        38           C   tau(  38) = (   0.3464767   0.4253955   4.3201648  )
        39           C   tau(  39) = (   0.3973147  -0.0111469   1.8393394  )
        40           C   tau(  40) = (   0.3531268   2.7425916   4.2052157  )
        41           O   tau(  41) = (   0.6685744   0.1815592   1.9841011  )
        42           O   tau(  42) = (   0.6243865   2.5498856   4.3499774  )
        43           O   tau(  43) = (   0.1534808   0.1111338   1.6222418  )
        44           O   tau(  44) = (   0.1092929   2.6203109   3.9881181  )
        45           H   tau(  45) = (   0.2047245   0.4824210   1.3678358  )
        46           H   tau(  46) = (   0.1605366   2.2490238   3.7337121  )
        47           N   tau(  47) = (   0.6393899   1.4653487   2.5877232  )
        48           N   tau(  48) = (   0.6835778   1.2660961   0.2218469  )
        49           C   tau(  49) = (   0.3344628   1.2869797   2.4496923  )
        50           C   tau(  50) = (   0.2902749   1.4444651   4.8155687  )
        51           N   tau(  51) = (   0.3394258   1.0219859   2.1995131  )
        52           N   tau(  52) = (   0.2952379   1.7094589   4.5653895  )
        53           O   tau(  53) = (   0.6511418   0.8771997   2.0472120  )
        54           O   tau(  54) = (   0.6953298   1.8542450  -0.3186643  )
        55           H   tau(  55) = (   0.6379615   0.4837816   1.9805693  )
        56           H   tau(  56) = (   0.5937735   2.2476631   4.3464456  )
        57           H   tau(  57) = (   0.0218746   0.9430275   2.1161710  )
        58           H   tau(  58) = (  -0.0223134   1.7884173   4.4820473  )
        59           H   tau(  59) = (   0.0208311   1.3714119   2.5274793  )
        60           H   tau(  60) = (  -0.0233569   1.3600329   4.8933556  )
        61           H   tau(  61) = (   0.6174033   1.5019809   2.8771261  )
        62           H   tau(  62) = (   0.6615912   1.2294639   0.5112498  )
        63           H   tau(  63) = (   0.6441352   1.7364103   2.4712227  )
        64           H   tau(  64) = (   0.6883232   0.9950344   0.1053464  )

     number of k points=     6
                       cart. coord. in units 2pi/alat
        k(    1) = (   0.0000000   0.0000000   0.0000000), wk =   0.2000000
        k(    2) = (   0.0000000  -0.1830533   0.0000000), wk =   0.2000000
        k(    3) = (   0.2000000   0.0000000   0.0037354), wk =   0.4000000
        k(    4) = (   0.2000000  -0.1830533   0.0037354), wk =   0.4000000
        k(    5) = (   0.4000000   0.0000000   0.0074709), wk =   0.4000000
        k(    6) = (   0.4000000  -0.1830533   0.0074709), wk =   0.4000000

     Dense  grid:   518231 G-vectors     FFT dimensions: (  45, 120, 216)

     Estimated max dynamical RAM per process >     352.24MB

     Estimated total allocated dynamical RAM >    2817.95MB

     Check: negative/imaginary core charge=   -0.000003    0.000000

     Initial potential from superposition of free atoms

     starting charge  231.99918, renormalised to  232.00000
     Starting wfc are  184 randomized atomic wfcs
     Checking if some PAW data can be deallocated... 

     total cpu time spent up to now is       17.2 secs

     per-process dynamical memory:   301.7 Mb

     Self-consistent Calculation

     iteration #  1     ecut=   100.00 Ry     beta=0.50
     Davidson diagonalization with overlap
     ethr =  1.00E-02,  avg # of iterations =  4.3

     total cpu time spent up to now is       51.8 secs

     total energy              =   -1306.12679233 Ry
     Harris-Foulkes estimate   =   -1309.74127716 Ry
     estimated scf accuracy    <       6.45161345 Ry

     iteration #  2     ecut=   100.00 Ry     beta=0.50
     Davidson diagonalization with overlap
     ethr =  2.78E-03,  avg # of iterations =  3.0

     total cpu time spent up to now is       76.0 secs

     total energy              =   -1307.35546549 Ry
     Harris-Foulkes estimate   =   -1307.96478845 Ry
     estimated scf accuracy    <       1.28287580 Ry

     iteration #  3     ecut=   100.00 Ry     beta=0.50
     Davidson diagonalization with overlap
     ethr =  5.53E-04,  avg # of iterations =  4.8

     total cpu time spent up to now is       99.9 secs

     total energy              =   -1307.61028708 Ry
     Harris-Foulkes estimate   =   -1307.69272934 Ry
     estimated scf accuracy    <       0.21701234 Ry

     iteration #  4     ecut=   100.00 Ry     beta=0.50
     Davidson diagonalization with overlap
     ethr =  9.35E-05,  avg # of iterations =  9.3

     total cpu time spent up to now is      129.0 secs

     total energy              =   -1307.64567226 Ry
     Harris-Foulkes estimate   =   -1307.66930079 Ry
     estimated scf accuracy    <       0.06497408 Ry

     iteration #  5     ecut=   100.00 Ry     beta=0.50
     Davidson diagonalization with overlap
     ethr =  2.80E-05,  avg # of iterations =  4.7

     total cpu time spent up to now is      150.2 secs

     total energy              =   -1307.65597214 Ry
     Harris-Foulkes estimate   =   -1307.65792912 Ry
     estimated scf accuracy    <       0.00618990 Ry

     iteration #  6     ecut=   100.00 Ry     beta=0.50
     Davidson diagonalization with overlap
     ethr =  2.67E-06,  avg # of iterations =  6.7

     total cpu time spent up to now is      187.0 secs

     total energy              =   -1307.65806895 Ry
     Harris-Foulkes estimate   =   -1307.65876033 Ry
     estimated scf accuracy    <       0.00178229 Ry

     iteration #  7     ecut=   100.00 Ry     beta=0.50
     Davidson diagonalization with overlap
     ethr =  7.68E-07,  avg # of iterations =  2.5

     total cpu time spent up to now is      207.4 secs

     total energy              =   -1307.65838216 Ry
     Harris-Foulkes estimate   =   -1307.65842465 Ry
     estimated scf accuracy    <       0.00017976 Ry

     iteration #  8     ecut=   100.00 Ry     beta=0.50
     Davidson diagonalization with overlap
     ethr =  7.75E-08,  avg # of iterations =  3.3

     total cpu time spent up to now is      233.6 secs

     total energy              =   -1307.65843296 Ry
     Harris-Foulkes estimate   =   -1307.65844207 Ry
     estimated scf accuracy    <       0.00003734 Ry

     iteration #  9     ecut=   100.00 Ry     beta=0.50
     Davidson diagonalization with overlap
     ethr =  1.61E-08,  avg # of iterations =  2.3

     total cpu time spent up to now is      253.6 secs

     total energy              =   -1307.65843757 Ry
     Harris-Foulkes estimate   =   -1307.65844037 Ry
     estimated scf accuracy    <       0.00000905 Ry

     iteration # 10     ecut=   100.00 Ry     beta=0.50
     Davidson diagonalization with overlap
     ethr =  3.90E-09,  avg # of iterations =  3.0

     total cpu time spent up to now is      276.3 secs

     total energy              =   -1307.65843989 Ry
     Harris-Foulkes estimate   =   -1307.65844017 Ry
     estimated scf accuracy    <       0.00000125 Ry

     iteration # 11     ecut=   100.00 Ry     beta=0.50
     Davidson diagonalization with overlap
     ethr =  5.39E-10,  avg # of iterations =  3.0

     total cpu time spent up to now is      303.1 secs

     total energy              =   -1307.65844022 Ry
     Harris-Foulkes estimate   =   -1307.65844032 Ry
     estimated scf accuracy    <       0.00000036 Ry

     iteration # 12     ecut=   100.00 Ry     beta=0.50
     Davidson diagonalization with overlap
     ethr =  1.56E-10,  avg # of iterations =  2.0

     total cpu time spent up to now is      322.2 secs

     total energy              =   -1307.65844026 Ry
     Harris-Foulkes estimate   =   -1307.65844027 Ry
     estimated scf accuracy    <       0.00000005 Ry

     iteration # 13     ecut=   100.00 Ry     beta=0.50
     Davidson diagonalization with overlap
     ethr =  2.02E-11,  avg # of iterations =  3.2

     total cpu time spent up to now is      353.8 secs

     total energy              =   -1307.65844028 Ry
     Harris-Foulkes estimate   =   -1307.65844028 Ry
     estimated scf accuracy    <       0.00000002 Ry

     iteration # 14     ecut=   100.00 Ry     beta=0.50
     Davidson diagonalization with overlap
     ethr =  8.05E-12,  avg # of iterations =  2.0

     total cpu time spent up to now is      372.8 secs

     End of self-consistent calculation

          k = 0.0000 0.0000 0.0000 ( 64765 PWs)   bands (ev):

   -21.2722 -21.2680 -21.1332 -21.1286 -20.5718 -20.5681 -20.4124 -20.4084
   -20.1753 -20.1749 -18.5837 -18.5688 -18.2832 -18.2287 -18.1111 -18.0722
   -17.7763 -17.7759 -17.5685 -17.5643 -16.7606 -16.7584 -16.4227 -16.4215
   -13.0985 -13.0983 -12.8317 -12.8312 -10.6560 -10.6525  -9.9779  -9.9745
    -8.1751  -8.1644  -7.8242  -7.8125  -7.4881  -7.4789  -7.3297  -7.3260
    -6.9451  -6.9350  -6.5813  -6.5710  -6.4205  -6.3775  -6.2558  -6.1602
    -5.9403  -5.9393  -5.6952  -5.6478  -5.2681  -5.2011  -5.0522  -5.0460
    -4.9862  -4.9434  -4.6385  -4.3870  -4.2534  -4.1706  -4.1388  -4.0533
    -3.8280  -3.6968  -3.5641  -3.5443  -3.5202  -3.4978  -3.3027  -3.2879
    -3.1777  -3.1051  -3.0287  -2.9778  -2.8065  -2.7186  -2.2698  -2.2327
    -2.2219  -2.1583  -2.0043  -1.9777  -1.8686  -1.8501  -1.7897  -1.7697
    -1.7132  -1.6709  -1.4976  -1.4471  -1.4125  -1.3540  -1.3061  -1.3004
    -1.1714  -1.1484  -0.9071  -0.8651  -0.4765  -0.4653  -0.1745  -0.1641
     0.4291   0.4507   0.5513   0.5694   0.6292   0.6494   0.7161   0.7295
     1.5281   1.5319   1.7117   1.7286   5.0889   5.1054   5.1923   5.2075
     6.3303   6.3389   6.9733   7.0445   7.1152   7.3599   7.8237   7.9399
     8.0964   8.2134   8.3819   8.4836   8.5894   8.5959   8.7904   8.7934
     8.9299   9.2210   9.4320

          k = 0.0000-0.1831 0.0000 ( 64866 PWs)   bands (ev):

   -21.2230 -21.2221 -21.1923 -21.1914 -20.5112 -20.5065 -20.4655 -20.4607
   -20.1698 -20.1698 -18.5744 -18.5703 -18.2321 -18.2237 -18.1666 -18.1468
   -17.7015 -17.6873 -17.6140 -17.6073 -16.7630 -16.7614 -16.4285 -16.4273
   -13.0907 -13.0905 -12.8303 -12.8300 -10.5784 -10.5778 -10.1037 -10.1035
    -8.0777  -8.0692  -7.9175  -7.9094  -7.4389  -7.4297  -7.3320  -7.3305
    -6.8859  -6.8787  -6.5391  -6.4854  -6.3854  -6.3728  -6.3430  -6.3179
    -5.9588  -5.9438  -5.7181  -5.6816  -5.2635  -5.1848  -5.1441  -5.0709
    -4.9135  -4.7885  -4.6076  -4.4935  -4.1977  -4.1972  -4.1706  -4.1065
    -3.8645  -3.6979  -3.5697  -3.5341  -3.5200  -3.4987  -3.3005  -3.2845
    -3.2501  -3.2413  -2.8611  -2.8445  -2.6732  -2.5644  -2.5545  -2.4500
    -2.2051  -2.2026  -1.9276  -1.8852  -1.8655  -1.8504  -1.7902  -1.7322
    -1.6067  -1.5263  -1.4955  -1.4442  -1.3923  -1.3758  -1.3295  -1.3096
    -1.1941  -1.1924  -1.0224  -1.0100  -0.4664  -0.4396  -0.1645  -0.1494
     0.4336   0.4374   0.5504   0.5876   0.6693   0.6901   0.7150   0.7305
     1.5233   1.5491   1.6969   1.7000   5.0962   5.0996   5.1910   5.2110
     6.3305   6.3426   7.0403   7.0504   7.2375   7.2731   7.6971   7.7570
     8.0904   8.1247   8.4632   8.4635   8.5068   8.5641   8.6022   8.7630
     9.2210   9.3569   9.5629

          k = 0.2000 0.0000 0.0037 ( 64822 PWs)   bands (ev):

   -21.1317 -21.1287 -20.9942 -20.9908 -20.4365 -20.4337 -20.2844 -20.2815
   -20.0520 -20.0516 -18.5531 -18.5299 -18.3965 -18.3533 -18.1562 -18.1444
   -17.9490 -17.9333 -17.7436 -17.7369 -16.6657 -16.6652 -16.3138 -16.3134
   -13.4384 -13.4382 -13.3696 -13.3696 -10.5954 -10.5946  -9.9226  -9.9219
    -8.5589  -8.5574  -8.2215  -8.2175  -7.9507  -7.9438  -7.7563  -7.7416
    -7.1560  -7.1330  -7.0707  -7.0359  -6.5428  -6.5274  -6.2599  -6.2498
    -5.7664  -5.6826  -5.4781  -5.3573  -5.2945  -5.2667  -5.1169  -5.1025
    -4.7528  -4.7294  -4.4886  -4.4843  -4.3306  -4.3039  -4.1986  -4.0823
    -4.0438  -3.9264  -3.7131  -3.6897  -3.6353  -3.6024  -3.2971  -3.2638
    -3.2239  -3.0779  -3.0045  -2.9596  -2.8815  -2.8766  -2.4342  -2.4341
    -2.1737  -2.1639  -2.0296  -2.0272  -1.9109  -1.8829  -1.7806  -1.7498
    -0.9664  -0.9494  -0.6129  -0.5829  -0.4723  -0.4536  -0.3877  -0.3194
    -0.2167  -0.2077  -0.1553  -0.1105   0.0125   0.0141   0.3982   0.4283
     0.5508   0.5560   0.6372   0.6603   0.7513   0.7621   0.8959   0.9012
     1.3689   1.3761   1.4436   1.4615   4.7977   4.8058   4.9132   4.9182
     6.1018   6.1122   6.4656   6.4822   7.1471   7.2049   7.7240   8.0108
     8.2756   8.2760   8.3394   8.3993   8.4791   8.6578   8.8428   8.8525
     9.1764   9.2933   9.5967

          k = 0.2000-0.1831 0.0037 ( 64844 PWs)   bands (ev):

   -21.0865 -21.0859 -21.0497 -21.0490 -20.3774 -20.3738 -20.3362 -20.3326
   -20.0469 -20.0469 -18.5175 -18.5157 -18.4118 -18.4017 -18.1826 -18.1665
   -17.8732 -17.8563 -17.7871 -17.7778 -16.6676 -16.6673 -16.3186 -16.3183
   -13.4319 -13.4317 -13.3694 -13.3693 -10.5168 -10.5167 -10.0478 -10.0474
    -8.5573  -8.5559  -8.1568  -8.1556  -7.9324  -7.9160  -7.8172  -7.7984
    -7.1301  -7.1021  -7.0488  -7.0149  -6.5002  -6.4955  -6.3325  -6.3268
    -5.7742  -5.7261  -5.4894  -5.4413  -5.2688  -5.2661  -4.9104  -4.8977
    -4.7921  -4.7796  -4.6189  -4.5372  -4.4295  -4.3977  -4.1265  -4.0202
    -3.9158  -3.8755  -3.7619  -3.7125  -3.6573  -3.6478  -3.2744  -3.2562
    -3.1720  -3.1327  -3.0234  -2.9869  -2.9368  -2.8883  -2.3773  -2.3712
    -2.2149  -2.1937  -2.0054  -1.9880  -1.9399  -1.9103  -1.7600  -1.7478
    -0.9655  -0.9578  -0.5699  -0.5606  -0.5032  -0.4745  -0.3427  -0.3028
    -0.2447  -0.2297  -0.1392  -0.1382  -0.0075  -0.0031   0.4060   0.4632
     0.5344   0.5721   0.6515   0.7059   0.7418   0.7506   0.8736   0.9161
     1.3741   1.3785   1.4312   1.4377   4.8048   4.8170   4.9051   4.9121
     6.1035   6.1168   6.4657   6.4862   7.1816   7.1923   7.8876   7.9580
     8.1560   8.1932   8.3302   8.3426   8.4159   8.4216   8.7612   8.9676
     9.3825   9.5191   9.6897

          k = 0.4000 0.0000 0.0075 ( 64710 PWs)   bands (ev):

   -20.8504 -20.8491 -20.7179 -20.7163 -20.1645 -20.1632 -20.0413 -20.0401
   -19.8163 -19.8156 -18.8529 -18.8433 -18.6972 -18.6861 -18.3037 -18.2938
   -18.1202 -18.1073 -17.6143 -17.6131 -16.6246 -16.6243 -16.1191 -16.1186
   -14.2030 -14.2030 -14.0033 -14.0029 -10.4882 -10.4849  -9.9479  -9.9473
    -9.8103  -9.8067  -8.6779  -8.6774  -8.1260  -8.1079  -7.7347  -7.7087
    -7.1631  -7.1213  -7.0488  -7.0016  -6.6251  -6.6138  -6.3507  -6.3198
    -5.7663  -5.7108  -5.5838  -5.5705  -5.3846  -5.3814  -5.3586  -5.3475
    -4.9389  -4.9367  -4.7993  -4.7981  -4.6249  -4.6103  -4.4716  -4.4383
    -4.2297  -4.1767  -4.1148  -4.0147  -3.8271  -3.7996  -3.5735  -3.5148
    -3.3087  -3.3043  -2.9623  -2.9296  -2.3769  -2.3715  -2.1997  -2.1634
    -1.9834  -1.9617  -1.7999  -1.7688  -1.5298  -1.4752  -1.0651  -1.0434
    -0.4087  -0.3927   0.1399   0.1618   0.2138   0.2144   0.3440   0.3457
     0.5082   0.5716   0.6367   0.7048   0.7437   0.7898   0.8791   0.8821
     1.0140   1.0223   1.1213   1.1270   1.1586   1.1719   1.4036   1.4047
     2.4420   2.4426   3.0114   3.0144   4.1950   4.2036   4.3065   4.3172
     5.1836   5.1928   5.7608   5.7788   5.9371   5.9556   8.0033   8.0055
     8.1411   8.1486   8.4807   8.5804   8.9763   9.0725   9.2851   9.3278
     9.5788   9.6586   9.9854

          k = 0.4000-0.1831 0.0075 ( 64724 PWs)   bands (ev):

   -20.8153 -20.8149 -20.7621 -20.7617 -20.1118 -20.1106 -20.0879 -20.0870
   -19.8123 -19.8122 -18.8046 -18.8017 -18.7560 -18.7506 -18.2425 -18.2276
   -18.1668 -18.1550 -17.6117 -17.6110 -16.6256 -16.6253 -16.1232 -16.1227
   -14.2031 -14.2031 -13.9988 -13.9984 -10.4078 -10.4069  -9.9732  -9.9674
    -9.9142  -9.9076  -8.6410  -8.6384  -8.0508  -8.0427  -7.8365  -7.8355
    -7.0853  -7.0518  -7.0112  -6.9882  -6.5407  -6.5316  -6.4886  -6.4877
    -5.7301  -5.7241  -5.5909  -5.5759  -5.4601  -5.4170  -5.3317  -5.2948
    -5.0289  -4.9597  -4.7823  -4.6954  -4.6558  -4.5918  -4.3500  -4.3435
    -4.2595  -4.2135  -4.0135  -3.9690  -3.7909  -3.7673  -3.6131  -3.5973
    -3.3935  -3.3828  -2.9751  -2.9317  -2.3999  -2.3852  -2.1741  -2.1625
    -2.0610  -2.0247  -1.8323  -1.7256  -1.4892  -1.4246  -1.0678  -1.0267
    -0.4020  -0.3874   0.1550   0.1640   0.2030   0.2718   0.3770   0.4498
     0.5477   0.5554   0.6155   0.6179   0.6928   0.7446   0.8664   0.8978
     1.0143   1.0315   1.1133   1.1193   1.1533   1.1963   1.3978   1.4008
     2.4417   2.4442   3.0118   3.0152   4.1869   4.2207   4.3045   4.3060
     5.1774   5.1884   5.7735   5.7883   5.9338   5.9624   8.0249   8.0296
     8.1084   8.1125   8.5617   8.5759   8.9541   9.0407   9.1353   9.2022
     9.8315   9.8924  10.0678

     highest occupied, lowest unoccupied level (ev):     3.0152    4.1869

!    total energy              =   -1307.65844028 Ry
     Harris-Foulkes estimate   =   -1307.65844028 Ry
     estimated scf accuracy    <          3.3E-09 Ry

     total all-electron energy =     -4828.155811 Ry

     The total energy is the sum of the following terms:

     one-electron contribution =    -678.81432758 Ry
     hartree contribution      =     442.25103412 Ry
     xc contribution           =    -259.55377416 Ry
     ewald contribution        =    -474.84812295 Ry
     Dispersion Correction     =      -0.28938443 Ry
     one-center paw contrib.   =    -336.40386529 Ry

     convergence has been achieved in  14 iterations

     Forces acting on atoms (cartesian axes, Ry/au):

     atom    1 type  4   force =     0.04366686    0.00977227   -0.06233179
     atom    2 type  4   force =     0.04366686   -0.00977227   -0.06233179
     atom    3 type  4   force =    -0.03306907   -0.00923086    0.07708739
     atom    4 type  4   force =    -0.03306907    0.00923086    0.07708739
     atom    5 type  1   force =    -0.00752831   -0.01119693   -0.01741381
     atom    6 type  1   force =    -0.00752831    0.01119693   -0.01741381
     atom    7 type  1   force =    -0.00109857    0.01432776   -0.01368430
     atom    8 type  1   force =    -0.00109857   -0.01432776   -0.01368430
     atom    9 type  4   force =     0.03787772    0.00722676   -0.06282626
     atom   10 type  4   force =     0.03787772   -0.00722676   -0.06282626
     atom   11 type  4   force =    -0.03744262   -0.00835163    0.07956204
     atom   12 type  4   force =    -0.03744262    0.00835163    0.07956204
     atom   13 type  3   force =    -0.00056840   -0.00030856   -0.00051124
     atom   14 type  3   force =    -0.00056840    0.00030856   -0.00051124
     atom   15 type  2   force =     0.08181640   -0.01463337    0.07204226
     atom   16 type  2   force =     0.08181640    0.01463337    0.07204226
     atom   17 type  1   force =    -0.06329149    0.01936607   -0.06320685
     atom   18 type  1   force =    -0.06329149   -0.01936607   -0.06320685
     atom   19 type  2   force =     0.02234707   -0.03625353    0.02760954
     atom   20 type  2   force =     0.02234707    0.03625353    0.02760954
     atom   21 type  4   force =    -0.01908763    0.02377789   -0.01015156
     atom   22 type  4   force =    -0.01908763   -0.02377789   -0.01015156
     atom   23 type  3   force =    -0.00033614   -0.00171778    0.00279877
     atom   24 type  3   force =    -0.00033614    0.00171778    0.00279877
     atom   25 type  3   force =    -0.00741043   -0.00353315    0.00433436
     atom   26 type  3   force =    -0.00741043    0.00353315    0.00433436
     atom   27 type  3   force =     0.06287681    0.02090578   -0.05911922
     atom   28 type  3   force =     0.06287681   -0.02090578   -0.05911922
     atom   29 type  3   force =    -0.07406419   -0.01275815    0.03518416
     atom   30 type  3   force =    -0.07406419    0.01275815    0.03518416
     atom   31 type  3   force =    -0.00885581    0.00180218   -0.00221858
     atom   32 type  3   force =    -0.00885581   -0.00180218   -0.00221858
     atom   33 type  4   force =    -0.02844485    0.00641208    0.07610965
     atom   34 type  4   force =    -0.02844485   -0.00641208    0.07610965
     atom   35 type  4   force =     0.03958341   -0.01773495   -0.06980310
     atom   36 type  4   force =     0.03958341    0.01773495   -0.06980310
     atom   37 type  1   force =    -0.00702116   -0.00761190   -0.00914659
     atom   38 type  1   force =    -0.00702116    0.00761190   -0.00914659
     atom   39 type  1   force =    -0.00440646    0.01269872   -0.01261377
     atom   40 type  1   force =    -0.00440646   -0.01269872   -0.01261377
     atom   41 type  4   force =    -0.03551204    0.01491666    0.07418477
     atom   42 type  4   force =    -0.03551204   -0.01491666    0.07418477
     atom   43 type  4   force =     0.04157939   -0.01713111   -0.06559864
     atom   44 type  4   force =     0.04157939    0.01713111   -0.06559864
     atom   45 type  3   force =    -0.00154425   -0.00081466    0.00154098
     atom   46 type  3   force =    -0.00154425    0.00081466    0.00154098
     atom   47 type  2   force =     0.01652497    0.08455606    0.05570562
     atom   48 type  2   force =     0.01652497   -0.08455606    0.05570562
     atom   49 type  1   force =    -0.09054955   -0.04436952   -0.02305779
     atom   50 type  1   force =    -0.09054955    0.04436952   -0.02305779
     atom   51 type  2   force =    -0.04339423    0.01054651    0.01476015
     atom   52 type  2   force =    -0.04339423   -0.01054651    0.01476015
     atom   53 type  4   force =     0.01601294   -0.03645130   -0.04297766
     atom   54 type  4   force =     0.01601294    0.03645130   -0.04297766
     atom   55 type  3   force =    -0.00308248    0.00566314   -0.00182238
     atom   56 type  3   force =    -0.00308248   -0.00566314   -0.00182238
     atom   57 type  3   force =     0.04884396    0.00760387    0.00884598
     atom   58 type  3   force =     0.04884396   -0.00760387    0.00884598
     atom   59 type  3   force =     0.06252493   -0.03199419   -0.01188260
     atom   60 type  3   force =     0.06252493    0.03199419   -0.01188260
     atom   61 type  3   force =    -0.00994274    0.00854892   -0.00285716
     atom   62 type  3   force =    -0.00994274   -0.00854892   -0.00285716
     atom   63 type  3   force =     0.00299596   -0.00347344    0.00145762
     atom   64 type  3   force =     0.00299596    0.00347344    0.00145762

     Total force =     0.506206     Total SCF correction =     0.000123


     Computing stress (Cartesian axis) and pressure

          total   stress  (Ry/bohr**3)                   (kbar)     P=  106.89
   0.00165288   0.00000000  -0.00021396        243.15      0.00    -31.47
   0.00000000   0.00016015   0.00000000          0.00     23.56      0.00
  -0.00021396   0.00000000   0.00036679        -31.47      0.00     53.96


     Writing output data file scf.save
 
     init_run     :     15.70s CPU     16.45s WALL (       1 calls)
     electrons    :    337.35s CPU    355.76s WALL (       1 calls)
     forces       :      9.50s CPU      9.58s WALL (       1 calls)
     stress       :     37.60s CPU     37.69s WALL (       1 calls)

     Called by init_run:
     wfcinit      :      8.43s CPU      8.81s WALL (       1 calls)
     potinit      :      2.61s CPU      2.67s WALL (       1 calls)

     Called by electrons:
     c_bands      :    292.12s CPU    307.42s WALL (      14 calls)
     sum_band     :     37.03s CPU     39.51s WALL (      14 calls)
     v_of_rho     :      1.13s CPU      1.26s WALL (      15 calls)
     newd         :      2.42s CPU      2.90s WALL (      15 calls)
     PAW_pot      :      4.18s CPU      4.19s WALL (      15 calls)
     mix_rho      :      0.28s CPU      0.30s WALL (      14 calls)

     Called by c_bands:
     init_us_2    :      2.72s CPU      2.74s WALL (     186 calls)
     cegterg      :    281.99s CPU    297.27s WALL (      84 calls)

     Called by sum_band:
     sum_band:bec :      0.03s CPU      0.03s WALL (      84 calls)
     addusdens    :      2.72s CPU      3.09s WALL (      14 calls)

     Called by *egterg:
     h_psi        :    172.18s CPU    183.74s WALL (     415 calls)
     s_psi        :     25.16s CPU     25.16s WALL (     415 calls)
     g_psi        :      1.34s CPU      1.34s WALL (     325 calls)
     cdiaghg      :     21.93s CPU     21.95s WALL (     409 calls)

     Called by h_psi:
     h_psi:pot    :    170.59s CPU    182.12s WALL (     415 calls)
     h_psi:calbec :     23.67s CPU     23.77s WALL (     415 calls)
     vloc_psi     :    121.79s CPU    133.22s WALL (     415 calls)
     add_vuspsi   :     25.12s CPU     25.13s WALL (     415 calls)

     General routines
     calbec       :     36.49s CPU     36.64s WALL (     529 calls)
     fft          :      1.20s CPU      1.62s WALL (     219 calls)
     fftw         :    132.25s CPU    144.78s WALL (   76104 calls)
 
     Parallel routines
     fft_scatter  :     35.59s CPU     43.56s WALL (   76323 calls)
 
     PWSCF        :  6m44.47s CPU     7m 5.03s WALL

 
   This run was terminated on:   2:31:14   4Nov2017            

=------------------------------------------------------------------------------=
   JOB DONE.
=------------------------------------------------------------------------------=
