
     Program PWSCF v.6.1 (svn rev. 13369) starts on  4Nov2017 at  1:19:38 

     This program is part of the open-source Quantum ESPRESSO suite
     for quantum simulation of materials; please cite
         "P. Giannozzi et al., J. Phys.:Condens. Matter 21 395502 (2009);
          URL http://www.quantum-espresso.org", 
     in publications or presentations arising from this work. More details at
     http://www.quantum-espresso.org/quote

     Parallel version (MPI), running on     8 processors
     R & G space division:  proc/nbgrp/npool/nimage =       8
     Waiting for input...
     Reading input from standard input

     Current dimensions of program PWSCF are:
     Max number of different atomic species (ntypx) = 10
     Max number of k-points (npk) =  40000
     Max angular momentum in pseudopotentials (lmaxx) =  3
               file C.pbe-n-kjpaw_psl.0.1.UPF: wavefunction(s)  2P renormalized
               file N.pbe-n-kjpaw_psl.0.1.UPF: wavefunction(s)  2P renormalized
               file H.pbe-kjpaw_psl.0.1.UPF: wavefunction(s)  1S renormalized
               file O.pbe-n-kjpaw_psl.0.1.UPF: wavefunction(s)  2P renormalized

     -------------------------------------
     Parameters for Dispersion Correction:
     -------------------------------------
       atom      VdW radius       C_6     

        C          2.744         60.710
        N          2.640         42.670
        H          1.892          4.857
        O          2.536         24.284

     Subspace diagonalization in iterative solution of the eigenvalue problem:
     a serial algorithm will be used

 
     Parallelization info
     --------------------
     sticks:   dense  smooth     PW     G-vecs:    dense   smooth      PW
     Min        1659    1659    436                83620    83620   11307
     Max        1660    1660    437                83621    83621   11308
     Sum       13275   13275   3491               668965   668965   90459
 


     bravais-lattice index     =            0
     lattice parameter (alat)  =      17.0332  a.u.
     unit-cell volume          =    4951.3905 (a.u.)^3
     number of atoms/cell      =           72
     number of atomic types    =            4
     number of electrons       =       296.00
     number of Kohn-Sham states=          177
     kinetic-energy cutoff     =     100.0000  Ry
     charge density cutoff     =     400.0000  Ry
     convergence threshold     =      1.0E-08
     mixing beta               =       0.5000
     number of iterations used =            8  plain     mixing
     Exchange-correlation      =  SLA  PW   PBX  PBC ( 1  4  3  4 0 0)

     celldm(1)=  17.033235  celldm(2)=   0.000000  celldm(3)=   0.000000
     celldm(4)=   0.000000  celldm(5)=   0.000000  celldm(6)=   0.000000

     crystal axes: (cart. coord. in units of alat)
               a(1) = (   1.000000   0.000000   0.000000 )  
               a(2) = (   0.000000   1.437827   0.000000 )  
               a(3) = (  -0.132550   0.000000   0.696833 )  

     reciprocal axes: (cart. coord. in units 2 pi/alat)
               b(1) = (  1.000000  0.000000  0.190218 )  
               b(2) = (  0.000000  0.695494  0.000000 )  
               b(3) = (  0.000000  0.000000  1.435063 )  


     PseudoPot. # 1 for  C read from file:
     /scratch/ahofstet/pseudo/C.pbe-n-kjpaw_psl.0.1.UPF
     MD5 check sum: 430fe95172b1e11ef3f8ed03bac87931
     Pseudo is Projector augmented-wave + core cor, Zval =  4.0
     Generated using "atomic" code by A. Dal Corso  v.5.0.99 svn rev. 10869
     Shape of augmentation charge: BESSEL
     Using radial grid of 1073 points,  4 beta functions with: 
                l(1) =   0
                l(2) =   0
                l(3) =   1
                l(4) =   1
     Q(r) pseudized with 0 coefficients 


     PseudoPot. # 2 for  N read from file:
     /scratch/ahofstet/pseudo/N.pbe-n-kjpaw_psl.0.1.UPF
     MD5 check sum: f73187c8b701007e77325f868c9291d7
     Pseudo is Projector augmented-wave + core cor, Zval =  5.0
     Generated using "atomic" code by A. Dal Corso  v.5.0.99 svn rev. 10869
     Shape of augmentation charge: PSQ
     Using radial grid of 1085 points,  4 beta functions with: 
                l(1) =   0
                l(2) =   0
                l(3) =   1
                l(4) =   1
     Q(r) pseudized with 0 coefficients 


     PseudoPot. # 3 for  H read from file:
     /scratch/ahofstet/pseudo/H.pbe-kjpaw_psl.0.1.UPF
     MD5 check sum: 94e484f906d9e9773b2f6e52662335b2
     Pseudo is Projector augmented-wave, Zval =  1.0
     Generated using "atomic" code by A. Dal Corso  v.5.0.99 svn rev. 10869
     Shape of augmentation charge: PSQ
     Using radial grid of  929 points,  2 beta functions with: 
                l(1) =   0
                l(2) =   0
     Q(r) pseudized with 0 coefficients 


     PseudoPot. # 4 for  O read from file:
     /scratch/ahofstet/pseudo/O.pbe-n-kjpaw_psl.0.1.UPF
     MD5 check sum: 3f94a2996a3169367d6eb21d9b593f20
     Pseudo is Projector augmented-wave + core cor, Zval =  6.0
     Generated using "atomic" code by A. Dal Corso  v.5.0.99 svn rev. 10869
     Shape of augmentation charge: BESSEL
     Using radial grid of 1095 points,  4 beta functions with: 
                l(1) =   0
                l(2) =   0
                l(3) =   1
                l(4) =   1
     Q(r) pseudized with 0 coefficients 


     atomic species   valence    mass     pseudopotential
        C              4.00    12.01070      C( 1.00)
        N              5.00    14.00670      N( 1.00)
        H              1.00     1.00794      H( 1.00)
        O              6.00    15.99940      O( 1.00)

      2 Sym. Ops., with inversion, found



   Cartesian axes

     site n.     atom                  positions (alat units)
         1           N   tau(   1) = (   0.7040138   1.1034284   0.1902365  )
         2           N   tau(   2) = (   0.6377911   1.0532238   0.5386612  )
         3           N   tau(   3) = (   0.1634362   0.3343989   0.5065970  )
         4           N   tau(   4) = (   0.2296589   0.3846035   0.1581723  )
         5           N   tau(   5) = (   0.4693094   1.0113448   0.2083980  )
         6           N   tau(   6) = (   0.4030795   1.1453740   0.5567837  )
         7           N   tau(   7) = (   0.3981406   0.4264825   0.4884354  )
         8           N   tau(   8) = (   0.4643705   0.2924533   0.1400498  )
         9           C   tau(   9) = (   0.5581841   1.1286197   0.1982402  )
        10           C   tau(  10) = (   0.4919604   1.0280952   0.5466742  )
        11           C   tau(  11) = (   0.3092659   0.3092076   0.4985932  )
        12           C   tau(  12) = (   0.3754896   0.4097321   0.1501593  )
        13           O   tau(  13) = (   0.3135152   1.4491529   0.1619774  )
        14           O   tau(  14) = (   0.2472157   0.7076289   0.5103119  )
        15           O   tau(  15) = (   0.5539349  -0.0113256   0.5348561  )
        16           O   tau(  16) = (   0.6202343   0.7301984   0.1865216  )
        17           O   tau(  17) = (   0.2609526   1.2227237   0.2290191  )
        18           O   tau(  18) = (   0.1947000   0.9340273   0.5774554  )
        19           O   tau(  19) = (   0.6064974   0.2151036   0.4678144  )
        20           O   tau(  20) = (   0.6727500   0.5038000   0.1193781  )
        21           C   tau(  21) = (   0.5071450   1.2813222   0.1921513  )
        22           C   tau(  22) = (   0.4408702   0.8753985   0.5405504  )
        23           C   tau(  23) = (   0.3603050   0.1565051   0.5046821  )
        24           C   tau(  24) = (   0.4265798   0.5624288   0.1562831  )
        25           N   tau(  25) = (   0.3520916   1.3210226   0.1942259  )
        26           N   tau(  26) = (   0.2858067   0.8357238   0.5426756  )
        27           N   tau(  27) = (   0.5153584   0.1168047   0.5026075  )
        28           N   tau(  28) = (   0.5816433   0.6021035   0.1541579  )
        29           N   tau(  29) = (   0.6008341   1.3925014   0.1810604  )
        30           N   tau(  30) = (   0.5345434   0.7641819   0.5294829  )
        31           N   tau(  31) = (   0.2666159   0.0453259   0.5157730  )
        32           N   tau(  32) = (   0.3329066   0.6736454   0.1673506  )
        33           O   tau(  33) = (   0.7815665   0.1831236   0.1493951  )
        34           O   tau(  34) = (   0.7152473   0.5357001   0.4977915  )
        35           O   tau(  35) = (   0.0858835   1.2547037   0.5474384  )
        36           O   tau(  36) = (   0.1522027   0.9021272   0.1990419  )
        37           C   tau(  37) = (   0.7439618   1.3666067   0.1782969  )
        38           C   tau(  38) = (   0.6776759   0.7900302   0.5267662  )
        39           C   tau(  39) = (   0.1234882   0.0712206   0.5185366  )
        40           C   tau(  40) = (   0.1897741   0.6477971   0.1700673  )
        41           N   tau(  41) = (   0.8384913   0.0591970   0.1702281  )
        42           N   tau(  42) = (   0.7721780   0.6595997   0.5186955  )
        43           N   tau(  43) = (   0.0289587   1.3786303   0.5266054  )
        44           N   tau(  44) = (   0.0952720   0.7782275   0.1781380  )
        45           O   tau(  45) = (  -0.0254448   0.0419904   0.1855163  )
        46           O   tau(  46) = (  -0.0917608   0.6767910   0.5339882  )
        47           O   tau(  47) = (   0.8928948   1.3958369   0.5113172  )
        48           O   tau(  48) = (   0.9592108   0.7610363   0.1628452  )
        49           C   tau(  49) = (   0.8010535   1.2154686   0.1802601  )
        50           C   tau(  50) = (   0.7347788   0.9411680   0.5286488  )
        51           C   tau(  51) = (   0.0663965   0.2223587   0.5165733  )
        52           C   tau(  52) = (   0.1326712   0.4966593   0.1681847  )
        53           N   tau(  53) = (   0.9437111   1.1802154   0.1688388  )
        54           N   tau(  54) = (   0.8774636   0.9764117   0.5172917  )
        55           N   tau(  55) = (  -0.0762611   0.2576119   0.5279947  )
        56           N   tau(  56) = (  -0.0100136   0.4614156   0.1795418  )
        57           H   tau(  57) = (   0.5139072   0.9068329   0.2015540  )
        58           H   tau(  58) = (   0.4476815   1.2498982   0.5499408  )
        59           H   tau(  59) = (   0.3535428   0.5309944   0.4952795  )
        60           H   tau(  60) = (   0.4197685   0.1879290   0.1468926  )
        61           H   tau(  61) = (   0.3573201   1.0241551   0.2100667  )
        62           H   tau(  62) = (   0.2911019   1.1325482   0.5584856  )
        63           H   tau(  63) = (   0.5101299   0.4136722   0.4867667  )
        64           H   tau(  64) = (   0.5763481   0.3052791   0.1383479  )
        65           H   tau(  65) = (   0.0236500   1.2598158   0.1702147  )
        66           H   tau(  66) = (  -0.0426000   0.8967709   0.5186761  )
        67           H   tau(  67) = (   0.8438000   0.1780115   0.5266188  )
        68           H   tau(  68) = (   0.9100500   0.5410564   0.1781574  )
        69           H   tau(  69) = (   0.9741342   1.0710554   0.1728410  )
        70           H   tau(  70) = (   0.9078813   1.0855390   0.5212548  )
        71           H   tau(  71) = (  -0.1066842   0.3667719   0.5239924  )
        72           H   tau(  72) = (  -0.0404313   0.3522882   0.1755787  )

     number of k points=     8
                       cart. coord. in units 2pi/alat
        k(    1) = (   0.0000000   0.0000000   0.0000000), wk =   0.1666667
        k(    2) = (   0.0000000   0.0000000   0.4783544), wk =   0.3333333
        k(    3) = (   0.0000000  -0.3477469   0.0000000), wk =   0.1666667
        k(    4) = (   0.0000000  -0.3477469   0.4783544), wk =   0.3333333
        k(    5) = (  -0.5000000   0.0000000  -0.0951088), wk =   0.1666667
        k(    6) = (  -0.5000000   0.0000000   0.3832456), wk =   0.3333333
        k(    7) = (  -0.5000000  -0.3477469  -0.0951088), wk =   0.1666667
        k(    8) = (  -0.5000000  -0.3477469   0.3832456), wk =   0.3333333

     Dense  grid:   668965 G-vectors     FFT dimensions: ( 120, 160,  80)

     Estimated max dynamical RAM per process >     623.49MB

     Estimated total allocated dynamical RAM >    4987.91MB

     Check: negative/imaginary core charge=   -0.000002    0.000000

     Initial potential from superposition of free atoms

     starting charge  295.99898, renormalised to  296.00000
     Starting wfc are  240 randomized atomic wfcs
     Checking if some PAW data can be deallocated... 

     total cpu time spent up to now is       33.4 secs

     per-process dynamical memory:   459.8 Mb

     Self-consistent Calculation

     iteration #  1     ecut=   100.00 Ry     beta=0.50
     Davidson diagonalization with overlap
     ethr =  1.00E-02,  avg # of iterations =  3.0

     total cpu time spent up to now is      110.8 secs

     total energy              =   -1654.37648736 Ry
     Harris-Foulkes estimate   =   -1659.08593339 Ry
     estimated scf accuracy    <       8.29228240 Ry

     iteration #  2     ecut=   100.00 Ry     beta=0.50
     Davidson diagonalization with overlap
     ethr =  2.80E-03,  avg # of iterations =  3.0

     total cpu time spent up to now is      172.2 secs

     total energy              =   -1656.03173111 Ry
     Harris-Foulkes estimate   =   -1657.27811426 Ry
     estimated scf accuracy    <       2.68681565 Ry

     iteration #  3     ecut=   100.00 Ry     beta=0.50
     Davidson diagonalization with overlap
     ethr =  9.08E-04,  avg # of iterations =  4.8

     total cpu time spent up to now is      226.0 secs

     total energy              =   -1656.54768335 Ry
     Harris-Foulkes estimate   =   -1656.63123315 Ry
     estimated scf accuracy    <       0.22784088 Ry

     iteration #  4     ecut=   100.00 Ry     beta=0.50
     Davidson diagonalization with overlap
     ethr =  7.70E-05,  avg # of iterations =  8.0

     total cpu time spent up to now is      317.0 secs

     total energy              =   -1656.60678090 Ry
     Harris-Foulkes estimate   =   -1656.66501352 Ry
     estimated scf accuracy    <       0.15479085 Ry

     iteration #  5     ecut=   100.00 Ry     beta=0.50
     Davidson diagonalization with overlap
     ethr =  5.23E-05,  avg # of iterations =  2.6

     total cpu time spent up to now is      364.8 secs

     total energy              =   -1656.62944144 Ry
     Harris-Foulkes estimate   =   -1656.63912849 Ry
     estimated scf accuracy    <       0.02782192 Ry

     iteration #  6     ecut=   100.00 Ry     beta=0.50
     Davidson diagonalization with overlap
     ethr =  9.40E-06,  avg # of iterations = 11.4

     total cpu time spent up to now is      439.8 secs

     total energy              =   -1656.63578564 Ry
     Harris-Foulkes estimate   =   -1656.63756572 Ry
     estimated scf accuracy    <       0.00516182 Ry

     iteration #  7     ecut=   100.00 Ry     beta=0.50
     Davidson diagonalization with overlap
     ethr =  1.74E-06,  avg # of iterations =  5.2

     total cpu time spent up to now is      494.6 secs

     total energy              =   -1656.63656231 Ry
     Harris-Foulkes estimate   =   -1656.63698749 Ry
     estimated scf accuracy    <       0.00116341 Ry

     iteration #  8     ecut=   100.00 Ry     beta=0.50
     Davidson diagonalization with overlap
     ethr =  3.93E-07,  avg # of iterations =  2.4

     total cpu time spent up to now is      544.4 secs

     total energy              =   -1656.63676986 Ry
     Harris-Foulkes estimate   =   -1656.63690020 Ry
     estimated scf accuracy    <       0.00037475 Ry

     iteration #  9     ecut=   100.00 Ry     beta=0.50
     Davidson diagonalization with overlap
     ethr =  1.27E-07,  avg # of iterations =  3.0

     total cpu time spent up to now is      598.7 secs

     total energy              =   -1656.63685769 Ry
     Harris-Foulkes estimate   =   -1656.63688505 Ry
     estimated scf accuracy    <       0.00008442 Ry

     iteration # 10     ecut=   100.00 Ry     beta=0.50
     Davidson diagonalization with overlap
     ethr =  2.85E-08,  avg # of iterations =  2.0

     total cpu time spent up to now is      646.9 secs

     total energy              =   -1656.63687176 Ry
     Harris-Foulkes estimate   =   -1656.63687615 Ry
     estimated scf accuracy    <       0.00001286 Ry

     iteration # 11     ecut=   100.00 Ry     beta=0.50
     Davidson diagonalization with overlap
     ethr =  4.35E-09,  avg # of iterations =  3.0

     total cpu time spent up to now is      711.8 secs

     total energy              =   -1656.63687526 Ry
     Harris-Foulkes estimate   =   -1656.63687587 Ry
     estimated scf accuracy    <       0.00000199 Ry

     iteration # 12     ecut=   100.00 Ry     beta=0.50
     Davidson diagonalization with overlap
     ethr =  6.71E-10,  avg # of iterations =  2.1

     total cpu time spent up to now is      759.8 secs

     total energy              =   -1656.63687555 Ry
     Harris-Foulkes estimate   =   -1656.63687564 Ry
     estimated scf accuracy    <       0.00000037 Ry

     iteration # 13     ecut=   100.00 Ry     beta=0.50
     Davidson diagonalization with overlap
     ethr =  1.24E-10,  avg # of iterations =  3.4

     total cpu time spent up to now is      829.5 secs

     total energy              =   -1656.63687565 Ry
     Harris-Foulkes estimate   =   -1656.63687570 Ry
     estimated scf accuracy    <       0.00000012 Ry

     iteration # 14     ecut=   100.00 Ry     beta=0.50
     Davidson diagonalization with overlap
     ethr =  4.19E-11,  avg # of iterations =  2.0

     total cpu time spent up to now is      876.4 secs

     total energy              =   -1656.63687567 Ry
     Harris-Foulkes estimate   =   -1656.63687568 Ry
     estimated scf accuracy    <       0.00000003 Ry

     iteration # 15     ecut=   100.00 Ry     beta=0.50
     Davidson diagonalization with overlap
     ethr =  1.08E-11,  avg # of iterations =  3.2

     total cpu time spent up to now is      937.6 secs

     End of self-consistent calculation

          k = 0.0000 0.0000 0.0000 ( 83581 PWs)   bands (ev):

   -23.3586 -23.3528 -23.3316 -23.3285 -23.2767 -23.2734 -23.2535 -23.2504
   -18.8626 -18.8623 -18.8568 -18.8415 -18.7878 -18.7846 -18.7524 -18.7498
   -18.1537 -18.1395 -18.0432 -18.0377 -16.5987 -16.5912 -16.5334 -16.5115
   -16.2757 -16.2677 -16.1423 -16.1421 -14.3818 -14.3806 -14.3365 -14.3310
   -13.3305 -13.3204 -13.3144 -13.2750 -11.5735 -11.5377 -11.4802 -11.4578
    -9.8589  -9.8450  -9.8006  -9.7830  -8.8392  -8.7776  -8.6832  -8.6643
    -8.0968  -8.0366  -7.8511  -7.8452  -7.2839  -7.2477  -7.1817  -7.1751
    -6.9487  -6.8209  -6.6348  -6.6007  -6.5098  -6.4988  -6.2231  -6.2048
    -6.1876  -6.1391  -6.0218  -5.9886  -5.8628  -5.8490  -5.7148  -5.6681
    -5.6556  -5.6398  -5.5978  -5.5564  -5.5519  -5.5215  -5.2862  -5.2647
    -5.1623  -5.1541  -4.9968  -4.9915  -4.7029  -4.6514  -4.6234  -4.5916
    -4.5811  -4.5749  -4.3550  -4.2818  -4.1484  -4.0863  -3.8245  -3.8158
    -3.6748  -3.6558  -3.4427  -3.2568  -2.1686  -2.1397  -1.9876  -1.9567
    -1.6649  -1.6648  -1.2116  -1.2030  -0.5890  -0.5043  -0.4525  -0.4506
    -0.4280  -0.4111  -0.3756  -0.3437  -0.3055  -0.3000  -0.2461  -0.1766
    -0.1709  -0.1523   0.0074   0.0188   0.0884   0.1088   0.1414   0.1496
     0.4144   0.4962   0.6432   0.6469   0.7568   0.7616   0.7813   0.8219
     0.9320   0.9351   0.9661   0.9913   1.0790   1.1254   1.2519   1.2938
     1.5093   1.5643   1.5709   1.6253   3.5807   3.6046   3.6910   3.7361
     4.4808   4.4912   4.5053   4.6988   5.5909   5.8482   5.9311   6.0432
     6.7583   6.7891   7.0006   7.0232   7.9348   8.6017   8.8148   9.1612
     9.2814   9.3895   9.5899   9.7554   9.8009   9.8460   9.8670   9.9737
    10.0169

          k = 0.0000 0.0000 0.4784 ( 83634 PWs)   bands (ev):

   -23.3499 -23.3456 -23.3352 -23.3324 -23.2787 -23.2754 -23.2556 -23.2526
   -18.8633 -18.8621 -18.8524 -18.8451 -18.7832 -18.7803 -18.7563 -18.7537
   -18.1262 -18.1140 -18.0694 -18.0644 -16.5849 -16.5726 -16.5523 -16.5328
   -16.2443 -16.2378 -16.1781 -16.1748 -14.3698 -14.3676 -14.3469 -14.3428
   -13.3332 -13.3266 -13.2993 -13.2811 -11.5654 -11.5475 -11.4751 -11.4639
    -9.8564  -9.8495  -9.7963  -9.7875  -8.8271  -8.7965  -8.6805  -8.6711
    -8.0811  -8.0509  -7.8499  -7.8470  -7.2779  -7.2592  -7.1828  -7.1799
    -6.9293  -6.8744  -6.6360  -6.6274  -6.5318  -6.5188  -6.2171  -6.2118
    -6.0269  -6.0116  -5.9738  -5.9584  -5.8647  -5.8385  -5.7829  -5.7728
    -5.6842  -5.6696  -5.5764  -5.5719  -5.5424  -5.4956  -5.2751  -5.2667
    -5.1525  -5.1464  -5.0120  -5.0071  -4.6845  -4.6601  -4.6111  -4.5878
    -4.5821  -4.5742  -4.3146  -4.2901  -3.9628  -3.8911  -3.8278  -3.8056
    -3.6835  -3.6528  -3.5583  -3.4494  -2.0312  -1.9856  -1.9035  -1.8531
    -1.8184  -1.7413  -1.5131  -1.5072  -0.5428  -0.5001  -0.4626  -0.4574
    -0.3836  -0.3826  -0.3423  -0.3341  -0.3140  -0.3136  -0.2918  -0.2617
    -0.1537  -0.1452  -0.0858  -0.0820   0.1020   0.1187   0.1469   0.1561
     0.4432   0.4810   0.6401   0.6407   0.7582   0.7622   0.8054   0.8174
     0.9547   0.9800   0.9904   1.0175   1.1612   1.1828   1.2988   1.3345
     1.4338   1.4655   1.5707   1.6756   3.5381   3.5494   3.6646   3.6872
     4.4698   4.4830   4.5429   4.6508   5.6296   5.8114   5.8119   5.8847
     6.7987   6.8881   6.9232   7.0166   8.4309   9.0592   9.1654   9.2710
     9.3504   9.4840   9.5980   9.6909   9.7891   9.8587  10.0154  10.0274
    10.1392

          k = 0.0000-0.3477 0.0000 ( 83546 PWs)   bands (ev):

   -23.3572 -23.3544 -23.3313 -23.3285 -23.2765 -23.2736 -23.2535 -23.2505
   -18.8614 -18.8594 -18.8526 -18.8508 -18.7870 -18.7845 -18.7523 -18.7498
   -18.1472 -18.1471 -18.0401 -18.0401 -16.5951 -16.5951 -16.5222 -16.5221
   -16.2717 -16.2717 -16.1421 -16.1421 -14.3816 -14.3814 -14.3337 -14.3336
   -13.3245 -13.3242 -13.2964 -13.2962 -11.5280 -11.5274 -11.4983 -11.4977
    -9.8301  -9.8297  -9.8120  -9.8116  -8.7679  -8.7678  -8.7211  -8.7211
    -7.9803  -7.9797  -7.9381  -7.9376  -7.2480  -7.2478  -7.2213  -7.2211
    -6.8249  -6.8240  -6.7392  -6.7385  -6.3554  -6.3554  -6.3065  -6.3064
    -6.1640  -6.1626  -5.9182  -5.9172  -5.8943  -5.8932  -5.6946  -5.6931
    -5.6380  -5.6366  -5.5565  -5.5548  -5.3659  -5.3658  -5.3413  -5.3411
    -5.2015  -5.2009  -5.1810  -5.1805  -4.6740  -4.6735  -4.6260  -4.6255
    -4.4078  -4.4078  -4.3924  -4.3922  -4.1412  -4.1412  -3.7442  -3.7432
    -3.7257  -3.7246  -3.3448  -3.3446  -2.1492  -2.1492  -1.9786  -1.9783
    -1.6586  -1.6584  -1.2119  -1.2117  -0.5277  -0.5272  -0.4722  -0.4715
    -0.4028  -0.4018  -0.3531  -0.3519  -0.3274  -0.3263  -0.2022  -0.2013
    -0.1650  -0.1637   0.0114   0.0130   0.1074   0.1084   0.1222   0.1231
     0.5645   0.5652   0.6049   0.6058   0.7396   0.7399   0.7723   0.7729
     0.9155   0.9158   0.9848   0.9848   1.0969   1.0969   1.2789   1.2790
     1.5257   1.5257   1.6077   1.6077   3.6350   3.6352   3.6694   3.6694
     4.4576   4.4579   4.6321   4.6325   5.6824   5.6828   6.0233   6.0233
     6.7757   6.7758   7.0092   7.0094   8.1660   8.1662   9.2363   9.2365
     9.3633   9.3635   9.5122   9.5122   9.6935   9.6941   9.9769   9.9779
    10.0630

          k = 0.0000-0.3477 0.4784 ( 83596 PWs)   bands (ev):

   -23.3492 -23.3464 -23.3351 -23.3324 -23.2785 -23.2756 -23.2556 -23.2526
   -18.8607 -18.8583 -18.8534 -18.8512 -18.7827 -18.7802 -18.7561 -18.7536
   -18.1205 -18.1205 -18.0668 -18.0667 -16.5788 -16.5788 -16.5423 -16.5422
   -16.2411 -16.2410 -16.1764 -16.1764 -14.3690 -14.3688 -14.3449 -14.3448
   -13.3244 -13.3240 -13.2966 -13.2962 -11.5214 -11.5208 -11.5062 -11.5056
    -9.8288  -9.8281  -9.8147  -9.8140  -8.7588  -8.7588  -8.7355  -8.7355
    -7.9695  -7.9690  -7.9484  -7.9479  -7.2435  -7.2432  -7.2303  -7.2301
    -6.8247  -6.8238  -6.7782  -6.7773  -6.3469  -6.3467  -6.3328  -6.3325
    -5.9908  -5.9896  -5.9076  -5.9066  -5.8824  -5.8812  -5.7765  -5.7748
    -5.6682  -5.6665  -5.5482  -5.5462  -5.3625  -5.3620  -5.3464  -5.3461
    -5.2054  -5.2040  -5.1738  -5.1726  -4.6658  -4.6648  -4.6216  -4.6205
    -4.4038  -4.4035  -4.3949  -4.3946  -3.9360  -3.9360  -3.7439  -3.7426
    -3.7249  -3.7235  -3.5014  -3.5012  -1.9984  -1.9982  -1.9062  -1.9060
    -1.7623  -1.7621  -1.5107  -1.5106  -0.4958  -0.4953  -0.4718  -0.4711
    -0.3863  -0.3851  -0.3369  -0.3357  -0.3237  -0.3227  -0.2673  -0.2665
    -0.1558  -0.1546  -0.0855  -0.0841   0.1155   0.1167   0.1284   0.1295
     0.5739   0.5746   0.5971   0.5979   0.7506   0.7519   0.7780   0.7791
     0.9454   0.9456   1.0048   1.0050   1.1721   1.1722   1.3208   1.3209
     1.4461   1.4463   1.6236   1.6239   3.5925   3.5931   3.6267   3.6269
     4.4910   4.4915   4.5797   4.5801   5.7001   5.7004   5.8715   5.8717
     6.8302   6.8308   6.9813   6.9820   8.6527   8.6529   9.3678   9.3682
     9.4701   9.4703   9.6222   9.6223   9.8258   9.8266   9.9600   9.9606
    10.0915

          k =-0.5000 0.0000-0.0951 ( 83640 PWs)   bands (ev):

   -23.3523 -23.3473 -23.3344 -23.3305 -23.2839 -23.2808 -23.2500 -23.2466
   -18.8645 -18.8631 -18.8577 -18.8420 -18.7889 -18.7805 -18.7536 -18.7460
   -18.1502 -18.1483 -18.0478 -18.0380 -16.6026 -16.5861 -16.5227 -16.5191
   -16.2655 -16.2516 -16.1317 -16.1287 -14.4010 -14.3859 -14.3499 -14.3386
   -13.3872 -13.3420 -13.3331 -13.3241 -11.4743 -11.4696 -11.4519 -11.4304
    -9.8043  -9.7997  -9.7655  -9.7403  -8.7872  -8.7532  -8.7288  -8.7259
    -8.2308  -8.1379  -8.0147  -7.9951  -7.2526  -7.2420  -7.2020  -7.1754
    -6.7550  -6.6902  -6.6533  -6.6300  -6.3509  -6.3303  -6.3201  -6.3009
    -6.1582  -6.1048  -6.0681  -6.0203  -5.9272  -5.9173  -5.8312  -5.8056
    -5.6929  -5.6689  -5.4878  -5.4658  -5.4614  -5.4312  -5.3453  -5.3270
    -5.0827  -5.0315  -5.0310  -5.0229  -4.7383  -4.7267  -4.7242  -4.6871
    -4.5643  -4.5551  -4.3476  -4.3396  -4.1698  -4.1163  -3.7502  -3.7292
    -3.5185  -3.5172  -3.3883  -3.3223  -2.2403  -2.0671  -2.0378  -1.8903
    -1.6914  -1.6189  -1.2586  -1.1654  -0.6173  -0.5464  -0.4666  -0.4560
    -0.3858  -0.2941  -0.2744  -0.2618  -0.2426  -0.2339  -0.2197  -0.2025
    -0.1446  -0.1317  -0.0928  -0.0564  -0.0073   0.0017   0.0040   0.0511
     0.4017   0.4968   0.6424   0.6453   0.7228   0.7310   0.7564   0.7717
     0.9194   0.9653   1.0268   1.0459   1.0915   1.1462   1.2189   1.3057
     1.5176   1.5238   1.5425   1.6323   3.5737   3.6692   3.7773   3.8251
     4.4517   4.4717   4.6082   4.6109   5.7249   5.7362   5.9343   6.0172
     6.6095   6.8103   6.9361   7.0020   8.3055   8.3528   8.8947   9.0125
     9.0348   9.3810   9.6856   9.7170   9.7752   9.7782   9.8726   9.9270
     9.9899

          k =-0.5000 0.0000 0.3832 ( 83579 PWs)   bands (ev):

   -23.3478 -23.3440 -23.3342 -23.3313 -23.2805 -23.2775 -23.2568 -23.2535
   -18.8655 -18.8637 -18.8528 -18.8453 -18.7814 -18.7750 -18.7586 -18.7526
   -18.1241 -18.1213 -18.0724 -18.0665 -16.5836 -16.5722 -16.5434 -16.5389
   -16.2338 -16.2226 -16.1671 -16.1613 -14.3877 -14.3734 -14.3620 -14.3497
   -13.3718 -13.3409 -13.3390 -13.3353 -11.4796 -11.4791 -11.4384 -11.4296
    -9.8035  -9.8012  -9.7597  -9.7471  -8.7755  -8.7487  -8.7467  -8.7349
    -8.2109  -8.1647  -8.0150  -8.0053  -7.2507  -7.2453  -7.1978  -7.1842
    -6.7435  -6.7170  -6.6561  -6.6506  -6.3517  -6.3397  -6.3156  -6.2972
    -6.1083  -6.1022  -6.0135  -5.9850  -5.8860  -5.8578  -5.7958  -5.7767
    -5.7114  -5.7036  -5.5618  -5.5092  -5.4469  -5.4123  -5.3570  -5.3392
    -5.0893  -5.0674  -5.0121  -5.0077  -4.7387  -4.7305  -4.7058  -4.6919
    -4.5644  -4.5586  -4.3424  -4.3327  -3.9453  -3.9218  -3.7451  -3.7386
    -3.5475  -3.5226  -3.5176  -3.4892  -2.0396  -1.9680  -1.9161  -1.8217
    -1.8077  -1.7350  -1.5347  -1.4761  -0.5685  -0.5282  -0.4496  -0.4471
    -0.3734  -0.3525  -0.3009  -0.2929  -0.2368  -0.2365  -0.2005  -0.1934
    -0.1760  -0.1488  -0.0921  -0.0897  -0.0623  -0.0587   0.0452   0.0523
     0.4379   0.4801   0.6473   0.6480   0.7328   0.7385   0.7884   0.7979
     0.9277   0.9637   1.0578   1.0616   1.1507   1.2217   1.3036   1.3219
     1.4406   1.4898   1.4971   1.5867   3.5717   3.6176   3.7884   3.8124
     4.4555   4.4932   4.5400   4.5615   5.7080   5.7487   5.8019   5.8865
     6.7119   6.8166   6.8563   6.9263   8.6578   8.9517   9.2016   9.2980
     9.5114   9.5976   9.6675   9.7057   9.7250   9.8483   9.8597  10.0275
    10.0630

          k =-0.5000-0.3477-0.0951 ( 83640 PWs)   bands (ev):

   -23.3514 -23.3486 -23.3337 -23.3309 -23.2838 -23.2809 -23.2498 -23.2468
   -18.8630 -18.8612 -18.8530 -18.8512 -18.7857 -18.7831 -18.7508 -18.7483
   -18.1496 -18.1496 -18.0428 -18.0428 -16.5947 -16.5946 -16.5205 -16.5204
   -16.2587 -16.2587 -16.1302 -16.1302 -14.3936 -14.3935 -14.3443 -14.3442
   -13.3695 -13.3691 -13.3244 -13.3240 -11.4654 -11.4648 -11.4493 -11.4488
    -9.7789  -9.7787  -9.7675  -9.7672  -8.7847  -8.7846  -8.7353  -8.7351
    -8.1214  -8.1209  -8.0575  -8.0571  -7.2359  -7.2355  -7.2113  -7.2109
    -6.7026  -6.7016  -6.6694  -6.6685  -6.3385  -6.3381  -6.3225  -6.3222
    -6.1259  -6.1248  -5.9695  -5.9685  -5.9056  -5.9054  -5.8716  -5.8708
    -5.6662  -5.6646  -5.4850  -5.4831  -5.3223  -5.3220  -5.2747  -5.2743
    -5.2193  -5.2187  -5.2005  -5.2005  -4.6347  -4.6346  -4.6182  -4.6181
    -4.5059  -4.5051  -4.4836  -4.4828  -4.1429  -4.1429  -3.6261  -3.6254
    -3.6097  -3.6089  -3.3571  -3.3568  -2.1538  -2.1537  -1.9737  -1.9735
    -1.6440  -1.6438  -1.2091  -1.2089  -0.5423  -0.5416  -0.5015  -0.5011
    -0.3396  -0.3385  -0.2631  -0.2624  -0.2343  -0.2335  -0.1997  -0.1992
    -0.1463  -0.1454  -0.0700  -0.0692  -0.0306  -0.0295   0.0125   0.0136
     0.5276   0.5287   0.6048   0.6060   0.7412   0.7421   0.7507   0.7521
     0.9543   0.9544   1.0136   1.0136   1.1073   1.1074   1.2570   1.2572
     1.5183   1.5184   1.5962   1.5962   3.6214   3.6218   3.7998   3.8000
     4.4535   4.4537   4.6236   4.6237   5.7089   5.7090   5.9861   5.9862
     6.7027   6.7034   6.9812   6.9814   8.3915   8.3917   8.7696   8.7698
     9.2858   9.2864   9.7944   9.7948   9.8339   9.8347   9.9122   9.9126
    10.0723

          k =-0.5000-0.3477 0.3832 ( 83626 PWs)   bands (ev):

   -23.3473 -23.3446 -23.3341 -23.3313 -23.2805 -23.2775 -23.2566 -23.2537
   -18.8629 -18.8606 -18.8536 -18.8512 -18.7789 -18.7764 -18.7568 -18.7543
   -18.1229 -18.1229 -18.0695 -18.0694 -16.5781 -16.5781 -16.5409 -16.5408
   -16.2283 -16.2283 -16.1641 -16.1641 -14.3806 -14.3806 -14.3559 -14.3558
   -13.3584 -13.3580 -13.3358 -13.3354 -11.4744 -11.4737 -11.4407 -11.4400
    -9.7767  -9.7764  -9.7705  -9.7702  -8.7752  -8.7750  -8.7502  -8.7499
    -8.1098  -8.1094  -8.0778  -8.0773  -7.2338  -7.2333  -7.2160  -7.2155
    -6.7143  -6.7135  -6.6772  -6.6761  -6.3443  -6.3438  -6.3183  -6.3179
    -6.0324  -6.0311  -5.9853  -5.9844  -5.9102  -5.9095  -5.7897  -5.7884
    -5.7096  -5.7081  -5.5199  -5.5179  -5.3225  -5.3217  -5.2692  -5.2682
    -5.2292  -5.2290  -5.2032  -5.2030  -4.6376  -4.6367  -4.6181  -4.6172
    -4.5007  -4.4996  -4.4817  -4.4807  -3.9314  -3.9313  -3.6249  -3.6243
    -3.6150  -3.6144  -3.5171  -3.5169  -2.0014  -2.0013  -1.8952  -1.8951
    -1.7454  -1.7452  -1.5082  -1.5081  -0.5103  -0.5095  -0.4794  -0.4790
    -0.3602  -0.3591  -0.3003  -0.2993  -0.2146  -0.2139  -0.2093  -0.2090
    -0.1733  -0.1726  -0.0883  -0.0869  -0.0334  -0.0324  -0.0047  -0.0037
     0.5562   0.5574   0.5895   0.5907   0.7482   0.7494   0.7560   0.7573
     0.9825   0.9828   1.0302   1.0303   1.1793   1.1794   1.3107   1.3108
     1.4556   1.4558   1.5506   1.5509   3.6019   3.6020   3.7934   3.7940
     4.4659   4.4661   4.5615   4.5617   5.7091   5.7092   5.8576   5.8580
     6.7540   6.7548   6.9023   6.9031   8.7972   8.7974   9.2980   9.2985
     9.5394   9.5400   9.6329   9.6332   9.7936   9.7939  10.0418  10.0425
    10.0694

     highest occupied, lowest unoccupied level (ev):     1.6756    3.5381

!    total energy              =   -1656.63687568 Ry
     Harris-Foulkes estimate   =   -1656.63687568 Ry
     estimated scf accuracy    <          6.6E-09 Ry

     total all-electron energy =     -6273.583934 Ry

     The total energy is the sum of the following terms:

     one-electron contribution =    -779.72120176 Ry
     hartree contribution      =     515.03715309 Ry
     xc contribution           =    -325.68392661 Ry
     ewald contribution        =    -608.47212980 Ry
     Dispersion Correction     =      -0.34863157 Ry
     one-center paw contrib.   =    -457.44813903 Ry

     convergence has been achieved in  15 iterations

     Forces acting on atoms (cartesian axes, Ry/au):

     atom    1 type  2   force =     0.00314163   -0.00095751    0.00059054
     atom    2 type  2   force =     0.00296126    0.00121801    0.00052469
     atom    3 type  2   force =    -0.00314163    0.00095751   -0.00059054
     atom    4 type  2   force =    -0.00296126   -0.00121801   -0.00052469
     atom    5 type  2   force =    -0.00192980   -0.00213446   -0.00165465
     atom    6 type  2   force =    -0.00157798    0.00226773   -0.00160371
     atom    7 type  2   force =     0.00192980    0.00213446    0.00165465
     atom    8 type  2   force =     0.00157798   -0.00226773    0.00160371
     atom    9 type  1   force =     0.00193804    0.00216089    0.00039765
     atom   10 type  1   force =     0.00164136   -0.00235763    0.00023490
     atom   11 type  1   force =    -0.00193804   -0.00216089   -0.00039765
     atom   12 type  1   force =    -0.00164136    0.00235763   -0.00023490
     atom   13 type  4   force =    -0.00154163    0.00318312    0.00075398
     atom   14 type  4   force =    -0.00159991   -0.00329040    0.00087187
     atom   15 type  4   force =     0.00154163   -0.00318312   -0.00075398
     atom   16 type  4   force =     0.00159991    0.00329040   -0.00087187
     atom   17 type  4   force =    -0.00098709    0.00034148   -0.00402604
     atom   18 type  4   force =    -0.00124939   -0.00011572   -0.00380364
     atom   19 type  4   force =     0.00098709   -0.00034148    0.00402604
     atom   20 type  4   force =     0.00124939    0.00011572    0.00380364
     atom   21 type  1   force =     0.00030786   -0.00145883    0.00135715
     atom   22 type  1   force =     0.00057938    0.00130248    0.00154138
     atom   23 type  1   force =    -0.00030786    0.00145883   -0.00135715
     atom   24 type  1   force =    -0.00057938   -0.00130248   -0.00154138
     atom   25 type  2   force =    -0.00104117   -0.00175828    0.00148857
     atom   26 type  2   force =    -0.00070700    0.00165004    0.00099815
     atom   27 type  2   force =     0.00104117    0.00175828   -0.00148857
     atom   28 type  2   force =     0.00070700   -0.00165004   -0.00099815
     atom   29 type  2   force =     0.00011758    0.00122020   -0.00028804
     atom   30 type  2   force =    -0.00018116   -0.00107120   -0.00016659
     atom   31 type  2   force =    -0.00011758   -0.00122020    0.00028804
     atom   32 type  2   force =     0.00018116    0.00107120    0.00016659
     atom   33 type  4   force =     0.00027195   -0.00169038   -0.00054246
     atom   34 type  4   force =     0.00019507    0.00148647   -0.00050832
     atom   35 type  4   force =    -0.00027195    0.00169038    0.00054246
     atom   36 type  4   force =    -0.00019507   -0.00148647    0.00050832
     atom   37 type  1   force =    -0.00037276   -0.00004025   -0.00127054
     atom   38 type  1   force =    -0.00037593    0.00021055   -0.00145864
     atom   39 type  1   force =     0.00037276    0.00004025    0.00127054
     atom   40 type  1   force =     0.00037593   -0.00021055    0.00145864
     atom   41 type  2   force =    -0.00286910    0.00158333   -0.00005436
     atom   42 type  2   force =    -0.00286907   -0.00132806   -0.00018888
     atom   43 type  2   force =     0.00286910   -0.00158333    0.00005436
     atom   44 type  2   force =     0.00286907    0.00132806    0.00018888
     atom   45 type  4   force =     0.00274750   -0.00277314   -0.00064741
     atom   46 type  4   force =     0.00288635    0.00275058   -0.00058705
     atom   47 type  4   force =    -0.00274750    0.00277314    0.00064741
     atom   48 type  4   force =    -0.00288635   -0.00275058    0.00058705
     atom   49 type  1   force =    -0.00238416   -0.00095606   -0.00089604
     atom   50 type  1   force =    -0.00183367    0.00089484   -0.00056451
     atom   51 type  1   force =     0.00238416    0.00095606    0.00089604
     atom   52 type  1   force =     0.00183367   -0.00089484    0.00056451
     atom   53 type  2   force =     0.00202798   -0.00001752    0.00282932
     atom   54 type  2   force =     0.00192748   -0.00088226    0.00272699
     atom   55 type  2   force =    -0.00202798    0.00001752   -0.00282932
     atom   56 type  2   force =    -0.00192748    0.00088226   -0.00272699
     atom   57 type  3   force =    -0.00084960   -0.00017527   -0.00013823
     atom   58 type  3   force =    -0.00093672    0.00003939   -0.00012847
     atom   59 type  3   force =     0.00084960    0.00017527    0.00013823
     atom   60 type  3   force =     0.00093672   -0.00003939    0.00012847
     atom   61 type  3   force =     0.00051504   -0.00025604   -0.00036079
     atom   62 type  3   force =     0.00037610    0.00025832   -0.00036193
     atom   63 type  3   force =    -0.00051504    0.00025604    0.00036079
     atom   64 type  3   force =    -0.00037610   -0.00025832    0.00036193
     atom   65 type  3   force =    -0.00013320    0.00064812    0.00113869
     atom   66 type  3   force =    -0.00041591   -0.00032979    0.00112022
     atom   67 type  3   force =     0.00013320   -0.00064812   -0.00113869
     atom   68 type  3   force =     0.00041591    0.00032979   -0.00112022
     atom   69 type  3   force =    -0.00006995    0.00097475    0.00069382
     atom   70 type  3   force =     0.00006530   -0.00051623    0.00072353
     atom   71 type  3   force =     0.00006995   -0.00097475   -0.00069382
     atom   72 type  3   force =    -0.00006530    0.00051623   -0.00072353

     Total force =     0.022298     Total SCF correction =     0.000198


     Computing stress (Cartesian axis) and pressure

          total   stress  (Ry/bohr**3)                   (kbar)     P=   -1.08
   0.00003288   0.00000026   0.00000175          4.84      0.04      0.26
   0.00000026  -0.00003211   0.00000012          0.04     -4.72      0.02
   0.00000175   0.00000012  -0.00002288          0.26      0.02     -3.37


     Writing output data file scf.save
 
     init_run     :     30.71s CPU     32.45s WALL (       1 calls)
     electrons    :    871.33s CPU    904.39s WALL (       1 calls)
     forces       :     15.06s CPU     15.23s WALL (       1 calls)
     stress       :     88.62s CPU     88.91s WALL (       1 calls)

     Called by init_run:
     wfcinit      :     21.54s CPU     22.78s WALL (       1 calls)
     potinit      :      3.22s CPU      3.38s WALL (       1 calls)

     Called by electrons:
     c_bands      :    769.24s CPU    798.09s WALL (      15 calls)
     sum_band     :     91.75s CPU     95.17s WALL (      15 calls)
     v_of_rho     :      1.62s CPU      1.76s WALL (      16 calls)
     newd         :      3.37s CPU      3.96s WALL (      16 calls)
     PAW_pot      :      4.94s CPU      4.98s WALL (      16 calls)
     mix_rho      :      0.36s CPU      0.40s WALL (      15 calls)

     Called by c_bands:
     init_us_2    :      6.40s CPU      6.42s WALL (     264 calls)
     cegterg      :    745.19s CPU    773.98s WALL (     120 calls)

     Called by sum_band:
     sum_band:bec :      0.06s CPU      0.06s WALL (     120 calls)
     addusdens    :      3.59s CPU      4.16s WALL (      15 calls)

     Called by *egterg:
     h_psi        :    454.45s CPU    474.54s WALL (     601 calls)
     s_psi        :     71.67s CPU     71.69s WALL (     601 calls)
     g_psi        :      3.10s CPU      3.10s WALL (     473 calls)
     cdiaghg      :     55.63s CPU     56.06s WALL (     593 calls)

     Called by h_psi:
     h_psi:pot    :    450.77s CPU    470.81s WALL (     601 calls)
     h_psi:calbec :     67.58s CPU     67.84s WALL (     601 calls)
     vloc_psi     :    311.58s CPU    331.33s WALL (     601 calls)
     add_vuspsi   :     71.60s CPU     71.62s WALL (     601 calls)

     General routines
     calbec       :     99.51s CPU     99.87s WALL (     761 calls)
     fft          :      0.89s CPU      1.31s WALL (     232 calls)
     fftw         :    338.30s CPU    358.85s WALL (  137268 calls)
 
     Parallel routines
     fft_scatter  :     67.75s CPU     81.84s WALL (  137500 calls)
 
     PWSCF        : 16m54.21s CPU    18m14.45s WALL

 
   This run was terminated on:   1:37:52   4Nov2017            

=------------------------------------------------------------------------------=
   JOB DONE.
=------------------------------------------------------------------------------=
