
     Program PWSCF v.6.1 (svn rev. 13369) starts on  5Jan2018 at 21:44:29 

     This program is part of the open-source Quantum ESPRESSO suite
     for quantum simulation of materials; please cite
         "P. Giannozzi et al., J. Phys.:Condens. Matter 21 395502 (2009);
          URL http://www.quantum-espresso.org", 
     in publications or presentations arising from this work. More details at
     http://www.quantum-espresso.org/quote

     Parallel version (MPI), running on     8 processors
     R & G space division:  proc/nbgrp/npool/nimage =       8
     Waiting for input...
     Reading input from standard input

     Current dimensions of program PWSCF are:
     Max number of different atomic species (ntypx) = 10
     Max number of k-points (npk) =  40000
     Max angular momentum in pseudopotentials (lmaxx) =  3
               file C.pbe-n-kjpaw_psl.0.1.UPF: wavefunction(s)  2P renormalized
               file N.pbe-n-kjpaw_psl.0.1.UPF: wavefunction(s)  2P renormalized
               file H.pbe-kjpaw_psl.0.1.UPF: wavefunction(s)  1S renormalized
               file O.pbe-n-kjpaw_psl.0.1.UPF: wavefunction(s)  2P renormalized

     -------------------------------------
     Parameters for Dispersion Correction:
     -------------------------------------
       atom      VdW radius       C_6     

        C          2.744         60.710
        N          2.640         42.670
        H          1.892          4.857
        O          2.536         24.284

     Subspace diagonalization in iterative solution of the eigenvalue problem:
     a serial algorithm will be used

 
     Parallelization info
     --------------------
     sticks:   dense  smooth     PW     G-vecs:    dense   smooth      PW
     Min        1048    1048    282               191983   191983   26807
     Max        1049    1049    283               191988   191988   26811
     Sum        8391    8391   2261              1535883  1535883  214469
 


     bravais-lattice index     =            0
     lattice parameter (alat)  =      30.3603  a.u.
     unit-cell volume          =   11366.8457 (a.u.)^3
     number of atoms/cell      =          176
     number of atomic types    =            4
     number of electrons       =       528.00
     number of Kohn-Sham states=          316
     kinetic-energy cutoff     =     100.0000  Ry
     charge density cutoff     =     400.0000  Ry
     convergence threshold     =      1.0E-08
     mixing beta               =       0.5000
     number of iterations used =            8  plain     mixing
     Exchange-correlation      =  SLA  PW   PBX  PBC ( 1  4  3  4 0 0)

     celldm(1)=  30.360340  celldm(2)=   0.000000  celldm(3)=   0.000000
     celldm(4)=   0.000000  celldm(5)=   0.000000  celldm(6)=   0.000000

     crystal axes: (cart. coord. in units of alat)
               a(1) = (   1.000000   0.000000   0.000000 )  
               a(2) = (   0.000000   0.285261   0.000000 )  
               a(3) = (  -0.247024   0.000000   1.423895 )  

     reciprocal axes: (cart. coord. in units 2 pi/alat)
               b(1) = (  1.000000  0.000000  0.173485 )  
               b(2) = (  0.000000  3.505564  0.000000 )  
               b(3) = (  0.000000  0.000000  0.702299 )  


     PseudoPot. # 1 for  C read from file:
     /scratch/ahofstet/pseudo/C.pbe-n-kjpaw_psl.0.1.UPF
     MD5 check sum: 430fe95172b1e11ef3f8ed03bac87931
     Pseudo is Projector augmented-wave + core cor, Zval =  4.0
     Generated using "atomic" code by A. Dal Corso  v.5.0.99 svn rev. 10869
     Shape of augmentation charge: BESSEL
     Using radial grid of 1073 points,  4 beta functions with: 
                l(1) =   0
                l(2) =   0
                l(3) =   1
                l(4) =   1
     Q(r) pseudized with 0 coefficients 


     PseudoPot. # 2 for  N read from file:
     /scratch/ahofstet/pseudo/N.pbe-n-kjpaw_psl.0.1.UPF
     MD5 check sum: f73187c8b701007e77325f868c9291d7
     Pseudo is Projector augmented-wave + core cor, Zval =  5.0
     Generated using "atomic" code by A. Dal Corso  v.5.0.99 svn rev. 10869
     Shape of augmentation charge: PSQ
     Using radial grid of 1085 points,  4 beta functions with: 
                l(1) =   0
                l(2) =   0
                l(3) =   1
                l(4) =   1
     Q(r) pseudized with 0 coefficients 


     PseudoPot. # 3 for  H read from file:
     /scratch/ahofstet/pseudo/H.pbe-kjpaw_psl.0.1.UPF
     MD5 check sum: 94e484f906d9e9773b2f6e52662335b2
     Pseudo is Projector augmented-wave, Zval =  1.0
     Generated using "atomic" code by A. Dal Corso  v.5.0.99 svn rev. 10869
     Shape of augmentation charge: PSQ
     Using radial grid of  929 points,  2 beta functions with: 
                l(1) =   0
                l(2) =   0
     Q(r) pseudized with 0 coefficients 


     PseudoPot. # 4 for  O read from file:
     /scratch/ahofstet/pseudo/O.pbe-n-kjpaw_psl.0.1.UPF
     MD5 check sum: 3f94a2996a3169367d6eb21d9b593f20
     Pseudo is Projector augmented-wave + core cor, Zval =  6.0
     Generated using "atomic" code by A. Dal Corso  v.5.0.99 svn rev. 10869
     Shape of augmentation charge: BESSEL
     Using radial grid of 1095 points,  4 beta functions with: 
                l(1) =   0
                l(2) =   0
                l(3) =   1
                l(4) =   1
     Q(r) pseudized with 0 coefficients 


     atomic species   valence    mass     pseudopotential
        C              4.00    12.01070      C( 1.00)
        N              5.00    14.00670      N( 1.00)
        H              1.00     1.00794      H( 1.00)
        O              6.00    15.99940      O( 1.00)

      2 Sym. Ops., with inversion, found



   Cartesian axes

     site n.     atom                  positions (alat units)
         1           O   tau(   1) = (   0.5770507   0.1137707   0.8088990  )
         2           O   tau(   2) = (   0.6758429  -0.0289092   0.6150255  )
         3           O   tau(   3) = (   0.1759248   0.1714901   0.6149960  )
         4           O   tau(   4) = (   0.0771326   0.3141700   0.8088695  )
         5           O   tau(   5) = (   0.7005821   0.0038965   0.8589232  )
         6           O   tau(   6) = (   0.5523506   0.1465206   0.5649399  )
         7           O   tau(   7) = (   0.0523935   0.2813643   0.5649718  )
         8           O   tau(   8) = (   0.2006250   0.1387402   0.8589551  )
         9           C   tau(   9) = (   0.6387081   0.0903408   1.0622398  )
        10           C   tau(  10) = (   0.6142631   0.2330176   0.3616632  )
        11           C   tau(  11) = (   0.1142675   0.1949200   0.3616553  )
        12           C   tau(  12) = (   0.1387125   0.0522432   1.0622318  )
        13           C   tau(  13) = (   0.6635318   0.0851253   1.1483605  )
        14           C   tau(  14) = (   0.5894606   0.2278343   0.2755276  )
        15           C   tau(  15) = (   0.0894437   0.2001355   0.2755345  )
        16           C   tau(  16) = (   0.1635150   0.0574265   1.1483674  )
        17           C   tau(  17) = (   0.6297196   0.1415164   1.2063427  )
        18           C   tau(  18) = (   0.6233193   0.2842415   0.2175621  )
        19           C   tau(  19) = (   0.1232560   0.1437444   0.2175523  )
        20           C   tau(  20) = (   0.1296562   0.0010193   1.2063329  )
        21           C   tau(  21) = (   0.5717840   0.2026083   1.1805061  )
        22           C   tau(  22) = (   0.6812653   0.0600366   0.2434328  )
        23           C   tau(  23) = (   0.1811916   0.0826525   0.2433889  )
        24           C   tau(  24) = (   0.0717103   0.2252242   1.1804623  )
        25           C   tau(  25) = (   0.5473792   0.2080138   1.0942367  )
        26           C   tau(  26) = (   0.7056453   0.0654133   0.3297093  )
        27           C   tau(  27) = (   0.2055964   0.0772470   0.3296584  )
        28           C   tau(  28) = (   0.0473303   0.2198475   1.0941858  )
        29           C   tau(  29) = (   0.5808359   0.1512992   1.0363668  )
        30           C   tau(  30) = (   0.6721428   0.0086995   0.3875646  )
        31           C   tau(  31) = (   0.1721397   0.1339616   0.3875282  )
        32           C   tau(  32) = (   0.0808327   0.2765613   1.0363304  )
        33           C   tau(  33) = (   0.6727931   0.0337243   1.0039759  )
        34           C   tau(  34) = (   0.5801817   0.1763665   0.4198809  )
        35           C   tau(  35) = (   0.0801825   0.2515365   0.4199191  )
        36           C   tau(  36) = (   0.1727938   0.1088943   1.0040141  )
        37           C   tau(  37) = (   0.7280011  -0.0294661   1.0319570  )
        38           C   tau(  38) = (   0.5249676   0.1131936   0.3918566  )
        39           C   tau(  39) = (   0.0249745   0.3147269   0.3919381  )
        40           C   tau(  40) = (   0.2280080   0.1720672   1.0320384  )
        41           C   tau(  41) = (   0.7497382   0.2494464   1.1142407  )
        42           C   tau(  42) = (   0.5032523   0.1068814   0.3095641  )
        43           C   tau(  43) = (   0.0032374   0.0358144   0.3096543  )
        44           C   tau(  44) = (   0.2497233   0.1783794   1.1143310  )
        45           C   tau(  45) = (   0.7191888   0.0216736   1.1744736  )
        46           C   tau(  46) = (   0.5338341   0.1643969   0.2493701  )
        47           C   tau(  47) = (   0.0337868   0.2635872   0.2494214  )
        48           C   tau(  48) = (   0.2191415   0.1208639   1.1745249  )
        49           C   tau(  49) = (  -0.2606384   0.0152376   1.2601357  )
        50           C   tau(  50) = (   0.5136999   0.1579882   0.1636806  )
        51           C   tau(  51) = (   1.0136139   0.2700232   0.1637593  )
        52           C   tau(  52) = (   0.2392757   0.1272726   1.2602145  )
        53           C   tau(  53) = (   0.7064058   0.0703656   1.3176295  )
        54           C   tau(  54) = (   0.5466608   0.2131454   0.1062344  )
        55           C   tau(  55) = (   0.0465698   0.2148952   0.1062655  )
        56           C   tau(  56) = (   0.2063148   0.0721154   1.3176606  )
        57           C   tau(  57) = (   0.6528960   0.1353845   1.2933912  )
        58           C   tau(  58) = (   0.6001743   0.2781480   0.1305110  )
        59           C   tau(  59) = (   0.1000796   0.1498763   0.1305038  )
        60           C   tau(  60) = (   0.1528013   0.0071128   1.2933841  )
        61           C   tau(  61) = (   0.6211421   0.1950948   1.3488531  )
        62           C   tau(  62) = (   0.6319446   0.3378608   0.0750710  )
        63           C   tau(  63) = (   0.1318335   0.0901660   0.0750419  )
        64           C   tau(  64) = (   0.1210310  -0.0526000   1.3488240  )
        65           C   tau(  65) = (   0.5680441   0.2573442   1.3221710  )
        66           C   tau(  66) = (   0.6850746   0.1148158   0.1017782  )
        67           C   tau(  67) = (   0.1849315   0.0279166   0.1017240  )
        68           C   tau(  68) = (   0.0679010   0.1704450   1.3221168  )
        69           C   tau(  69) = (   0.5402333   0.2613386   1.2382555  )
        70           C   tau(  70) = (   0.7128640   0.1187689   0.1856856  )
        71           C   tau(  71) = (   0.2127423   0.0239222   0.1856395  )
        72           C   tau(  72) = (   0.0401116   0.1664919   1.2382094  )
        73           C   tau(  73) = (   0.4858516   0.3250047   1.2097275  )
        74           C   tau(  74) = (   0.7672425   0.1824143   0.2142718  )
        75           C   tau(  75) = (   0.2671240  -0.0397439   0.2141675  )
        76           C   tau(  76) = (  -0.0142669   0.1028465   1.2096233  )
        77           C   tau(  77) = (   0.4627183   0.0451041   1.1276863  )
        78           C   tau(  78) = (   0.7903367   0.1877421   0.2963260  )
        79           C   tau(  79) = (   0.2902573   0.2401567   0.2962087  )
        80           C   tau(  80) = (  -0.0373611   0.0975187   1.1275690  )
        81           C   tau(  81) = (   0.4926782   0.2721607   1.0680953  )
        82           C   tau(  82) = (   0.7603507   0.1295283   0.3558752  )
        83           C   tau(  83) = (   0.2602974   0.0131001   0.3557997  )
        84           C   tau(  84) = (  -0.0073751   0.1557325   1.0680198  )
        85           C   tau(  85) = (   0.4710270  -0.0076881   0.9825621  )
        86           C   tau(  86) = (   0.7819754   0.1349190   0.4414302  )
        87           C   tau(  87) = (   0.2819486   0.2929489   0.4413329  )
        88           C   tau(  88) = (  -0.0289998   0.1503418   0.9824649  )
        89           C   tau(  89) = (   0.5000386   0.2199594   0.9259490  )
        90           C   tau(  90) = (   0.7529578   0.0772975   0.4980183  )
        91           C   tau(  91) = (   0.2529369   0.0653014   0.4979460  )
        92           C   tau(  92) = (   0.0000178   0.2079633   0.9258767  )
        93           C   tau(  93) = (   0.5559735   0.1568662   0.9500227  )
        94           C   tau(  94) = (   0.6969996   0.0142166   0.4739048  )
        95           C   tau(  95) = (   0.1970021   0.1283946   0.4738723  )
        96           C   tau(  96) = (   0.0559760   0.2710442   0.9499902  )
        97           C   tau(  97) = (   0.5920970   0.1012769   0.8927509  )
        98           C   tau(  98) = (   0.6608522  -0.0413856   0.5311601  )
        99           C   tau(  99) = (   0.1608786   0.1839839   0.5311441  )
       100           C   tau( 100) = (   0.0921234   0.3266464   0.8927350  )
       101           C   tau( 101) = (   0.6519511   0.0434538   0.9185646  )
       102           C   tau( 102) = (   0.6010118   0.1860666   0.5053068  )
       103           C   tau( 103) = (   0.1010245   0.2418070   0.5053304  )
       104           C   tau( 104) = (   0.1519638   0.0991942   0.9185882  )
       105           C   tau( 105) = (   0.5490129   0.0427184   0.7625660  )
       106           C   tau( 106) = (   0.7038235   0.1852779   0.6613697  )
       107           C   tau( 107) = (   0.2039626   0.2425424   0.6613291  )
       108           C   tau( 108) = (   0.0491521   0.0999829   0.7625253  )
       109           C   tau( 109) = (   0.7603637   0.0631799   0.8279479  )
       110           C   tau( 110) = (   0.4925874   0.2058391   0.5958870  )
       111           C   tau( 111) = (  -0.0073881   0.2220809   0.5959471  )
       112           C   tau( 112) = (   0.2603881   0.0794217   0.8280080  )
       113           H   tau( 113) = (   0.7488107   0.2092058   0.9872988  )
       114           H   tau( 114) = (   0.5041366   0.0665963   0.4364970  )
       115           H   tau( 115) = (   0.0041649   0.0760550   0.4365962  )
       116           H   tau( 116) = (   0.2488390   0.2186645   0.9873980  )
       117           H   tau( 117) = (  -0.2114583   0.1977878   1.1350784  )
       118           H   tau( 118) = (   0.4644292   0.0552449   0.2886976  )
       119           H   tau( 119) = (   0.9644339   0.0874730   0.2888166  )
       120           H   tau( 120) = (   0.2885463   0.2300159   1.1351974  )
       121           H   tau( 121) = (  -0.2214183   0.2489942   1.2804038  )
       122           H   tau( 122) = (   0.4744824   0.1065034   0.1433770  )
       123           H   tau( 123) = (   0.9743939   0.0362666   0.1434913  )
       124           H   tau( 124) = (   0.2784932   0.1787574   1.2805180  )
       125           H   tau( 125) = (  -0.2769120   0.0648236   1.3832091  )
       126           H   tau( 126) = (   0.5300106   0.2076496   0.0406386  )
       127           H   tau( 127) = (   1.0298875   0.2204372   0.0406859  )
       128           H   tau( 128) = (   0.2229650   0.0776112   1.3832564  )
       129           H   tau( 129) = (   0.6395750   0.1924831   1.4142066  )
       130           H   tau( 130) = (   0.6134789   0.3352947   0.0097199  )
       131           H   tau( 131) = (   0.1134006   0.0927777   0.0096885  )
       132           H   tau( 132) = (   0.1394967  -0.0500339   1.4141751  )
       133           H   tau( 133) = (   0.5471809   0.3056003   1.3650233  )
       134           H   tau( 134) = (   0.7058932   0.1631212   0.0589477  )
       135           H   tau( 135) = (   0.2057947  -0.0203395   0.0588718  )
       136           H   tau( 136) = (   0.0470823   0.1221396   1.3649473  )
       137           H   tau( 137) = (   0.4659579   0.0875528   1.2537099  )
       138           H   tau( 138) = (   0.7871523   0.2302587   0.1703299  )
       139           H   tau( 139) = (   0.2870177   0.1977080   0.1701851  )
       140           H   tau( 140) = (  -0.0341767   0.0550021   1.2535651  )
       141           H   tau( 141) = (   0.4235605   0.0962661   1.1063265  )
       142           H   tau( 142) = (   0.8294505   0.2389141   0.3177396  )
       143           H   tau( 143) = (   0.3294151   0.1889947   0.3175685  )
       144           H   tau( 144) = (  -0.0764750   0.0463467   1.1061554  )
       145           H   tau( 145) = (   0.4310920   0.0434903   0.9625947  )
       146           H   tau( 146) = (   0.8218735   0.1861164   0.4614171  )
       147           H   tau( 147) = (   0.3218836   0.2417705   0.4613003  )
       148           H   tau( 148) = (  -0.0688979   0.0991444   0.9624779  )
       149           H   tau( 149) = (   0.4795300   0.2219867   0.8616722  )
       150           H   tau( 150) = (   0.7734607   0.0792782   0.5622864  )
       151           H   tau( 151) = (   0.2734455   0.0632741   0.5622229  )
       152           H   tau( 152) = (  -0.0204851   0.2059826   0.8616086  )
       153           H   tau( 153) = (   0.5691697   0.0520606   0.6981430  )
       154           H   tau( 154) = (   0.6835675  -0.0906962   0.7257727  )
       155           H   tau( 155) = (   0.1838059   0.2332002   0.7257520  )
       156           H   tau( 156) = (   0.0694081   0.3759570   0.6981223  )
       157           H   tau( 157) = (   0.5750996  -0.0166687   0.7867227  )
       158           H   tau( 158) = (   0.6777917   0.1258885   0.6371565  )
       159           H   tau( 159) = (   0.1778760   0.3019295   0.6371723  )
       160           H   tau( 160) = (   0.0751839   0.1593723   0.7867385  )
       161           H   tau( 161) = (   0.4803551   0.0394683   0.7654751  )
       162           H   tau( 162) = (   0.7724860   0.1820697   0.6585592  )
       163           H   tau( 163) = (   0.2726204   0.2457925   0.6584199  )
       164           H   tau( 164) = (  -0.0195104   0.1031911   0.7653358  )
       165           H   tau( 165) = (   0.7724557   0.0486614   0.7622559  )
       166           H   tau( 166) = (   0.4804547   0.1913491   0.6615804  )
       167           H   tau( 167) = (  -0.0194801   0.2365994   0.6616391  )
       168           H   tau( 168) = (   0.2725209   0.0939117   0.7623146  )
       169           H   tau( 169) = (   0.8186262   0.0584379   0.8641601  )
       170           H   tau( 170) = (   0.4343454   0.2011057   0.5596436  )
       171           H   tau( 171) = (  -0.0656507   0.2268229   0.5597349  )
       172           H   tau( 172) = (   0.3186302   0.0841551   0.8642514  )
       173           H   tau( 173) = (   0.7350787   0.1272194   0.8339011  )
       174           H   tau( 174) = (   0.5179050  -0.0153948   0.5899307  )
       175           H   tau( 175) = (   0.0178969   0.1580414   0.5899939  )
       176           H   tau( 176) = (   0.2350705   0.3006556   0.8339643  )

     number of k points=     6
                       cart. coord. in units 2pi/alat
        k(    1) = (   0.0000000   0.0000000   0.0000000), wk =   0.2500000
        k(    2) = (   0.0000000   0.8763910   0.0000000), wk =   0.5000000
        k(    3) = (   0.0000000  -1.7527820   0.0000000), wk =   0.2500000
        k(    4) = (  -0.5000000   0.0000000  -0.0867425), wk =   0.2500000
        k(    5) = (  -0.5000000   0.8763910  -0.0867425), wk =   0.5000000
        k(    6) = (  -0.5000000  -1.7527820  -0.0867425), wk =   0.2500000

     Dense  grid:  1535883 G-vectors     FFT dimensions: ( 200,  60, 288)

     Estimated max dynamical RAM per process >    2279.27MB

     Estimated total allocated dynamical RAM >   18234.16MB

     Check: negative/imaginary core charge=   -0.000002    0.000000

     Initial potential from superposition of free atoms

     starting charge  527.99505, renormalised to  528.00000
     Starting wfc are  512 randomized atomic wfcs
     Checking if some PAW data can be deallocated... 

     total cpu time spent up to now is      179.1 secs

     per-process dynamical memory:  1397.5 Mb

     Self-consistent Calculation

     iteration #  1     ecut=   100.00 Ry     beta=0.50
     Davidson diagonalization with overlap
     ethr =  1.00E-02,  avg # of iterations =  5.5

     total cpu time spent up to now is      710.0 secs

     total energy              =   -2324.36921648 Ry
     Harris-Foulkes estimate   =   -2333.51417966 Ry
     estimated scf accuracy    <      17.81707947 Ry

     iteration #  2     ecut=   100.00 Ry     beta=0.50
     Davidson diagonalization with overlap
     ethr =  3.37E-03,  avg # of iterations =  1.0

     total cpu time spent up to now is      954.0 secs

     total energy              =   -2322.99054812 Ry
     Harris-Foulkes estimate   =   -2325.33742564 Ry
     estimated scf accuracy    <       3.81062027 Ry

     iteration #  3     ecut=   100.00 Ry     beta=0.50
     Davidson diagonalization with overlap
     ethr =  7.22E-04,  avg # of iterations =  5.0

     total cpu time spent up to now is     1595.5 secs

     total energy              =   -2318.97793486 Ry
     Harris-Foulkes estimate   =   -2330.82076872 Ry
     estimated scf accuracy    <     118.18026767 Ry

     iteration #  4     ecut=   100.00 Ry     beta=0.50
     Davidson diagonalization with overlap
     ethr =  7.22E-04,  avg # of iterations =  9.3

     total cpu time spent up to now is     2081.6 secs

     total energy              =   -2326.62377480 Ry
     Harris-Foulkes estimate   =   -2327.77219828 Ry
     estimated scf accuracy    <       4.47230080 Ry

     iteration #  5     ecut=   100.00 Ry     beta=0.50
     Davidson diagonalization with overlap
     ethr =  7.22E-04,  avg # of iterations =  1.0

     total cpu time spent up to now is     2324.7 secs

     total energy              =   -2325.88724515 Ry
     Harris-Foulkes estimate   =   -2326.74053250 Ry
     estimated scf accuracy    <       1.87523241 Ry

     iteration #  6     ecut=   100.00 Ry     beta=0.50
     Davidson diagonalization with overlap
     ethr =  3.55E-04,  avg # of iterations =  8.2

     total cpu time spent up to now is     2850.3 secs

     total energy              =   -2326.60307449 Ry
     Harris-Foulkes estimate   =   -2326.65588260 Ry
     estimated scf accuracy    <       0.30432623 Ry

     iteration #  7     ecut=   100.00 Ry     beta=0.50
     Davidson diagonalization with overlap
     ethr =  5.76E-05,  avg # of iterations =  3.3

     total cpu time spent up to now is     3111.3 secs

     total energy              =   -2326.54261062 Ry
     Harris-Foulkes estimate   =   -2326.63170908 Ry
     estimated scf accuracy    <       0.15477566 Ry

     iteration #  8     ecut=   100.00 Ry     beta=0.50
     Davidson diagonalization with overlap
     ethr =  2.93E-05,  avg # of iterations = 11.5

     total cpu time spent up to now is     3441.7 secs

     total energy              =   -2326.55567650 Ry
     Harris-Foulkes estimate   =   -2326.56482960 Ry
     estimated scf accuracy    <       0.02140094 Ry

     iteration #  9     ecut=   100.00 Ry     beta=0.50
     Davidson diagonalization with overlap
     c_bands:  1 eigenvalues not converged
     ethr =  4.05E-06,  avg # of iterations =  8.5

     total cpu time spent up to now is     4133.9 secs

     total energy              =   -2326.59810207 Ry
     Harris-Foulkes estimate   =   -2326.60796192 Ry
     estimated scf accuracy    <       0.06538873 Ry

     iteration # 10     ecut=   100.00 Ry     beta=0.50
     Davidson diagonalization with overlap
     ethr =  4.05E-06,  avg # of iterations =  2.3

     total cpu time spent up to now is     4385.5 secs

     total energy              =   -2326.58339462 Ry
     Harris-Foulkes estimate   =   -2326.59855359 Ry
     estimated scf accuracy    <       0.04370740 Ry

     iteration # 11     ecut=   100.00 Ry     beta=0.50
     Davidson diagonalization with overlap
     ethr =  4.05E-06,  avg # of iterations = 10.8

     total cpu time spent up to now is     4862.2 secs

     total energy              =   -2326.58920244 Ry
     Harris-Foulkes estimate   =   -2326.59020949 Ry
     estimated scf accuracy    <       0.00333618 Ry

     iteration # 12     ecut=   100.00 Ry     beta=0.50
     Davidson diagonalization with overlap
     ethr =  6.32E-07,  avg # of iterations =  4.5

     total cpu time spent up to now is     5137.6 secs

     total energy              =   -2326.58967289 Ry
     Harris-Foulkes estimate   =   -2326.58974351 Ry
     estimated scf accuracy    <       0.00052303 Ry

     iteration # 13     ecut=   100.00 Ry     beta=0.50
     Davidson diagonalization with overlap
     ethr =  9.91E-08,  avg # of iterations =  5.0

     total cpu time spent up to now is     5747.0 secs

     total energy              =   -2326.58972935 Ry
     Harris-Foulkes estimate   =   -2326.59062240 Ry
     estimated scf accuracy    <       0.00220785 Ry

     iteration # 14     ecut=   100.00 Ry     beta=0.50
     Davidson diagonalization with overlap
     ethr =  9.91E-08,  avg # of iterations =  5.3

     total cpu time spent up to now is     6197.7 secs

     total energy              =   -2326.58999857 Ry
     Harris-Foulkes estimate   =   -2326.59001216 Ry
     estimated scf accuracy    <       0.00008287 Ry

     iteration # 15     ecut=   100.00 Ry     beta=0.50
     Davidson diagonalization with overlap
     ethr =  1.57E-08,  avg # of iterations =  3.0

     total cpu time spent up to now is     6464.3 secs

     total energy              =   -2326.58998727 Ry
     Harris-Foulkes estimate   =   -2326.59000600 Ry
     estimated scf accuracy    <       0.00004775 Ry

     iteration # 16     ecut=   100.00 Ry     beta=0.50
     Davidson diagonalization with overlap
     ethr =  9.04E-09,  avg # of iterations =  3.2

     total cpu time spent up to now is     6785.5 secs

     total energy              =   -2326.58999329 Ry
     Harris-Foulkes estimate   =   -2326.58999634 Ry
     estimated scf accuracy    <       0.00000638 Ry

     iteration # 17     ecut=   100.00 Ry     beta=0.50
     Davidson diagonalization with overlap
     ethr =  1.21E-09,  avg # of iterations =  4.0

     total cpu time spent up to now is     7354.1 secs

     total energy              =   -2326.58999834 Ry
     Harris-Foulkes estimate   =   -2326.58999918 Ry
     estimated scf accuracy    <       0.00000343 Ry

     iteration # 18     ecut=   100.00 Ry     beta=0.50
     Davidson diagonalization with overlap
     ethr =  6.49E-10,  avg # of iterations =  1.0

     total cpu time spent up to now is     7598.6 secs

     total energy              =   -2326.58999716 Ry
     Harris-Foulkes estimate   =   -2326.58999840 Ry
     estimated scf accuracy    <       0.00000193 Ry

     iteration # 19     ecut=   100.00 Ry     beta=0.50
     Davidson diagonalization with overlap
     ethr =  3.65E-10,  avg # of iterations =  4.0

     total cpu time spent up to now is     8051.1 secs

     total energy              =   -2326.58999799 Ry
     Harris-Foulkes estimate   =   -2326.58999825 Ry
     estimated scf accuracy    <       0.00000069 Ry

     iteration # 20     ecut=   100.00 Ry     beta=0.50
     Davidson diagonalization with overlap
     ethr =  1.31E-10,  avg # of iterations =  1.0

     total cpu time spent up to now is     8297.2 secs

     total energy              =   -2326.58999794 Ry
     Harris-Foulkes estimate   =   -2326.58999802 Ry
     estimated scf accuracy    <       0.00000021 Ry

     iteration # 21     ecut=   100.00 Ry     beta=0.50
     Davidson diagonalization with overlap
     ethr =  4.01E-11,  avg # of iterations =  4.0

     total cpu time spent up to now is     8779.6 secs

     total energy              =   -2326.58999807 Ry
     Harris-Foulkes estimate   =   -2326.58999807 Ry
     estimated scf accuracy    <       0.00000003 Ry

     iteration # 22     ecut=   100.00 Ry     beta=0.50
     Davidson diagonalization with overlap
     ethr =  5.87E-12,  avg # of iterations =  1.7

     total cpu time spent up to now is     9026.9 secs

     total energy              =   -2326.58999805 Ry
     Harris-Foulkes estimate   =   -2326.58999807 Ry
     estimated scf accuracy    <       0.00000003 Ry

     iteration # 23     ecut=   100.00 Ry     beta=0.50
     Davidson diagonalization with overlap
     ethr =  5.18E-12,  avg # of iterations =  3.3

     total cpu time spent up to now is     9284.0 secs

     End of self-consistent calculation

          k = 0.0000 0.0000 0.0000 (191977 PWs)   bands (ev):

   -19.8707 -19.8705 -19.8496 -19.8494 -19.2306 -19.2303 -19.2273 -19.2271
   -15.8022 -15.8000 -15.7978 -15.7976 -14.8157 -14.8114 -14.8109 -14.8061
   -14.4700 -14.4685 -14.4569 -14.4557 -13.5068 -13.4991 -13.4942 -13.4892
   -13.2223 -13.2212 -13.2135 -13.2097 -12.7922 -12.7858 -12.7719 -12.7704
   -12.0822 -12.0792 -12.0567 -12.0470 -11.9553 -11.9422 -11.9362 -11.9318
   -11.3653 -11.3624 -11.3557 -11.3395 -11.1950 -11.1825 -11.1734 -11.1618
   -10.8566 -10.8511 -10.7948 -10.7891 -10.6169 -10.6127 -10.5743 -10.5718
   -10.1860 -10.1748 -10.1019 -10.0936  -9.8367  -9.8251  -9.6598  -9.6582
    -8.7007  -8.6950  -8.6937  -8.6888  -8.6290  -8.6226  -8.6095  -8.6085
    -8.5621  -8.5568  -8.5533  -8.5479  -8.3522  -8.3452  -8.3442  -8.3171
    -8.2993  -8.2921  -8.2806  -8.2749  -6.8311  -6.8045  -6.7916  -6.7887
    -6.6999  -6.6680  -6.6582  -6.6250  -6.4558  -6.4550  -6.4460  -6.3961
    -6.3614  -6.3545  -6.3371  -6.3284  -6.2620  -6.2608  -6.2602  -6.2499
    -5.9861  -5.9662  -5.9648  -5.9536  -5.1448  -5.1329  -5.1010  -5.0875
    -4.9906  -4.9874  -4.9867  -4.9614  -4.9545  -4.9504  -4.9489  -4.9051
    -4.7717  -4.7473  -4.6852  -4.6655  -4.5862  -4.5437  -4.5370  -4.5160
    -4.4241  -4.4135  -4.2096  -4.2087  -4.2077  -4.1830  -4.1798  -4.1794
    -4.1676  -4.1426  -3.8759  -3.8556  -3.8170  -3.7838  -3.7721  -3.7513
    -3.7028  -3.6796  -3.6767  -3.6403  -3.5425  -3.4990  -3.4857  -3.4788
    -3.3871  -3.3654  -3.3290  -3.3051  -3.2448  -3.1993  -3.1832  -3.1747
    -3.0972  -3.0957  -3.0786  -3.0743  -2.9573  -2.9366  -2.9362  -2.9328
    -2.8556  -2.8334  -2.8241  -2.8025  -2.7926  -2.7615  -2.7032  -2.6985
    -2.6947  -2.6841  -2.6815  -2.6758  -2.5906  -2.5845  -2.5688  -2.5493
    -2.4553  -2.4436  -2.1223  -2.1006  -2.0233  -2.0185  -2.0160  -2.0049
    -1.9880  -1.9769  -1.9557  -1.9282  -1.7850  -1.7850  -1.7629  -1.7500
    -1.7379  -1.7350  -1.7283  -1.7164  -1.6659  -1.6398  -1.6110  -1.5950
    -1.5599  -1.5467  -1.5421  -1.5122  -1.4776  -1.4242  -1.3924  -1.3794
    -1.3647  -1.3318  -1.2243  -1.1714  -0.6811  -0.6510  -0.6444  -0.6229
    -0.5700  -0.5258  -0.5243  -0.4839  -0.4678  -0.4485  -0.4444  -0.4380
    -0.2694  -0.2690  -0.2451  -0.2195  -0.0621  -0.0419  -0.0022  -0.0001
     0.2934   0.3005   0.3428   0.3959   0.3962   0.4264   0.4837   0.4838
     0.5698   0.5719   0.5727   0.5797   1.2170   1.2333   1.2345   1.2417
     1.4672   1.4900   1.5086   1.5282   1.8987   1.9117   1.9736   1.9794
     4.2083   4.2309   4.3112   4.3161   4.8412   4.8452   4.8786   4.8968
     5.2316   5.2427   5.2731   5.2750   5.5890   5.6516   5.6573   5.7068
     6.0536   6.0596   6.3584   6.4069   6.4226   6.4508   6.5456   6.6234
     6.7081   6.7270   6.7480   6.9116   6.9713   7.0358   7.1551   7.1805
     7.2049   7.2645   7.3755   7.3811   7.5942   7.6874   7.7527   7.8195
     7.8378   7.9579   8.1573   8.1868   8.2276   8.2614   8.3172   8.4784
     8.5002   8.5614   8.6149   8.6252

          k = 0.0000 0.8764 0.0000 (191866 PWs)   bands (ev):

   -19.8511 -19.8509 -19.8359 -19.8357 -19.2333 -19.2331 -19.2307 -19.2305
   -15.6123 -15.6105 -15.6088 -15.6086 -14.6561 -14.6533 -14.6520 -14.6483
   -14.5121 -14.5104 -14.5043 -14.5033 -13.4383 -13.4332 -13.4287 -13.4274
   -13.3389 -13.3351 -13.3347 -13.3281 -13.0223 -13.0124 -13.0113 -13.0103
   -12.1456 -12.1417 -12.1316 -12.1245 -11.9407 -11.9291 -11.9276 -11.9263
   -11.4866 -11.4761 -11.4644 -11.4518 -11.3208 -11.3112 -11.3079 -11.3008
   -10.8630 -10.8577 -10.8166 -10.8091 -10.6785 -10.6740 -10.6418 -10.6317
   -10.2224 -10.2058 -10.1506 -10.1411  -9.8616  -9.8520  -9.7311  -9.7257
    -8.7295  -8.7246  -8.7224  -8.7209  -8.6326  -8.6258  -8.6251  -8.6190
    -8.5723  -8.5646  -8.5554  -8.5548  -8.3886  -8.3881  -8.3738  -8.3696
    -8.1607  -8.1582  -8.1366  -8.1354  -6.8864  -6.8605  -6.8571  -6.8437
    -6.5885  -6.5716  -6.5658  -6.5411  -6.4099  -6.3979  -6.3958  -6.3827
    -6.2617  -6.2604  -6.2350  -6.2208  -6.1793  -6.1757  -6.1544  -6.1398
    -6.0120  -5.9976  -5.9973  -5.9916  -5.2094  -5.2019  -5.1952  -5.1894
    -5.0921  -5.0853  -5.0816  -5.0584  -4.9574  -4.9401  -4.9258  -4.9147
    -4.8098  -4.8046  -4.7800  -4.7780  -4.5973  -4.5765  -4.5652  -4.5376
    -4.3840  -4.3481  -4.1730  -4.1555  -4.1535  -4.1301  -4.1160  -4.1127
    -4.0963  -4.0959  -4.0579  -4.0439  -4.0424  -3.9987  -3.8964  -3.8757
    -3.7401  -3.7358  -3.7180  -3.7131  -3.6917  -3.6911  -3.6541  -3.6388
    -3.6003  -3.5603  -3.5369  -3.5180  -3.4000  -3.3810  -3.3717  -3.3457
    -3.2092  -3.1720  -3.1528  -3.1502  -3.1006  -3.0988  -3.0861  -3.0788
    -2.9459  -2.9249  -2.8992  -2.8945  -2.8314  -2.8167  -2.7805  -2.7775
    -2.7104  -2.7047  -2.6917  -2.6833  -2.5159  -2.5044  -2.5029  -2.4963
    -2.1587  -2.1364  -2.0087  -1.9853  -1.9410  -1.9372  -1.9097  -1.8915
    -1.8840  -1.8746  -1.8599  -1.8404  -1.7636  -1.7306  -1.7009  -1.6711
    -1.6708  -1.6405  -1.6336  -1.6155  -1.6129  -1.5874  -1.5868  -1.5723
    -1.4162  -1.3871  -1.3589  -1.3169  -1.1646  -1.1455  -1.0943  -1.0767
    -0.9521  -0.9420  -0.8720  -0.8664  -0.7109  -0.7031  -0.6966  -0.6898
    -0.5529  -0.5374  -0.4894  -0.4844  -0.4458  -0.4171  -0.4170  -0.3900
    -0.1109  -0.1071  -0.1008  -0.0957   0.2696   0.2793   0.2806   0.2942
     0.4369   0.4493   0.4747   0.4959   0.6443   0.6501   0.6525   0.6758
     0.7510   0.7518   0.8584   0.8588   1.1933   1.2037   1.2051   1.2200
     1.9215   1.9249   1.9731   1.9811   2.4224   2.4345   2.4373   2.4472
     4.4716   4.4867   4.5406   4.5490   4.6471   4.6586   4.6614   4.6861
     5.5193   5.5237   5.5407   5.5582   5.5625   5.5638   5.6239   5.6335
     6.0672   6.1464   6.1904   6.2083   6.2568   6.3210   6.4344   6.4465
     6.4648   6.5327   6.8393   6.9326   6.9814   7.0599   7.2137   7.2297
     7.2560   7.3755   7.3950   7.4333   7.4910   7.5631   7.5897   7.6761
     7.7717   7.8529   7.9504   7.9967   8.0766   8.1425   8.1982   8.2125
     8.2294   8.2802   8.2837   8.3076

          k = 0.0000-1.7528 0.0000 (192060 PWs)   bands (ev):

   -19.8264 -19.8264 -19.8261 -19.8260 -19.2359 -19.2359 -19.2348 -19.2348
   -15.3058 -15.3055 -15.3052 -15.3049 -14.7102 -14.7101 -14.7090 -14.7090
   -14.4117 -14.4111 -14.4087 -14.4081 -13.5699 -13.5699 -13.5660 -13.5660
   -13.4690 -13.4690 -13.4660 -13.4659 -12.9928 -12.9927 -12.9865 -12.9865
   -12.3112 -12.3109 -12.3021 -12.3018 -11.9735 -11.9734 -11.9695 -11.9694
   -11.4424 -11.4424 -11.4408 -11.4408 -11.4347 -11.4347 -11.4317 -11.4316
   -10.8293 -10.8292 -10.8279 -10.8279 -10.7790 -10.7790 -10.7701 -10.7700
   -10.2500 -10.2499 -10.2306 -10.2304  -9.8692  -9.8691  -9.8592  -9.8591
    -8.7782  -8.7782  -8.7760  -8.7760  -8.6197  -8.6195  -8.6172  -8.6169
    -8.5623  -8.5615  -8.5534  -8.5526  -8.3758  -8.3757  -8.3574  -8.3574
    -8.0839  -8.0834  -8.0618  -8.0613  -6.8811  -6.8808  -6.8611  -6.8611
    -6.4790  -6.4785  -6.4651  -6.4647  -6.4338  -6.4335  -6.4139  -6.4133
    -6.1430  -6.1429  -6.1284  -6.1283  -6.0997  -6.0996  -6.0935  -6.0934
    -5.9938  -5.9937  -5.9743  -5.9742  -5.3133  -5.3130  -5.2918  -5.2915
    -5.2446  -5.2441  -5.2245  -5.2240  -4.9401  -4.9400  -4.8994  -4.8992
    -4.8368  -4.8367  -4.8026  -4.8025  -4.5642  -4.5639  -4.5224  -4.5222
    -4.4597  -4.4596  -4.4140  -4.4139  -4.1377  -4.1375  -4.1228  -4.1226
    -4.0870  -4.0870  -4.0708  -4.0706  -4.0206  -4.0202  -3.9736  -3.9734
    -3.7670  -3.7668  -3.7525  -3.7520  -3.6901  -3.6899  -3.6542  -3.6541
    -3.6260  -3.6257  -3.5744  -3.5742  -3.4132  -3.4130  -3.4005  -3.4003
    -3.2128  -3.2125  -3.1788  -3.1787  -3.1179  -3.1173  -3.1116  -3.1114
    -3.0991  -3.0990  -3.0665  -3.0665  -2.8997  -2.8992  -2.8111  -2.8109
    -2.7284  -2.7283  -2.7135  -2.7135  -2.5024  -2.5023  -2.4906  -2.4905
    -2.0591  -2.0589  -2.0247  -2.0243  -2.0119  -2.0113  -1.9801  -1.9799
    -1.9450  -1.9449  -1.8952  -1.8951  -1.7440  -1.7440  -1.7047  -1.7047
    -1.6503  -1.6500  -1.6114  -1.6113  -1.5260  -1.5256  -1.4993  -1.4993
    -1.3715  -1.3713  -1.3670  -1.3669  -1.1218  -1.1207  -1.1164  -1.1152
    -0.6387  -0.6386  -0.6320  -0.6317  -0.5378  -0.5373  -0.4507  -0.4504
    -0.3879  -0.3879  -0.3726  -0.3725  -0.2756  -0.2755  -0.2676  -0.2675
     0.2360   0.2366   0.2492   0.2498   0.3790   0.3791   0.3932   0.3933
     0.6706   0.6708   0.7190   0.7192   1.1146   1.1149   1.1179   1.1183
     1.2988   1.2991   1.3078   1.3082   1.5818   1.5829   1.5864   1.5875
     2.0350   2.0350   2.0425   2.0425   2.5564   2.5572   2.5715   2.5724
     4.4908   4.4911   4.5123   4.5125   5.1428   5.1429   5.1702   5.1704
     5.3415   5.3416   5.3503   5.3503   5.6265   5.6267   5.6355   5.6357
     5.8921   5.8923   5.9046   5.9047   6.3432   6.3433   6.3799   6.3799
     6.7479   6.7479   6.8924   6.8924   6.9317   6.9323   7.2561   7.2563
     7.3358   7.3359   7.3865   7.3866   7.4682   7.4683   7.5751   7.5752
     7.6660   7.6668   7.6873   7.6873   7.8319   7.8321   7.8597   7.8602
     8.0286   8.0292   8.1093   8.1098

          k =-0.5000 0.0000-0.0867 (191860 PWs)   bands (ev):

   -19.8706 -19.8706 -19.8495 -19.8495 -19.2305 -19.2305 -19.2272 -19.2272
   -15.8002 -15.8001 -15.7986 -15.7986 -14.8145 -14.8144 -14.8077 -14.8075
   -14.4636 -14.4635 -14.4621 -14.4620 -13.5038 -13.5036 -13.4909 -13.4907
   -13.2217 -13.2217 -13.2117 -13.2116 -12.7824 -12.7824 -12.7780 -12.7779
   -12.0808 -12.0808 -12.0516 -12.0516 -11.9493 -11.9490 -11.9337 -11.9333
   -11.3648 -11.3648 -11.3465 -11.3464 -11.1890 -11.1890 -11.1679 -11.1679
   -10.8539 -10.8539 -10.7917 -10.7917 -10.6147 -10.6147 -10.5729 -10.5729
   -10.1806 -10.1806 -10.0977 -10.0977  -9.8310  -9.8310  -9.6588  -9.6588
    -8.6968  -8.6968  -8.6919  -8.6919  -8.6261  -8.6258  -8.6086  -8.6082
    -8.5607  -8.5605  -8.5501  -8.5500  -8.3499  -8.3498  -8.3316  -8.3316
    -8.2969  -8.2969  -8.2750  -8.2749  -6.8196  -6.8195  -6.7890  -6.7890
    -6.6883  -6.6880  -6.6375  -6.6370  -6.4557  -6.4556  -6.4181  -6.4181
    -6.3504  -6.3503  -6.3396  -6.3395  -6.2645  -6.2643  -6.2564  -6.2562
    -5.9778  -5.9777  -5.9569  -5.9568  -5.1406  -5.1403  -5.0934  -5.0934
    -4.9943  -4.9941  -4.9654  -4.9654  -4.9462  -4.9462  -4.9366  -4.9363
    -4.7590  -4.7590  -4.6780  -4.6780  -4.5634  -4.5631  -4.5240  -4.5237
    -4.4178  -4.4178  -4.2138  -4.2136  -4.1952  -4.1949  -4.1774  -4.1773
    -4.1561  -4.1558  -3.8659  -3.8658  -3.8038  -3.8037  -3.7474  -3.7474
    -3.7017  -3.7016  -3.6571  -3.6569  -3.5153  -3.5149  -3.4896  -3.4894
    -3.3820  -3.3819  -3.3145  -3.3144  -3.2270  -3.2265  -3.1793  -3.1789
    -3.0902  -3.0902  -3.0814  -3.0814  -2.9462  -2.9461  -2.9296  -2.9295
    -2.8469  -2.8465  -2.8173  -2.8172  -2.7782  -2.7780  -2.6991  -2.6990
    -2.6866  -2.6864  -2.6782  -2.6781  -2.5827  -2.5826  -2.5666  -2.5664
    -2.4493  -2.4493  -2.1087  -2.1087  -2.0238  -2.0236  -2.0159  -2.0157
    -1.9598  -1.9597  -1.9364  -1.9362  -1.7801  -1.7800  -1.7540  -1.7539
    -1.7314  -1.7314  -1.7079  -1.7078  -1.6338  -1.6338  -1.6064  -1.6064
    -1.5695  -1.5692  -1.5601  -1.5598  -1.4436  -1.4436  -1.4180  -1.4178
    -1.3590  -1.3589  -1.1937  -1.1934  -0.6629  -0.6626  -0.6336  -0.6334
    -0.5347  -0.5342  -0.5021  -0.5013  -0.4591  -0.4591  -0.4397  -0.4395
    -0.2591  -0.2589  -0.2412  -0.2409  -0.0328  -0.0327  -0.0211  -0.0210
     0.3315   0.3316   0.3579   0.3581   0.4263   0.4265   0.4464   0.4465
     0.5675   0.5675   0.5741   0.5742   1.2246   1.2248   1.2392   1.2394
     1.4788   1.4788   1.5184   1.5185   1.9374   1.9375   1.9475   1.9476
     4.2557   4.2559   4.2712   4.2714   4.8589   4.8590   4.8711   4.8713
     5.2545   5.2550   5.2644   5.2649   5.6272   5.6281   5.6670   5.6679
     6.0455   6.0461   6.4007   6.4010   6.4229   6.4234   6.5903   6.5918
     6.6677   6.6678   6.8698   6.8702   7.0995   7.0998   7.1250   7.1251
     7.1926   7.1926   7.3848   7.3849   7.6679   7.6685   7.7529   7.7535
     7.9858   7.9864   8.0391   8.0393   8.3150   8.3151   8.4024   8.4029
     8.4781   8.4783   8.5855   8.5866

          k =-0.5000 0.8764-0.0867 (191930 PWs)   bands (ev):

   -19.8510 -19.8510 -19.8358 -19.8358 -19.2332 -19.2332 -19.2306 -19.2306
   -15.6107 -15.6107 -15.6094 -15.6094 -14.6553 -14.6550 -14.6498 -14.6495
   -14.5084 -14.5082 -14.5069 -14.5068 -13.4356 -13.4354 -13.4282 -13.4280
   -13.3372 -13.3370 -13.3315 -13.3313 -13.0182 -13.0180 -13.0102 -13.0101
   -12.1442 -12.1441 -12.1275 -12.1274 -11.9361 -11.9360 -11.9258 -11.9257
   -11.4826 -11.4826 -11.4570 -11.4569 -11.3143 -11.3143 -11.3062 -11.3061
   -10.8605 -10.8605 -10.8127 -10.8126 -10.6764 -10.6764 -10.6366 -10.6365
   -10.2143 -10.2143 -10.1457 -10.1457  -9.8569  -9.8569  -9.7283  -9.7283
    -8.7269  -8.7268  -8.7217  -8.7217  -8.6306  -8.6304  -8.6205  -8.6203
    -8.5648  -8.5642  -8.5593  -8.5586  -8.3863  -8.3860  -8.3745  -8.3743
    -8.1607  -8.1605  -8.1351  -8.1348  -6.8767  -6.8765  -6.8474  -6.8474
    -6.5818  -6.5813  -6.5514  -6.5508  -6.4051  -6.4051  -6.3888  -6.3888
    -6.2551  -6.2550  -6.2320  -6.2319  -6.1776  -6.1774  -6.1493  -6.1489
    -6.0054  -6.0053  -5.9939  -5.9938  -5.2066  -5.2062  -5.1915  -5.1912
    -5.0911  -5.0909  -5.0685  -5.0682  -4.9526  -4.9525  -4.9136  -4.9134
    -4.8039  -4.8035  -4.7868  -4.7864  -4.5915  -4.5912  -4.5470  -4.5468
    -4.3664  -4.3663  -4.1659  -4.1658  -4.1402  -4.1401  -4.1168  -4.1167
    -4.1045  -4.1043  -4.0488  -4.0486  -4.0111  -4.0109  -3.8846  -3.8845
    -3.7336  -3.7334  -3.7171  -3.7169  -3.6800  -3.6798  -3.6592  -3.6591
    -3.5698  -3.5696  -3.5380  -3.5379  -3.3935  -3.3934  -3.3567  -3.3567
    -3.1896  -3.1890  -3.1581  -3.1576  -3.1006  -3.1005  -3.0782  -3.0781
    -2.9374  -2.9370  -2.8978  -2.8977  -2.8234  -2.8232  -2.7769  -2.7766
    -2.7025  -2.7025  -2.6919  -2.6917  -2.5106  -2.5104  -2.4990  -2.4990
    -2.1483  -2.1483  -2.0026  -2.0023  -1.9365  -1.9360  -1.9102  -1.9098
    -1.8943  -1.8942  -1.8504  -1.8504  -1.7529  -1.7528  -1.6614  -1.6612
    -1.6515  -1.6513  -1.6149  -1.6144  -1.6068  -1.6067  -1.5679  -1.5678
    -1.4070  -1.4069  -1.3335  -1.3334  -1.1581  -1.1581  -1.0880  -1.0880
    -0.9163  -0.9161  -0.9090  -0.9088  -0.7059  -0.7056  -0.6972  -0.6969
    -0.5424  -0.5419  -0.4893  -0.4888  -0.4385  -0.4383  -0.3965  -0.3962
    -0.1095  -0.1094  -0.0981  -0.0979   0.2754   0.2754   0.2883   0.2883
     0.4577   0.4578   0.4768   0.4770   0.6461   0.6463   0.6656   0.6656
     0.8026   0.8030   0.8034   0.8038   1.1981   1.1982   1.2117   1.2118
     1.9481   1.9483   1.9538   1.9540   2.4273   2.4276   2.4425   2.4428
     4.5056   4.5057   4.5174   4.5175   4.6535   4.6536   4.6728   4.6730
     5.5223   5.5224   5.5569   5.5571   5.5872   5.5882   5.5971   5.5982
     6.0903   6.0907   6.1765   6.1767   6.3488   6.3492   6.4396   6.4396
     6.4751   6.4753   6.8898   6.8910   7.0896   7.0900   7.1432   7.1435
     7.2958   7.2961   7.4082   7.4087   7.5238   7.5243   7.6165   7.6169
     7.8427   7.8434   8.0223   8.0225   8.1014   8.1014   8.1620   8.1623
     8.2565   8.2570   8.3352   8.3355

          k =-0.5000-1.7528-0.0867 (191984 PWs)   bands (ev):

   -19.8264 -19.8264 -19.8261 -19.8261 -19.2359 -19.2359 -19.2348 -19.2348
   -15.3058 -15.3054 -15.3052 -15.3049 -14.7099 -14.7098 -14.7094 -14.7092
   -14.4117 -14.4111 -14.4087 -14.4081 -13.5699 -13.5699 -13.5661 -13.5661
   -13.4682 -13.4680 -13.4669 -13.4667 -12.9928 -12.9928 -12.9865 -12.9864
   -12.3112 -12.3109 -12.3021 -12.3017 -11.9733 -11.9732 -11.9697 -11.9696
   -11.4442 -11.4441 -11.4400 -11.4399 -11.4333 -11.4332 -11.4321 -11.4321
   -10.8301 -10.8298 -10.8271 -10.8270 -10.7797 -10.7796 -10.7698 -10.7696
   -10.2407 -10.2405 -10.2401 -10.2400  -9.8647  -9.8642  -9.8639  -9.8635
    -8.7783  -8.7782  -8.7760  -8.7759  -8.6196  -8.6194  -8.6172  -8.6169
    -8.5608  -8.5596  -8.5549  -8.5538  -8.3698  -8.3695  -8.3639  -8.3637
    -8.0841  -8.0836  -8.0617  -8.0612  -6.8792  -6.8789  -6.8630  -6.8629
    -6.4774  -6.4767  -6.4675  -6.4672  -6.4241  -6.4234  -6.4231  -6.4228
    -6.1444  -6.1443  -6.1298  -6.1296  -6.0981  -6.0980  -6.0917  -6.0914
    -5.9871  -5.9869  -5.9824  -5.9822  -5.3133  -5.3129  -5.2929  -5.2925
    -5.2413  -5.2407  -5.2279  -5.2273  -4.9366  -4.9365  -4.9010  -4.9007
    -4.8211  -4.8207  -4.8180  -4.8176  -4.5554  -4.5551  -4.5322  -4.5319
    -4.4368  -4.4364  -4.4338  -4.4336  -4.1325  -4.1319  -4.1304  -4.1298
    -4.0805  -4.0800  -4.0791  -4.0789  -4.0061  -4.0057  -3.9902  -3.9898
    -3.7803  -3.7801  -3.7427  -3.7422  -3.6841  -3.6835  -3.6716  -3.6710
    -3.5986  -3.5983  -3.5884  -3.5880  -3.4085  -3.4083  -3.4047  -3.4045
    -3.2040  -3.2035  -3.1955  -3.1952  -3.1127  -3.1125  -3.1104  -3.1098
    -3.0818  -3.0816  -3.0797  -3.0796  -2.8989  -2.8985  -2.8130  -2.8128
    -2.7219  -2.7215  -2.7200  -2.7198  -2.5026  -2.5025  -2.4961  -2.4960
    -2.0505  -2.0501  -2.0167  -2.0161  -1.9957  -1.9953  -1.9751  -1.9747
    -1.9251  -1.9250  -1.9200  -1.9195  -1.7424  -1.7422  -1.7353  -1.7349
    -1.6335  -1.6334  -1.6314  -1.6312  -1.5161  -1.5158  -1.5121  -1.5119
    -1.3713  -1.3709  -1.3658  -1.3655  -1.1229  -1.1218  -1.1147  -1.1136
    -0.6339  -0.6336  -0.6332  -0.6328  -0.5364  -0.5359  -0.4485  -0.4481
    -0.3847  -0.3843  -0.3785  -0.3782  -0.2763  -0.2762  -0.2662  -0.2661
     0.2418   0.2424   0.2454   0.2459   0.3853   0.3854   0.3860   0.3861
     0.6912   0.6915   0.6983   0.6986   1.1097   1.1101   1.1106   1.1111
     1.3084   1.3090   1.3110   1.3117   1.5827   1.5838   1.5860   1.5871
     2.0373   2.0373   2.0374   2.0375   2.5592   2.5601   2.5685   2.5695
     4.4964   4.4969   4.5065   4.5068   5.1465   5.1466   5.1664   5.1666
     5.3471   5.3472   5.3488   5.3489   5.6294   5.6297   5.6325   5.6328
     5.8875   5.8877   5.8961   5.8963   6.3641   6.3645   6.3691   6.3694
     6.7744   6.7748   6.8206   6.8216   7.0626   7.0633   7.1238   7.1239
     7.3534   7.3539   7.3958   7.3965   7.4832   7.4837   7.5395   7.5405
     7.6717   7.6724   7.7556   7.7559   7.8092   7.8095   7.8563   7.8568
     8.0625   8.0630   8.0836   8.0838

     highest occupied, lowest unoccupied level (ev):     2.5724    4.2083

!    total energy              =   -2326.58999805 Ry
     Harris-Foulkes estimate   =   -2326.58999806 Ry
     estimated scf accuracy    <          5.2E-09 Ry

     total all-electron energy =     -9204.831407 Ry

     The total energy is the sum of the following terms:

     one-electron contribution =   -1964.25718411 Ry
     hartree contribution      =    1189.04790194 Ry
     xc contribution           =    -536.02996007 Ry
     ewald contribution        =    -246.21156735 Ry
     Dispersion Correction     =      -1.05569800 Ry
     one-center paw contrib.   =    -768.08349047 Ry

     convergence has been achieved in  23 iterations

     Forces acting on atoms (cartesian axes, Ry/au):

     atom    1 type  4   force =    -0.00103570    0.00034254    0.01617722
     atom    2 type  4   force =     0.00107414    0.00031051   -0.01621105
     atom    3 type  4   force =     0.00103570   -0.00034254   -0.01617722
     atom    4 type  4   force =    -0.00107414   -0.00031051    0.01621105
     atom    5 type  4   force =    -0.01111108    0.00167100    0.00677323
     atom    6 type  4   force =     0.01112004    0.00168013   -0.00685046
     atom    7 type  4   force =     0.01111108   -0.00167100   -0.00677323
     atom    8 type  4   force =    -0.01112004   -0.00168013    0.00685046
     atom    9 type  1   force =     0.00783274   -0.00785978    0.02417240
     atom   10 type  1   force =    -0.00769351   -0.00776301   -0.02449619
     atom   11 type  1   force =    -0.00783274    0.00785978   -0.02417240
     atom   12 type  1   force =     0.00769351    0.00776301    0.02449619
     atom   13 type  1   force =    -0.00577108   -0.00267701   -0.03208521
     atom   14 type  1   force =     0.00618195   -0.00238268    0.03196762
     atom   15 type  1   force =     0.00577108    0.00267701    0.03208521
     atom   16 type  1   force =    -0.00618195    0.00238268   -0.03196762
     atom   17 type  1   force =     0.00289643   -0.00210325    0.03592666
     atom   18 type  1   force =    -0.00298667   -0.00234930   -0.03562006
     atom   19 type  1   force =    -0.00289643    0.00210325   -0.03592666
     atom   20 type  1   force =     0.00298667    0.00234930    0.03562006
     atom   21 type  1   force =    -0.00715135    0.00854790   -0.02435679
     atom   22 type  1   force =     0.00729428    0.00869854    0.02412984
     atom   23 type  1   force =     0.00715135   -0.00854790    0.02435679
     atom   24 type  1   force =    -0.00729428   -0.00869854   -0.02412984
     atom   25 type  1   force =     0.00539190    0.00183548    0.03285527
     atom   26 type  1   force =    -0.00558058    0.00165559   -0.03284614
     atom   27 type  1   force =    -0.00539190   -0.00183548   -0.03285527
     atom   28 type  1   force =     0.00558058   -0.00165559    0.03284614
     atom   29 type  1   force =    -0.00387461    0.00368144   -0.03316368
     atom   30 type  1   force =     0.00392499    0.00356718    0.03301122
     atom   31 type  1   force =     0.00387461   -0.00368144    0.03316368
     atom   32 type  1   force =    -0.00392499   -0.00356718   -0.03301122
     atom   33 type  1   force =     0.00634673    0.00587005   -0.00900650
     atom   34 type  1   force =    -0.00646439    0.00578382    0.00924575
     atom   35 type  1   force =    -0.00634673   -0.00587005    0.00900650
     atom   36 type  1   force =     0.00646439   -0.00578382   -0.00924575
     atom   37 type  1   force =     0.00813289    0.00225046   -0.00137661
     atom   38 type  1   force =    -0.00807292    0.00230528    0.00147330
     atom   39 type  1   force =    -0.00813289   -0.00225046    0.00137661
     atom   40 type  1   force =     0.00807292   -0.00230528   -0.00147330
     atom   41 type  1   force =     0.00853245    0.00826447   -0.00074396
     atom   42 type  1   force =    -0.00854887    0.00829492    0.00075895
     atom   43 type  1   force =    -0.00853245   -0.00826447    0.00074396
     atom   44 type  1   force =     0.00854887   -0.00829492   -0.00075895
     atom   45 type  1   force =     0.01029982    0.00182161   -0.00108376
     atom   46 type  1   force =    -0.01054839    0.00157404    0.00075162
     atom   47 type  1   force =    -0.01029982   -0.00182161    0.00108376
     atom   48 type  1   force =     0.01054839   -0.00157404   -0.00075162
     atom   49 type  1   force =     0.00652790    0.02047645    0.00159926
     atom   50 type  1   force =    -0.00655155    0.02051918   -0.00119528
     atom   51 type  1   force =    -0.00652790   -0.02047645   -0.00159926
     atom   52 type  1   force =     0.00655155   -0.02051918    0.00119528
     atom   53 type  1   force =     0.03291532    0.00027469   -0.01131558
     atom   54 type  1   force =    -0.03284471    0.00038423    0.01103242
     atom   55 type  1   force =    -0.03291532   -0.00027469    0.01131558
     atom   56 type  1   force =     0.03284471   -0.00038423   -0.01103242
     atom   57 type  1   force =    -0.00805183    0.00692300   -0.04174801
     atom   58 type  1   force =     0.00796434    0.00669848    0.04173101
     atom   59 type  1   force =     0.00805183   -0.00692300    0.04174801
     atom   60 type  1   force =    -0.00796434   -0.00669848   -0.04173101
     atom   61 type  1   force =    -0.02796291    0.00107741    0.01431961
     atom   62 type  1   force =     0.02801105    0.00120496   -0.01438521
     atom   63 type  1   force =     0.02796291   -0.00107741   -0.01431961
     atom   64 type  1   force =    -0.02801105   -0.00120496    0.01438521
     atom   65 type  1   force =    -0.01421372   -0.02007287    0.00260269
     atom   66 type  1   force =     0.01397544   -0.01992595   -0.00297227
     atom   67 type  1   force =     0.01421372    0.02007287   -0.00260269
     atom   68 type  1   force =    -0.01397544    0.01992595    0.00297227
     atom   69 type  1   force =    -0.00090259   -0.00529601    0.01067787
     atom   70 type  1   force =     0.00093735   -0.00532844   -0.01005397
     atom   71 type  1   force =     0.00090259    0.00529601   -0.01067787
     atom   72 type  1   force =    -0.00093735    0.00532844    0.01005397
     atom   73 type  1   force =    -0.01024807   -0.00215081    0.00034246
     atom   74 type  1   force =     0.01023400   -0.00201516   -0.00045244
     atom   75 type  1   force =     0.01024807    0.00215081   -0.00034246
     atom   76 type  1   force =    -0.01023400    0.00201516    0.00045244
     atom   77 type  1   force =    -0.00879870   -0.00827439    0.00462619
     atom   78 type  1   force =     0.00875527   -0.00807440   -0.00473007
     atom   79 type  1   force =     0.00879870    0.00827439   -0.00462619
     atom   80 type  1   force =    -0.00875527    0.00807440    0.00473007
     atom   81 type  1   force =    -0.01137559   -0.00186905   -0.00273654
     atom   82 type  1   force =     0.01142092   -0.00183747    0.00326390
     atom   83 type  1   force =     0.01137559    0.00186905    0.00273654
     atom   84 type  1   force =    -0.01142092    0.00183747   -0.00326390
     atom   85 type  1   force =    -0.01070347   -0.01642470    0.00521165
     atom   86 type  1   force =     0.01066643   -0.01627648   -0.00550414
     atom   87 type  1   force =     0.01070347    0.01642470   -0.00521165
     atom   88 type  1   force =    -0.01066643    0.01627648    0.00550414
     atom   89 type  1   force =    -0.02264326    0.00022337    0.00959449
     atom   90 type  1   force =     0.02227076   -0.00017637   -0.00985052
     atom   91 type  1   force =     0.02264326   -0.00022337   -0.00959449
     atom   92 type  1   force =    -0.02227076    0.00017637    0.00985052
     atom   93 type  1   force =     0.00781979   -0.00236818    0.03574214
     atom   94 type  1   force =    -0.00760649   -0.00214017   -0.03538955
     atom   95 type  1   force =    -0.00781979    0.00236818   -0.03574214
     atom   96 type  1   force =     0.00760649    0.00214017    0.03538955
     atom   97 type  1   force =     0.02947621   -0.00899815   -0.01679466
     atom   98 type  1   force =    -0.02936043   -0.00882583    0.01666290
     atom   99 type  1   force =    -0.02947621    0.00899815    0.01679466
     atom  100 type  1   force =     0.02936043    0.00882583   -0.01666290
     atom  101 type  1   force =     0.00376692    0.01888275   -0.00164075
     atom  102 type  1   force =    -0.00396653    0.01872022    0.00160032
     atom  103 type  1   force =    -0.00376692   -0.01888275    0.00164075
     atom  104 type  1   force =     0.00396653   -0.01872022   -0.00160032
     atom  105 type  1   force =     0.00301039   -0.01509965   -0.00048895
     atom  106 type  1   force =    -0.00298883   -0.01507001    0.00052368
     atom  107 type  1   force =    -0.00301039    0.01509965    0.00048895
     atom  108 type  1   force =     0.00298883    0.01507001   -0.00052368
     atom  109 type  1   force =     0.00429571    0.00804016   -0.00300472
     atom  110 type  1   force =    -0.00432967    0.00802480    0.00300228
     atom  111 type  1   force =    -0.00429571   -0.00804016    0.00300472
     atom  112 type  1   force =     0.00432967   -0.00802480   -0.00300228
     atom  113 type  3   force =     0.00390520    0.00325779   -0.00074363
     atom  114 type  3   force =    -0.00390507    0.00325677    0.00072384
     atom  115 type  3   force =    -0.00390520   -0.00325779    0.00074363
     atom  116 type  3   force =     0.00390507   -0.00325677   -0.00072384
     atom  117 type  3   force =     0.00292832    0.00289132    0.00024390
     atom  118 type  3   force =    -0.00285867    0.00293179   -0.00024158
     atom  119 type  3   force =    -0.00292832   -0.00289132   -0.00024390
     atom  120 type  3   force =     0.00285867   -0.00293179    0.00024158
     atom  121 type  3   force =     0.00304838    0.00217176   -0.00076176
     atom  122 type  3   force =    -0.00309974    0.00206770    0.00074850
     atom  123 type  3   force =    -0.00304838   -0.00217176    0.00076176
     atom  124 type  3   force =     0.00309974   -0.00206770   -0.00074850
     atom  125 type  3   force =    -0.00188522   -0.00171794    0.00239622
     atom  126 type  3   force =     0.00186536   -0.00176669   -0.00232036
     atom  127 type  3   force =     0.00188522    0.00171794   -0.00239622
     atom  128 type  3   force =    -0.00186536    0.00176669    0.00232036
     atom  129 type  3   force =     0.00227881    0.00014095    0.00080533
     atom  130 type  3   force =    -0.00221577    0.00013973   -0.00071473
     atom  131 type  3   force =    -0.00227881   -0.00014095   -0.00080533
     atom  132 type  3   force =     0.00221577   -0.00013973    0.00071473
     atom  133 type  3   force =    -0.00341431   -0.00262844    0.00283284
     atom  134 type  3   force =     0.00347405   -0.00277727   -0.00271872
     atom  135 type  3   force =     0.00341431    0.00262844   -0.00283284
     atom  136 type  3   force =    -0.00347405    0.00277727    0.00271872
     atom  137 type  3   force =    -0.00272649   -0.00349982    0.00102608
     atom  138 type  3   force =     0.00271523   -0.00357506   -0.00101263
     atom  139 type  3   force =     0.00272649    0.00349982   -0.00102608
     atom  140 type  3   force =    -0.00271523    0.00357506    0.00101263
     atom  141 type  3   force =    -0.00292442   -0.00292522    0.00084216
     atom  142 type  3   force =     0.00299360   -0.00292399   -0.00089447
     atom  143 type  3   force =     0.00292442    0.00292522   -0.00084216
     atom  144 type  3   force =    -0.00299360    0.00292399    0.00089447
     atom  145 type  3   force =    -0.00295377   -0.00373208    0.00081598
     atom  146 type  3   force =     0.00304319   -0.00374556   -0.00080389
     atom  147 type  3   force =     0.00295377    0.00373208   -0.00081598
     atom  148 type  3   force =    -0.00304319    0.00374556    0.00080389
     atom  149 type  3   force =     0.00135041    0.00138902   -0.00205119
     atom  150 type  3   force =    -0.00129937    0.00145107    0.00230770
     atom  151 type  3   force =    -0.00135041   -0.00138902    0.00205119
     atom  152 type  3   force =     0.00129937   -0.00145107   -0.00230770
     atom  153 type  3   force =    -0.00036580    0.00067931   -0.00051204
     atom  154 type  3   force =     0.00038842    0.00075045    0.00043250
     atom  155 type  3   force =     0.00036580   -0.00067931    0.00051204
     atom  156 type  3   force =    -0.00038842   -0.00075045   -0.00043250
     atom  157 type  3   force =    -0.00384777    0.01884630   -0.01016828
     atom  158 type  3   force =     0.00387206    0.01889634    0.01012406
     atom  159 type  3   force =     0.00384777   -0.01884630    0.01016828
     atom  160 type  3   force =    -0.00387206   -0.01889634   -0.01012406
     atom  161 type  3   force =     0.00040532    0.00040549   -0.00114141
     atom  162 type  3   force =    -0.00039968    0.00033697    0.00115507
     atom  163 type  3   force =    -0.00040532   -0.00040549    0.00114141
     atom  164 type  3   force =     0.00039968   -0.00033697   -0.00115507
     atom  165 type  3   force =     0.00002482   -0.00126090   -0.00105124
     atom  166 type  3   force =    -0.00000176   -0.00129195    0.00100092
     atom  167 type  3   force =    -0.00002482    0.00126090    0.00105124
     atom  168 type  3   force =     0.00000176    0.00129195   -0.00100092
     atom  169 type  3   force =    -0.00092328   -0.00031098   -0.00006049
     atom  170 type  3   force =     0.00087615   -0.00026731    0.00008604
     atom  171 type  3   force =     0.00092328    0.00031098    0.00006049
     atom  172 type  3   force =    -0.00087615    0.00026731   -0.00008604
     atom  173 type  3   force =     0.01027371   -0.01127628   -0.00650931
     atom  174 type  3   force =    -0.01030858   -0.01128268    0.00650632
     atom  175 type  3   force =    -0.01027371    0.01127628    0.00650931
     atom  176 type  3   force =     0.01030858    0.01128268   -0.00650632

     Total force =     0.266939     Total SCF correction =     0.000173


     Computing stress (Cartesian axis) and pressure

          total   stress  (Ry/bohr**3)                   (kbar)     P=   11.44
   0.00014306   0.00000021  -0.00010584         21.05      0.03    -15.57
   0.00000021   0.00015463   0.00000010          0.03     22.75      0.01
  -0.00010584   0.00000010  -0.00006440        -15.57      0.01     -9.47


     Writing output data file scf.save
 
     init_run     :    173.59s CPU    178.31s WALL (       1 calls)
     electrons    :   8869.78s CPU   9105.12s WALL (       1 calls)
     forces       :     85.56s CPU     86.08s WALL (       1 calls)
     stress       :    416.74s CPU    417.54s WALL (       1 calls)

     Called by init_run:
     wfcinit      :    154.09s CPU    158.55s WALL (       1 calls)
     potinit      :      6.77s CPU      6.82s WALL (       1 calls)

     Called by electrons:
     c_bands      :   8088.47s CPU   8289.74s WALL (      23 calls)
     sum_band     :    740.11s CPU    769.62s WALL (      23 calls)
     v_of_rho     :      5.83s CPU      6.33s WALL (      24 calls)
     newd         :     17.73s CPU     21.81s WALL (      24 calls)
     PAW_pot      :     16.23s CPU     16.25s WALL (      24 calls)
     mix_rho      :      1.64s CPU      1.73s WALL (      23 calls)

     Called by c_bands:
     init_us_2    :     26.43s CPU     26.53s WALL (     294 calls)
     cegterg      :   7975.04s CPU   8176.22s WALL (     138 calls)

     Called by sum_band:
     sum_band:bec :      0.33s CPU      0.33s WALL (     138 calls)
     addusdens    :     18.26s CPU     22.11s WALL (      23 calls)

     Called by *egterg:
     h_psi        :   3901.92s CPU   4063.63s WALL (     783 calls)
     s_psi        :   1117.93s CPU   1118.21s WALL (     783 calls)
     g_psi        :     13.39s CPU     13.39s WALL (     639 calls)
     cdiaghg      :    421.12s CPU    421.23s WALL (     777 calls)

     Called by h_psi:
     h_psi:pot    :   3883.07s CPU   4044.51s WALL (     783 calls)
     h_psi:calbec :   1115.06s CPU   1116.14s WALL (     783 calls)
     vloc_psi     :   1649.00s CPU   1809.10s WALL (     783 calls)
     add_vuspsi   :   1119.00s CPU   1119.27s WALL (     783 calls)

     General routines
     calbec       :   1561.11s CPU   1562.55s WALL (     951 calls)
     fft          :      3.62s CPU      4.42s WALL (     336 calls)
     fftw         :   1604.42s CPU   1789.01s WALL (  303416 calls)
 
     Parallel routines
     fft_scatter  :    372.99s CPU    558.37s WALL (  303752 calls)
 
     PWSCF        :     2h39m CPU        2h44m WALL

 
   This run was terminated on:   0:28:45   6Jan2018            

=------------------------------------------------------------------------------=
   JOB DONE.
=------------------------------------------------------------------------------=
