
     Program PWSCF v.6.1 (svn rev. 13369) starts on 22Dec2017 at 19:59:15 

     This program is part of the open-source Quantum ESPRESSO suite
     for quantum simulation of materials; please cite
         "P. Giannozzi et al., J. Phys.:Condens. Matter 21 395502 (2009);
          URL http://www.quantum-espresso.org", 
     in publications or presentations arising from this work. More details at
     http://www.quantum-espresso.org/quote

     Parallel version (MPI), running on     8 processors
     R & G space division:  proc/nbgrp/npool/nimage =       8
     Waiting for input...
     Reading input from standard input

     Current dimensions of program PWSCF are:
     Max number of different atomic species (ntypx) = 10
     Max number of k-points (npk) =  40000
     Max angular momentum in pseudopotentials (lmaxx) =  3
               file C.pbe-n-kjpaw_psl.0.1.UPF: wavefunction(s)  2P renormalized
               file N.pbe-n-kjpaw_psl.0.1.UPF: wavefunction(s)  2P renormalized
               file H.pbe-kjpaw_psl.0.1.UPF: wavefunction(s)  1S renormalized
               file O.pbe-n-kjpaw_psl.0.1.UPF: wavefunction(s)  2P renormalized

     -------------------------------------
     Parameters for Dispersion Correction:
     -------------------------------------
       atom      VdW radius       C_6     

        C          2.744         60.710
        N          2.640         42.670
        H          1.892          4.857
        O          2.536         24.284

     Subspace diagonalization in iterative solution of the eigenvalue problem:
     a serial algorithm will be used

 
     Parallelization info
     --------------------
     sticks:   dense  smooth     PW     G-vecs:    dense   smooth      PW
     Min        1876    1876    485               240639   240639   31750
     Max        1880    1880    489               240640   240640   31751
     Sum       15019   15019   3889              1925119  1925119  254007
 


     bravais-lattice index     =            0
     lattice parameter (alat)  =      23.3192  a.u.
     unit-cell volume          =   14247.8354 (a.u.)^3
     number of atoms/cell      =          120
     number of atomic types    =            4
     number of electrons       =       282.00
     number of Kohn-Sham states=          169
     kinetic-energy cutoff     =     100.0000  Ry
     charge density cutoff     =     400.0000  Ry
     convergence threshold     =      1.0E-08
     mixing beta               =       0.5000
     number of iterations used =            8  plain     mixing
     Exchange-correlation      =  SLA  PW   PBX  PBC ( 1  4  3  4 0 0)

     celldm(1)=  23.319220  celldm(2)=   0.000000  celldm(3)=   0.000000
     celldm(4)=   0.000000  celldm(5)=   0.000000  celldm(6)=   0.000000

     crystal axes: (cart. coord. in units of alat)
               a(1) = (   1.000000   0.000000   0.000000 )  
               a(2) = (  -0.500000   0.866025   0.000000 )  
               a(3) = (   0.000000   0.000000   1.297407 )  

     reciprocal axes: (cart. coord. in units 2 pi/alat)
               b(1) = (  1.000000  0.577350  0.000000 )  
               b(2) = (  0.000000  1.154701  0.000000 )  
               b(3) = (  0.000000  0.000000  0.770768 )  


     PseudoPot. # 1 for  C read from file:
     /scratch/ahofstet/pseudo/C.pbe-n-kjpaw_psl.0.1.UPF
     MD5 check sum: 430fe95172b1e11ef3f8ed03bac87931
     Pseudo is Projector augmented-wave + core cor, Zval =  4.0
     Generated using "atomic" code by A. Dal Corso  v.5.0.99 svn rev. 10869
     Shape of augmentation charge: BESSEL
     Using radial grid of 1073 points,  4 beta functions with: 
                l(1) =   0
                l(2) =   0
                l(3) =   1
                l(4) =   1
     Q(r) pseudized with 0 coefficients 


     PseudoPot. # 2 for  N read from file:
     /scratch/ahofstet/pseudo/N.pbe-n-kjpaw_psl.0.1.UPF
     MD5 check sum: f73187c8b701007e77325f868c9291d7
     Pseudo is Projector augmented-wave + core cor, Zval =  5.0
     Generated using "atomic" code by A. Dal Corso  v.5.0.99 svn rev. 10869
     Shape of augmentation charge: PSQ
     Using radial grid of 1085 points,  4 beta functions with: 
                l(1) =   0
                l(2) =   0
                l(3) =   1
                l(4) =   1
     Q(r) pseudized with 0 coefficients 


     PseudoPot. # 3 for  H read from file:
     /scratch/ahofstet/pseudo/H.pbe-kjpaw_psl.0.1.UPF
     MD5 check sum: 94e484f906d9e9773b2f6e52662335b2
     Pseudo is Projector augmented-wave, Zval =  1.0
     Generated using "atomic" code by A. Dal Corso  v.5.0.99 svn rev. 10869
     Shape of augmentation charge: PSQ
     Using radial grid of  929 points,  2 beta functions with: 
                l(1) =   0
                l(2) =   0
     Q(r) pseudized with 0 coefficients 


     PseudoPot. # 4 for  O read from file:
     /scratch/ahofstet/pseudo/O.pbe-n-kjpaw_psl.0.1.UPF
     MD5 check sum: 3f94a2996a3169367d6eb21d9b593f20
     Pseudo is Projector augmented-wave + core cor, Zval =  6.0
     Generated using "atomic" code by A. Dal Corso  v.5.0.99 svn rev. 10869
     Shape of augmentation charge: BESSEL
     Using radial grid of 1095 points,  4 beta functions with: 
                l(1) =   0
                l(2) =   0
                l(3) =   1
                l(4) =   1
     Q(r) pseudized with 0 coefficients 


     atomic species   valence    mass     pseudopotential
        C              4.00    12.01070      C( 1.00)
        N              5.00    14.00670      N( 1.00)
        H              1.00     1.00794      H( 1.00)
        O              6.00    15.99940      O( 1.00)

     No symmetry found
          (note:  2 additional sym.ops. were found but ignored
           their fractional translations are incommensurate with FFT grid)


   Cartesian axes

     site n.     atom                  positions (alat units)
         1           O   tau(   1) = (   0.3286227   0.5597603   0.3317557  )
         2           O   tau(   2) = (  -0.1490780   0.8707409   0.7642246  )
         3           O   tau(   3) = (  -0.1795447   0.3015496   1.1966935  )
         4           O   tau(   4) = (   0.1065086   0.6095349   0.2121185  )
         5           O   tau(   5) = (  -0.0811270   0.6534971   0.6445874  )
         6           O   tau(   6) = (  -0.0253816   0.4690188   1.0770563  )
         7           O   tau(   7) = (  -0.1032084   0.6780186   0.1899131  )
         8           O   tau(   8) = (  -0.0355772   0.4376350   0.6223820  )
         9           O   tau(   9) = (   0.1387856   0.6163972   1.0548510  )
        10           C   tau(  10) = (   0.1431649   0.4908087   0.3654657  )
        11           C   tau(  11) = (   0.0033648   0.7446055   0.7979347  )
        12           C   tau(  12) = (  -0.1465297   0.4966366   1.2304036  )
        13           C   tau(  13) = (   0.0867256   0.5974762   0.3270108  )
        14           C   tau(  14) = (  -0.0607923   0.6423939   0.7594798  )
        15           C   tau(  15) = (  -0.0259332   0.4921808   1.1919487  )
        16           C   tau(  16) = (   0.1275804   0.6995252   0.3902405  )
        17           C   tau(  17) = (  -0.1695969   0.6267507   0.8227094  )
        18           C   tau(  18) = (   0.0420164   0.4057749   1.2551784  )
        19           C   tau(  19) = (   0.2432518   0.6945180   0.4371399  )
        20           C   tau(  20) = (  -0.2230962   0.7294287   0.8696088  )
        21           C   tau(  21) = (  -0.0201557   0.3081041   0.0046709  )
        22           C   tau(  22) = (   0.2520012   0.5903233   0.5044174  )
        23           C   tau(  23) = (  -0.1372356   0.7891031   0.9368863  )
        24           C   tau(  24) = (  -0.1147656   0.3526243   0.0719484  )
        25           C   tau(  25) = (   0.2577850   0.5099135   0.4105430  )
        26           C   tau(  26) = (  -0.0704906   0.8343170   0.8430119  )
        27           C   tau(  27) = (  -0.1872944   0.3878203   1.2754808  )
        28           C   tau(  28) = (   0.1431523   0.4030250   0.2783178  )
        29           C   tau(  29) = (   0.0793940   0.7884864   0.7107867  )
        30           C   tau(  30) = (  -0.2225463   0.5405394   1.1432556  )
        31           C   tau(  31) = (   0.3348687   0.6760481   0.3537080  )
        32           C   tau(  32) = (  -0.2529091   0.8180061   0.7861769  )
        33           C   tau(  33) = (  -0.0819595   0.2379966   1.2186458  )
        34           C   tau(  34) = (   0.3222152   0.7380572   0.2476232  )
        35           C   tau(  35) = (  -0.3002839   0.7760434   0.6800921  )
        36           C   tau(  36) = (  -0.0219314   0.2179502   1.1125611  )
        37           C   tau(  37) = (   0.4468857   0.7013469   0.4019565  )
        38           C   tau(  38) = (   0.1691729   0.0363410   0.8344254  )
        39           C   tau(  39) = (   0.8839413   0.1283376   1.2668944  )
        40           C   tau(  40) = (  -0.0363922   0.5841543   0.3460649  )
        41           C   tau(  41) = (   0.0123036   0.5424317   0.7785339  )
        42           C   tau(  42) = (   0.0240885   0.6054648   1.2110028  )
        43           C   tau(  43) = (  -0.1074752   0.6777692   0.3080886  )
        44           C   tau(  44) = (  -0.0332277   0.4340645   0.7405575  )
        45           C   tau(  45) = (   0.1407030   0.6202171   1.1730265  )
        46           C   tau(  46) = (  -0.2238194   0.6677327   0.3473035  )
        47           C   tau(  47) = (   0.0336362   0.3383258   0.7797725  )
        48           C   tau(  48) = (   0.1901832   0.7259923   1.2122414  )
        49           H   tau(  49) = (   0.0424326   0.6459228   0.1825356  )
        50           H   tau(  50) = (  -0.0806018   0.5798117   0.6150046  )
        51           H   tau(  51) = (   0.0381692   0.5063163   1.0474735  )
        52           H   tau(  52) = (  -0.1436362   0.7404504   0.1642752  )
        53           H   tau(  53) = (  -0.0694307   0.3714076   0.5967441  )
        54           H   tau(  54) = (   0.2130670   0.6201928   1.0292131  )
        55           H   tau(  55) = (   0.0960888   0.4613830   0.4357078  )
        56           H   tau(  56) = (   0.0523862   0.7185492   0.8681767  )
        57           H   tau(  57) = (  -0.1484750   0.5521186   1.3006457  )
        58           H   tau(  58) = (   0.1184304   0.7698995   0.3363291  )
        59           H   tau(  59) = (  -0.2259677   0.5836394   0.7687980  )
        60           H   tau(  60) = (   0.1075373   0.3785120   1.2012669  )
        61           H   tau(  61) = (   0.0735299   0.7130740   0.4600882  )
        62           H   tau(  62) = (  -0.1543052   0.5731671   0.8925571  )
        63           H   tau(  63) = (   0.0807753   0.4458096   0.0276192  )
        64           H   tau(  64) = (   0.2583928   0.7682247   0.4848267  )
        65           H   tau(  65) = (  -0.2944985   0.7056878   0.9172957  )
        66           H   tau(  66) = (   0.0361057   0.2581384   0.0523578  )
        67           H   tau(  67) = (   0.1812637   0.5765592   0.5567945  )
        68           H   tau(  68) = (  -0.0899467   0.7347248   0.9892635  )
        69           H   tau(  69) = (  -0.0913170   0.4207668   0.1243256  )
        70           H   tau(  70) = (   0.3255733   0.5881491   0.5543374  )
        71           H   tau(  71) = (  -0.1721387   0.8539056   0.9868063  )
        72           H   tau(  72) = (  -0.1534346   0.2899961   0.1218684  )
        73           H   tau(  73) = (   0.2941354   0.4314581   0.4326579  )
        74           H   tau(  74) = (   0.4792786   0.0389997   0.8651268  )
        75           H   tau(  75) = (   0.7265860   0.3955676   1.2975957  )
        76           H   tau(  76) = (   0.1973748   0.4258072   0.2116723  )
        77           H   tau(  77) = (   0.0325528   0.8240534   0.6441412  )
        78           H   tau(  78) = (  -0.2299276   0.4821902   1.0766101  )
        79           H   tau(  79) = (   0.0619021   0.3901549   0.2442458  )
        80           H   tau(  80) = (   0.1311649   0.7245568   0.6767147  )
        81           H   tau(  81) = (  -0.1930670   0.6173392   1.1091837  )
        82           H   tau(  82) = (   0.1715188   0.3262245   0.3136524  )
        83           H   tau(  83) = (   0.1317219   0.8514528   0.7461214  )
        84           H   tau(  84) = (  -0.3032407   0.5543735   1.1785903  )
        85           H   tau(  85) = (   0.3903935   0.7190469   0.1934646  )
        86           H   tau(  86) = (  -0.3179097   0.8445927   0.6259335  )
        87           H   tau(  87) = (  -0.0724839   0.1684112   1.0584025  )
        88           H   tau(  88) = (   0.3232533   0.8257894   0.2637619  )
        89           H   tau(  89) = (  -0.3767812   0.7330763   0.6962308  )
        90           H   tau(  90) = (   0.0535279   0.1731852   1.1286998  )
        91           H   tau(  91) = (   0.2462940   0.7159556   0.2074579  )
        92           H   tau(  92) = (  -0.2431828   0.7213445   0.6399268  )
        93           H   tau(  93) = (  -0.0031113   0.2947507   1.0723958  )
        94           H   tau(  94) = (   0.4599109   0.6605417   0.4799261  )
        95           H   tau(  95) = (   0.1979987   0.0680237   0.9123951  )
        96           H   tau(  96) = (   0.8420905   0.1374601   0.0474572  )
        97           H   tau(  97) = (   0.4569210   0.7891793   0.4139657  )
        98           H   tau(  98) = (   0.0880901   0.0011155   0.8464347  )
        99           H   tau(  99) = (   0.9549889   0.0757305   1.2789036  )
       100           H   tau( 100) = (   0.5099299   0.6734627   0.3455191  )
       101           H   tau( 101) = (   0.1617992   0.1048809   0.7779881  )
       102           H   tau( 102) = (   0.8282709   0.0876818   1.2104570  )
       103           H   tau( 103) = (  -0.0494117   0.5739759   0.4335605  )
       104           H   tau( 104) = (   0.0276281   0.5362457   0.8660294  )
       105           H   tau( 105) = (   0.0217835   0.6218292   1.2984983  )
       106           H   tau( 106) = (  -0.0641888   0.5095286   0.3055450  )
       107           H   tau( 107) = (   0.0908297   0.5556720   0.7380139  )
       108           H   tau( 108) = (  -0.0266409   0.6668502   1.1704829  )
       109           H   tau( 109) = (  -0.0730492   0.7547087   0.3379331  )
       110           H   tau( 110) = (  -0.1170723   0.4254086   0.7704020  )
       111           H   tau( 111) = (   0.1901215   0.5519335   1.2028709  )
       112           H   tau( 112) = (  -0.2745576   0.7322936   0.3123765  )
       113           H   tau( 113) = (   0.0030939   0.2621047   0.7448455  )
       114           H   tau( 114) = (   0.2714637   0.7376525   1.1773144  )
       115           H   tau( 115) = (  -0.2270111   0.6757763   0.4359651  )
       116           H   tau( 116) = (   0.0282661   0.3315399   0.8684341  )
       117           H   tau( 117) = (   0.1987450   0.7247347   1.3009030  )
       118           H   tau( 118) = (  -0.2583814   0.5890558   0.3238577  )
       119           H   tau( 119) = (   0.1190534   0.3477327   0.7563266  )
       120           H   tau( 120) = (   0.1393280   0.7952623   1.1887955  )

     number of k points=     8
                       cart. coord. in units 2pi/alat
        k(    1) = (   0.0000000   0.0000000   0.0000000), wk =   0.2500000
        k(    2) = (   0.0000000   0.0000000  -0.3853841), wk =   0.2500000
        k(    3) = (   0.0000000  -0.5773503   0.0000000), wk =   0.2500000
        k(    4) = (   0.0000000  -0.5773503  -0.3853841), wk =   0.2500000
        k(    5) = (   0.5000000   0.2886751   0.0000000), wk =   0.2500000
        k(    6) = (  -0.5000000   0.2886751   0.0000000), wk =   0.2500000
        k(    7) = (   0.5000000   0.2886751  -0.3853841), wk =   0.2500000
        k(    8) = (  -0.5000000   0.2886751  -0.3853841), wk =   0.2500000

     Dense  grid:  1925119 G-vectors     FFT dimensions: ( 150, 150, 200)

     Estimated max dynamical RAM per process >    1722.08MB

     Estimated total allocated dynamical RAM >   13776.64MB

     Check: negative/imaginary core charge=   -0.000001    0.000000

     Initial potential from superposition of free atoms

     starting charge  281.99768, renormalised to  282.00000

     negative rho (up, down):  8.933E-06 0.000E+00
     Starting wfc are  264 randomized atomic wfcs
     Checking if some PAW data can be deallocated... 

     total cpu time spent up to now is      111.2 secs

     per-process dynamical memory:  1141.9 Mb

     Self-consistent Calculation

     iteration #  1     ecut=   100.00 Ry     beta=0.50
     Davidson diagonalization with overlap
     ethr =  1.00E-02,  avg # of iterations =  4.0

     negative rho (up, down):  2.283E-06 0.000E+00

     total cpu time spent up to now is      464.6 secs

     total energy              =   -1177.30070305 Ry
     Harris-Foulkes estimate   =   -1184.37099039 Ry
     estimated scf accuracy    <      13.14161471 Ry

     iteration #  2     ecut=   100.00 Ry     beta=0.50
     Davidson diagonalization with overlap
     ethr =  4.66E-03,  avg # of iterations =  2.6

     negative rho (up, down):  2.628E-07 0.000E+00

     total cpu time spent up to now is      643.8 secs

     total energy              =   -1177.88027089 Ry
     Harris-Foulkes estimate   =   -1178.61805323 Ry
     estimated scf accuracy    <       1.49117417 Ry

     iteration #  3     ecut=   100.00 Ry     beta=0.50
     Davidson diagonalization with overlap
     ethr =  5.29E-04,  avg # of iterations =  5.0

     negative rho (up, down):  5.619E-07 0.000E+00

     total cpu time spent up to now is     1040.7 secs

     total energy              =   -1179.68935236 Ry
     Harris-Foulkes estimate   =   -1180.66351254 Ry
     estimated scf accuracy    <       3.08075478 Ry

     iteration #  4     ecut=   100.00 Ry     beta=0.50
     Davidson diagonalization with overlap
     ethr =  5.29E-04,  avg # of iterations =  2.0

     negative rho (up, down):  1.696E-03 0.000E+00

     total cpu time spent up to now is     1206.1 secs

     total energy              =   -1178.73023318 Ry
     Harris-Foulkes estimate   =   -1179.76058128 Ry
     estimated scf accuracy    <       1.39395618 Ry

     iteration #  5     ecut=   100.00 Ry     beta=0.50
     Davidson diagonalization with overlap
     ethr =  4.94E-04,  avg # of iterations =  5.0

     negative rho (up, down):  1.871E-05 0.000E+00

     total cpu time spent up to now is     1602.0 secs

     total energy              =   -1178.64365813 Ry
     Harris-Foulkes estimate   =   -1182.29062469 Ry
     estimated scf accuracy    <       8.08855932 Ry

     iteration #  6     ecut=   100.00 Ry     beta=0.50
     Davidson diagonalization with overlap
     ethr =  4.94E-04,  avg # of iterations =  6.1

     negative rho (up, down):  2.611E-05 0.000E+00

     total cpu time spent up to now is     1941.6 secs

     total energy              =   -1179.67144330 Ry
     Harris-Foulkes estimate   =   -1179.76019056 Ry
     estimated scf accuracy    <       0.19318015 Ry

     iteration #  7     ecut=   100.00 Ry     beta=0.50
     Davidson diagonalization with overlap
     ethr =  6.85E-05,  avg # of iterations =  3.0

     negative rho (up, down):  2.431E-05 0.000E+00

     total cpu time spent up to now is     2115.5 secs

     total energy              =   -1179.66095582 Ry
     Harris-Foulkes estimate   =   -1179.68232857 Ry
     estimated scf accuracy    <       0.04620568 Ry

     iteration #  8     ecut=   100.00 Ry     beta=0.50
     Davidson diagonalization with overlap
     ethr =  1.64E-05,  avg # of iterations =  5.0

     negative rho (up, down):  2.970E-05 0.000E+00

     total cpu time spent up to now is     2497.2 secs

     total energy              =   -1179.70547132 Ry
     Harris-Foulkes estimate   =   -1179.71152995 Ry
     estimated scf accuracy    <       0.02296311 Ry

     iteration #  9     ecut=   100.00 Ry     beta=0.50
     Davidson diagonalization with overlap
     c_bands:  1 eigenvalues not converged
     c_bands:  1 eigenvalues not converged
     c_bands:  1 eigenvalues not converged
     c_bands:  1 eigenvalues not converged
     c_bands:  1 eigenvalues not converged
     ethr =  8.14E-06,  avg # of iterations = 17.1

     negative rho (up, down):  4.399E-05 0.000E+00

     total cpu time spent up to now is     2709.7 secs

     total energy              =   -1179.70036498 Ry
     Harris-Foulkes estimate   =   -1179.70582520 Ry
     estimated scf accuracy    <       0.01195395 Ry

     iteration # 10     ecut=   100.00 Ry     beta=0.50
     Davidson diagonalization with overlap
     ethr =  4.24E-06,  avg # of iterations =  7.8

     negative rho (up, down):  4.103E-05 0.000E+00

     total cpu time spent up to now is     2982.0 secs

     total energy              =   -1179.70433583 Ry
     Harris-Foulkes estimate   =   -1179.70456351 Ry
     estimated scf accuracy    <       0.00063416 Ry

     iteration # 11     ecut=   100.00 Ry     beta=0.50
     Davidson diagonalization with overlap
     ethr =  2.25E-07,  avg # of iterations =  2.5

     negative rho (up, down):  3.854E-05 0.000E+00

     total cpu time spent up to now is     3160.7 secs

     total energy              =   -1179.70421814 Ry
     Harris-Foulkes estimate   =   -1179.70440075 Ry
     estimated scf accuracy    <       0.00025163 Ry

     iteration # 12     ecut=   100.00 Ry     beta=0.50
     Davidson diagonalization with overlap
     ethr =  8.92E-08,  avg # of iterations =  4.0

     negative rho (up, down):  4.140E-05 0.000E+00

     total cpu time spent up to now is     3517.3 secs

     total energy              =   -1179.70442913 Ry
     Harris-Foulkes estimate   =   -1179.70467829 Ry
     estimated scf accuracy    <       0.00085626 Ry

     iteration # 13     ecut=   100.00 Ry     beta=0.50
     Davidson diagonalization with overlap
     ethr =  8.92E-08,  avg # of iterations =  1.0

     negative rho (up, down):  4.481E-05 0.000E+00

     total cpu time spent up to now is     3679.2 secs

     total energy              =   -1179.70417012 Ry
     Harris-Foulkes estimate   =   -1179.70444049 Ry
     estimated scf accuracy    <       0.00043664 Ry

     iteration # 14     ecut=   100.00 Ry     beta=0.50
     Davidson diagonalization with overlap
     ethr =  8.92E-08,  avg # of iterations =  4.0

     negative rho (up, down):  4.411E-05 0.000E+00

     total cpu time spent up to now is     4009.3 secs

     total energy              =   -1179.70442379 Ry
     Harris-Foulkes estimate   =   -1179.70448052 Ry
     estimated scf accuracy    <       0.00022644 Ry

     iteration # 15     ecut=   100.00 Ry     beta=0.50
     Davidson diagonalization with overlap
     ethr =  8.03E-08,  avg # of iterations =  1.0

     negative rho (up, down):  4.333E-05 0.000E+00

     total cpu time spent up to now is     4171.5 secs

     total energy              =   -1179.70436290 Ry
     Harris-Foulkes estimate   =   -1179.70442587 Ry
     estimated scf accuracy    <       0.00013190 Ry

     iteration # 16     ecut=   100.00 Ry     beta=0.50
     Davidson diagonalization with overlap
     ethr =  4.68E-08,  avg # of iterations =  5.0

     negative rho (up, down):  4.287E-05 0.000E+00

     total cpu time spent up to now is     4423.5 secs

     total energy              =   -1179.70442113 Ry
     Harris-Foulkes estimate   =   -1179.70441155 Ry
     estimated scf accuracy    <       0.00000693 Ry

     iteration # 17     ecut=   100.00 Ry     beta=0.50
     Davidson diagonalization with overlap
     ethr =  2.46E-09,  avg # of iterations =  4.0

     negative rho (up, down):  4.334E-05 0.000E+00

     total cpu time spent up to now is     4763.0 secs

     total energy              =   -1179.70440876 Ry
     Harris-Foulkes estimate   =   -1179.70442795 Ry
     estimated scf accuracy    <       0.00005630 Ry

     iteration # 18     ecut=   100.00 Ry     beta=0.50
     Davidson diagonalization with overlap
     ethr =  2.46E-09,  avg # of iterations =  7.4

     negative rho (up, down):  4.349E-05 0.000E+00

     total cpu time spent up to now is     5045.5 secs

     total energy              =   -1179.70441174 Ry
     Harris-Foulkes estimate   =   -1179.70441274 Ry
     estimated scf accuracy    <       0.00000865 Ry

     iteration # 19     ecut=   100.00 Ry     beta=0.50
     Davidson diagonalization with overlap
     ethr =  2.46E-09,  avg # of iterations =  1.6

     negative rho (up, down):  4.363E-05 0.000E+00

     total cpu time spent up to now is     5212.1 secs

     total energy              =   -1179.70441002 Ry
     Harris-Foulkes estimate   =   -1179.70441191 Ry
     estimated scf accuracy    <       0.00000657 Ry

     iteration # 20     ecut=   100.00 Ry     beta=0.50
     Davidson diagonalization with overlap
     ethr =  2.33E-09,  avg # of iterations =  1.0

     negative rho (up, down):  4.368E-05 0.000E+00

     total cpu time spent up to now is     5373.9 secs

     total energy              =   -1179.70440963 Ry
     Harris-Foulkes estimate   =   -1179.70441019 Ry
     estimated scf accuracy    <       0.00000301 Ry

     iteration # 21     ecut=   100.00 Ry     beta=0.50
     Davidson diagonalization with overlap
     ethr =  1.07E-09,  avg # of iterations =  3.4

     negative rho (up, down):  4.369E-05 0.000E+00

     total cpu time spent up to now is     5549.1 secs

     total energy              =   -1179.70440967 Ry
     Harris-Foulkes estimate   =   -1179.70440991 Ry
     estimated scf accuracy    <       0.00000152 Ry

     iteration # 22     ecut=   100.00 Ry     beta=0.50
     Davidson diagonalization with overlap
     ethr =  5.40E-10,  avg # of iterations =  5.9

     negative rho (up, down):  4.373E-05 0.000E+00

     total cpu time spent up to now is     5812.4 secs

     total energy              =   -1179.70441032 Ry
     Harris-Foulkes estimate   =   -1179.70441035 Ry
     estimated scf accuracy    <       0.00000008 Ry

     iteration # 23     ecut=   100.00 Ry     beta=0.50
     Davidson diagonalization with overlap
     ethr =  2.78E-11,  avg # of iterations =  3.6

     negative rho (up, down):  4.373E-05 0.000E+00

     total cpu time spent up to now is     6060.5 secs

     total energy              =   -1179.70441041 Ry
     Harris-Foulkes estimate   =   -1179.70441041 Ry
     estimated scf accuracy    <       0.00000005 Ry

     iteration # 24     ecut=   100.00 Ry     beta=0.50
     Davidson diagonalization with overlap
     ethr =  1.92E-11,  avg # of iterations =  1.0

     negative rho (up, down):  4.379E-05 0.000E+00

     total cpu time spent up to now is     6222.5 secs

     total energy              =   -1179.70441044 Ry
     Harris-Foulkes estimate   =   -1179.70441041 Ry
     estimated scf accuracy    <       0.00000006 Ry

     iteration # 25     ecut=   100.00 Ry     beta=0.50
     Davidson diagonalization with overlap
     ethr =  1.92E-11,  avg # of iterations =  4.0

     negative rho (up, down):  4.379E-05 0.000E+00

     total cpu time spent up to now is     6548.8 secs

     total energy              =   -1179.70441043 Ry
     Harris-Foulkes estimate   =   -1179.70441051 Ry
     estimated scf accuracy    <       0.00000038 Ry

     iteration # 26     ecut=   100.00 Ry     beta=0.50
     Davidson diagonalization with overlap
     ethr =  1.92E-11,  avg # of iterations =  1.0

     negative rho (up, down):  4.376E-05 0.000E+00

     total cpu time spent up to now is     6711.4 secs

     total energy              =   -1179.70441033 Ry
     Harris-Foulkes estimate   =   -1179.70441044 Ry
     estimated scf accuracy    <       0.00000025 Ry

     iteration # 27     ecut=   100.00 Ry     beta=0.50
     Davidson diagonalization with overlap
     ethr =  1.92E-11,  avg # of iterations =  4.0

     negative rho (up, down):  4.377E-05 0.000E+00

     total cpu time spent up to now is     7035.1 secs

     total energy              =   -1179.70441039 Ry
     Harris-Foulkes estimate   =   -1179.70441039 Ry
     estimated scf accuracy    <       0.00000001 Ry

     iteration # 28     ecut=   100.00 Ry     beta=0.50
     Davidson diagonalization with overlap
     ethr =  3.96E-12,  avg # of iterations =  1.0

     negative rho (up, down):  4.377E-05 0.000E+00

     total cpu time spent up to now is     7197.2 secs

     End of self-consistent calculation

          k = 0.0000 0.0000 0.0000 (240565 PWs)   bands (ev):

   -23.3177 -23.3152 -23.3152 -22.6911 -22.6908 -22.6908 -22.2801 -22.2782
   -22.2782 -17.6823 -17.6823 -17.6693 -17.0394 -17.0394 -17.0249 -16.8006
   -16.8006 -16.7942 -15.7701 -15.7701 -15.7522 -15.3161 -15.3161 -15.3080
   -14.4125 -14.3938 -14.3938 -13.8303 -13.8303 -13.8170 -13.4916 -13.4656
   -13.4656 -12.6775 -12.6715 -12.6715 -11.9200 -11.8548 -11.8548 -11.6469
   -11.6005 -11.6005 -10.8590 -10.8190 -10.8190 -10.4284 -10.4154 -10.4154
   -10.1896 -10.1896 -10.1587  -9.4986  -9.4986  -9.4630  -9.2909  -9.2909
    -9.2900  -8.5574  -8.5574  -8.4931  -8.3946  -8.3820  -8.3820  -8.0905
    -8.0612  -8.0612  -7.9181  -7.9062  -7.9062  -7.8508  -7.8508  -7.8076
    -7.5600  -7.5123  -7.5123  -7.4001  -7.3974  -7.3974  -7.1424  -7.1424
    -6.9823  -6.9063  -6.8721  -6.8721  -6.8165  -6.7966  -6.7966  -6.6295
    -6.6295  -6.6065  -6.5011  -6.5011  -6.4800  -6.4512  -6.4026  -6.4026
    -6.2877  -6.2751  -6.2751  -6.1129  -6.0765  -6.0765  -5.9050  -5.8983
    -5.8983  -5.8307  -5.8307  -5.8149  -5.7333  -5.7333  -5.7033  -5.5321
    -5.5321  -5.5280  -5.2603  -5.2530  -5.2530  -5.1218  -5.0438  -5.0438
    -4.8821  -4.8821  -4.8349  -4.5786  -4.5786  -4.5372  -4.2573  -4.2573
    -4.2510  -4.1717  -4.1711  -4.1711  -3.9631  -3.9631  -3.8980  -3.1706
    -3.1706  -3.1234  -2.5619  -2.5619  -2.5584   1.2488   1.6974   1.6974
     2.2523   2.2524   2.3620   2.4650   2.4650   2.5650   2.8395   2.8475
     2.8475   2.9101   3.0408   3.0408   3.0526   3.1067   3.1067   3.2961
     3.4619   3.4619   3.6585   3.6585   3.8084   3.9628   3.9628   4.0758
     4.0759

          k = 0.0000 0.0000-0.3854 (240588 PWs)   bands (ev):

   -23.3168 -23.3168 -23.3144 -22.6910 -22.6910 -22.6907 -22.2795 -22.2795
   -22.2775 -17.6868 -17.6736 -17.6735 -17.0444 -17.0296 -17.0296 -16.8022
   -16.7966 -16.7966 -15.7757 -15.7583 -15.7583 -15.3187 -15.3107 -15.3107
   -14.4063 -14.4063 -14.3875 -13.8350 -13.8213 -13.8213 -13.4829 -13.4829
   -13.4570 -12.6757 -12.6757 -12.6692 -11.8973 -11.8973 -11.8346 -11.6300
   -11.6300 -11.5884 -10.8503 -10.8503 -10.7953 -10.4233 -10.4233 -10.4130
   -10.2027 -10.1678 -10.1678  -9.5084  -9.4760  -9.4760  -9.2940  -9.2888
    -9.2888  -8.5918  -8.5002  -8.5002  -8.4072  -8.4072  -8.3596  -8.0855
    -8.0855  -8.0405  -7.9110  -7.9110  -7.9065  -7.8759  -7.8189  -7.8189
    -7.5491  -7.5490  -7.4826  -7.4004  -7.4004  -7.3853  -7.2188  -7.0278
    -7.0278  -6.8958  -6.8958  -6.8595  -6.8173  -6.8173  -6.7779  -6.6539
    -6.6085  -6.6085  -6.5035  -6.4903  -6.4903  -6.4244  -6.4244  -6.4019
    -6.2848  -6.2848  -6.2712  -6.0952  -6.0952  -6.0675  -5.9034  -5.8988
    -5.8988  -5.8340  -5.8340  -5.8146  -5.7483  -5.7106  -5.7106  -5.5376
    -5.5278  -5.5278  -5.2650  -5.2650  -5.2341  -5.0950  -5.0950  -5.0149
    -4.9054  -4.8495  -4.8495  -4.5928  -4.5507  -4.5507  -4.2591  -4.2537
    -4.2537  -4.1725  -4.1704  -4.1704  -3.9837  -3.9202  -3.9202  -3.1855
    -3.1396  -3.1396  -2.5631  -2.5595  -2.5595   1.3796   1.3796   1.8891
     2.3109   2.3109   2.3944   2.4695   2.5438   2.5438   2.5995   2.7371
     2.7372   2.7836   3.0173   3.0173   3.3172   3.3172   3.3401   3.4255
     3.4255   3.5121   3.5985   3.5985   3.6621   3.6621   3.6664   3.9215
     4.0944

          k = 0.0000-0.5774 0.0000 (240694 PWs)   bands (ev):

   -23.3177 -23.3152 -23.3152 -22.6911 -22.6908 -22.6908 -22.2801 -22.2782
   -22.2782 -17.6824 -17.6823 -17.6693 -17.0421 -17.0402 -17.0254 -16.7998
   -16.7971 -16.7915 -15.7766 -15.7726 -15.7548 -15.3145 -15.3065 -15.2992
   -14.4308 -14.4138 -14.3972 -13.8272 -13.8159 -13.8098 -13.4822 -13.4582
   -13.4509 -12.6939 -12.6918 -12.6733 -11.9107 -11.8515 -11.8461 -11.6480
   -11.6011 -11.6007 -10.8576 -10.8201 -10.8190 -10.4222 -10.4080 -10.4046
   -10.2106 -10.1979 -10.1643  -9.5221  -9.5104  -9.4750  -9.2923  -9.2857
    -9.2793  -8.5633  -8.5588  -8.4842  -8.3939  -8.3808  -8.3764  -8.0754
    -8.0343  -8.0244  -7.9211  -7.9013  -7.8893  -7.8509  -7.8500  -7.8117
    -7.5690  -7.5214  -7.5141  -7.4053  -7.4002  -7.3970  -7.1703  -7.1535
    -7.0053  -6.9294  -6.8907  -6.8743  -6.8068  -6.7541  -6.7507  -6.6325
    -6.6244  -6.6003  -6.5039  -6.4984  -6.4736  -6.4355  -6.3825  -6.3569
    -6.3358  -6.3299  -6.2796  -6.1294  -6.0940  -6.0789  -5.9135  -5.8963
    -5.8912  -5.8359  -5.8335  -5.8029  -5.7342  -5.7309  -5.6932  -5.5410
    -5.5347  -5.5295  -5.2645  -5.2554  -5.2507  -5.1202  -5.0500  -5.0453
    -4.8835  -4.8807  -4.8336  -4.5782  -4.5690  -4.5438  -4.2642  -4.2621
    -4.2541  -4.1772  -4.1727  -4.1693  -3.9562  -3.9384  -3.8801  -3.1707
    -3.1694  -3.1248  -2.5733  -2.5655  -2.5572   1.4294   1.5433   1.7145
     2.0819   2.1719   2.2106   2.3198   2.4667   2.5493   2.6306   2.8320
     2.9106   3.1143   3.1963   3.2887   3.3237   3.3773   3.4746   3.5380
     3.5432   3.5774   3.6506   3.7022   3.7482   3.7556   3.7981   3.8456
     3.9669

          k = 0.0000-0.5774-0.3854 (240628 PWs)   bands (ev):

   -23.3168 -23.3168 -23.3144 -22.6910 -22.6910 -22.6907 -22.2795 -22.2795
   -22.2775 -17.6869 -17.6736 -17.6736 -17.0466 -17.0312 -17.0299 -16.8005
   -16.7949 -16.7930 -15.7810 -15.7634 -15.7595 -15.3152 -15.3046 -15.3004
   -14.4281 -14.4185 -14.3952 -13.8277 -13.8142 -13.8111 -13.4789 -13.4659
   -13.4464 -12.6940 -12.6919 -12.6732 -11.8935 -11.8848 -11.8298 -11.6313
   -11.6304 -11.5887 -10.8503 -10.8490 -10.7964 -10.4208 -10.4097 -10.4045
   -10.2201 -10.1830 -10.1702  -9.5272  -9.4996  -9.4808  -9.2943  -9.2850
    -9.2780  -8.5965  -8.5004  -8.4949  -8.4055  -8.4011  -8.3587  -8.0771
    -8.0435  -8.0118  -7.9137  -7.9087  -7.8879  -7.8746  -7.8224  -7.8199
    -7.5596  -7.5523  -7.4890  -7.4062  -7.4026  -7.3831  -7.2353  -7.0667
    -7.0393  -6.9210  -6.9080  -6.8638  -6.8089  -6.7601  -6.7455  -6.6522
    -6.6085  -6.5999  -6.5066  -6.4890  -6.4829  -6.4202  -6.3876  -6.3607
    -6.3360  -6.3313  -6.2791  -6.1224  -6.1035  -6.0719  -5.9036  -5.8992
    -5.8972  -5.8347  -5.8263  -5.8189  -5.7453  -5.7096  -5.7018  -5.5390
    -5.5369  -5.5286  -5.2704  -5.2657  -5.2325  -5.0954  -5.0945  -5.0211
    -4.9067  -4.8493  -4.8474  -4.5830  -4.5573  -4.5500  -4.2638  -4.2625
    -4.2556  -4.1753  -4.1730  -4.1701  -3.9691  -3.9095  -3.8960  -3.1845
    -3.1409  -3.1396  -2.5740  -2.5640  -2.5580   1.4860   1.5551   1.6405
     1.9394   2.1925   2.2234   2.4019   2.4740   2.6958   2.7822   2.8177
     2.9095   3.0256   3.1020   3.1632   3.2722   3.3131   3.4201   3.5116
     3.5285   3.5864   3.6363   3.6452   3.7426   3.8261   3.8316   3.9219
     3.9593

          k = 0.5000 0.2887 0.0000 (240694 PWs)   bands (ev):

   -23.3177 -23.3152 -23.3152 -22.6911 -22.6908 -22.6908 -22.2801 -22.2782
   -22.2782 -17.6824 -17.6823 -17.6693 -17.0421 -17.0402 -17.0254 -16.7998
   -16.7971 -16.7915 -15.7766 -15.7726 -15.7547 -15.3145 -15.3065 -15.2992
   -14.4308 -14.4138 -14.3971 -13.8272 -13.8159 -13.8098 -13.4822 -13.4582
   -13.4509 -12.6939 -12.6918 -12.6733 -11.9107 -11.8515 -11.8461 -11.6480
   -11.6011 -11.6007 -10.8576 -10.8202 -10.8190 -10.4222 -10.4080 -10.4046
   -10.2106 -10.1979 -10.1643  -9.5221  -9.5104  -9.4750  -9.2923  -9.2857
    -9.2793  -8.5633  -8.5588  -8.4842  -8.3939  -8.3808  -8.3764  -8.0754
    -8.0343  -8.0244  -7.9211  -7.9013  -7.8893  -7.8509  -7.8500  -7.8117
    -7.5690  -7.5214  -7.5141  -7.4053  -7.4002  -7.3970  -7.1703  -7.1535
    -7.0053  -6.9294  -6.8907  -6.8743  -6.8068  -6.7541  -6.7507  -6.6325
    -6.6244  -6.6003  -6.5039  -6.4984  -6.4736  -6.4355  -6.3825  -6.3569
    -6.3358  -6.3299  -6.2795  -6.1294  -6.0940  -6.0789  -5.9135  -5.8962
    -5.8912  -5.8359  -5.8335  -5.8029  -5.7342  -5.7309  -5.6932  -5.5410
    -5.5347  -5.5295  -5.2645  -5.2554  -5.2507  -5.1202  -5.0500  -5.0453
    -4.8835  -4.8807  -4.8336  -4.5782  -4.5690  -4.5438  -4.2642  -4.2621
    -4.2541  -4.1772  -4.1727  -4.1693  -3.9562  -3.9384  -3.8801  -3.1707
    -3.1694  -3.1248  -2.5733  -2.5655  -2.5572   1.4294   1.5433   1.7145
     2.0819   2.1719   2.2106   2.3198   2.4667   2.5494   2.6306   2.8320
     2.9106   3.1143   3.1963   3.2887   3.3237   3.3773   3.4746   3.5380
     3.5432   3.5774   3.6506   3.7022   3.7482   3.7556   3.7981   3.8455
     3.9661

          k =-0.5000 0.2887 0.0000 (240694 PWs)   bands (ev):

   -23.3177 -23.3152 -23.3152 -22.6911 -22.6908 -22.6908 -22.2801 -22.2782
   -22.2782 -17.6824 -17.6823 -17.6693 -17.0421 -17.0402 -17.0254 -16.7998
   -16.7971 -16.7915 -15.7766 -15.7726 -15.7547 -15.3145 -15.3065 -15.2992
   -14.4308 -14.4138 -14.3972 -13.8272 -13.8159 -13.8098 -13.4822 -13.4582
   -13.4509 -12.6939 -12.6918 -12.6733 -11.9107 -11.8515 -11.8461 -11.6480
   -11.6011 -11.6007 -10.8576 -10.8201 -10.8190 -10.4222 -10.4080 -10.4046
   -10.2106 -10.1979 -10.1643  -9.5221  -9.5104  -9.4750  -9.2923  -9.2857
    -9.2793  -8.5633  -8.5588  -8.4842  -8.3939  -8.3808  -8.3764  -8.0754
    -8.0343  -8.0244  -7.9211  -7.9013  -7.8893  -7.8509  -7.8500  -7.8117
    -7.5690  -7.5214  -7.5141  -7.4053  -7.4002  -7.3970  -7.1703  -7.1535
    -7.0053  -6.9294  -6.8907  -6.8743  -6.8068  -6.7541  -6.7507  -6.6325
    -6.6244  -6.6003  -6.5039  -6.4984  -6.4736  -6.4355  -6.3825  -6.3569
    -6.3358  -6.3299  -6.2796  -6.1294  -6.0940  -6.0789  -5.9135  -5.8963
    -5.8912  -5.8359  -5.8335  -5.8029  -5.7342  -5.7309  -5.6932  -5.5410
    -5.5347  -5.5295  -5.2645  -5.2554  -5.2507  -5.1202  -5.0500  -5.0453
    -4.8835  -4.8807  -4.8336  -4.5782  -4.5690  -4.5438  -4.2642  -4.2621
    -4.2541  -4.1772  -4.1727  -4.1693  -3.9562  -3.9384  -3.8801  -3.1707
    -3.1694  -3.1248  -2.5733  -2.5655  -2.5572   1.4294   1.5433   1.7145
     2.0819   2.1719   2.2106   2.3198   2.4667   2.5494   2.6306   2.8320
     2.9106   3.1143   3.1963   3.2887   3.3237   3.3772   3.4746   3.5380
     3.5432   3.5774   3.6506   3.7022   3.7483   3.7556   3.7981   3.8456
     3.9665

          k = 0.5000 0.2887-0.3854 (240628 PWs)   bands (ev):

   -23.3168 -23.3168 -23.3144 -22.6910 -22.6910 -22.6907 -22.2795 -22.2795
   -22.2775 -17.6869 -17.6736 -17.6736 -17.0466 -17.0312 -17.0299 -16.8005
   -16.7949 -16.7930 -15.7810 -15.7634 -15.7595 -15.3152 -15.3046 -15.3004
   -14.4281 -14.4185 -14.3952 -13.8277 -13.8142 -13.8111 -13.4789 -13.4659
   -13.4464 -12.6940 -12.6919 -12.6732 -11.8935 -11.8848 -11.8298 -11.6313
   -11.6304 -11.5887 -10.8503 -10.8490 -10.7964 -10.4207 -10.4097 -10.4045
   -10.2201 -10.1831 -10.1702  -9.5272  -9.4996  -9.4808  -9.2943  -9.2850
    -9.2780  -8.5965  -8.5004  -8.4949  -8.4055  -8.4011  -8.3587  -8.0771
    -8.0435  -8.0118  -7.9137  -7.9087  -7.8879  -7.8746  -7.8224  -7.8199
    -7.5596  -7.5523  -7.4890  -7.4063  -7.4026  -7.3831  -7.2353  -7.0667
    -7.0393  -6.9210  -6.9080  -6.8638  -6.8089  -6.7601  -6.7455  -6.6522
    -6.6085  -6.5999  -6.5066  -6.4890  -6.4829  -6.4201  -6.3876  -6.3607
    -6.3360  -6.3313  -6.2791  -6.1224  -6.1035  -6.0719  -5.9036  -5.8992
    -5.8972  -5.8347  -5.8263  -5.8189  -5.7453  -5.7096  -5.7018  -5.5390
    -5.5369  -5.5286  -5.2704  -5.2657  -5.2325  -5.0954  -5.0945  -5.0211
    -4.9067  -4.8493  -4.8474  -4.5830  -4.5573  -4.5500  -4.2638  -4.2625
    -4.2556  -4.1753  -4.1730  -4.1701  -3.9691  -3.9095  -3.8960  -3.1845
    -3.1409  -3.1396  -2.5740  -2.5640  -2.5580   1.4860   1.5551   1.6405
     1.9394   2.1926   2.2234   2.4019   2.4740   2.6958   2.7822   2.8176
     2.9095   3.0256   3.1020   3.1632   3.2722   3.3131   3.4201   3.5116
     3.5285   3.5864   3.6363   3.6452   3.7426   3.8263   3.8317   3.9219
     3.9620

          k =-0.5000 0.2887-0.3854 (240628 PWs)   bands (ev):

   -23.3168 -23.3168 -23.3144 -22.6910 -22.6910 -22.6907 -22.2795 -22.2795
   -22.2775 -17.6869 -17.6736 -17.6736 -17.0466 -17.0312 -17.0299 -16.8005
   -16.7949 -16.7930 -15.7810 -15.7634 -15.7595 -15.3152 -15.3046 -15.3004
   -14.4281 -14.4185 -14.3952 -13.8277 -13.8142 -13.8111 -13.4789 -13.4659
   -13.4464 -12.6940 -12.6919 -12.6732 -11.8935 -11.8848 -11.8298 -11.6313
   -11.6304 -11.5887 -10.8503 -10.8490 -10.7964 -10.4207 -10.4097 -10.4045
   -10.2201 -10.1830 -10.1702  -9.5272  -9.4996  -9.4808  -9.2943  -9.2850
    -9.2780  -8.5965  -8.5004  -8.4949  -8.4055  -8.4011  -8.3587  -8.0771
    -8.0435  -8.0118  -7.9137  -7.9087  -7.8879  -7.8746  -7.8224  -7.8199
    -7.5596  -7.5523  -7.4890  -7.4063  -7.4026  -7.3831  -7.2353  -7.0667
    -7.0393  -6.9210  -6.9080  -6.8638  -6.8089  -6.7601  -6.7455  -6.6522
    -6.6085  -6.5999  -6.5066  -6.4890  -6.4829  -6.4201  -6.3876  -6.3607
    -6.3360  -6.3313  -6.2791  -6.1224  -6.1035  -6.0719  -5.9036  -5.8992
    -5.8972  -5.8347  -5.8263  -5.8189  -5.7453  -5.7096  -5.7018  -5.5390
    -5.5369  -5.5286  -5.2704  -5.2657  -5.2325  -5.0954  -5.0945  -5.0211
    -4.9067  -4.8493  -4.8474  -4.5830  -4.5573  -4.5500  -4.2638  -4.2625
    -4.2556  -4.1753  -4.1730  -4.1701  -3.9691  -3.9095  -3.8960  -3.1845
    -3.1409  -3.1396  -2.5740  -2.5640  -2.5580   1.4860   1.5551   1.6405
     1.9394   2.1925   2.2234   2.4019   2.4740   2.6959   2.7822   2.8176
     2.9095   3.0256   3.1020   3.1633   3.2722   3.3132   3.4201   3.5117
     3.5285   3.5864   3.6363   3.6452   3.7426   3.8262   3.8316   3.9219
     3.9613

     highest occupied, lowest unoccupied level (ev):    -2.5572    1.2488

!    total energy              =   -1179.70441038 Ry
     Harris-Foulkes estimate   =   -1179.70441039 Ry
     estimated scf accuracy    <          5.1E-09 Ry

     total all-electron energy =     -4412.126086 Ry

     The total energy is the sum of the following terms:

     one-electron contribution =   -2599.23685839 Ry
     hartree contribution      =    1370.20010235 Ry
     xc contribution           =    -280.57238167 Ry
     ewald contribution        =     675.25230184 Ry
     Dispersion Correction     =      -0.37740001 Ry
     one-center paw contrib.   =    -344.97017451 Ry

     convergence has been achieved in  28 iterations

     negative rho (up, down):  4.377E-05 0.000E+00

     Forces acting on atoms (cartesian axes, Ry/au):

     atom    1 type  4   force =    -0.00051771    0.00060365    0.00037446
     atom    2 type  4   force =    -0.00026332   -0.00074920    0.00037644
     atom    3 type  4   force =     0.00078258    0.00014694    0.00037737
     atom    4 type  4   force =    -0.00059359    0.00013697    0.00079810
     atom    5 type  4   force =     0.00017820   -0.00058320    0.00079520
     atom    6 type  4   force =     0.00041514    0.00044663    0.00079581
     atom    7 type  4   force =     0.00029167   -0.00028459   -0.00017787
     atom    8 type  4   force =     0.00010017    0.00039473   -0.00018042
     atom    9 type  4   force =    -0.00039263   -0.00011062   -0.00018286
     atom   10 type  1   force =     0.00005899    0.00013472   -0.00046101
     atom   11 type  1   force =    -0.00014473   -0.00001556   -0.00046466
     atom   12 type  1   force =     0.00008671   -0.00011882   -0.00046761
     atom   13 type  1   force =    -0.00030542   -0.00049085    0.00054223
     atom   14 type  1   force =     0.00057794   -0.00001880    0.00052404
     atom   15 type  1   force =    -0.00027223    0.00050958    0.00052663
     atom   16 type  1   force =    -0.00018428    0.00021633   -0.00018602
     atom   17 type  1   force =    -0.00009564   -0.00026875   -0.00019351
     atom   18 type  1   force =     0.00028044    0.00005152   -0.00018903
     atom   19 type  1   force =    -0.00023414    0.00059845    0.00046278
     atom   20 type  1   force =    -0.00040093   -0.00050154    0.00046266
     atom   21 type  1   force =     0.00063583   -0.00009641    0.00045675
     atom   22 type  1   force =     0.00004699    0.00021007   -0.00022663
     atom   23 type  1   force =    -0.00020527   -0.00006338   -0.00022060
     atom   24 type  1   force =     0.00015698   -0.00014535   -0.00022003
     atom   25 type  1   force =     0.00041308   -0.00046632    0.00006099
     atom   26 type  1   force =     0.00019703    0.00059105    0.00005889
     atom   27 type  1   force =    -0.00060979   -0.00012478    0.00005690
     atom   28 type  1   force =    -0.00015640   -0.00052269   -0.00017392
     atom   29 type  1   force =     0.00053083    0.00012668   -0.00017470
     atom   30 type  1   force =    -0.00037444    0.00039618   -0.00017006
     atom   31 type  1   force =    -0.00060968    0.00027617    0.00004856
     atom   32 type  1   force =     0.00006518   -0.00066481    0.00005446
     atom   33 type  1   force =     0.00054360    0.00038958    0.00004511
     atom   34 type  1   force =     0.00010895   -0.00000418   -0.00003706
     atom   35 type  1   force =    -0.00005162    0.00009710   -0.00004660
     atom   36 type  1   force =    -0.00005904   -0.00009274   -0.00004334
     atom   37 type  1   force =    -0.00052410   -0.00034102    0.00012768
     atom   38 type  1   force =     0.00055727   -0.00028265    0.00012743
     atom   39 type  1   force =    -0.00003327    0.00062407    0.00013360
     atom   40 type  1   force =    -0.00009971   -0.00042926    0.00035556
     atom   41 type  1   force =     0.00042207    0.00012751    0.00034782
     atom   42 type  1   force =    -0.00032143    0.00030125    0.00034515
     atom   43 type  1   force =     0.00013931    0.00029148    0.00032877
     atom   44 type  1   force =    -0.00032342   -0.00002605    0.00030179
     atom   45 type  1   force =     0.00018374   -0.00026719    0.00030280
     atom   46 type  1   force =    -0.00050137    0.00027942    0.00046157
     atom   47 type  1   force =     0.00000864   -0.00057389    0.00046724
     atom   48 type  1   force =     0.00049351    0.00029500    0.00045503
     atom   49 type  3   force =     0.00032065    0.00013896    0.00000191
     atom   50 type  3   force =    -0.00028072    0.00020834    0.00000190
     atom   51 type  3   force =    -0.00004025   -0.00034742    0.00000176
     atom   52 type  3   force =     0.00031706    0.00041114    0.00032727
     atom   53 type  3   force =    -0.00051470    0.00006896    0.00032712
     atom   54 type  3   force =     0.00019736   -0.00048028    0.00032708
     atom   55 type  3   force =    -0.00002626   -0.00051628   -0.00084037
     atom   56 type  3   force =     0.00046044    0.00023540   -0.00084006
     atom   57 type  3   force =    -0.00043395    0.00028078   -0.00084024
     atom   58 type  3   force =     0.00042688   -0.00001693   -0.00012622
     atom   59 type  3   force =    -0.00019894    0.00037798   -0.00012618
     atom   60 type  3   force =    -0.00022795   -0.00036127   -0.00012643
     atom   61 type  3   force =    -0.00020026   -0.00004171   -0.00032963
     atom   62 type  3   force =     0.00013610   -0.00015255   -0.00032960
     atom   63 type  3   force =     0.00006402    0.00019410   -0.00032949
     atom   64 type  3   force =     0.00015874    0.00062710    0.00038272
     atom   65 type  3   force =    -0.00062253   -0.00017602    0.00038268
     atom   66 type  3   force =     0.00046378   -0.00045109    0.00038273
     atom   67 type  3   force =     0.00015988    0.00041518   -0.00067701
     atom   68 type  3   force =    -0.00043957   -0.00006900   -0.00067707
     atom   69 type  3   force =     0.00027955   -0.00034580   -0.00067703
     atom   70 type  3   force =     0.00024532    0.00039091   -0.00007389
     atom   71 type  3   force =    -0.00046130    0.00001704   -0.00007383
     atom   72 type  3   force =     0.00021564   -0.00040818   -0.00007358
     atom   73 type  3   force =    -0.00047907   -0.00038789    0.00027932
     atom   74 type  3   force =     0.00057541   -0.00022093    0.00027918
     atom   75 type  3   force =    -0.00009617    0.00060877    0.00027902
     atom   76 type  3   force =     0.00037095    0.00033422    0.00003054
     atom   77 type  3   force =    -0.00047477    0.00015410    0.00003044
     atom   78 type  3   force =     0.00010386   -0.00048853    0.00003008
     atom   79 type  3   force =    -0.00049792   -0.00046578   -0.00042317
     atom   80 type  3   force =     0.00065237   -0.00019828   -0.00042347
     atom   81 type  3   force =    -0.00015437    0.00066455   -0.00042358
     atom   82 type  3   force =    -0.00016779   -0.00066925   -0.00051618
     atom   83 type  3   force =     0.00066339    0.00018928   -0.00051601
     atom   84 type  3   force =    -0.00049621    0.00048001   -0.00051572
     atom   85 type  3   force =     0.00026192    0.00000660    0.00000782
     atom   86 type  3   force =    -0.00013697    0.00022392    0.00000742
     atom   87 type  3   force =    -0.00012520   -0.00023034    0.00000759
     atom   88 type  3   force =     0.00035146    0.00027195   -0.00035909
     atom   89 type  3   force =    -0.00041217    0.00016793   -0.00035911
     atom   90 type  3   force =     0.00006009   -0.00044058   -0.00035914
     atom   91 type  3   force =     0.00016279   -0.00028811   -0.00048618
     atom   92 type  3   force =     0.00016853    0.00028453   -0.00048646
     atom   93 type  3   force =    -0.00033083    0.00000331   -0.00048654
     atom   94 type  3   force =    -0.00040875   -0.00018720    0.00015936
     atom   95 type  3   force =     0.00036612   -0.00026084    0.00015875
     atom   96 type  3   force =     0.00004217    0.00044754    0.00015952
     atom   97 type  3   force =    -0.00077720   -0.00027919   -0.00027941
     atom   98 type  3   force =     0.00063080   -0.00053322   -0.00027949
     atom   99 type  3   force =     0.00014683    0.00081253   -0.00027957
     atom  100 type  3   force =    -0.00037020   -0.00008704   -0.00008557
     atom  101 type  3   force =     0.00026048   -0.00027758   -0.00008510
     atom  102 type  3   force =     0.00010981    0.00036413   -0.00008549
     atom  103 type  3   force =    -0.00009509   -0.00050854    0.00066494
     atom  104 type  3   force =     0.00048800    0.00017190    0.00066490
     atom  105 type  3   force =    -0.00039277    0.00033629    0.00066416
     atom  106 type  3   force =    -0.00060739   -0.00007303   -0.00030940
     atom  107 type  3   force =     0.00036764   -0.00048964   -0.00030934
     atom  108 type  3   force =     0.00024035    0.00056270   -0.00030935
     atom  109 type  3   force =     0.00045086    0.00081799   -0.00024165
     atom  110 type  3   force =    -0.00093360   -0.00001875   -0.00024171
     atom  111 type  3   force =     0.00048310   -0.00079964   -0.00024184
     atom  112 type  3   force =    -0.00025966    0.00000986    0.00014442
     atom  113 type  3   force =     0.00012120   -0.00022978    0.00014462
     atom  114 type  3   force =     0.00013877    0.00021997    0.00014435
     atom  115 type  3   force =     0.00010894   -0.00052775    0.00089338
     atom  116 type  3   force =     0.00040240    0.00035808    0.00089390
     atom  117 type  3   force =    -0.00051147    0.00016949    0.00089350
     atom  118 type  3   force =    -0.00001265   -0.00070058   -0.00039497
     atom  119 type  3   force =     0.00061312    0.00033934   -0.00039486
     atom  120 type  3   force =    -0.00060079    0.00036168   -0.00039520

     Total force =     0.007244     Total SCF correction =     0.000164


     Computing stress (Cartesian axis) and pressure


     negative rho (up, down):  4.377E-05 0.000E+00
          total   stress  (Ry/bohr**3)                   (kbar)     P=   -1.56
  -0.00000667  -0.00000000  -0.00000000         -0.98     -0.00     -0.00
  -0.00000000  -0.00000667  -0.00000000         -0.00     -0.98     -0.00
  -0.00000000  -0.00000000  -0.00001851         -0.00     -0.00     -2.72


     Writing output data file scf.save
 
     init_run     :    107.14s CPU    110.51s WALL (       1 calls)
     electrons    :   6892.76s CPU   7086.31s WALL (       1 calls)
     forces       :     40.96s CPU     41.41s WALL (       1 calls)
     stress       :    197.10s CPU    197.74s WALL (       1 calls)

     Called by init_run:
     wfcinit      :     98.91s CPU    101.99s WALL (       1 calls)
     potinit      :      2.78s CPU      2.82s WALL (       1 calls)

     Called by electrons:
     c_bands      :   6157.53s CPU   6320.67s WALL (      28 calls)
     sum_band     :    691.64s CPU    716.82s WALL (      28 calls)
     v_of_rho     :      9.57s CPU     10.14s WALL (      29 calls)
     newd         :     18.56s CPU     23.22s WALL (      29 calls)
     PAW_pot      :     13.49s CPU     13.49s WALL (      29 calls)
     mix_rho      :      2.54s CPU      2.65s WALL (      28 calls)

     Called by c_bands:
     init_us_2    :     28.43s CPU     28.64s WALL (     472 calls)
     cegterg      :   6041.92s CPU   6204.79s WALL (     224 calls)

     Called by sum_band:
     sum_band:bec :      0.11s CPU      0.11s WALL (     224 calls)
     addusdens    :     20.75s CPU     25.32s WALL (      28 calls)

     Called by *egterg:
     h_psi        :   3597.36s CPU   3718.92s WALL (    1136 calls)
     s_psi        :    640.30s CPU    640.42s WALL (    1136 calls)
     g_psi        :     14.25s CPU     14.26s WALL (     904 calls)
     cdiaghg      :    108.14s CPU    108.13s WALL (    1128 calls)

     Called by h_psi:
     h_psi:pot    :   3578.86s CPU   3700.15s WALL (    1136 calls)
     h_psi:calbec :    651.83s CPU    652.96s WALL (    1136 calls)
     vloc_psi     :   2290.67s CPU   2410.67s WALL (    1136 calls)
     add_vuspsi   :    636.37s CPU    636.51s WALL (    1136 calls)

     General routines
     calbec       :    916.64s CPU    918.07s WALL (    1400 calls)
     fft          :     12.99s CPU     13.95s WALL (     401 calls)
     fftw         :   2542.10s CPU   2681.92s WALL (  267760 calls)
 
     Parallel routines
     fft_scatter  :   1162.96s CPU   1303.36s WALL (  268161 calls)
 
     PWSCF        :     2h 0m CPU        2h 4m WALL

 
   This run was terminated on:  22: 4: 8  22Dec2017            

=------------------------------------------------------------------------------=
   JOB DONE.
=------------------------------------------------------------------------------=
