
     Program PWSCF v.6.1 (svn rev. 13369) starts on 14Dec2017 at 17:40:49 

     This program is part of the open-source Quantum ESPRESSO suite
     for quantum simulation of materials; please cite
         "P. Giannozzi et al., J. Phys.:Condens. Matter 21 395502 (2009);
          URL http://www.quantum-espresso.org", 
     in publications or presentations arising from this work. More details at
     http://www.quantum-espresso.org/quote

     Parallel version (MPI), running on     8 processors
     R & G space division:  proc/nbgrp/npool/nimage =       8
     Waiting for input...
     Reading input from standard input

     Current dimensions of program PWSCF are:
     Max number of different atomic species (ntypx) = 10
     Max number of k-points (npk) =  40000
     Max angular momentum in pseudopotentials (lmaxx) =  3
               file C.pbe-n-kjpaw_psl.0.1.UPF: wavefunction(s)  2P renormalized
               file N.pbe-n-kjpaw_psl.0.1.UPF: wavefunction(s)  2P renormalized
               file H.pbe-kjpaw_psl.0.1.UPF: wavefunction(s)  1S renormalized
               file O.pbe-n-kjpaw_psl.0.1.UPF: wavefunction(s)  2P renormalized

     -------------------------------------
     Parameters for Dispersion Correction:
     -------------------------------------
       atom      VdW radius       C_6     

        C          2.744         60.710
        N          2.640         42.670
        H          1.892          4.857
        O          2.536         24.284

     Subspace diagonalization in iterative solution of the eigenvalue problem:
     a serial algorithm will be used

 
     Parallelization info
     --------------------
     sticks:   dense  smooth     PW     G-vecs:    dense   smooth      PW
     Min         746     746    201                43583    43583    6125
     Max         747     747    202                43585    43585    6127
     Sum        5969    5969   1613               348671   348671   49005
 


     bravais-lattice index     =            0
     lattice parameter (alat)  =      14.3279  a.u.
     unit-cell volume          =    2580.9689 (a.u.)^3
     number of atoms/cell      =           40
     number of atomic types    =            4
     number of electrons       =       132.00
     number of Kohn-Sham states=           79
     kinetic-energy cutoff     =     100.0000  Ry
     charge density cutoff     =     400.0000  Ry
     convergence threshold     =      1.0E-08
     mixing beta               =       0.5000
     number of iterations used =            8  plain     mixing
     Exchange-correlation      =  SLA  PW   PBX  PBC ( 1  4  3  4 0 0)

     celldm(1)=  14.327904  celldm(2)=   0.000000  celldm(3)=   0.000000
     celldm(4)=   0.000000  celldm(5)=   0.000000  celldm(6)=   0.000000

     crystal axes: (cart. coord. in units of alat)
               a(1) = (   1.000000   0.000000   0.000000 )  
               a(2) = (  -0.482562   0.913327   0.000000 )  
               a(3) = (  -0.064562  -0.480115   0.960746 )  

     reciprocal axes: (cart. coord. in units 2 pi/alat)
               b(1) = (  1.000000  0.528356  0.331236 )  
               b(2) = (  0.000000  1.094898  0.547155 )  
               b(3) = (  0.000000  0.000000  1.040858 )  


     PseudoPot. # 1 for  C read from file:
     /scratch/ahofstet/pseudo/C.pbe-n-kjpaw_psl.0.1.UPF
     MD5 check sum: 430fe95172b1e11ef3f8ed03bac87931
     Pseudo is Projector augmented-wave + core cor, Zval =  4.0
     Generated using "atomic" code by A. Dal Corso  v.5.0.99 svn rev. 10869
     Shape of augmentation charge: BESSEL
     Using radial grid of 1073 points,  4 beta functions with: 
                l(1) =   0
                l(2) =   0
                l(3) =   1
                l(4) =   1
     Q(r) pseudized with 0 coefficients 


     PseudoPot. # 2 for  N read from file:
     /scratch/ahofstet/pseudo/N.pbe-n-kjpaw_psl.0.1.UPF
     MD5 check sum: f73187c8b701007e77325f868c9291d7
     Pseudo is Projector augmented-wave + core cor, Zval =  5.0
     Generated using "atomic" code by A. Dal Corso  v.5.0.99 svn rev. 10869
     Shape of augmentation charge: PSQ
     Using radial grid of 1085 points,  4 beta functions with: 
                l(1) =   0
                l(2) =   0
                l(3) =   1
                l(4) =   1
     Q(r) pseudized with 0 coefficients 


     PseudoPot. # 3 for  H read from file:
     /scratch/ahofstet/pseudo/H.pbe-kjpaw_psl.0.1.UPF
     MD5 check sum: 94e484f906d9e9773b2f6e52662335b2
     Pseudo is Projector augmented-wave, Zval =  1.0
     Generated using "atomic" code by A. Dal Corso  v.5.0.99 svn rev. 10869
     Shape of augmentation charge: PSQ
     Using radial grid of  929 points,  2 beta functions with: 
                l(1) =   0
                l(2) =   0
     Q(r) pseudized with 0 coefficients 


     PseudoPot. # 4 for  O read from file:
     /scratch/ahofstet/pseudo/O.pbe-n-kjpaw_psl.0.1.UPF
     MD5 check sum: 3f94a2996a3169367d6eb21d9b593f20
     Pseudo is Projector augmented-wave + core cor, Zval =  6.0
     Generated using "atomic" code by A. Dal Corso  v.5.0.99 svn rev. 10869
     Shape of augmentation charge: BESSEL
     Using radial grid of 1095 points,  4 beta functions with: 
                l(1) =   0
                l(2) =   0
                l(3) =   1
                l(4) =   1
     Q(r) pseudized with 0 coefficients 


     atomic species   valence    mass     pseudopotential
        C              4.00    12.01070      C( 1.00)
        N              5.00    14.00670      N( 1.00)
        H              1.00     1.00794      H( 1.00)
        O              6.00    15.99940      O( 1.00)

      2 Sym. Ops., with inversion, found



   Cartesian axes

     site n.     atom                  positions (alat units)
         1           O   tau(   1) = (  -0.2033998   0.3376745   0.2586813  )
         2           O   tau(   2) = (   0.6562762   0.0955383   0.7020642  )
         3           N   tau(   3) = (   0.0300807   0.4561169   0.1264656  )
         4           N   tau(   4) = (   0.4227956  -0.0229041   0.8342799  )
         5           N   tau(   5) = (   0.0083634   0.5390826   0.2886902  )
         6           N   tau(   6) = (   0.4445130  -0.1058698   0.6720553  )
         7           N   tau(   7) = (  -0.2069347   0.5015821   0.5182642  )
         8           N   tau(   8) = (   0.6598111  -0.0683693   0.4424814  )
         9           N   tau(   9) = (   0.3853412   0.5271409   0.6423397  )
        10           N   tau(  10) = (   0.0675352  -0.0939282   0.3184058  )
        11           N   tau(  11) = (   0.0166911  -0.1364338   0.7298696  )
        12           N   tau(  12) = (   0.4361853   0.5696466   0.2308759  )
        13           C   tau(  13) = (  -0.0948198   0.3381961   0.1116607  )
        14           C   tau(  14) = (   0.5476962   0.0950167   0.8490848  )
        15           C   tau(  15) = (  -0.1326607   0.4665786   0.3620967  )
        16           C   tau(  16) = (   0.5855371  -0.0333658   0.5986488  )
        17           C   tau(  17) = (  -0.1018842  -0.2632701   0.7686887  )
        18           C   tau(  18) = (   0.5547605   0.6964829   0.1920568  )
        19           C   tau(  19) = (   0.8058821  -0.2678728   0.9341911  )
        20           C   tau(  20) = (  -0.3530058   0.7010856   0.0265544  )
        21           C   tau(  21) = (   0.6837073  -0.4034361   0.9609480  )
        22           C   tau(  22) = (  -0.2308309   0.8366489  -0.0002025  )
        23           C   tau(  23) = (   0.1710427   0.3848993   0.8302651  )
        24           C   tau(  24) = (   0.2818337   0.0483135   0.1304804  )
        25           C   tau(  25) = (   0.2655561   0.4008260   0.6736508  )
        26           C   tau(  26) = (   0.1873203   0.0323868   0.2870947  )
        27           H   tau(  27) = (  -0.1559007   0.6113068   0.5834539  )
        28           H   tau(  28) = (   0.6087771  -0.1780941   0.3772917  )
        29           H   tau(  29) = (  -0.3391503   0.4777782   0.5323607  )
        30           H   tau(  30) = (   0.7920267  -0.0445654   0.4283848  )
        31           H   tau(  31) = (   0.0645574  -0.1301153   0.6040045  )
        32           H   tau(  32) = (   0.3883190   0.5633281   0.3567410  )
        33           H   tau(  33) = (   0.0611042  -0.0543783   0.8264197  )
        34           H   tau(  34) = (   0.3917721   0.4875910   0.1343259  )
        35           H   tau(  35) = (   0.6788182   0.0684954   0.1258190  )
        36           H   tau(  36) = (  -0.2259418   0.3647174   0.8349265  )
        37           H   tau(  37) = (   0.0787296   0.2771291   0.8514526  )
        38           H   tau(  38) = (   0.3741468   0.1560837   0.1092930  )
        39           H   tau(  39) = (   0.2453462   0.3068211   0.5666427  )
        40           H   tau(  40) = (   0.2075302   0.1263917   0.3941028  )

     number of k points=    14
                       cart. coord. in units 2pi/alat
        k(    1) = (   0.0000000   0.0000000   0.0000000), wk =   0.0740741
        k(    2) = (   0.0000000   0.0000000   0.3469528), wk =   0.1481481
        k(    3) = (   0.0000000   0.3649659   0.1823849), wk =   0.1481481
        k(    4) = (   0.0000000   0.3649659   0.5293376), wk =   0.1481481
        k(    5) = (   0.0000000   0.3649659  -0.1645679), wk =   0.1481481
        k(    6) = (   0.3333333   0.1761187   0.1104118), wk =   0.1481481
        k(    7) = (   0.3333333   0.1761187   0.4573646), wk =   0.1481481
        k(    8) = (   0.3333333   0.1761187  -0.2365409), wk =   0.1481481
        k(    9) = (   0.3333333   0.5410845   0.2927967), wk =   0.1481481
        k(   10) = (   0.3333333   0.5410845   0.6397495), wk =   0.1481481
        k(   11) = (   0.3333333   0.5410845  -0.0541561), wk =   0.1481481
        k(   12) = (   0.3333333  -0.1888472  -0.0719730), wk =   0.1481481
        k(   13) = (   0.3333333  -0.1888472   0.2749798), wk =   0.1481481
        k(   14) = (   0.3333333  -0.1888472  -0.4189258), wk =   0.1481481

     Dense  grid:   348671 G-vectors     FFT dimensions: (  96,  96, 100)

     Estimated max dynamical RAM per process >     201.68MB

     Estimated total allocated dynamical RAM >    1613.41MB

     Check: negative/imaginary core charge=   -0.000002    0.000000

     Initial potential from superposition of free atoms

     starting charge  131.99921, renormalised to  132.00000
     Starting wfc are  118 randomized atomic wfcs
     Checking if some PAW data can be deallocated... 

     total cpu time spent up to now is       15.0 secs

     per-process dynamical memory:   201.0 Mb

     Self-consistent Calculation

     iteration #  1     ecut=   100.00 Ry     beta=0.50
     Davidson diagonalization with overlap
     ethr =  1.00E-02,  avg # of iterations =  3.0

     total cpu time spent up to now is       47.0 secs

     total energy              =    -639.53699597 Ry
     Harris-Foulkes estimate   =    -641.75407915 Ry
     estimated scf accuracy    <       4.19983110 Ry

     iteration #  2     ecut=   100.00 Ry     beta=0.50
     Davidson diagonalization with overlap
     ethr =  3.18E-03,  avg # of iterations =  3.0

     total cpu time spent up to now is       66.7 secs

     total energy              =    -640.01112522 Ry
     Harris-Foulkes estimate   =    -640.20929565 Ry
     estimated scf accuracy    <       0.44379838 Ry

     iteration #  3     ecut=   100.00 Ry     beta=0.50
     Davidson diagonalization with overlap
     ethr =  3.36E-04,  avg # of iterations =  6.6

     total cpu time spent up to now is      103.7 secs

     total energy              =    -640.26283755 Ry
     Harris-Foulkes estimate   =    -640.36985874 Ry
     estimated scf accuracy    <       0.26285641 Ry

     iteration #  4     ecut=   100.00 Ry     beta=0.50
     Davidson diagonalization with overlap
     ethr =  1.99E-04,  avg # of iterations =  1.9

     total cpu time spent up to now is      121.0 secs

     total energy              =    -640.26397913 Ry
     Harris-Foulkes estimate   =    -640.29080195 Ry
     estimated scf accuracy    <       0.05419513 Ry

     iteration #  5     ecut=   100.00 Ry     beta=0.50
     Davidson diagonalization with overlap
     ethr =  4.11E-05,  avg # of iterations =  6.6

     total cpu time spent up to now is      157.1 secs

     total energy              =    -640.29942120 Ry
     Harris-Foulkes estimate   =    -640.31693784 Ry
     estimated scf accuracy    <       0.05217710 Ry

     iteration #  6     ecut=   100.00 Ry     beta=0.50
     Davidson diagonalization with overlap
     ethr =  3.95E-05,  avg # of iterations =  1.0

     total cpu time spent up to now is      173.9 secs

     total energy              =    -640.29336838 Ry
     Harris-Foulkes estimate   =    -640.30185657 Ry
     estimated scf accuracy    <       0.01817783 Ry

     iteration #  7     ecut=   100.00 Ry     beta=0.50
     Davidson diagonalization with overlap
     ethr =  1.38E-05,  avg # of iterations =  5.5

     total cpu time spent up to now is      203.7 secs

     total energy              =    -640.30129613 Ry
     Harris-Foulkes estimate   =    -640.30182024 Ry
     estimated scf accuracy    <       0.00195911 Ry

     iteration #  8     ecut=   100.00 Ry     beta=0.50
     Davidson diagonalization with overlap
     ethr =  1.48E-06,  avg # of iterations =  2.0

     total cpu time spent up to now is      220.7 secs

     total energy              =    -640.30087432 Ry
     Harris-Foulkes estimate   =    -640.30140020 Ry
     estimated scf accuracy    <       0.00095345 Ry

     iteration #  9     ecut=   100.00 Ry     beta=0.50
     Davidson diagonalization with overlap
     ethr =  7.22E-07,  avg # of iterations =  4.1

     total cpu time spent up to now is      248.6 secs

     total energy              =    -640.30132846 Ry
     Harris-Foulkes estimate   =    -640.30141422 Ry
     estimated scf accuracy    <       0.00030183 Ry

     iteration # 10     ecut=   100.00 Ry     beta=0.50
     Davidson diagonalization with overlap
     ethr =  2.29E-07,  avg # of iterations =  1.0

     total cpu time spent up to now is      265.1 secs

     total energy              =    -640.30125265 Ry
     Harris-Foulkes estimate   =    -640.30133730 Ry
     estimated scf accuracy    <       0.00014270 Ry

     iteration # 11     ecut=   100.00 Ry     beta=0.50
     Davidson diagonalization with overlap
     ethr =  1.08E-07,  avg # of iterations =  4.0

     total cpu time spent up to now is      293.6 secs

     total energy              =    -640.30132910 Ry
     Harris-Foulkes estimate   =    -640.30134359 Ry
     estimated scf accuracy    <       0.00005303 Ry

     iteration # 12     ecut=   100.00 Ry     beta=0.50
     Davidson diagonalization with overlap
     ethr =  4.02E-08,  avg # of iterations =  1.0

     total cpu time spent up to now is      310.0 secs

     total energy              =    -640.30131604 Ry
     Harris-Foulkes estimate   =    -640.30133033 Ry
     estimated scf accuracy    <       0.00002679 Ry

     iteration # 13     ecut=   100.00 Ry     beta=0.50
     Davidson diagonalization with overlap
     ethr =  2.03E-08,  avg # of iterations =  4.0

     total cpu time spent up to now is      337.5 secs

     total energy              =    -640.30132808 Ry
     Harris-Foulkes estimate   =    -640.30132926 Ry
     estimated scf accuracy    <       0.00000437 Ry

     iteration # 14     ecut=   100.00 Ry     beta=0.50
     Davidson diagonalization with overlap
     ethr =  3.31E-09,  avg # of iterations =  1.0

     total cpu time spent up to now is      353.9 secs

     total energy              =    -640.30132697 Ry
     Harris-Foulkes estimate   =    -640.30132820 Ry
     estimated scf accuracy    <       0.00000220 Ry

     iteration # 15     ecut=   100.00 Ry     beta=0.50
     Davidson diagonalization with overlap
     ethr =  1.67E-09,  avg # of iterations =  4.0

     total cpu time spent up to now is      380.1 secs

     total energy              =    -640.30132798 Ry
     Harris-Foulkes estimate   =    -640.30132814 Ry
     estimated scf accuracy    <       0.00000046 Ry

     iteration # 16     ecut=   100.00 Ry     beta=0.50
     Davidson diagonalization with overlap
     ethr =  3.49E-10,  avg # of iterations =  1.0

     total cpu time spent up to now is      396.5 secs

     total energy              =    -640.30132791 Ry
     Harris-Foulkes estimate   =    -640.30132800 Ry
     estimated scf accuracy    <       0.00000018 Ry

     iteration # 17     ecut=   100.00 Ry     beta=0.50
     Davidson diagonalization with overlap
     ethr =  1.39E-10,  avg # of iterations =  4.0

     total cpu time spent up to now is      423.5 secs

     total energy              =    -640.30132800 Ry
     Harris-Foulkes estimate   =    -640.30132802 Ry
     estimated scf accuracy    <       0.00000004 Ry

     iteration # 18     ecut=   100.00 Ry     beta=0.50
     Davidson diagonalization with overlap
     ethr =  3.12E-11,  avg # of iterations =  1.4

     total cpu time spent up to now is      439.7 secs

     total energy              =    -640.30132800 Ry
     Harris-Foulkes estimate   =    -640.30132801 Ry
     estimated scf accuracy    <       0.00000002 Ry

     iteration # 19     ecut=   100.00 Ry     beta=0.50
     Davidson diagonalization with overlap
     ethr =  1.38E-11,  avg # of iterations =  4.0

     total cpu time spent up to now is      465.7 secs

     End of self-consistent calculation

          k = 0.0000 0.0000 0.0000 ( 43585 PWs)   bands (ev):

   -21.9441 -21.9217 -17.4146 -17.3826 -17.1975 -17.1205 -16.3225 -16.2186
   -15.2211 -15.1350 -13.6503 -13.6254 -12.5600 -12.5219 -11.4696 -11.4386
    -9.7401  -9.5380  -9.2409  -9.0097  -8.1957  -8.1360  -7.8178  -7.7875
    -6.6428  -6.4036  -6.1945  -6.0348  -5.9315  -5.9226  -5.6058  -5.5571
    -5.3806  -5.1014  -5.0203  -4.7580  -4.3684  -4.1830  -4.1214  -3.9336
    -3.6945  -3.6166  -3.2956  -3.1854  -2.7235  -2.5395  -2.2308  -2.0208
    -1.7769  -1.5830  -1.4027  -1.2916  -0.8987  -0.8746  -0.6200  -0.5897
    -0.3310  -0.0124   0.1154   0.2842   0.5017   0.7769   1.1014   1.3414
     2.0338   2.1873   4.6781   5.0656   5.7224   5.9730   6.6468   6.8889
     6.9557   7.1705   7.4291   8.3238   8.5662   8.7769   9.1555

          k = 0.0000 0.0000 0.3470 ( 43598 PWs)   bands (ev):

   -21.9390 -21.9268 -17.4010 -17.3914 -17.2133 -17.1325 -16.2809 -16.2194
   -15.2134 -15.1340 -13.7044 -13.6415 -12.5858 -12.4704 -11.4732 -11.4413
    -9.6472  -9.5933  -9.0763  -9.0090  -8.2638  -8.1328  -7.9190  -7.8688
    -6.6662  -6.4512  -6.2100  -6.0327  -5.9305  -5.8509  -5.7111  -5.3938
    -5.3123  -5.0534  -5.0135  -4.8122  -4.3208  -4.2149  -4.1375  -3.9499
    -3.7535  -3.6526  -3.3148  -3.1502  -2.6024  -2.4967  -2.2397  -2.0292
    -1.8193  -1.5866  -1.4491  -1.3477  -0.9868  -0.8345  -0.6524  -0.5422
    -0.3364   0.0041   0.1783   0.2593   0.3974   0.8214   1.2588   1.4408
     1.9948   2.1155   4.6098   5.0178   5.7946   5.9255   6.7510   6.9316
     7.1621   7.2018   7.3334   8.1005   8.4329   8.6888   9.0789

          k = 0.0000 0.3650 0.1824 ( 43604 PWs)   bands (ev):

   -21.9409 -21.9247 -17.3998 -17.3931 -17.2338 -17.1114 -16.2812 -16.2154
   -15.2243 -15.1317 -13.7212 -13.6278 -12.5609 -12.4967 -11.4408 -11.4324
    -9.6675  -9.5645  -9.0694  -9.0151  -8.2657  -8.2330  -7.9505  -7.8393
    -6.7049  -6.4613  -6.1787  -6.0027  -5.9562  -5.9033  -5.5727  -5.3855
    -5.3338  -5.0226  -4.9814  -4.7976  -4.3051  -4.2546  -4.0774  -3.9760
    -3.7121  -3.6279  -3.5502  -3.0353  -2.7132  -2.4146  -2.2869  -2.1264
    -1.8882  -1.4658  -1.3366  -1.2854  -0.9505  -0.9054  -0.6929  -0.5301
    -0.3344   0.0133   0.1839   0.3347   0.4265   0.7208   1.2287   1.4678
     1.9498   2.1395   4.6377   4.9090   5.7885   5.9216   6.8059   6.8810
     7.1527   7.2043   7.4147   8.3041   8.4980   8.8855   8.8988

          k = 0.0000 0.3650 0.5293 ( 43596 PWs)   bands (ev):

   -21.9376 -21.9280 -17.3989 -17.3925 -17.2225 -17.1259 -16.2800 -16.2163
   -15.2211 -15.1348 -13.7035 -13.6463 -12.5549 -12.4982 -11.4510 -11.4217
    -9.6645  -9.5698  -9.0512  -9.0336  -8.2811  -8.1890  -7.9578  -7.8688
    -6.6383  -6.5333  -6.2133  -6.0756  -5.9240  -5.8418  -5.5928  -5.3807
    -5.2898  -5.0379  -4.9825  -4.7680  -4.3234  -4.2340  -4.0252  -3.9742
    -3.8035  -3.6062  -3.5718  -3.0193  -2.6236  -2.4772  -2.2767  -2.0988
    -1.9000  -1.4895  -1.3522  -1.3105  -1.0050  -0.8662  -0.6569  -0.5394
    -0.3662   0.0328   0.1901   0.3191   0.4055   0.7536   1.1899   1.5019
     1.9283   2.1806   4.7104   4.8419   5.8518   5.8917   6.7432   6.9995
     7.0715   7.2601   7.5589   8.1553   8.3592   8.5573   9.0981

          k = 0.0000 0.3650-0.1646 ( 43551 PWs)   bands (ev):

   -21.9411 -21.9246 -17.4109 -17.3859 -17.1827 -17.1380 -16.3253 -16.2128
   -15.2235 -15.1402 -13.6709 -13.6032 -12.5640 -12.5208 -11.4410 -11.4208
    -9.7071  -9.5807  -9.1741  -9.0608  -8.3044  -8.1022  -7.8432  -7.8111
    -6.6553  -6.3761  -6.2421  -6.1663  -5.9466  -5.8119  -5.6296  -5.4256
    -5.2830  -5.0843  -5.0323  -4.7743  -4.2964  -4.2128  -4.0387  -3.9234
    -3.7601  -3.6021  -3.5736  -3.0109  -2.6615  -2.5203  -2.2722  -2.1344
    -1.8528  -1.5168  -1.3176  -1.2466  -0.9586  -0.8956  -0.6510  -0.5359
    -0.3743  -0.0168   0.1422   0.3597   0.4990   0.7143   1.0119   1.4314
     2.0247   2.2073   4.7581   4.9516   5.7754   5.9646   6.6349   6.7959
     7.1757   7.2739   7.4466   8.0807   8.6045   8.7590   9.1226

          k = 0.3333 0.1761 0.1104 ( 43598 PWs)   bands (ev):

   -21.9409 -21.9247 -17.4112 -17.3791 -17.2107 -17.1206 -16.3068 -16.2270
   -15.2258 -15.1349 -13.6825 -13.5838 -12.5882 -12.5138 -11.4590 -11.4179
    -9.6542  -9.6005  -9.1577  -9.0838  -8.2468  -8.1425  -7.8872  -7.7734
    -6.6575  -6.3694  -6.1645  -6.1429  -6.0289  -5.8841  -5.6374  -5.4004
    -5.3593  -5.0619  -5.0188  -4.7996  -4.2919  -4.2317  -4.0392  -3.9231
    -3.7516  -3.5688  -3.2630  -3.1727  -2.6807  -2.5278  -2.2616  -2.0955
    -1.8111  -1.5928  -1.4460  -1.3772  -0.8571  -0.7568  -0.6924  -0.6502
    -0.2982  -0.0170   0.1286   0.2683   0.5273   0.7082   1.2670   1.3342
     2.0080   2.1670   4.5989   5.0443   5.7752   5.8898   6.7652   6.8702
     7.1541   7.2978   7.4012   7.8397   8.8814   8.9906   9.0843

          k = 0.3333 0.1761 0.4574 ( 43609 PWs)   bands (ev):

   -21.9375 -21.9281 -17.4094 -17.3829 -17.2174 -17.1282 -16.2933 -16.2071
   -15.2195 -15.1344 -13.6967 -13.6507 -12.5475 -12.5088 -11.4574 -11.4138
    -9.6742  -9.5597  -9.0756  -8.9972  -8.2945  -8.2067  -7.9727  -7.8348
    -6.6382  -6.5123  -6.2538  -6.0304  -5.9580  -5.8188  -5.6049  -5.4338
    -5.2491  -5.0685  -5.0274  -4.7569  -4.2896  -4.2088  -4.1207  -3.9614
    -3.7658  -3.5964  -3.3122  -3.1577  -2.6843  -2.4008  -2.2861  -2.0924
    -1.8081  -1.6352  -1.4307  -1.3724  -0.8841  -0.7580  -0.6629  -0.6539
    -0.3463   0.0010   0.1605   0.3334   0.4330   0.7237   1.2575   1.4282
     1.9678   2.1218   4.6128   5.0019   5.8042   5.9095   6.7350   6.9611
     7.2710   7.3304   7.5332   7.8623   8.2479   8.5771   9.1299

          k = 0.3333 0.1761-0.2365 ( 43588 PWs)   bands (ev):

   -21.9409 -21.9247 -17.4124 -17.3897 -17.1924 -17.1381 -16.3137 -16.1927
   -15.2219 -15.1330 -13.7062 -13.6468 -12.5445 -12.5013 -11.4364 -11.4196
    -9.7088  -9.5556  -9.0713  -9.0058  -8.3182  -8.1505  -7.9298  -7.9112
    -6.6538  -6.5320  -6.2038  -6.0607  -5.9367  -5.7823  -5.5302  -5.5159
    -5.2599  -5.0841  -4.9742  -4.7984  -4.3172  -4.2303  -4.0165  -3.9430
    -3.7350  -3.6879  -3.3390  -3.1637  -2.6178  -2.4618  -2.3062  -2.1324
    -1.7815  -1.6442  -1.4040  -1.3099  -0.8387  -0.7826  -0.6933  -0.6270
    -0.3609   0.0044   0.1778   0.3170   0.4459   0.7414   1.1331   1.3658
     1.9946   2.1717   4.7084   5.0045   5.8517   5.9005   6.6181   7.0407
     7.1556   7.2967   7.3840   8.0195   8.4618   8.6005   9.1378

          k = 0.3333 0.5411 0.2928 ( 43606 PWs)   bands (ev):

   -21.9407 -21.9248 -17.4090 -17.3834 -17.2350 -17.1110 -16.2903 -16.2078
   -15.2257 -15.1283 -13.6908 -13.6599 -12.5765 -12.4796 -11.4526 -11.4187
    -9.6884  -9.5481  -9.0706  -8.9940  -8.3066  -8.1844  -7.9685  -7.8592
    -6.6079  -6.5318  -6.2449  -6.0091  -5.9200  -5.8808  -5.5750  -5.3789
    -5.3487  -5.0457  -4.9784  -4.7589  -4.3158  -4.2315  -4.0432  -3.9728
    -3.8263  -3.5857  -3.5312  -3.0478  -2.6344  -2.4814  -2.2595  -2.1156
    -1.8820  -1.5219  -1.3990  -1.2912  -0.9057  -0.8158  -0.7315  -0.5773
    -0.3402   0.0012   0.1726   0.3198   0.4416   0.7506   1.2594   1.4362
     1.9032   2.1932   4.6883   4.8756   5.8694   5.8871   6.7533   6.9962
     7.0840   7.4164   7.5262   7.8961   8.4995   8.8727   9.0877

          k = 0.3333 0.5411 0.6397 ( 43598 PWs)   bands (ev):

   -21.9408 -21.9247 -17.4145 -17.3881 -17.1971 -17.1340 -16.3145 -16.1910
   -15.2204 -15.1343 -13.7237 -13.6289 -12.5406 -12.5062 -11.4451 -11.4101
    -9.6749  -9.5953  -9.0809  -8.9940  -8.2721  -8.2044  -7.9312  -7.8986
    -6.7141  -6.4532  -6.1316  -6.0581  -5.9939  -5.8368  -5.5887  -5.4253
    -5.2209  -5.0562  -4.9929  -4.7844  -4.3408  -4.2151  -4.0283  -3.9414
    -3.7773  -3.6634  -3.5895  -3.0322  -2.6816  -2.4096  -2.2658  -2.1339
    -1.8472  -1.5666  -1.3137  -1.2678  -0.9448  -0.8392  -0.7028  -0.5665
    -0.3640   0.0267   0.1846   0.3461   0.4377   0.7149   1.0745   1.4607
     1.9850   2.1562   4.7776   4.9164   5.8116   5.9846   6.6684   6.8548
     7.2436   7.3522   7.5730   8.1393   8.2342   8.8660   8.9146

          k = 0.3333 0.5411-0.0542 ( 43583 PWs)   bands (ev):

   -21.9375 -21.9281 -17.4110 -17.3785 -17.1975 -17.1370 -16.3075 -16.2251
   -15.2198 -15.1406 -13.6708 -13.5967 -12.5670 -12.5317 -11.4598 -11.4145
    -9.6713  -9.5762  -9.1485  -9.1024  -8.2465  -8.1485  -7.8931  -7.7649
    -6.5844  -6.4734  -6.2418  -6.1476  -5.9981  -5.8045  -5.5510  -5.4559
    -5.3046  -5.1008  -5.0188  -4.7639  -4.3134  -4.2161  -4.0932  -3.9255
    -3.6742  -3.6319  -3.5366  -3.0101  -2.6575  -2.5254  -2.2781  -2.0572
    -1.9091  -1.5328  -1.3669  -1.2710  -0.9212  -0.8354  -0.7406  -0.5905
    -0.3189  -0.0326   0.1345   0.3272   0.5100   0.7112   1.1401   1.4903
     1.9832   2.1961   4.6838   4.9293   5.7943   5.9304   6.7201   6.8579
     7.1820   7.3402   7.5688   8.0742   8.3944   8.7229   8.9757

          k = 0.3333-0.1888-0.0720 ( 43569 PWs)   bands (ev):

   -21.9437 -21.9218 -17.4157 -17.3882 -17.2103 -17.1184 -16.3136 -16.1937
   -15.2191 -15.1271 -13.7084 -13.6471 -12.5346 -12.5139 -11.4575 -11.4369
    -9.6910  -9.5804  -9.1177  -8.9656  -8.2627  -8.1200  -7.9202  -7.8810
    -6.6753  -6.4238  -6.1853  -6.0840  -5.9199  -5.8342  -5.6291  -5.4821
    -5.2827  -5.0236  -4.9846  -4.7820  -4.3749  -4.2098  -4.1237  -3.9531
    -3.7630  -3.6802  -3.5580  -3.0604  -2.6235  -2.4949  -2.2609  -2.0280
    -1.8416  -1.5462  -1.3109  -1.2535  -0.9675  -0.8072  -0.7618  -0.5853
    -0.3121  -0.0006   0.1805   0.2456   0.4544   0.8136   1.1271   1.4364
     1.9753   2.1685   4.7312   4.9843   5.8375   5.9878   6.6565   6.8643
     7.1499   7.3403   7.4428   8.1138   8.5796   8.7257   8.9517

          k = 0.3333-0.1888 0.2750 ( 43549 PWs)   bands (ev):

   -21.9388 -21.9268 -17.4137 -17.3754 -17.1960 -17.1391 -16.3033 -16.2311
   -15.2113 -15.1414 -13.6527 -13.6149 -12.6019 -12.4911 -11.4856 -11.4348
    -9.6807  -9.5766  -9.1845  -9.0647  -8.1744  -8.1450  -7.8128  -7.7981
    -6.6633  -6.3396  -6.1949  -6.1379  -6.0021  -5.8415  -5.6479  -5.4724
    -5.3192  -5.0938  -5.0204  -4.8275  -4.3513  -4.2049  -4.0839  -3.9373
    -3.7314  -3.6008  -3.5325  -3.0135  -2.7056  -2.4969  -2.2022  -2.0322
    -1.8862  -1.5235  -1.3888  -1.2707  -0.9803  -0.7829  -0.7272  -0.6022
    -0.3403  -0.0210   0.1256   0.2764   0.5039   0.7728   1.1758   1.4809
     1.9417   2.2292   4.7148   4.9125   5.7789   5.9787   6.7108   6.9035
     7.1099   7.4350   7.5150   8.0209   8.3853   8.7833   9.1092

          k = 0.3333-0.1888-0.4189 ( 43573 PWs)   bands (ev):

   -21.9386 -21.9270 -17.4107 -17.3819 -17.2184 -17.1282 -16.2923 -16.2086
   -15.2135 -15.1317 -13.6899 -13.6579 -12.5907 -12.4648 -11.4701 -11.4410
    -9.6911  -9.5475  -9.1144  -8.9606  -8.2686  -8.1311  -7.9417  -7.8597
    -6.6494  -6.5011  -6.1870  -6.0293  -5.9280  -5.8530  -5.6226  -5.4396
    -5.2607  -5.0615  -5.0322  -4.8016  -4.3542  -4.2202  -4.1637  -3.9237
    -3.7208  -3.6612  -3.5732  -3.0262  -2.6191  -2.4538  -2.2526  -2.0334
    -1.9005  -1.5116  -1.3885  -1.2687  -0.9840  -0.7872  -0.7680  -0.5823
    -0.3329  -0.0000   0.1772   0.2542   0.4203   0.8220   1.2149   1.5313
     1.9564   2.1415   4.6909   4.9110   5.8453   5.9489   6.7701   6.8798
     7.1175   7.3979   7.5628   8.0228   8.4204   8.6584   9.0494

     highest occupied, lowest unoccupied level (ev):     2.2292    4.5989

!    total energy              =    -640.30132800 Ry
     Harris-Foulkes estimate   =    -640.30132801 Ry
     estimated scf accuracy    <          1.8E-09 Ry

     total all-electron energy =     -2479.680483 Ry

     The total energy is the sum of the following terms:

     one-electron contribution =    -334.32635096 Ry
     hartree contribution      =     219.50912164 Ry
     xc contribution           =    -137.06015404 Ry
     ewald contribution        =    -193.27817059 Ry
     Dispersion Correction     =      -0.20016022 Ry
     one-center paw contrib.   =    -194.94561384 Ry

     convergence has been achieved in  19 iterations

     Forces acting on atoms (cartesian axes, Ry/au):

     atom    1 type  4   force =     0.00032834   -0.00027010   -0.00109837
     atom    2 type  4   force =    -0.00032834    0.00027010    0.00109837
     atom    3 type  2   force =     0.00363602   -0.00166131    0.00007988
     atom    4 type  2   force =    -0.00363602    0.00166131   -0.00007988
     atom    5 type  2   force =    -0.00464334   -0.00052338    0.00020621
     atom    6 type  2   force =     0.00464334    0.00052338   -0.00020621
     atom    7 type  2   force =     0.00108210   -0.00065933    0.00329095
     atom    8 type  2   force =    -0.00108210    0.00065933   -0.00329095
     atom    9 type  2   force =    -0.00425488   -0.00132664   -0.00084766
     atom   10 type  2   force =     0.00425488    0.00132664    0.00084766
     atom   11 type  2   force =     0.00085490   -0.00145180   -0.00012065
     atom   12 type  2   force =    -0.00085490    0.00145180    0.00012065
     atom   13 type  1   force =    -0.00139394   -0.00064989   -0.00064926
     atom   14 type  1   force =     0.00139394    0.00064989    0.00064926
     atom   15 type  1   force =     0.00116157    0.00191022   -0.00410250
     atom   16 type  1   force =    -0.00116157   -0.00191022    0.00410250
     atom   17 type  1   force =     0.00007781    0.00194139    0.00318762
     atom   18 type  1   force =    -0.00007781   -0.00194139   -0.00318762
     atom   19 type  1   force =     0.00353251   -0.00264583   -0.00071015
     atom   20 type  1   force =    -0.00353251    0.00264583    0.00071015
     atom   21 type  1   force =     0.00196319   -0.00006659    0.00282836
     atom   22 type  1   force =    -0.00196319    0.00006659   -0.00282836
     atom   23 type  1   force =    -0.00078048   -0.00040748   -0.00291018
     atom   24 type  1   force =     0.00078048    0.00040748    0.00291018
     atom   25 type  1   force =     0.00132840    0.00197969    0.00343582
     atom   26 type  1   force =    -0.00132840   -0.00197969   -0.00343582
     atom   27 type  3   force =    -0.00061980    0.00073604    0.00073850
     atom   28 type  3   force =     0.00061980   -0.00073604   -0.00073850
     atom   29 type  3   force =     0.00127870   -0.00056725    0.00017664
     atom   30 type  3   force =    -0.00127870    0.00056725   -0.00017664
     atom   31 type  3   force =     0.00040303    0.00019019    0.00011036
     atom   32 type  3   force =    -0.00040303   -0.00019019   -0.00011036
     atom   33 type  3   force =     0.00029249    0.00000104   -0.00034058
     atom   34 type  3   force =    -0.00029249   -0.00000104    0.00034058
     atom   35 type  3   force =    -0.00027377    0.00004469   -0.00036492
     atom   36 type  3   force =     0.00027377   -0.00004469    0.00036492
     atom   37 type  3   force =    -0.00057336   -0.00043627   -0.00113806
     atom   38 type  3   force =     0.00057336    0.00043627    0.00113806
     atom   39 type  3   force =     0.00084887   -0.00027241    0.00005670
     atom   40 type  3   force =    -0.00084887    0.00027241   -0.00005670

     Total force =     0.018918     Total SCF correction =     0.000083


     Computing stress (Cartesian axis) and pressure

          total   stress  (Ry/bohr**3)                   (kbar)     P=   -7.62
  -0.00006156   0.00000548   0.00001979         -9.06      0.81      2.91
   0.00000548  -0.00001907   0.00001025          0.81     -2.81      1.51
   0.00001979   0.00001025  -0.00007473          2.91      1.51    -10.99


     Writing output data file scf.save
 
     init_run     :     13.77s CPU     14.20s WALL (       1 calls)
     electrons    :    438.90s CPU    450.76s WALL (       1 calls)
     forces       :      6.66s CPU      6.71s WALL (       1 calls)
     stress       :     17.60s CPU     17.62s WALL (       1 calls)

     Called by init_run:
     wfcinit      :      9.19s CPU      9.56s WALL (       1 calls)
     potinit      :      1.63s CPU      1.66s WALL (       1 calls)

     Called by electrons:
     c_bands      :    384.10s CPU    394.67s WALL (      19 calls)
     sum_band     :     48.12s CPU     49.21s WALL (      19 calls)
     v_of_rho     :      1.20s CPU      1.30s WALL (      20 calls)
     newd         :      1.94s CPU      1.98s WALL (      20 calls)
     PAW_pot      :      3.19s CPU      3.19s WALL (      20 calls)
     mix_rho      :      0.25s CPU      0.27s WALL (      19 calls)

     Called by c_bands:
     init_us_2    :      3.58s CPU      3.58s WALL (     574 calls)
     cegterg      :    371.97s CPU    382.41s WALL (     266 calls)

     Called by sum_band:
     sum_band:bec :      0.05s CPU      0.05s WALL (     266 calls)
     addusdens    :      1.92s CPU      1.99s WALL (      19 calls)

     Called by *egterg:
     h_psi        :    245.86s CPU    253.22s WALL (    1108 calls)
     s_psi        :     31.22s CPU     31.23s WALL (    1108 calls)
     g_psi        :      1.36s CPU      1.36s WALL (     828 calls)
     cdiaghg      :     18.72s CPU     18.71s WALL (    1094 calls)

     Called by h_psi:
     h_psi:pot    :    244.11s CPU    251.45s WALL (    1108 calls)
     h_psi:calbec :     31.00s CPU     31.13s WALL (    1108 calls)
     vloc_psi     :    181.94s CPU    189.13s WALL (    1108 calls)
     add_vuspsi   :     31.16s CPU     31.18s WALL (    1108 calls)

     General routines
     calbec       :     44.50s CPU     44.69s WALL (    1444 calls)
     fft          :      0.76s CPU      0.92s WALL (     284 calls)
     fftw         :    194.75s CPU    202.28s WALL (  141210 calls)
 
     Parallel routines
     fft_scatter  :     50.93s CPU     55.61s WALL (  141494 calls)
 
     PWSCF        :  8m 1.21s CPU     8m15.92s WALL

 
   This run was terminated on:  17:49: 5  14Dec2017            

=------------------------------------------------------------------------------=
   JOB DONE.
=------------------------------------------------------------------------------=
