
     Program PWSCF v.6.1 (svn rev. 13369) starts on  5Nov2017 at  2:36:17 

     This program is part of the open-source Quantum ESPRESSO suite
     for quantum simulation of materials; please cite
         "P. Giannozzi et al., J. Phys.:Condens. Matter 21 395502 (2009);
          URL http://www.quantum-espresso.org", 
     in publications or presentations arising from this work. More details at
     http://www.quantum-espresso.org/quote

     Parallel version (MPI), running on     8 processors
     R & G space division:  proc/nbgrp/npool/nimage =       8
     Waiting for input...
     Reading input from standard input

     Current dimensions of program PWSCF are:
     Max number of different atomic species (ntypx) = 10
     Max number of k-points (npk) =  40000
     Max angular momentum in pseudopotentials (lmaxx) =  3
               file C.pbe-n-kjpaw_psl.0.1.UPF: wavefunction(s)  2P renormalized
               file N.pbe-n-kjpaw_psl.0.1.UPF: wavefunction(s)  2P renormalized
               file H.pbe-kjpaw_psl.0.1.UPF: wavefunction(s)  1S renormalized
               file O.pbe-n-kjpaw_psl.0.1.UPF: wavefunction(s)  2P renormalized

     -------------------------------------
     Parameters for Dispersion Correction:
     -------------------------------------
       atom      VdW radius       C_6     

        C          2.744         60.710
        N          2.640         42.670
        H          1.892          4.857
        O          2.536         24.284

     Subspace diagonalization in iterative solution of the eigenvalue problem:
     a serial algorithm will be used

 
     Parallelization info
     --------------------
     sticks:   dense  smooth     PW     G-vecs:    dense   smooth      PW
     Min        1720    1720    455                93340    93340   12659
     Max        1721    1721    456                93342    93342   12660
     Sum       13761   13761   3647               746729   746729  101279
 


     bravais-lattice index     =            0
     lattice parameter (alat)  =      16.8186  a.u.
     unit-cell volume          =    5526.5752 (a.u.)^3
     number of atoms/cell      =           76
     number of atomic types    =            4
     number of electrons       =       340.00
     number of Kohn-Sham states=          204
     kinetic-energy cutoff     =     100.0000  Ry
     charge density cutoff     =     400.0000  Ry
     convergence threshold     =      1.0E-08
     mixing beta               =       0.5000
     number of iterations used =            8  plain     mixing
     Exchange-correlation      =  SLA  PW   PBX  PBC ( 1  4  3  4 0 0)

     celldm(1)=  16.818563  celldm(2)=   0.000000  celldm(3)=   0.000000
     celldm(4)=   0.000000  celldm(5)=   0.000000  celldm(6)=   0.000000

     crystal axes: (cart. coord. in units of alat)
               a(1) = (   1.000000   0.000000   0.000000 )  
               a(2) = (   0.000000   1.528989   0.000000 )  
               a(3) = (   0.000000   0.000000   0.759775 )  

     reciprocal axes: (cart. coord. in units 2 pi/alat)
               b(1) = (  1.000000  0.000000  0.000000 )  
               b(2) = (  0.000000  0.654027  0.000000 )  
               b(3) = (  0.000000  0.000000  1.316179 )  


     PseudoPot. # 1 for  C read from file:
     /scratch/ahofstet/pseudo/C.pbe-n-kjpaw_psl.0.1.UPF
     MD5 check sum: 430fe95172b1e11ef3f8ed03bac87931
     Pseudo is Projector augmented-wave + core cor, Zval =  4.0
     Generated using "atomic" code by A. Dal Corso  v.5.0.99 svn rev. 10869
     Shape of augmentation charge: BESSEL
     Using radial grid of 1073 points,  4 beta functions with: 
                l(1) =   0
                l(2) =   0
                l(3) =   1
                l(4) =   1
     Q(r) pseudized with 0 coefficients 


     PseudoPot. # 2 for  N read from file:
     /scratch/ahofstet/pseudo/N.pbe-n-kjpaw_psl.0.1.UPF
     MD5 check sum: f73187c8b701007e77325f868c9291d7
     Pseudo is Projector augmented-wave + core cor, Zval =  5.0
     Generated using "atomic" code by A. Dal Corso  v.5.0.99 svn rev. 10869
     Shape of augmentation charge: PSQ
     Using radial grid of 1085 points,  4 beta functions with: 
                l(1) =   0
                l(2) =   0
                l(3) =   1
                l(4) =   1
     Q(r) pseudized with 0 coefficients 


     PseudoPot. # 3 for  H read from file:
     /scratch/ahofstet/pseudo/H.pbe-kjpaw_psl.0.1.UPF
     MD5 check sum: 94e484f906d9e9773b2f6e52662335b2
     Pseudo is Projector augmented-wave, Zval =  1.0
     Generated using "atomic" code by A. Dal Corso  v.5.0.99 svn rev. 10869
     Shape of augmentation charge: PSQ
     Using radial grid of  929 points,  2 beta functions with: 
                l(1) =   0
                l(2) =   0
     Q(r) pseudized with 0 coefficients 


     PseudoPot. # 4 for  O read from file:
     /scratch/ahofstet/pseudo/O.pbe-n-kjpaw_psl.0.1.UPF
     MD5 check sum: 3f94a2996a3169367d6eb21d9b593f20
     Pseudo is Projector augmented-wave + core cor, Zval =  6.0
     Generated using "atomic" code by A. Dal Corso  v.5.0.99 svn rev. 10869
     Shape of augmentation charge: BESSEL
     Using radial grid of 1095 points,  4 beta functions with: 
                l(1) =   0
                l(2) =   0
                l(3) =   1
                l(4) =   1
     Q(r) pseudized with 0 coefficients 


     atomic species   valence    mass     pseudopotential
        C              4.00    12.01070      C( 1.00)
        N              5.00    14.00670      N( 1.00)
        H              1.00     1.00794      H( 1.00)
        O              6.00    15.99940      O( 1.00)

      2 Sym. Ops. (no inversion) found ( 1 have fractional translation)
          (note:  2 additional sym.ops. were found but ignored
           their fractional translations are incommensurate with FFT grid)


   Cartesian axes

     site n.     atom                  positions (alat units)
         1           O   tau(   1) = (   0.0928304   1.3704346   0.8079259  )
         2           O   tau(   2) = (   0.4071696   0.6059402   0.4280383  )
         3           O   tau(   3) = (   0.5928304   0.9230485   0.8079259  )
         4           O   tau(   4) = (   0.9071696   0.1585541   0.4280383  )
         5           O   tau(   5) = (   0.8501203   1.1345901   0.7260196  )
         6           O   tau(   6) = (   0.6498797   0.3700957   0.3461320  )
         7           O   tau(   7) = (   0.3501203   1.1588931   0.7260196  )
         8           O   tau(   8) = (   0.1498797   0.3943987   0.3461320  )
         9           O   tau(   9) = (   0.0638956   1.1000983   0.6037764  )
        10           O   tau(  10) = (   0.4361044   0.3356039   0.2238888  )
        11           O   tau(  11) = (   0.5638956   1.1933849   0.6037764  )
        12           O   tau(  12) = (   0.9361044   0.4288905   0.2238888  )
        13           O   tau(  13) = (   0.2112570   0.0945544   0.1619106  )
        14           O   tau(  14) = (   0.2887430   0.8590488   0.5417982  )
        15           O   tau(  15) = (   0.7112570   0.6699400   0.1619106  )
        16           O   tau(  16) = (   0.7887430   1.4344343   0.5417982  )
        17           O   tau(  17) = (   0.4183611  -0.0504126   0.1979048  )
        18           O   tau(  18) = (   0.0816389   0.7140818   0.5777925  )
        19           O   tau(  19) = (   0.9183611   0.8149070   0.1979048  )
        20           O   tau(  20) = (   0.5816389   1.5794014   0.5777925  )
        21           O   tau(  21) = (   0.3039603   0.0573179   0.3879816  )
        22           O   tau(  22) = (   0.1960397   0.8218123   0.0080939  )
        23           O   tau(  23) = (   0.8039603   0.7071765   0.3879816  )
        24           O   tau(  24) = (   0.6960397   1.4716709   0.0080939  )
        25           O   tau(  25) = (   0.1514305   0.3280212   0.7429927  )
        26           O   tau(  26) = (   0.3485695   1.0925156   0.3631050  )
        27           O   tau(  27) = (   0.6514305   0.4364732   0.7429927  )
        28           O   tau(  28) = (   0.8485695   1.2009676   0.3631050  )
        29           O   tau(  29) = (   0.3750830   0.3324710   0.6218708  )
        30           O   tau(  30) = (   0.1249170   1.0969654   0.2419831  )
        31           O   tau(  31) = (   0.8750830   0.4320233   0.6218708  )
        32           O   tau(  32) = (   0.6249170   1.1965177   0.2419831  )
        33           O   tau(  33) = (   0.2963730   0.5257787   0.7542628  )
        34           O   tau(  34) = (   0.2036270   1.2902731   0.3743752  )
        35           O   tau(  35) = (   0.7963730   0.2387157   0.7542628  )
        36           O   tau(  36) = (   0.7036270   1.0032101   0.3743752  )
        37           N   tau(  37) = (  -0.0150119   1.1243533   0.7111833  )
        38           N   tau(  38) = (   0.5150119   0.3598589   0.3312957  )
        39           N   tau(  39) = (   0.4849881   1.1691299   0.7111833  )
        40           N   tau(  40) = (   1.0150119   0.4046355   0.3312957  )
        41           N   tau(  41) = (   0.3225008   0.0261832   0.2574335  )
        42           N   tau(  42) = (   0.1774992   0.7906775   0.6373212  )
        43           N   tau(  43) = (   0.8225008   0.7383112   0.2574335  )
        44           N   tau(  44) = (   0.6774992   1.5028056   0.6373212  )
        45           N   tau(  45) = (   0.2881160   0.4001665   0.7010611  )
        46           N   tau(  46) = (   0.2118840   1.1646608   0.3211734  )
        47           N   tau(  47) = (   0.7881160   0.3643279   0.7010611  )
        48           N   tau(  48) = (   0.7118840   1.1288223   0.3211734  )
        49           C   tau(  49) = (   0.1731763   1.4396121   0.7220844  )
        50           C   tau(  50) = (   0.3268237   0.6751177   0.3421967  )
        51           C   tau(  51) = (   0.6731763   0.8538710   0.7220844  )
        52           C   tau(  52) = (   0.8268237   0.0893766   0.3421967  )
        53           C   tau(  53) = (   0.2339021   0.0646961   0.0046489  )
        54           C   tau(  54) = (   0.2660979   0.8291905   0.3845365  )
        55           C   tau(  55) = (   0.7339021   0.6997983   0.0046489  )
        56           C   tau(  56) = (   0.7660979   1.4642926   0.3845365  )
        57           C   tau(  57) = (   0.1353400   0.1800099   0.6823346  )
        58           C   tau(  58) = (   0.3646600   0.9445043   0.3024470  )
        59           C   tau(  59) = (   0.6353400   0.5844845   0.6823346  )
        60           C   tau(  60) = (   0.8646600   1.3489789   0.3024470  )
        61           H   tau(  61) = (   0.2003628   1.3979557   0.6080124  )
        62           H   tau(  62) = (   0.2996372   0.6334613   0.2281248  )
        63           H   tau(  63) = (   0.7003628   0.8955275   0.6080124  )
        64           H   tau(  64) = (   0.7996372   0.1310331   0.2281248  )
        65           H   tau(  65) = (   0.3526615   0.0772040   0.7333736  )
        66           H   tau(  66) = (   0.1473385   0.8416983   0.3534859  )
        67           H   tau(  67) = (   0.8526615   0.6872904   0.7333736  )
        68           H   tau(  68) = (   0.6473385   1.4517848   0.3534859  )
        69           H   tau(  69) = (   1.0160292   0.1570298   0.7006800  )
        70           H   tau(  70) = (   0.4839708   0.9215242   0.3207924  )
        71           H   tau(  71) = (   0.5160292   0.6074646   0.7006800  )
        72           H   tau(  72) = (  -0.0160292   1.3719590   0.3207924  )
        73           H   tau(  73) = (   0.1589076   0.1784473   0.5616181  )
        74           H   tau(  74) = (   0.3410924   0.9429417   0.1817304  )
        75           H   tau(  75) = (   0.6589076   0.5860471   0.5616181  )
        76           H   tau(  76) = (   0.8410924   1.3505415   0.1817304  )

     number of k points=     8
                       cart. coord. in units 2pi/alat
        k(    1) = (   0.0000000   0.0000000   0.0000000), wk =   0.1666667
        k(    2) = (   0.0000000   0.0000000   0.4387262), wk =   0.3333333
        k(    3) = (   0.0000000  -0.3270135   0.0000000), wk =   0.1666667
        k(    4) = (   0.0000000  -0.3270135   0.4387262), wk =   0.3333333
        k(    5) = (  -0.5000000   0.0000000   0.0000000), wk =   0.1666667
        k(    6) = (  -0.5000000   0.0000000   0.4387262), wk =   0.3333333
        k(    7) = (  -0.5000000  -0.3270135   0.0000000), wk =   0.1666667
        k(    8) = (  -0.5000000  -0.3270135   0.4387262), wk =   0.3333333

     Dense  grid:   746729 G-vectors     FFT dimensions: ( 108, 180,  81)

     Estimated max dynamical RAM per process >     786.67MB

     Estimated total allocated dynamical RAM >    6293.38MB

     Check: negative/imaginary core charge=   -0.000003    0.000000

     Initial potential from superposition of free atoms

     starting charge  339.99921, renormalised to  340.00000
     Starting wfc are  256 randomized atomic wfcs
     Checking if some PAW data can be deallocated... 

     total cpu time spent up to now is       35.9 secs

     per-process dynamical memory:   558.2 Mb

     Self-consistent Calculation

     iteration #  1     ecut=   100.00 Ry     beta=0.50
     Davidson diagonalization with overlap
     ethr =  1.00E-02,  avg # of iterations =  3.0

     total cpu time spent up to now is      138.3 secs

     total energy              =   -2072.88341460 Ry
     Harris-Foulkes estimate   =   -2077.48463803 Ry
     estimated scf accuracy    <       8.03450613 Ry

     iteration #  2     ecut=   100.00 Ry     beta=0.50
     Davidson diagonalization with overlap
     ethr =  2.36E-03,  avg # of iterations =  4.0

     total cpu time spent up to now is      228.6 secs

     total energy              =   -2073.78153820 Ry
     Harris-Foulkes estimate   =   -2076.31365406 Ry
     estimated scf accuracy    <       6.03020929 Ry

     iteration #  3     ecut=   100.00 Ry     beta=0.50
     Davidson diagonalization with overlap
     ethr =  1.77E-03,  avg # of iterations =  4.6

     total cpu time spent up to now is      296.0 secs

     total energy              =   -2073.02647842 Ry
     Harris-Foulkes estimate   =   -2076.53577663 Ry
     estimated scf accuracy    <      24.71956614 Ry

     iteration #  4     ecut=   100.00 Ry     beta=0.50
     Davidson diagonalization with overlap
     ethr =  1.77E-03,  avg # of iterations =  2.0

     total cpu time spent up to now is      356.5 secs

     total energy              =   -2074.93630018 Ry
     Harris-Foulkes estimate   =   -2075.26619601 Ry
     estimated scf accuracy    <       2.23437435 Ry

     iteration #  5     ecut=   100.00 Ry     beta=0.50
     Davidson diagonalization with overlap
     ethr =  6.57E-04,  avg # of iterations =  1.9

     total cpu time spent up to now is      416.4 secs

     total energy              =   -2075.23154811 Ry
     Harris-Foulkes estimate   =   -2075.45722396 Ry
     estimated scf accuracy    <       2.71387313 Ry

     iteration #  6     ecut=   100.00 Ry     beta=0.50
     Davidson diagonalization with overlap
     ethr =  6.57E-04,  avg # of iterations =  1.0

     total cpu time spent up to now is      474.6 secs

     total energy              =   -2075.10862602 Ry
     Harris-Foulkes estimate   =   -2075.28023825 Ry
     estimated scf accuracy    <       2.15502365 Ry

     iteration #  7     ecut=   100.00 Ry     beta=0.50
     Davidson diagonalization with overlap
     ethr =  6.34E-04,  avg # of iterations =  1.0

     total cpu time spent up to now is      532.8 secs

     total energy              =   -2075.15303376 Ry
     Harris-Foulkes estimate   =   -2075.26923660 Ry
     estimated scf accuracy    <       2.06740428 Ry

     iteration #  8     ecut=   100.00 Ry     beta=0.50
     Davidson diagonalization with overlap
     ethr =  6.08E-04,  avg # of iterations =  1.0

     total cpu time spent up to now is      590.9 secs

     total energy              =   -2075.17056621 Ry
     Harris-Foulkes estimate   =   -2075.22966577 Ry
     estimated scf accuracy    <       1.84575191 Ry

     iteration #  9     ecut=   100.00 Ry     beta=0.50
     Davidson diagonalization with overlap
     ethr =  5.43E-04,  avg # of iterations =  1.0

     total cpu time spent up to now is      649.1 secs

     total energy              =   -2075.19362697 Ry
     Harris-Foulkes estimate   =   -2075.21866162 Ry
     estimated scf accuracy    <       0.51257228 Ry

     iteration # 10     ecut=   100.00 Ry     beta=0.50
     Davidson diagonalization with overlap
     ethr =  1.51E-04,  avg # of iterations =  4.2

     total cpu time spent up to now is      713.4 secs

     total energy              =   -2075.21505692 Ry
     Harris-Foulkes estimate   =   -2075.22139439 Ry
     estimated scf accuracy    <       0.64911859 Ry

     iteration # 11     ecut=   100.00 Ry     beta=0.50
     Davidson diagonalization with overlap
     ethr =  1.51E-04,  avg # of iterations =  1.0

     total cpu time spent up to now is      771.5 secs

     total energy              =   -2075.19730560 Ry
     Harris-Foulkes estimate   =   -2075.21621545 Ry
     estimated scf accuracy    <       0.48360457 Ry

     iteration # 12     ecut=   100.00 Ry     beta=0.50
     Davidson diagonalization with overlap
     ethr =  1.42E-04,  avg # of iterations =  1.0

     total cpu time spent up to now is      829.7 secs

     total energy              =   -2075.21212122 Ry
     Harris-Foulkes estimate   =   -2075.21902706 Ry
     estimated scf accuracy    <       0.51765749 Ry

     iteration # 13     ecut=   100.00 Ry     beta=0.50
     Davidson diagonalization with overlap
     ethr =  1.42E-04,  avg # of iterations =  1.0

     total cpu time spent up to now is      887.9 secs

     total energy              =   -2075.20754999 Ry
     Harris-Foulkes estimate   =   -2075.21254409 Ry
     estimated scf accuracy    <       0.42542218 Ry

     iteration # 14     ecut=   100.00 Ry     beta=0.50
     Davidson diagonalization with overlap
     ethr =  1.25E-04,  avg # of iterations =  1.0

     total cpu time spent up to now is      946.1 secs

     total energy              =   -2075.20947619 Ry
     Harris-Foulkes estimate   =   -2075.21014108 Ry
     estimated scf accuracy    <       0.12533868 Ry

     iteration # 15     ecut=   100.00 Ry     beta=0.50
     Davidson diagonalization with overlap
     ethr =  3.69E-05,  avg # of iterations =  3.8

     total cpu time spent up to now is     1009.2 secs

     total energy              =   -2075.20988278 Ry
     Harris-Foulkes estimate   =   -2075.20988545 Ry
     estimated scf accuracy    <       0.00164281 Ry

     iteration # 16     ecut=   100.00 Ry     beta=0.50
     Davidson diagonalization with overlap
     ethr =  4.83E-07,  avg # of iterations = 11.0

     total cpu time spent up to now is     1092.0 secs

     total energy              =   -2075.20990138 Ry
     Harris-Foulkes estimate   =   -2075.20991221 Ry
     estimated scf accuracy    <       0.00208544 Ry

     iteration # 17     ecut=   100.00 Ry     beta=0.50
     Davidson diagonalization with overlap
     ethr =  4.83E-07,  avg # of iterations =  1.0

     total cpu time spent up to now is     1150.2 secs

     total energy              =   -2075.20991457 Ry
     Harris-Foulkes estimate   =   -2075.20991519 Ry
     estimated scf accuracy    <       0.00001377 Ry

     iteration # 18     ecut=   100.00 Ry     beta=0.50
     Davidson diagonalization with overlap
     ethr =  4.05E-09,  avg # of iterations =  3.9

     total cpu time spent up to now is     1245.3 secs

     total energy              =   -2075.20991870 Ry
     Harris-Foulkes estimate   =   -2075.20992218 Ry
     estimated scf accuracy    <       0.00046988 Ry

     iteration # 19     ecut=   100.00 Ry     beta=0.50
     Davidson diagonalization with overlap
     ethr =  4.05E-09,  avg # of iterations =  1.0

     total cpu time spent up to now is     1303.5 secs

     total energy              =   -2075.20992062 Ry
     Harris-Foulkes estimate   =   -2075.20992146 Ry
     estimated scf accuracy    <       0.00016867 Ry

     iteration # 20     ecut=   100.00 Ry     beta=0.50
     Davidson diagonalization with overlap
     ethr =  4.05E-09,  avg # of iterations =  1.0

     total cpu time spent up to now is     1361.6 secs

     total energy              =   -2075.20992109 Ry
     Harris-Foulkes estimate   =   -2075.20992109 Ry
     estimated scf accuracy    <       0.00000144 Ry

     iteration # 21     ecut=   100.00 Ry     beta=0.50
     Davidson diagonalization with overlap
     ethr =  4.24E-10,  avg # of iterations =  1.0

     total cpu time spent up to now is     1419.8 secs

     total energy              =   -2075.20992109 Ry
     Harris-Foulkes estimate   =   -2075.20992109 Ry
     estimated scf accuracy    <       0.00000070 Ry

     iteration # 22     ecut=   100.00 Ry     beta=0.50
     Davidson diagonalization with overlap
     ethr =  2.07E-10,  avg # of iterations =  1.0

     total cpu time spent up to now is     1477.9 secs

     total energy              =   -2075.20992109 Ry
     Harris-Foulkes estimate   =   -2075.20992109 Ry
     estimated scf accuracy    <       0.00000004 Ry

     iteration # 23     ecut=   100.00 Ry     beta=0.50
     Davidson diagonalization with overlap
     ethr =  1.15E-11,  avg # of iterations =  1.0

     total cpu time spent up to now is     1536.0 secs

     End of self-consistent calculation

          k = 0.0000 0.0000 0.0000 ( 93381 PWs)   bands (ev):

   -25.2316 -25.2235 -25.2171 -25.2118 -25.1040 -25.0958 -25.0784 -25.0721
   -24.1154 -24.1152 -24.0902 -24.0901 -20.6489 -20.6486 -20.6276 -20.6273
   -20.4623 -20.4600 -20.4575 -20.4560 -20.3411 -20.3365 -20.2748 -20.2743
   -20.1822 -20.1513 -20.1507 -20.1451 -19.7724 -19.7374 -19.7013 -19.6839
   -19.4223 -19.4129 -19.4079 -19.3939 -13.2285 -13.2234 -13.1798 -13.1763
   -11.1536 -11.1158 -10.9423 -10.8860  -9.7469  -9.7374  -9.7020  -9.6960
    -8.6653  -8.6634  -8.5328  -8.5288  -8.3041  -8.2602  -8.2491  -8.0658
    -7.7850  -7.7759  -7.7705  -7.7092  -7.6495  -7.5246  -7.3954  -7.3888
    -7.2746  -7.2270  -7.1889  -7.1232  -7.0075  -6.9478  -6.9435  -6.9270
    -6.7235  -6.6753  -6.5631  -6.5545  -6.4103  -6.3916  -6.3781  -6.3474
    -6.2530  -6.1991  -6.1381  -6.1241  -6.1142  -6.0751  -6.0377  -5.9908
    -5.9839  -5.9173  -5.8893  -5.8527  -5.6007  -5.5734  -5.5252  -5.5226
    -5.4675  -5.3459  -5.3174  -5.1760  -4.5411  -4.4662  -4.3834  -4.3791
    -4.2909  -4.1873  -4.0080  -3.9432  -3.8134  -3.7451  -3.7193  -3.6660
    -3.2438  -3.1977  -3.0779  -3.0251  -2.8986  -2.8650  -2.8458  -2.8284
    -2.5163  -2.4057  -2.1373  -2.1010  -1.5763  -1.5560  -1.5223  -1.4890
    -1.4719  -1.3626  -1.3052  -1.2931  -1.2905  -1.2580  -1.2472  -1.1921
    -1.1833  -1.1487  -1.1066  -1.0891  -1.0857  -1.0812  -1.0440  -0.9874
    -0.9781  -0.9541  -0.8436  -0.8381  -0.8333  -0.7852  -0.6983  -0.6932
    -0.6923  -0.5860  -0.5586  -0.5535  -0.4433  -0.4071  -0.3232  -0.2532
    -0.1437  -0.1436  -0.1418  -0.0883   0.6574   0.6953   0.7227   0.7791
     2.0996   2.1258   2.2807   2.3114   4.0779   4.0970   4.1426   4.1442
     4.2441   4.2666   4.3579   4.3613   4.4133   4.4466   4.4745   4.5339
     4.6486   4.7245   4.7432   4.7977   6.3382   6.5362   6.8136   6.8171
     7.1762   7.2686   7.2990   7.3037   8.2467   8.5069   8.7454   8.7689
     8.7708   8.8563   9.1579   9.4735

          k = 0.0000 0.0000 0.4387 ( 93237 PWs)   bands (ev):

   -25.2263 -25.2214 -25.2182 -25.2164 -25.1016 -25.0975 -25.0771 -25.0739
   -24.1161 -24.1160 -24.0901 -24.0901 -20.6458 -20.6454 -20.6352 -20.6347
   -20.4630 -20.4617 -20.4559 -20.4551 -20.3387 -20.3365 -20.2756 -20.2754
   -20.1755 -20.1601 -20.1498 -20.1470 -19.7639 -19.7465 -19.6969 -19.6882
   -19.4173 -19.4101 -19.4071 -19.3976 -13.1941 -13.1918 -13.1436 -13.1422
   -11.1474 -11.1281 -10.9360 -10.9068  -9.8529  -9.8461  -9.8339  -9.8314
    -8.6814  -8.6788  -8.4923  -8.4842  -8.2990  -8.2948  -8.2582  -8.1498
    -7.7257  -7.6981  -7.6410  -7.6203  -7.4751  -7.4093  -7.4065  -7.3751
    -7.2662  -7.2633  -7.1986  -7.1559  -6.9968  -6.9716  -6.9669  -6.9185
    -6.7615  -6.7502  -6.6871  -6.6595  -6.3300  -6.3090  -6.2690  -6.2619
    -6.2480  -6.1495  -6.1151  -6.0817  -6.0677  -6.0438  -6.0281  -6.0061
    -5.9762  -5.9220  -5.9150  -5.8917  -5.5485  -5.5388  -5.5365  -5.5025
    -5.4510  -5.3572  -5.3344  -5.2458  -4.6008  -4.5683  -4.5393  -4.5087
    -4.2173  -4.0877  -4.0169  -3.9956  -3.7691  -3.7490  -3.6957  -3.6518
    -3.1730  -3.1096  -3.1020  -3.0328  -2.9546  -2.9304  -2.8546  -2.8522
    -2.4705  -2.4225  -2.1358  -2.1121  -1.5468  -1.5437  -1.5228  -1.4943
    -1.4645  -1.4219  -1.3736  -1.3601  -1.2334  -1.2267  -1.2209  -1.2122
    -1.1793  -1.1652  -1.1391  -1.1375  -1.0977  -1.0889  -0.9984  -0.9920
    -0.9369  -0.9276  -0.8231  -0.8177  -0.8124  -0.7999  -0.7732  -0.7524
    -0.7349  -0.6759  -0.6241  -0.6178  -0.3349  -0.2820  -0.2515  -0.1962
    -0.1359  -0.1333  -0.1323  -0.1005   0.6916   0.7205   0.7415   0.7786
     2.1092   2.1214   2.2934   2.3076   4.0749   4.0841   4.1319   4.1326
     4.2417   4.2478   4.3311   4.3355   4.4676   4.4735   4.5146   4.5611
     4.6789   4.7101   4.7396   4.7566   6.4625   6.5980   6.7082   6.7291
     7.1553   7.2263   7.2375   7.2521   8.4287   8.6218   8.6903   8.7159
     8.9052   8.9870   9.1488   9.3861

          k = 0.0000-0.3270 0.0000 ( 93382 PWs)   bands (ev):

   -25.2277 -25.2277 -25.2145 -25.2145 -25.0998 -25.0998 -25.0752 -25.0752
   -24.1153 -24.1153 -24.0901 -24.0901 -20.6487 -20.6487 -20.6275 -20.6275
   -20.4612 -20.4612 -20.4568 -20.4568 -20.3388 -20.3388 -20.2746 -20.2746
   -20.1716 -20.1716 -20.1432 -20.1432 -19.7557 -19.7557 -19.6921 -19.6921
   -19.4154 -19.4154 -19.4027 -19.4027 -13.2258 -13.2258 -13.1782 -13.1782
   -11.1363 -11.1363 -10.9125 -10.9125  -9.7424  -9.7424  -9.6987  -9.6987
    -8.6729  -8.6729  -8.5283  -8.5283  -8.2627  -8.2627  -8.1856  -8.1856
    -7.7761  -7.7761  -7.7330  -7.7330  -7.5165  -7.5165  -7.4657  -7.4657
    -7.2708  -7.2708  -7.1768  -7.1768  -6.9698  -6.9698  -6.8852  -6.8852
    -6.6916  -6.6916  -6.5557  -6.5557  -6.4188  -6.4188  -6.3355  -6.3355
    -6.2579  -6.2579  -6.1709  -6.1709  -6.0803  -6.0803  -5.9980  -5.9980
    -5.9494  -5.9494  -5.8787  -5.8787  -5.5459  -5.5458  -5.5454  -5.5454
    -5.3426  -5.3426  -5.3266  -5.3265  -4.5091  -4.5091  -4.3419  -4.3419
    -4.2639  -4.2639  -3.9706  -3.9706  -3.7784  -3.7784  -3.6987  -3.6987
    -3.2185  -3.2185  -3.0481  -3.0481  -2.8809  -2.8809  -2.8352  -2.8352
    -2.4723  -2.4723  -2.1118  -2.1118  -1.5563  -1.5563  -1.5328  -1.5328
    -1.4065  -1.4065  -1.3000  -1.3000  -1.2709  -1.2709  -1.2086  -1.2086
    -1.1770  -1.1770  -1.0994  -1.0994  -1.0731  -1.0731  -1.0360  -1.0360
    -0.9579  -0.9579  -0.8451  -0.8451  -0.8067  -0.8067  -0.6954  -0.6954
    -0.6277  -0.6277  -0.5592  -0.5592  -0.4290  -0.4290  -0.2858  -0.2858
    -0.1442  -0.1442  -0.1141  -0.1141   0.6602   0.6603   0.7687   0.7687
     2.1112   2.1112   2.2966   2.2966   4.1133   4.1133   4.1239   4.1239
     4.2444   4.2444   4.3760   4.3760   4.4180   4.4180   4.4892   4.4892
     4.7020   4.7020   4.7702   4.7702   6.4266   6.4266   6.8219   6.8219
     7.2273   7.2273   7.2953   7.2953   8.3850   8.3850   8.7172   8.7173
     8.8489   8.8489   9.2244   9.2245

          k = 0.0000-0.3270 0.4387 ( 93332 PWs)   bands (ev):

   -25.2246 -25.2246 -25.2165 -25.2165 -25.0998 -25.0998 -25.0753 -25.0753
   -24.1161 -24.1161 -24.0901 -24.0901 -20.6457 -20.6457 -20.6349 -20.6349
   -20.4624 -20.4624 -20.4554 -20.4554 -20.3376 -20.3376 -20.2755 -20.2755
   -20.1703 -20.1703 -20.1458 -20.1458 -19.7568 -19.7568 -19.6908 -19.6908
   -19.4173 -19.4173 -19.3990 -19.3990 -13.1934 -13.1934 -13.1424 -13.1424
   -11.1386 -11.1386 -10.9206 -10.9206  -9.8571  -9.8571  -9.8241  -9.8241
    -8.6894  -8.6894  -8.4885  -8.4885  -8.3012  -8.3012  -8.1861  -8.1861
    -7.6853  -7.6853  -7.6543  -7.6543  -7.4384  -7.4384  -7.4214  -7.4214
    -7.2864  -7.2864  -7.1347  -7.1347  -6.9936  -6.9936  -6.9267  -6.9267
    -6.7764  -6.7764  -6.6528  -6.6528  -6.3249  -6.3248  -6.2860  -6.2860
    -6.1838  -6.1838  -6.1037  -6.1037  -6.0658  -6.0658  -5.9945  -5.9945
    -5.9515  -5.9515  -5.9093  -5.9093  -5.5701  -5.5701  -5.4812  -5.4812
    -5.3658  -5.3658  -5.3435  -5.3435  -4.5860  -4.5860  -4.5196  -4.5196
    -4.1519  -4.1519  -3.9994  -3.9994  -3.7713  -3.7713  -3.6670  -3.6670
    -3.1495  -3.1495  -3.0537  -3.0537  -2.9242  -2.9242  -2.8738  -2.8738
    -2.4526  -2.4526  -2.1195  -2.1195  -1.5457  -1.5457  -1.5175  -1.5175
    -1.4266  -1.4266  -1.3766  -1.3766  -1.2451  -1.2451  -1.1949  -1.1949
    -1.1754  -1.1754  -1.1244  -1.1244  -1.1024  -1.1024  -1.0109  -1.0109
    -0.9178  -0.9178  -0.8314  -0.8314  -0.7968  -0.7968  -0.7704  -0.7704
    -0.6990  -0.6990  -0.6220  -0.6220  -0.3172  -0.3172  -0.2199  -0.2199
    -0.1347  -0.1347  -0.1117  -0.1117   0.6830   0.6830   0.7835   0.7835
     2.1140   2.1140   2.3015   2.3015   4.1044   4.1044   4.1132   4.1132
     4.2262   4.2262   4.3551   4.3551   4.4636   4.4636   4.5243   4.5243
     4.7086   4.7086   4.7455   4.7455   6.5188   6.5188   6.7304   6.7304
     7.1649   7.1649   7.2677   7.2677   8.5338   8.5338   8.7449   8.7450
     8.8675   8.8675   9.2153   9.2153

          k =-0.5000 0.0000 0.0000 ( 93362 PWs)   bands (ev):

   -25.2278 -25.2278 -25.2142 -25.2142 -25.0913 -25.0913 -25.0841 -25.0841
   -24.1028 -24.1028 -24.1027 -24.1027 -20.6481 -20.6481 -20.6281 -20.6281
   -20.4601 -20.4601 -20.4581 -20.4581 -20.3084 -20.3084 -20.3054 -20.3054
   -20.1654 -20.1654 -20.1470 -20.1470 -19.7385 -19.7385 -19.7097 -19.7097
   -19.4187 -19.4187 -19.4013 -19.4013 -13.2290 -13.2290 -13.1729 -13.1729
   -11.0362 -11.0362 -11.0221 -11.0221  -9.7428  -9.7428  -9.6999  -9.6999
    -8.6198  -8.6198  -8.5785  -8.5785  -8.2732  -8.2732  -8.1793  -8.1793
    -7.7916  -7.7916  -7.6841  -7.6841  -7.5928  -7.5928  -7.3756  -7.3756
    -7.2733  -7.2733  -7.1435  -7.1435  -7.0071  -7.0071  -6.9158  -6.9158
    -6.6681  -6.6681  -6.5848  -6.5848  -6.4371  -6.4371  -6.3421  -6.3421
    -6.1816  -6.1816  -6.1445  -6.1445  -6.1102  -6.1102  -6.0508  -6.0508
    -5.9258  -5.9258  -5.8772  -5.8772  -5.5919  -5.5919  -5.5196  -5.5196
    -5.4124  -5.4124  -5.2469  -5.2469  -4.5259  -4.5259  -4.3306  -4.3306
    -4.2446  -4.2446  -3.9394  -3.9394  -3.8242  -3.8242  -3.6907  -3.6907
    -3.2555  -3.2555  -3.0196  -3.0196  -2.8930  -2.8930  -2.8320  -2.8320
    -2.3965  -2.3965  -2.2558  -2.2558  -1.5148  -1.5148  -1.4798  -1.4798
    -1.4540  -1.4540  -1.3420  -1.3420  -1.3116  -1.3116  -1.2005  -1.2005
    -1.1913  -1.1913  -1.1307  -1.1307  -1.0079  -1.0079  -0.9859  -0.9859
    -0.8920  -0.8920  -0.8354  -0.8354  -0.7569  -0.7569  -0.6915  -0.6915
    -0.6635  -0.6635  -0.5713  -0.5713  -0.4232  -0.4232  -0.3359  -0.3359
    -0.1660  -0.1660  -0.0983  -0.0983   0.6929   0.6929   0.7338   0.7338
     2.2010   2.2010   2.2244   2.2244   4.1034   4.1034   4.1144   4.1144
     4.3100   4.3100   4.3139   4.3139   4.4341   4.4341   4.5067   4.5067
     4.6795   4.6795   4.7699   4.7699   6.4544   6.4544   6.8033   6.8033
     7.2018   7.2018   7.3327   7.3327   8.3380   8.3380   8.7750   8.7750
     8.8282   8.8282   9.1432   9.1432

          k =-0.5000 0.0000 0.4387 ( 93328 PWs)   bands (ev):

   -25.2239 -25.2239 -25.2171 -25.2171 -25.0895 -25.0895 -25.0858 -25.0858
   -24.1032 -24.1032 -24.1031 -24.1031 -20.6453 -20.6453 -20.6353 -20.6353
   -20.4596 -20.4596 -20.4581 -20.4581 -20.3078 -20.3078 -20.3059 -20.3059
   -20.1615 -20.1615 -20.1525 -20.1525 -19.7314 -19.7314 -19.7171 -19.7171
   -19.4131 -19.4131 -19.4044 -19.4044 -13.1811 -13.1811 -13.1529 -13.1529
   -11.0373 -11.0373 -11.0311 -11.0311  -9.8517  -9.8517  -9.8314  -9.8314
    -8.6028  -8.6028  -8.5824  -8.5824  -8.2636  -8.2636  -8.2079  -8.2079
    -7.7267  -7.7267  -7.6199  -7.6199  -7.4621  -7.4621  -7.3743  -7.3743
    -7.2624  -7.2624  -7.1574  -7.1574  -7.0170  -7.0170  -6.9335  -6.9335
    -6.7205  -6.7205  -6.6999  -6.6999  -6.3257  -6.3257  -6.2709  -6.2709
    -6.1493  -6.1493  -6.1159  -6.1159  -6.0685  -6.0685  -6.0341  -6.0341
    -5.9333  -5.9333  -5.8906  -5.8906  -5.5557  -5.5557  -5.5272  -5.5272
    -5.4002  -5.4002  -5.2985  -5.2985  -4.5833  -4.5833  -4.5284  -4.5284
    -4.1407  -4.1407  -3.9849  -3.9849  -3.7757  -3.7757  -3.6843  -3.6843
    -3.1593  -3.1593  -3.0576  -3.0576  -2.9144  -2.9144  -2.8826  -2.8826
    -2.3576  -2.3576  -2.2893  -2.2893  -1.5399  -1.5399  -1.5004  -1.5004
    -1.4255  -1.4255  -1.3746  -1.3746  -1.2666  -1.2666  -1.2195  -1.2195
    -1.1741  -1.1741  -1.1511  -1.1511  -1.0175  -1.0175  -0.9742  -0.9742
    -0.8945  -0.8945  -0.8493  -0.8493  -0.7517  -0.7517  -0.7302  -0.7302
    -0.6851  -0.6851  -0.6544  -0.6544  -0.3080  -0.3080  -0.2850  -0.2850
    -0.1534  -0.1534  -0.0988  -0.0988   0.7249   0.7249   0.7437   0.7437
     2.1997   2.1997   2.2189   2.2189   4.0975   4.0975   4.1096   4.1096
     4.2940   4.2940   4.3027   4.3027   4.4752   4.4752   4.5098   4.5098
     4.7052   4.7052   4.7488   4.7488   6.5272   6.5272   6.7012   6.7012
     7.1995   7.1995   7.2805   7.2805   8.4841   8.4841   8.6975   8.6975
     9.0153   9.0153   9.1677   9.1677

          k =-0.5000-0.3270 0.0000 ( 93240 PWs)   bands (ev):

   -25.2270 -25.2270 -25.2152 -25.2152 -25.0876 -25.0876 -25.0876 -25.0876
   -24.1028 -24.1028 -24.1027 -24.1027 -20.6481 -20.6481 -20.6281 -20.6281
   -20.4595 -20.4595 -20.4586 -20.4586 -20.3078 -20.3078 -20.3060 -20.3060
   -20.1626 -20.1626 -20.1500 -20.1500 -19.7292 -19.7292 -19.7194 -19.7194
   -19.4101 -19.4101 -19.4092 -19.4092 -13.2289 -13.2289 -13.1729 -13.1729
   -11.0348 -11.0348 -11.0235 -11.0235  -9.7424  -9.7424  -9.7002  -9.7002
    -8.6251  -8.6251  -8.5800  -8.5800  -8.2422  -8.2422  -8.2096  -8.2096
    -7.7701  -7.7701  -7.6864  -7.6864  -7.5227  -7.5227  -7.4984  -7.4984
    -7.2275  -7.2275  -7.1969  -7.1969  -6.9472  -6.9472  -6.9168  -6.9168
    -6.6859  -6.6859  -6.5763  -6.5763  -6.4128  -6.4128  -6.3382  -6.3382
    -6.1975  -6.1975  -6.1818  -6.1818  -6.1017  -6.1017  -6.0511  -6.0511
    -5.9066  -5.9066  -5.9047  -5.9047  -5.5507  -5.5507  -5.5303  -5.5303
    -5.3508  -5.3508  -5.3198  -5.3198  -4.5209  -4.5209  -4.3601  -4.3601
    -4.2195  -4.2195  -3.9389  -3.9389  -3.7924  -3.7924  -3.7227  -3.7227
    -3.2534  -3.2534  -3.0115  -3.0115  -2.8953  -2.8953  -2.8392  -2.8392
    -2.3834  -2.3834  -2.2688  -2.2688  -1.5189  -1.5189  -1.4680  -1.4680
    -1.4547  -1.4547  -1.3503  -1.3503  -1.2784  -1.2784  -1.2594  -1.2594
    -1.1471  -1.1471  -1.1463  -1.1463  -1.0051  -1.0051  -0.9976  -0.9976
    -0.8824  -0.8824  -0.8496  -0.8496  -0.7349  -0.7349  -0.7001  -0.7001
    -0.6546  -0.6546  -0.5807  -0.5807  -0.4219  -0.4219  -0.3399  -0.3399
    -0.1478  -0.1478  -0.1143  -0.1143   0.6983   0.6983   0.7295   0.7295
     2.2044   2.2044   2.2205   2.2205   4.1139   4.1139   4.1193   4.1193
     4.2731   4.2731   4.3143   4.3143   4.4558   4.4558   4.5067   4.5067
     4.6855   4.6855   4.7646   4.7646   6.4638   6.4638   6.7779   6.7779
     7.2614   7.2614   7.2821   7.2821   8.4204   8.4204   8.6144   8.6144
     8.8757   8.8757   9.1506   9.1506

          k =-0.5000-0.3270 0.4387 ( 93392 PWs)   bands (ev):

   -25.2256 -25.2213 -25.2198 -25.2153 -25.0902 -25.0900 -25.0853 -25.0852
   -24.1033 -24.1031 -24.1031 -24.1031 -20.6461 -20.6446 -20.6361 -20.6345
   -20.4599 -20.4593 -20.4588 -20.4572 -20.3078 -20.3075 -20.3071 -20.3051
   -20.1634 -20.1570 -20.1567 -20.1508 -19.7362 -19.7317 -19.7170 -19.7116
   -19.4162 -19.4160 -19.4019 -19.4013 -13.1868 -13.1752 -13.1584 -13.1474
   -11.0484 -11.0440 -11.0243 -11.0203  -9.8669  -9.8438  -9.8347  -9.8189
    -8.6250  -8.5982  -8.5980  -8.5709  -8.2652  -8.2537  -8.2188  -8.1720
    -7.7090  -7.6899  -7.6581  -7.6506  -7.4469  -7.4270  -7.4213  -7.4081
    -7.2727  -7.2670  -7.1639  -7.1142  -7.0409  -6.9601  -6.9545  -6.9088
    -6.7880  -6.7267  -6.6789  -6.6721  -6.3362  -6.2974  -6.2900  -6.2581
    -6.1582  -6.1436  -6.1254  -6.1250  -6.0598  -6.0541  -6.0430  -6.0313
    -5.9403  -5.9231  -5.9031  -5.9002  -5.5763  -5.5646  -5.5179  -5.5034
    -5.3576  -5.3470  -5.3454  -5.3423  -4.5981  -4.5642  -4.5459  -4.5052
    -4.1891  -4.1001  -3.9961  -3.9869  -3.8116  -3.7167  -3.7164  -3.6609
    -3.1808  -3.1218  -3.0765  -3.0340  -2.9187  -2.9127  -2.9052  -2.8817
    -2.3856  -2.3227  -2.3148  -2.2689  -1.5679  -1.5264  -1.4991  -1.4897
    -1.4441  -1.4048  -1.4020  -1.3424  -1.2607  -1.2400  -1.2344  -1.2287
    -1.1833  -1.1722  -1.1523  -1.1464  -1.0186  -1.0156  -0.9913  -0.9722
    -0.9298  -0.8751  -0.8456  -0.8022  -0.7668  -0.7603  -0.7334  -0.7296
    -0.7092  -0.6793  -0.6632  -0.6291  -0.3145  -0.2999  -0.2914  -0.2864
    -0.1754  -0.1136  -0.1098  -0.1015   0.6985   0.7217   0.7580   0.7592
     2.1907   2.1993   2.2110   2.2359   4.1025   4.1068   4.1107   4.1178
     4.2406   4.2560   4.3311   4.3329   4.4783   4.4794   4.4959   4.5300
     4.6790   4.7341   4.7354   4.7566   6.4900   6.5840   6.6550   6.7280
     7.1777   7.1916   7.2870   7.2940   8.5319   8.5825   8.5868   8.7548
     8.8452   9.0049   9.1599   9.2252

     highest occupied, lowest unoccupied level (ev):     2.2044    2.2110

!    total energy              =   -2075.20992109 Ry
     Harris-Foulkes estimate   =   -2075.20992109 Ry
     estimated scf accuracy    <          1.5E-09 Ry

     total all-electron energy =     -7662.452809 Ry

     The total energy is the sum of the following terms:

     one-electron contribution =   -1027.93991172 Ry
     hartree contribution      =     656.80450482 Ry
     xc contribution           =    -389.78517313 Ry
     ewald contribution        =    -791.77409278 Ry
     Dispersion Correction     =      -0.33999061 Ry
     one-center paw contrib.   =    -522.17525767 Ry

     convergence has been achieved in  23 iterations

     Forces acting on atoms (cartesian axes, Ry/au):

     atom    1 type  4   force =     0.00127351    0.00120905   -0.00255048
     atom    2 type  4   force =    -0.00127853    0.00121108   -0.00255049
     atom    3 type  4   force =     0.00127351   -0.00120905   -0.00255048
     atom    4 type  4   force =    -0.00127853   -0.00121108   -0.00255049
     atom    5 type  4   force =     0.00525881   -0.00119202   -0.00062640
     atom    6 type  4   force =    -0.00524129   -0.00119022   -0.00062798
     atom    7 type  4   force =     0.00525881    0.00119202   -0.00062640
     atom    8 type  4   force =    -0.00524129    0.00119022   -0.00062798
     atom    9 type  4   force =    -0.00422464   -0.00202195   -0.00393575
     atom   10 type  4   force =     0.00421990   -0.00202519   -0.00395172
     atom   11 type  4   force =    -0.00422464    0.00202195   -0.00393575
     atom   12 type  4   force =     0.00421990    0.00202519   -0.00395172
     atom   13 type  4   force =    -0.00274015   -0.00067900   -0.00408448
     atom   14 type  4   force =     0.00274001   -0.00067702   -0.00408491
     atom   15 type  4   force =    -0.00274015    0.00067900   -0.00408448
     atom   16 type  4   force =     0.00274001    0.00067702   -0.00408491
     atom   17 type  4   force =     0.00020885    0.00080297    0.00089558
     atom   18 type  4   force =    -0.00021012    0.00080424    0.00090506
     atom   19 type  4   force =     0.00020885   -0.00080297    0.00089558
     atom   20 type  4   force =    -0.00021012   -0.00080424    0.00090506
     atom   21 type  4   force =     0.00029635    0.00100289   -0.00010660
     atom   22 type  4   force =    -0.00029552    0.00100414   -0.00011375
     atom   23 type  4   force =     0.00029635   -0.00100289   -0.00010660
     atom   24 type  4   force =    -0.00029552   -0.00100414   -0.00011375
     atom   25 type  4   force =     0.00053570   -0.00014769    0.00104682
     atom   26 type  4   force =    -0.00053927   -0.00014986    0.00104782
     atom   27 type  4   force =     0.00053570    0.00014769    0.00104682
     atom   28 type  4   force =    -0.00053927    0.00014986    0.00104782
     atom   29 type  4   force =    -0.00027335   -0.00055238    0.00004989
     atom   30 type  4   force =     0.00028188   -0.00054707    0.00005676
     atom   31 type  4   force =    -0.00027335    0.00055238    0.00004989
     atom   32 type  4   force =     0.00028188    0.00054707    0.00005676
     atom   33 type  4   force =     0.00042470   -0.00396159   -0.00176825
     atom   34 type  4   force =    -0.00042382   -0.00396950   -0.00176951
     atom   35 type  4   force =     0.00042470    0.00396159   -0.00176825
     atom   36 type  4   force =    -0.00042382    0.00396950   -0.00176951
     atom   37 type  2   force =    -0.00252448    0.00060124    0.00411883
     atom   38 type  2   force =     0.00251107    0.00060258    0.00413799
     atom   39 type  2   force =    -0.00252448   -0.00060124    0.00411883
     atom   40 type  2   force =     0.00251107   -0.00060258    0.00413799
     atom   41 type  2   force =     0.00270566   -0.00198597   -0.00068911
     atom   42 type  2   force =    -0.00270685   -0.00198595   -0.00068925
     atom   43 type  2   force =     0.00270566    0.00198597   -0.00068911
     atom   44 type  2   force =    -0.00270685    0.00198595   -0.00068925
     atom   45 type  2   force =    -0.00107194    0.00455418   -0.00038996
     atom   46 type  2   force =     0.00107433    0.00455468   -0.00038890
     atom   47 type  2   force =    -0.00107194   -0.00455418   -0.00038996
     atom   48 type  2   force =     0.00107433   -0.00455468   -0.00038890
     atom   49 type  1   force =    -0.00243157   -0.00017155    0.00537406
     atom   50 type  1   force =     0.00243364   -0.00017481    0.00537325
     atom   51 type  1   force =    -0.00243157    0.00017155    0.00537406
     atom   52 type  1   force =     0.00243364    0.00017481    0.00537325
     atom   53 type  1   force =    -0.00194218    0.00167117    0.00456949
     atom   54 type  1   force =     0.00193984    0.00166677    0.00456240
     atom   55 type  1   force =    -0.00194218   -0.00167117    0.00456949
     atom   56 type  1   force =     0.00193984   -0.00166677    0.00456240
     atom   57 type  1   force =     0.00043691   -0.00011605   -0.00046064
     atom   58 type  1   force =    -0.00043970   -0.00012121   -0.00045303
     atom   59 type  1   force =     0.00043691    0.00011605   -0.00046064
     atom   60 type  1   force =    -0.00043970    0.00012121   -0.00045303
     atom   61 type  3   force =     0.00150696    0.00030382   -0.00197782
     atom   62 type  3   force =    -0.00150660    0.00030320   -0.00197862
     atom   63 type  3   force =     0.00150696   -0.00030382   -0.00197782
     atom   64 type  3   force =    -0.00150660   -0.00030320   -0.00197862
     atom   65 type  3   force =     0.00053852   -0.00033650   -0.00030956
     atom   66 type  3   force =    -0.00053781   -0.00033931   -0.00030944
     atom   67 type  3   force =     0.00053852    0.00033650   -0.00030956
     atom   68 type  3   force =    -0.00053781    0.00033931   -0.00030944
     atom   69 type  3   force =    -0.00003447   -0.00012876   -0.00025675
     atom   70 type  3   force =     0.00003443   -0.00012971   -0.00025634
     atom   71 type  3   force =    -0.00003447    0.00012876   -0.00025675
     atom   72 type  3   force =     0.00003443    0.00012971   -0.00025634
     atom   73 type  3   force =     0.00064756   -0.00005048    0.00109498
     atom   74 type  3   force =    -0.00064633   -0.00005129    0.00109680
     atom   75 type  3   force =     0.00064756    0.00005048    0.00109498
     atom   76 type  3   force =    -0.00064633    0.00005129    0.00109680

     Total force =     0.031824     Total SCF correction =     0.000102


     Computing stress (Cartesian axis) and pressure

          total   stress  (Ry/bohr**3)                   (kbar)     P=   15.25
   0.00010608   0.00000000  -0.00000001         15.60      0.00     -0.00
   0.00000000   0.00014462   0.00000000          0.00     21.27      0.00
  -0.00000001   0.00000000   0.00006031         -0.00      0.00      8.87


     Writing output data file scf.save
 
     init_run     :     32.99s CPU     35.08s WALL (       1 calls)
     electrons    :   1444.73s CPU   1500.30s WALL (       1 calls)
     forces       :     15.22s CPU     15.40s WALL (       1 calls)
     stress       :    111.50s CPU    111.80s WALL (       1 calls)

     Called by init_run:
     wfcinit      :     27.30s CPU     28.49s WALL (       1 calls)
     potinit      :      2.03s CPU      2.09s WALL (       1 calls)

     Called by electrons:
     c_bands      :   1238.94s CPU   1287.29s WALL (      23 calls)
     sum_band     :    189.31s CPU    195.01s WALL (      23 calls)
     v_of_rho     :      2.78s CPU      2.99s WALL (      24 calls)
     newd         :      4.66s CPU      5.92s WALL (      24 calls)
     PAW_pot      :      8.26s CPU      8.30s WALL (      24 calls)
     mix_rho      :      0.72s CPU      0.81s WALL (      23 calls)

     Called by c_bands:
     init_us_2    :     10.59s CPU     10.63s WALL (     392 calls)
     cegterg      :   1195.31s CPU   1243.56s WALL (     184 calls)

     Called by sum_band:
     sum_band:bec :      0.14s CPU      0.14s WALL (     184 calls)
     addusdens    :      5.28s CPU      6.38s WALL (      23 calls)

     Called by *egterg:
     h_psi        :    771.26s CPU    801.96s WALL (     611 calls)
     s_psi        :    118.29s CPU    118.32s WALL (     611 calls)
     g_psi        :      4.34s CPU      4.34s WALL (     419 calls)
     cdiaghg      :     55.19s CPU     55.43s WALL (     603 calls)

     Called by h_psi:
     h_psi:pot    :    765.27s CPU    795.88s WALL (     611 calls)
     h_psi:calbec :    114.22s CPU    114.54s WALL (     611 calls)
     vloc_psi     :    532.88s CPU    563.16s WALL (     611 calls)
     add_vuspsi   :    118.16s CPU    118.18s WALL (     611 calls)

     General routines
     calbec       :    175.85s CPU    176.30s WALL (     835 calls)
     fft          :      1.50s CPU      2.53s WALL (     336 calls)
     fftw         :    601.89s CPU    634.31s WALL (  204188 calls)
 
     Parallel routines
     fft_scatter  :    100.62s CPU    124.13s WALL (  204524 calls)
 
     PWSCF        : 26m55.05s CPU    28m44.71s WALL

 
   This run was terminated on:   3: 5: 1   5Nov2017            

=------------------------------------------------------------------------------=
   JOB DONE.
=------------------------------------------------------------------------------=
