
     Program PWSCF v.6.1 (svn rev. 13369) starts on  4Nov2017 at 16:50: 9 

     This program is part of the open-source Quantum ESPRESSO suite
     for quantum simulation of materials; please cite
         "P. Giannozzi et al., J. Phys.:Condens. Matter 21 395502 (2009);
          URL http://www.quantum-espresso.org", 
     in publications or presentations arising from this work. More details at
     http://www.quantum-espresso.org/quote

     Parallel version (MPI), running on     8 processors
     R & G space division:  proc/nbgrp/npool/nimage =       8
     Waiting for input...
     Reading input from standard input

     Current dimensions of program PWSCF are:
     Max number of different atomic species (ntypx) = 10
     Max number of k-points (npk) =  40000
     Max angular momentum in pseudopotentials (lmaxx) =  3
               file C.pbe-n-kjpaw_psl.0.1.UPF: wavefunction(s)  2P renormalized
               file N.pbe-n-kjpaw_psl.0.1.UPF: wavefunction(s)  2P renormalized
               file H.pbe-kjpaw_psl.0.1.UPF: wavefunction(s)  1S renormalized
               file O.pbe-n-kjpaw_psl.0.1.UPF: wavefunction(s)  2P renormalized

     -------------------------------------
     Parameters for Dispersion Correction:
     -------------------------------------
       atom      VdW radius       C_6     

        C          2.744         60.710
        N          2.640         42.670
        H          1.892          4.857
        O          2.536         24.284

     Subspace diagonalization in iterative solution of the eigenvalue problem:
     a serial algorithm will be used

 
     Parallelization info
     --------------------
     sticks:   dense  smooth     PW     G-vecs:    dense   smooth      PW
     Min         608     608    160                61729    61729    8403
     Max         609     609    161                61734    61734    8408
     Sum        4871    4871   1287               493861   493861   67253
 


     bravais-lattice index     =            0
     lattice parameter (alat)  =      12.5863  a.u.
     unit-cell volume          =    3655.5321 (a.u.)^3
     number of atoms/cell      =           44
     number of atomic types    =            4
     number of electrons       =       204.00
     number of Kohn-Sham states=          122
     kinetic-energy cutoff     =     100.0000  Ry
     charge density cutoff     =     400.0000  Ry
     convergence threshold     =      1.0E-08
     mixing beta               =       0.5000
     number of iterations used =            8  plain     mixing
     Exchange-correlation      =  SLA  PW   PBX  PBC ( 1  4  3  4 0 0)

     celldm(1)=  12.586332  celldm(2)=   0.000000  celldm(3)=   0.000000
     celldm(4)=   0.000000  celldm(5)=   0.000000  celldm(6)=   0.000000

     crystal axes: (cart. coord. in units of alat)
               a(1) = (   1.000000   0.000000   0.000000 )  
               a(2) = (  -0.285516   0.965124   0.000000 )  
               a(3) = (  -0.187888  -0.341577   1.899634 )  

     reciprocal axes: (cart. coord. in units 2 pi/alat)
               b(1) = (  1.000000  0.295834  0.152102 )  
               b(2) = (  0.000000  1.036136  0.186309 )  
               b(3) = (  0.000000  0.000000  0.526417 )  


     PseudoPot. # 1 for  C read from file:
     /scratch/ahofstet/pseudo/C.pbe-n-kjpaw_psl.0.1.UPF
     MD5 check sum: 430fe95172b1e11ef3f8ed03bac87931
     Pseudo is Projector augmented-wave + core cor, Zval =  4.0
     Generated using "atomic" code by A. Dal Corso  v.5.0.99 svn rev. 10869
     Shape of augmentation charge: BESSEL
     Using radial grid of 1073 points,  4 beta functions with: 
                l(1) =   0
                l(2) =   0
                l(3) =   1
                l(4) =   1
     Q(r) pseudized with 0 coefficients 


     PseudoPot. # 2 for  N read from file:
     /scratch/ahofstet/pseudo/N.pbe-n-kjpaw_psl.0.1.UPF
     MD5 check sum: f73187c8b701007e77325f868c9291d7
     Pseudo is Projector augmented-wave + core cor, Zval =  5.0
     Generated using "atomic" code by A. Dal Corso  v.5.0.99 svn rev. 10869
     Shape of augmentation charge: PSQ
     Using radial grid of 1085 points,  4 beta functions with: 
                l(1) =   0
                l(2) =   0
                l(3) =   1
                l(4) =   1
     Q(r) pseudized with 0 coefficients 


     PseudoPot. # 3 for  H read from file:
     /scratch/ahofstet/pseudo/H.pbe-kjpaw_psl.0.1.UPF
     MD5 check sum: 94e484f906d9e9773b2f6e52662335b2
     Pseudo is Projector augmented-wave, Zval =  1.0
     Generated using "atomic" code by A. Dal Corso  v.5.0.99 svn rev. 10869
     Shape of augmentation charge: PSQ
     Using radial grid of  929 points,  2 beta functions with: 
                l(1) =   0
                l(2) =   0
     Q(r) pseudized with 0 coefficients 


     PseudoPot. # 4 for  O read from file:
     /scratch/ahofstet/pseudo/O.pbe-n-kjpaw_psl.0.1.UPF
     MD5 check sum: 3f94a2996a3169367d6eb21d9b593f20
     Pseudo is Projector augmented-wave + core cor, Zval =  6.0
     Generated using "atomic" code by A. Dal Corso  v.5.0.99 svn rev. 10869
     Shape of augmentation charge: BESSEL
     Using radial grid of 1095 points,  4 beta functions with: 
                l(1) =   0
                l(2) =   0
                l(3) =   1
                l(4) =   1
     Q(r) pseudized with 0 coefficients 


     atomic species   valence    mass     pseudopotential
        C              4.00    12.01070      C( 1.00)
        N              5.00    14.00670      N( 1.00)
        H              1.00     1.00794      H( 1.00)
        O              6.00    15.99940      O( 1.00)

      2 Sym. Ops., with inversion, found



   Cartesian axes

     site n.     atom                  positions (alat units)
         1           N   tau(   1) = (  -0.3178724   0.6207746   1.2346889  )
         2           N   tau(   2) = (   0.8444685   0.0027729   0.6649450  )
         3           N   tau(   3) = (   0.4419977   0.5300911   1.0224215  )
         4           N   tau(   4) = (   0.0845984   0.0934564   0.8772124  )
         5           N   tau(   5) = (   0.6219984   0.5409929   0.9160565  )
         6           N   tau(   6) = (  -0.0954023   0.0825546   0.9835774  )
         7           N   tau(   7) = (  -0.2016950   0.6825053   1.3911132  )
         8           N   tau(   8) = (   0.7282910  -0.0589577   0.5085207  )
         9           N   tau(   9) = (  -0.0183350  -0.2239676   1.5385344  )
        10           N   tau(  10) = (   0.5449311   0.8475151   0.3610996  )
        11           N   tau(  11) = (   0.1021155  -0.1671255   1.6942262  )
        12           N   tau(  12) = (   0.4244806   0.7906730   0.2054077  )
        13           N   tau(  13) = (   0.3617642   0.2813402   0.1012614  )
        14           N   tau(  14) = (   0.1648319   0.3422073   1.7983725  )
        15           N   tau(  15) = (   0.3529275  -0.0980485   1.8979697  )
        16           N   tau(  16) = (   0.1736686   0.7215960   0.0016642  )
        17           N   tau(  17) = (  -0.0339050   0.6159543   1.0113984  )
        18           N   tau(  18) = (   0.5605011   0.0075932   0.8882355  )
        19           N   tau(  19) = (   0.0219527   0.5832040   0.8363911  )
        20           N   tau(  20) = (   0.5046434   0.0403436   1.0632429  )
        21           N   tau(  21) = (   0.0912505   0.5592186   0.6823886  )
        22           N   tau(  22) = (   0.4353455   0.0643290   1.2172454  )
        23           N   tau(  23) = (   0.3483339   0.5594078   1.3721370  )
        24           N   tau(  24) = (   0.1782622   0.0641397   0.5274970  )
        25           N   tau(  25) = (   0.2074702   0.4367901   1.3495624  )
        26           N   tau(  26) = (   0.3191259   0.1867575   0.5500716  )
        27           N   tau(  27) = (   0.0744012   0.3308560   1.3575332  )
        28           N   tau(  28) = (   0.4521949   0.2926915   0.5421008  )
        29           N   tau(  29) = (   0.0084714   0.2513551   0.0044749  )
        30           N   tau(  30) = (   0.5181246   0.3721924   1.8951591  )
        31           N   tau(  31) = (  -0.0468651   0.3173483   0.1704781  )
        32           N   tau(  32) = (   0.5734612   0.3061992   1.7291558  )
        33           N   tau(  33) = (  -0.1178188   0.3743791   0.3146866  )
        34           N   tau(  34) = (   0.6444149   0.2491685   1.5849473  )
        35           C   tau(  35) = (  -0.2370790   0.5904383   1.0450291  )
        36           C   tau(  36) = (   0.7636751   0.0331093   0.8546048  )
        37           C   tau(  37) = (   0.4784555   0.5738056   1.2111124  )
        38           C   tau(  38) = (   0.0481405   0.0497419   0.6885215  )
        39           C   tau(  39) = (   0.0258482  -0.1019596   1.8761461  )
        40           C   tau(  40) = (   0.5007478   0.7255072   0.0234878  )
        41           C   tau(  41) = (   0.3089374  -0.1610315   1.7170719  )
        42           C   tau(  42) = (   0.2176587   0.7845790   0.1825620  )
        43           H   tau(  43) = (   0.4138003  -0.2022709   1.5996922  )
        44           H   tau(  44) = (   0.1127958   0.8258185   0.2999417  )

     number of k points=    10
                       cart. coord. in units 2pi/alat
        k(    1) = (   0.0000000   0.0000000   0.0000000), wk =   0.1111111
        k(    2) = (   0.0000000   0.0000000  -0.2632086), wk =   0.1111111
        k(    3) = (   0.0000000   0.3453787   0.0621032), wk =   0.2222222
        k(    4) = (   0.0000000   0.3453787  -0.2011054), wk =   0.2222222
        k(    5) = (   0.3333333   0.0986113   0.0507006), wk =   0.2222222
        k(    6) = (   0.3333333   0.0986113  -0.2125081), wk =   0.2222222
        k(    7) = (   0.3333333   0.4439900   0.1128037), wk =   0.2222222
        k(    8) = (   0.3333333   0.4439900  -0.1504049), wk =   0.2222222
        k(    9) = (   0.3333333  -0.2467675  -0.0114026), wk =   0.2222222
        k(   10) = (   0.3333333  -0.2467675  -0.2746112), wk =   0.2222222

     Dense  grid:   493861 G-vectors     FFT dimensions: (  81,  81, 160)

     Estimated max dynamical RAM per process >     357.41MB

     Estimated total allocated dynamical RAM >    2859.25MB

     Check: negative/imaginary core charge=   -0.000002    0.000000

     Initial potential from superposition of free atoms

     starting charge  203.99940, renormalised to  204.00000
     Starting wfc are  170 randomized atomic wfcs
     Checking if some PAW data can be deallocated... 

     total cpu time spent up to now is       20.7 secs

     per-process dynamical memory:   291.5 Mb

     Self-consistent Calculation

     iteration #  1     ecut=   100.00 Ry     beta=0.50
     Davidson diagonalization with overlap
     ethr =  1.00E-02,  avg # of iterations =  3.0

     total cpu time spent up to now is       61.0 secs

     total energy              =   -1107.00243194 Ry
     Harris-Foulkes estimate   =   -1109.01636401 Ry
     estimated scf accuracy    <       3.85884346 Ry

     iteration #  2     ecut=   100.00 Ry     beta=0.50
     Davidson diagonalization with overlap
     ethr =  1.89E-03,  avg # of iterations =  3.0

     total cpu time spent up to now is       89.1 secs

     total energy              =   -1107.47791068 Ry
     Harris-Foulkes estimate   =   -1107.94468275 Ry
     estimated scf accuracy    <       0.97052627 Ry

     iteration #  3     ecut=   100.00 Ry     beta=0.50
     Davidson diagonalization with overlap
     ethr =  4.76E-04,  avg # of iterations =  2.9

     total cpu time spent up to now is      117.7 secs

     total energy              =   -1107.70345972 Ry
     Harris-Foulkes estimate   =   -1107.78250476 Ry
     estimated scf accuracy    <       0.19011632 Ry

     iteration #  4     ecut=   100.00 Ry     beta=0.50
     Davidson diagonalization with overlap
     ethr =  9.32E-05,  avg # of iterations =  8.5

     total cpu time spent up to now is      155.3 secs

     total energy              =   -1107.74255666 Ry
     Harris-Foulkes estimate   =   -1107.76647128 Ry
     estimated scf accuracy    <       0.06217702 Ry

     iteration #  5     ecut=   100.00 Ry     beta=0.50
     Davidson diagonalization with overlap
     ethr =  3.05E-05,  avg # of iterations =  6.6

     total cpu time spent up to now is      185.1 secs

     total energy              =   -1107.75540150 Ry
     Harris-Foulkes estimate   =   -1107.75884554 Ry
     estimated scf accuracy    <       0.01067779 Ry

     iteration #  6     ecut=   100.00 Ry     beta=0.50
     Davidson diagonalization with overlap
     c_bands:  1 eigenvalues not converged
     ethr =  5.23E-06,  avg # of iterations = 12.0

     total cpu time spent up to now is      229.3 secs

     total energy              =   -1107.75818756 Ry
     Harris-Foulkes estimate   =   -1107.75861804 Ry
     estimated scf accuracy    <       0.00133792 Ry

     iteration #  7     ecut=   100.00 Ry     beta=0.50
     Davidson diagonalization with overlap
     ethr =  6.56E-07,  avg # of iterations =  4.3

     total cpu time spent up to now is      262.3 secs

     total energy              =   -1107.75849247 Ry
     Harris-Foulkes estimate   =   -1107.75860320 Ry
     estimated scf accuracy    <       0.00030596 Ry

     iteration #  8     ecut=   100.00 Ry     beta=0.50
     Davidson diagonalization with overlap
     ethr =  1.50E-07,  avg # of iterations =  3.1

     total cpu time spent up to now is      291.1 secs

     total energy              =   -1107.75854670 Ry
     Harris-Foulkes estimate   =   -1107.75859861 Ry
     estimated scf accuracy    <       0.00015368 Ry

     iteration #  9     ecut=   100.00 Ry     beta=0.50
     Davidson diagonalization with overlap
     ethr =  7.53E-08,  avg # of iterations =  3.1

     total cpu time spent up to now is      316.9 secs

     total energy              =   -1107.75857625 Ry
     Harris-Foulkes estimate   =   -1107.75858194 Ry
     estimated scf accuracy    <       0.00001832 Ry

     iteration # 10     ecut=   100.00 Ry     beta=0.50
     Davidson diagonalization with overlap
     ethr =  8.98E-09,  avg # of iterations =  3.7

     total cpu time spent up to now is      353.7 secs

     total energy              =   -1107.75858262 Ry
     Harris-Foulkes estimate   =   -1107.75858372 Ry
     estimated scf accuracy    <       0.00000316 Ry

     iteration # 11     ecut=   100.00 Ry     beta=0.50
     Davidson diagonalization with overlap
     ethr =  1.55E-09,  avg # of iterations =  3.0

     total cpu time spent up to now is      380.8 secs

     total energy              =   -1107.75858314 Ry
     Harris-Foulkes estimate   =   -1107.75858326 Ry
     estimated scf accuracy    <       0.00000043 Ry

     iteration # 12     ecut=   100.00 Ry     beta=0.50
     Davidson diagonalization with overlap
     ethr =  2.09E-10,  avg # of iterations =  4.0

     total cpu time spent up to now is      419.3 secs

     total energy              =   -1107.75858328 Ry
     Harris-Foulkes estimate   =   -1107.75858333 Ry
     estimated scf accuracy    <       0.00000013 Ry

     iteration # 13     ecut=   100.00 Ry     beta=0.50
     Davidson diagonalization with overlap
     ethr =  6.47E-11,  avg # of iterations =  3.2

     total cpu time spent up to now is      446.9 secs

     total energy              =   -1107.75858330 Ry
     Harris-Foulkes estimate   =   -1107.75858331 Ry
     estimated scf accuracy    <       0.00000002 Ry

     iteration # 14     ecut=   100.00 Ry     beta=0.50
     Davidson diagonalization with overlap
     ethr =  1.15E-11,  avg # of iterations =  3.7

     total cpu time spent up to now is      479.1 secs

     End of self-consistent calculation

          k = 0.0000 0.0000 0.0000 ( 61709 PWs)   bands (ev):

   -21.8178 -21.7329 -21.6794 -21.6176 -21.5997 -21.5614 -21.4207 -21.4201
   -20.1273 -20.0625 -19.2000 -19.1076 -18.0048 -18.0014 -17.7525 -17.7456
   -17.6118 -17.6094 -17.1494 -17.1192 -14.9985 -14.9786 -13.4852 -13.4653
   -13.2380 -13.2365 -11.7373 -11.6982 -10.3691 -10.3505 -10.2140 -10.1921
   -10.0682 -10.0591  -9.0130  -8.9873  -7.8208  -7.8059  -6.9090  -6.9080
    -6.5011  -6.4072  -6.2762  -6.2614  -6.2476  -6.0388  -5.7773  -5.6483
    -5.6176  -5.4088  -5.3485  -5.3151  -5.2775  -5.2497  -5.1521  -5.0831
    -4.9845  -4.8540  -4.6763  -4.4113  -4.1962  -4.0945  -4.0178  -3.8480
    -3.8226  -3.7102  -3.5244  -3.4698  -3.4164  -3.3752  -3.3112  -2.7464
    -1.5419  -1.4992  -1.4428  -1.4198  -1.2475  -1.2281  -1.1848  -1.0382
    -0.8810  -0.8661  -0.7363  -0.7154  -0.4680  -0.4579  -0.4052  -0.3133
    -0.2077   0.0212   0.3116   0.3423   0.5606   0.6249   0.9340   1.0420
     1.0878   1.1200   1.3707   1.4963   1.7182   1.9340   3.7759   3.9632
     5.0821   5.1354   5.2801   5.2886   5.4550   5.5797   5.6457   5.6555
     5.6905   5.7946   5.9621   6.0325   6.9305   7.0843   7.5569   7.6895
     7.9965   8.0339

          k = 0.0000 0.0000-0.2632 ( 61694 PWs)   bands (ev):

   -21.8049 -21.7585 -21.6722 -21.6137 -21.5835 -21.5766 -21.4264 -21.4133
   -20.1051 -20.0884 -19.1768 -19.1271 -18.0049 -18.0020 -17.7535 -17.7474
   -17.6115 -17.6076 -17.1469 -17.1210 -14.9915 -14.9856 -13.4861 -13.4648
   -13.2381 -13.2362 -11.7242 -11.7117 -10.3673 -10.3545 -10.2067 -10.1951
   -10.0678 -10.0596  -9.0153  -8.9852  -7.8198  -7.8144  -6.9372  -6.8754
    -6.5044  -6.3941  -6.2611  -6.2599  -6.2171  -6.1307  -5.8093  -5.5229
    -5.4997  -5.4509  -5.4116  -5.3783  -5.3447  -5.1874  -5.1686  -5.0892
    -4.9134  -4.8910  -4.6273  -4.5149  -4.1741  -4.1190  -4.0168  -3.9506
    -3.7644  -3.6686  -3.5155  -3.4759  -3.3894  -3.3287  -3.2138  -2.8870
    -1.5728  -1.4740  -1.4709  -1.3327  -1.2703  -1.2441  -1.1823  -1.0453
    -0.9076  -0.8468  -0.7445  -0.6678  -0.5273  -0.4491  -0.4167  -0.2903
    -0.1900   0.0043   0.2922   0.3876   0.5798   0.5827   0.9719   1.0250
     1.0689   1.1196   1.3673   1.4994   1.7263   1.9352   3.8026   3.9212
     5.0872   5.1222   5.2367   5.3169   5.4918   5.5624   5.6456   5.7069
     5.7390   5.7817   5.9632   5.9636   6.9663   7.0488   7.5573   7.6847
     7.9906   8.0379

          k = 0.0000 0.3454 0.0621 ( 61694 PWs)   bands (ev):

   -21.7985 -21.7497 -21.6730 -21.6345 -21.5929 -21.5589 -21.4266 -21.4158
   -20.1175 -20.0726 -19.1774 -19.1304 -18.0086 -17.9976 -17.7695 -17.7312
   -17.6127 -17.6077 -17.1431 -17.1259 -15.0024 -14.9754 -13.4811 -13.4706
   -13.2358 -13.2338 -11.7296 -11.7062 -10.3674 -10.3547 -10.2088 -10.1937
   -10.0769 -10.0526  -9.0139  -8.9890  -7.8229  -7.8132  -6.9310  -6.8820
    -6.4863  -6.4024  -6.2804  -6.2410  -6.1211  -5.9377  -5.7326  -5.7298
    -5.6813  -5.5342  -5.4117  -5.3408  -5.2655  -5.2037  -5.1455  -5.0842
    -4.9700  -4.8831  -4.6481  -4.4468  -4.1682  -4.0814  -4.0115  -3.9378
    -3.7393  -3.6891  -3.5165  -3.4505  -3.3738  -3.3586  -3.2660  -2.9366
    -1.6331  -1.5652  -1.4058  -1.3546  -1.2976  -1.2228  -1.1425  -1.0564
    -0.9547  -0.8913  -0.8452  -0.5369  -0.5191  -0.4253  -0.3847  -0.2702
    -0.2053   0.0034   0.3146   0.3525   0.4914   0.7022   0.9504   1.0187
     1.0629   1.1276   1.4149   1.5378   1.7086   1.9457   3.7965   3.9190
     5.0870   5.1043   5.2490   5.3487   5.4030   5.6023   5.6463   5.6776
     5.7174   5.7884   5.9276   5.9998   6.9504   7.0930   7.5610   7.6237
     8.0297   8.1136

          k = 0.0000 0.3454-0.2011 ( 61711 PWs)   bands (ev):

   -21.7927 -21.7619 -21.6603 -21.6351 -21.6000 -21.5570 -21.4271 -21.4158
   -20.1036 -20.0870 -19.1714 -19.1360 -18.0086 -17.9978 -17.7686 -17.7308
   -17.6154 -17.6058 -17.1458 -17.1235 -14.9910 -14.9869 -13.4813 -13.4702
   -13.2358 -13.2339 -11.7226 -11.7129 -10.3638 -10.3580 -10.2059 -10.1987
   -10.0773 -10.0519  -9.0037  -8.9987  -7.8228  -7.8092  -6.9230  -6.8921
    -6.4838  -6.4156  -6.2643  -6.2487  -6.0971  -5.9793  -5.7614  -5.7301
    -5.6408  -5.5288  -5.4146  -5.3491  -5.2415  -5.1672  -5.1438  -5.1402
    -4.9293  -4.9125  -4.5991  -4.5281  -4.1635  -4.0637  -3.9873  -3.9109
    -3.7929  -3.7247  -3.5033  -3.4574  -3.3902  -3.3308  -3.1898  -2.9848
    -1.6382  -1.5342  -1.4279  -1.3749  -1.2924  -1.1883  -1.1463  -1.1018
    -0.9962  -0.8733  -0.8249  -0.5390  -0.4765  -0.4614  -0.3722  -0.2812
    -0.1395  -0.0267   0.3086   0.3595   0.5332   0.6300   0.9520   1.0234
     1.0854   1.1081   1.4199   1.5328   1.7106   1.9475   3.8325   3.8884
     5.0811   5.1123   5.2389   5.3361   5.4652   5.5209   5.6668   5.6985
     5.7148   5.7442   5.9403   6.0265   6.9611   7.0905   7.5466   7.6409
     8.0037   8.0960

          k = 0.3333 0.0986 0.0507 ( 61727 PWs)   bands (ev):

   -21.7844 -21.7381 -21.6656 -21.6228 -21.5966 -21.5595 -21.4437 -21.4385
   -20.1207 -20.0855 -19.1866 -19.1233 -17.9935 -17.9902 -17.7527 -17.7496
   -17.6187 -17.6091 -17.1508 -17.1241 -14.9927 -14.9799 -13.4690 -13.4529
   -13.2137 -13.2117 -11.7209 -11.7000 -10.3775 -10.3664 -10.2208 -10.2047
   -10.0983 -10.0904  -8.9971  -8.9569  -7.8516  -7.8147  -6.9318  -6.8826
    -6.5052  -6.4193  -6.3209  -6.2759  -6.2616  -5.9607  -5.8581  -5.7716
    -5.5303  -5.4264  -5.3792  -5.3206  -5.2610  -5.1298  -5.1167  -5.0653
    -5.0388  -4.9269  -4.5763  -4.3825  -4.2564  -4.1410  -4.0132  -3.8811
    -3.8004  -3.7300  -3.6325  -3.5430  -3.3297  -3.3120  -3.2389  -2.9089
    -1.6017  -1.5650  -1.4496  -1.3325  -1.2455  -1.1442  -1.1098  -1.0507
    -0.9774  -0.9321  -0.8226  -0.7657  -0.4657  -0.3256  -0.2807  -0.2560
    -0.0793   0.1815   0.2921   0.3508   0.6170   0.6517   0.9669   1.0604
     1.0928   1.1577   1.4384   1.5253   1.7516   1.8588   3.8398   4.0520
     5.0383   5.0536   5.3458   5.3870   5.4393   5.5212   5.5451   5.6098
     5.7570   5.8676   5.9328   6.0027   6.9220   7.1017   7.5298   7.6222
     8.0083   8.1474

          k = 0.3333 0.0986-0.2125 ( 61777 PWs)   bands (ev):

   -21.7749 -21.7449 -21.6817 -21.6147 -21.5792 -21.5722 -21.4496 -21.4314
   -20.1298 -20.0767 -19.1968 -19.1122 -17.9944 -17.9902 -17.7533 -17.7512
   -17.6166 -17.6090 -17.1519 -17.1234 -14.9941 -14.9780 -13.4692 -13.4529
   -13.2136 -13.2118 -11.7276 -11.6942 -10.3742 -10.3713 -10.2182 -10.2015
   -10.0996 -10.0910  -8.9981  -8.9564  -7.8566  -7.8165  -6.9203  -6.8895
    -6.4885  -6.4335  -6.3053  -6.2897  -6.2497  -6.0461  -5.8119  -5.6813
    -5.5459  -5.4343  -5.3882  -5.3541  -5.2718  -5.1818  -5.1106  -5.0445
    -4.9623  -4.9444  -4.6347  -4.3399  -4.2451  -4.1660  -3.9949  -3.9553
    -3.8077  -3.6417  -3.6239  -3.5500  -3.3363  -3.3094  -3.2747  -2.8793
    -1.5951  -1.5383  -1.4346  -1.3789  -1.2380  -1.2031  -1.1459  -1.0208
    -0.9719  -0.9120  -0.8174  -0.7620  -0.4540  -0.3363  -0.3112  -0.2305
    -0.0392   0.1335   0.2890   0.3977   0.5879   0.6623   0.9513   1.0436
     1.1186   1.1500   1.4462   1.5460   1.7385   1.8604   3.8563   4.0154
     5.0172   5.0654   5.3279   5.4266   5.4520   5.5064   5.5942   5.6251
     5.7510   5.8202   5.8978   6.0345   6.9426   7.0753   7.5237   7.6238
     8.0128   8.1321

          k = 0.3333 0.4440 0.1128 ( 61769 PWs)   bands (ev):

   -21.7656 -21.7507 -21.6650 -21.6348 -21.5927 -21.5591 -21.4484 -21.4321
   -20.1101 -20.0964 -19.1648 -19.1463 -17.9966 -17.9876 -17.7631 -17.7405
   -17.6189 -17.6079 -17.1497 -17.1269 -14.9953 -14.9780 -13.4642 -13.4588
   -13.2155 -13.2055 -11.7147 -11.7066 -10.3784 -10.3665 -10.2113 -10.2104
   -10.1017 -10.0885  -8.9861  -8.9704  -7.8584  -7.8193  -6.9277  -6.8825
    -6.5022  -6.4115  -6.3132  -6.2756  -6.1558  -5.9602  -5.7596  -5.7377
    -5.6816  -5.5098  -5.3762  -5.3064  -5.2544  -5.2043  -5.1428  -5.0340
    -4.9897  -4.9239  -4.5546  -4.4207  -4.2048  -4.1287  -3.9939  -3.9078
    -3.7876  -3.7647  -3.5957  -3.5328  -3.3287  -3.2838  -3.1499  -3.1047
    -1.6430  -1.5849  -1.4208  -1.3171  -1.2581  -1.1629  -1.1393  -1.0951
    -1.0241  -0.9210  -0.8833  -0.6348  -0.4102  -0.3775  -0.3206  -0.2397
    -0.0659   0.1592   0.2839   0.3639   0.5706   0.7045   0.9641   1.0456
     1.0904   1.1410   1.4318   1.6309   1.6875   1.9143   3.8657   4.0014
     5.0160   5.0855   5.3016   5.4153   5.4301   5.5352   5.5921   5.6193
     5.7087   5.8438   5.9069   6.0379   6.9065   7.0907   7.5511   7.5924
     8.0620   8.0696

          k = 0.3333 0.4440-0.1504 ( 61767 PWs)   bands (ev):

   -21.7673 -21.7500 -21.6601 -21.6380 -21.5948 -21.5568 -21.4508 -21.4306
   -20.1235 -20.0818 -19.1839 -19.1284 -17.9962 -17.9880 -17.7622 -17.7405
   -17.6183 -17.6092 -17.1467 -17.1302 -14.9962 -14.9771 -13.4642 -13.4587
   -13.2155 -13.2055 -11.7222 -11.6988 -10.3766 -10.3679 -10.2239 -10.2002
   -10.1008 -10.0885  -8.9948  -8.9615  -7.8554  -7.8188  -6.9210  -6.8919
    -6.4806  -6.4412  -6.3045  -6.2759  -6.1480  -5.9957  -5.7705  -5.7027
    -5.6726  -5.5065  -5.3929  -5.3165  -5.2698  -5.1441  -5.1000  -5.0787
    -4.9970  -4.9362  -4.6341  -4.3401  -4.1981  -4.1168  -3.9810  -3.9205
    -3.8079  -3.7275  -3.6324  -3.5324  -3.3203  -3.2874  -3.2493  -3.0173
    -1.6301  -1.5836  -1.4299  -1.2979  -1.2588  -1.1819  -1.1306  -1.1018
    -1.0191  -0.9662  -0.8553  -0.6331  -0.4230  -0.3971  -0.2798  -0.2578
    -0.0074   0.1042   0.3147   0.3586   0.5433   0.7183   0.9487   1.0377
     1.1134   1.1355   1.4367   1.6408   1.6838   1.9089   3.8493   4.0206
     5.0158   5.0970   5.3071   5.3914   5.4187   5.5400   5.5718   5.6285
     5.7178   5.8469   5.8912   6.0549   6.9494   7.0610   7.5257   7.6146
     8.0428   8.0585

          k = 0.3333-0.2468-0.0114 ( 61741 PWs)   bands (ev):

   -21.7820 -21.7364 -21.6626 -21.6325 -21.5973 -21.5595 -21.4491 -21.4282
   -20.1240 -20.0825 -19.1832 -19.1285 -17.9951 -17.9894 -17.7637 -17.7401
   -17.6150 -17.6111 -17.1486 -17.1291 -14.9919 -14.9813 -13.4710 -13.4520
   -13.2148 -13.2064 -11.7206 -11.7008 -10.3810 -10.3634 -10.2183 -10.2038
   -10.1037 -10.0843  -8.9887  -8.9674  -7.8486  -7.8300  -6.9072  -6.9045
    -6.5158  -6.4129  -6.2927  -6.2891  -6.1825  -5.9358  -5.8583  -5.7085
    -5.6512  -5.4952  -5.4276  -5.3009  -5.1949  -5.1552  -5.0890  -5.0706
    -5.0044  -4.9284  -4.5655  -4.3978  -4.2003  -4.1381  -3.9942  -3.9006
    -3.8009  -3.7030  -3.6304  -3.5677  -3.3335  -3.3029  -3.2631  -2.9537
    -1.5932  -1.5540  -1.4051  -1.3608  -1.3003  -1.1936  -1.1483  -1.0771
    -0.9822  -0.9162  -0.9068  -0.6807  -0.4970  -0.3529  -0.2934  -0.2347
    -0.0616   0.1560   0.2884   0.3627   0.5902   0.6914   0.9325   1.0598
     1.1023   1.1363   1.4721   1.5844   1.6755   1.9251   3.8785   4.0002
     5.0177   5.0939   5.3238   5.3711   5.4705   5.5484   5.6062   5.6436
     5.7082   5.7364   5.8834   6.0803   6.9008   7.0778   7.5648   7.6280
     8.0059   8.0755

          k = 0.3333-0.2468-0.2746 ( 61708 PWs)   bands (ev):

   -21.7826 -21.7336 -21.6688 -21.6292 -21.5962 -21.5597 -21.4464 -21.4311
   -20.1151 -20.0920 -19.1691 -19.1422 -17.9948 -17.9899 -17.7626 -17.7402
   -17.6153 -17.6117 -17.1493 -17.1278 -14.9982 -14.9755 -13.4706 -13.4523
   -13.2147 -13.2065 -11.7193 -11.7014 -10.3787 -10.3645 -10.2265 -10.1983
   -10.1049 -10.0827  -8.9881  -8.9677  -7.8579  -7.8183  -6.9361  -6.8769
    -6.4945  -6.4362  -6.2911  -6.2868  -6.1489  -6.0590  -5.7434  -5.7136
    -5.6459  -5.5262  -5.4307  -5.3024  -5.1811  -5.1688  -5.1132  -5.0197
    -4.9745  -4.9569  -4.6187  -4.3820  -4.2143  -4.1293  -3.9581  -3.8967
    -3.8193  -3.7255  -3.6280  -3.5537  -3.3194  -3.2732  -3.2158  -3.0461
    -1.6046  -1.5623  -1.4377  -1.3245  -1.2791  -1.2134  -1.1128  -1.0629
    -1.0164  -0.9093  -0.8898  -0.6837  -0.4814  -0.3635  -0.3008  -0.2383
    -0.0657   0.1401   0.2929   0.3810   0.5302   0.7297   0.9681   1.0352
     1.0743   1.1579   1.4780   1.6028   1.6616   1.9207   3.8914   3.9879
     5.0488   5.0741   5.3117   5.3924   5.4341   5.5143   5.5994   5.6673
     5.7182   5.7490   5.9168   6.0557   6.9391   7.0494   7.5835   7.6137
     7.9833   8.0935

     highest occupied, lowest unoccupied level (ev):     1.9475    3.7759

!    total energy              =   -1107.75858330 Ry
     Harris-Foulkes estimate   =   -1107.75858331 Ry
     estimated scf accuracy    <          7.5E-09 Ry

     total all-electron energy =     -4334.030624 Ry

     The total energy is the sum of the following terms:

     one-electron contribution =    -550.76078153 Ry
     hartree contribution      =     355.59461014 Ry
     xc contribution           =    -217.10308455 Ry
     ewald contribution        =    -360.44204463 Ry
     Dispersion Correction     =      -0.24101284 Ry
     one-center paw contrib.   =    -334.80626988 Ry

     convergence has been achieved in  14 iterations

     Forces acting on atoms (cartesian axes, Ry/au):

     atom    1 type  2   force =     0.00316906   -0.00180710   -0.00042674
     atom    2 type  2   force =    -0.00316906    0.00180710    0.00042674
     atom    3 type  2   force =     0.00476572   -0.00497275   -0.00359854
     atom    4 type  2   force =    -0.00476572    0.00497275    0.00359854
     atom    5 type  2   force =     0.00067299    0.00009524    0.00615196
     atom    6 type  2   force =    -0.00067299   -0.00009524   -0.00615196
     atom    7 type  2   force =     0.00219994    0.00318843    0.00248998
     atom    8 type  2   force =    -0.00219994   -0.00318843   -0.00248998
     atom    9 type  2   force =    -0.00153378   -0.00230965    0.00049045
     atom   10 type  2   force =     0.00153378    0.00230965   -0.00049045
     atom   11 type  2   force =    -0.00016600    0.00203760   -0.00015955
     atom   12 type  2   force =     0.00016600   -0.00203760    0.00015955
     atom   13 type  2   force =    -0.00509849   -0.00624350   -0.00711713
     atom   14 type  2   force =     0.00509849    0.00624350    0.00711713
     atom   15 type  2   force =    -0.00704249    0.00104831   -0.00199419
     atom   16 type  2   force =     0.00704249   -0.00104831    0.00199419
     atom   17 type  2   force =    -0.00466151   -0.00028727   -0.00326811
     atom   18 type  2   force =     0.00466151    0.00028727    0.00326811
     atom   19 type  2   force =    -0.00478835    0.00259100    0.00236946
     atom   20 type  2   force =     0.00478835   -0.00259100   -0.00236946
     atom   21 type  2   force =     0.00224666    0.00070076    0.00082244
     atom   22 type  2   force =    -0.00224666   -0.00070076   -0.00082244
     atom   23 type  2   force =    -0.00268443   -0.00261622    0.00162933
     atom   24 type  2   force =     0.00268443    0.00261622   -0.00162933
     atom   25 type  2   force =     0.00273330    0.00161706    0.00065951
     atom   26 type  2   force =    -0.00273330   -0.00161706   -0.00065951
     atom   27 type  2   force =    -0.00116963    0.00044203    0.00005425
     atom   28 type  2   force =     0.00116963   -0.00044203   -0.00005425
     atom   29 type  2   force =     0.00647038    0.00258436    0.00814601
     atom   30 type  2   force =    -0.00647038   -0.00258436   -0.00814601
     atom   31 type  2   force =     0.00695116   -0.00249998   -0.00804121
     atom   32 type  2   force =    -0.00695116    0.00249998    0.00804121
     atom   33 type  2   force =    -0.00409340    0.00029967    0.00002829
     atom   34 type  2   force =     0.00409340   -0.00029967   -0.00002829
     atom   35 type  1   force =    -0.00308570    0.00405373   -0.00504827
     atom   36 type  1   force =     0.00308570   -0.00405373    0.00504827
     atom   37 type  1   force =    -0.00000393   -0.00086026   -0.00445324
     atom   38 type  1   force =     0.00000393    0.00086026    0.00445324
     atom   39 type  1   force =     0.00243604   -0.00092343    0.00554325
     atom   40 type  1   force =    -0.00243604    0.00092343   -0.00554325
     atom   41 type  1   force =     0.00114107    0.00422368    0.00315156
     atom   42 type  1   force =    -0.00114107   -0.00422368   -0.00315156
     atom   43 type  3   force =     0.00076774    0.00027659    0.00033046
     atom   44 type  3   force =    -0.00076774   -0.00027659   -0.00033046

     Total force =     0.040223     Total SCF correction =     0.000178


     Computing stress (Cartesian axis) and pressure

          total   stress  (Ry/bohr**3)                   (kbar)     P=   -3.35
  -0.00005238  -0.00000852   0.00001720         -7.71     -1.25      2.53
  -0.00000852  -0.00001506  -0.00000326         -1.25     -2.22     -0.48
   0.00001720  -0.00000326  -0.00000084          2.53     -0.48     -0.12


     Writing output data file scf.save
 
     init_run     :     19.15s CPU     20.02s WALL (       1 calls)
     electrons    :    438.65s CPU    458.57s WALL (       1 calls)
     forces       :      9.50s CPU      9.55s WALL (       1 calls)
     stress       :     41.97s CPU     42.01s WALL (       1 calls)

     Called by init_run:
     wfcinit      :     11.81s CPU     12.51s WALL (       1 calls)
     potinit      :      2.64s CPU      2.67s WALL (       1 calls)

     Called by electrons:
     c_bands      :    383.10s CPU    400.14s WALL (      14 calls)
     sum_band     :     49.20s CPU     51.37s WALL (      14 calls)
     v_of_rho     :      1.03s CPU      1.13s WALL (      15 calls)
     newd         :      1.99s CPU      2.43s WALL (      15 calls)
     PAW_pot      :      3.08s CPU      3.09s WALL (      15 calls)
     mix_rho      :      0.25s CPU      0.28s WALL (      14 calls)

     Called by c_bands:
     init_us_2    :      3.85s CPU      3.86s WALL (     310 calls)
     cegterg      :    368.05s CPU    385.06s WALL (     140 calls)

     Called by sum_band:
     sum_band:bec :      0.03s CPU      0.03s WALL (     140 calls)
     addusdens    :      2.14s CPU      2.58s WALL (      14 calls)

     Called by *egterg:
     h_psi        :    233.32s CPU    245.24s WALL (     791 calls)
     s_psi        :     32.60s CPU     32.60s WALL (     791 calls)
     g_psi        :      1.78s CPU      1.78s WALL (     641 calls)
     cdiaghg      :     30.34s CPU     30.37s WALL (     781 calls)

     Called by h_psi:
     h_psi:pot    :    231.20s CPU    243.08s WALL (     791 calls)
     h_psi:calbec :     29.83s CPU     29.97s WALL (     791 calls)
     vloc_psi     :    168.76s CPU    180.49s WALL (     791 calls)
     add_vuspsi   :     32.61s CPU     32.62s WALL (     791 calls)

     General routines
     calbec       :     45.72s CPU     45.93s WALL (     981 calls)
     fft          :      0.86s CPU      1.12s WALL (     219 calls)
     fftw         :    184.42s CPU    197.15s WALL (  109010 calls)
 
     Parallel routines
     fft_scatter  :     37.10s CPU     44.61s WALL (  109229 calls)
 
     PWSCF        :  8m34.96s CPU     8m57.00s WALL

 
   This run was terminated on:  16:59: 6   4Nov2017            

=------------------------------------------------------------------------------=
   JOB DONE.
=------------------------------------------------------------------------------=
