
     Program PWSCF v.6.1 (svn rev. 13369) starts on  4Dec2017 at 20:18:55 

     This program is part of the open-source Quantum ESPRESSO suite
     for quantum simulation of materials; please cite
         "P. Giannozzi et al., J. Phys.:Condens. Matter 21 395502 (2009);
          URL http://www.quantum-espresso.org", 
     in publications or presentations arising from this work. More details at
     http://www.quantum-espresso.org/quote

     Parallel version (MPI), running on     8 processors
     R & G space division:  proc/nbgrp/npool/nimage =       8
     Waiting for input...
     Reading input from standard input

     Current dimensions of program PWSCF are:
     Max number of different atomic species (ntypx) = 10
     Max number of k-points (npk) =  40000
     Max angular momentum in pseudopotentials (lmaxx) =  3
               file C.pbe-n-kjpaw_psl.0.1.UPF: wavefunction(s)  2P renormalized
               file N.pbe-n-kjpaw_psl.0.1.UPF: wavefunction(s)  2P renormalized
               file H.pbe-kjpaw_psl.0.1.UPF: wavefunction(s)  1S renormalized
               file O.pbe-n-kjpaw_psl.0.1.UPF: wavefunction(s)  2P renormalized

     -------------------------------------
     Parameters for Dispersion Correction:
     -------------------------------------
       atom      VdW radius       C_6     

        C          2.744         60.710
        N          2.640         42.670
        H          1.892          4.857
        O          2.536         24.284

     Subspace diagonalization in iterative solution of the eigenvalue problem:
     a serial algorithm will be used

 
     Parallelization info
     --------------------
     sticks:   dense  smooth     PW     G-vecs:    dense   smooth      PW
     Min         790     790    213                44514    44514    6244
     Max         791     791    214                44516    44516    6246
     Sum        6325    6325   1709               356121   356121   49961
 


     bravais-lattice index     =            0
     lattice parameter (alat)  =      14.2011  a.u.
     unit-cell volume          =    2635.6164 (a.u.)^3
     number of atoms/cell      =           42
     number of atomic types    =            4
     number of electrons       =       152.00
     number of Kohn-Sham states=           91
     kinetic-energy cutoff     =     100.0000  Ry
     charge density cutoff     =     400.0000  Ry
     convergence threshold     =      1.0E-08
     mixing beta               =       0.5000
     number of iterations used =            8  plain     mixing
     Exchange-correlation      =  SLA  PW   PBX  PBC ( 1  4  3  4 0 0)

     celldm(1)=  14.201103  celldm(2)=   0.000000  celldm(3)=   0.000000
     celldm(4)=   0.000000  celldm(5)=   0.000000  celldm(6)=   0.000000

     crystal axes: (cart. coord. in units of alat)
               a(1) = (   1.000000   0.000000   0.000000 )  
               a(2) = (  -0.434730   0.983712   0.000000 )  
               a(3) = (  -0.045252  -0.568604   0.935509 )  

     reciprocal axes: (cart. coord. in units 2 pi/alat)
               b(1) = (  1.000000  0.441928  0.316977 )  
               b(2) = (  0.000000  1.016558  0.617866 )  
               b(3) = (  0.000000  0.000000  1.068936 )  


     PseudoPot. # 1 for  C read from file:
     /scratch/ahofstet/pseudo/C.pbe-n-kjpaw_psl.0.1.UPF
     MD5 check sum: 430fe95172b1e11ef3f8ed03bac87931
     Pseudo is Projector augmented-wave + core cor, Zval =  4.0
     Generated using "atomic" code by A. Dal Corso  v.5.0.99 svn rev. 10869
     Shape of augmentation charge: BESSEL
     Using radial grid of 1073 points,  4 beta functions with: 
                l(1) =   0
                l(2) =   0
                l(3) =   1
                l(4) =   1
     Q(r) pseudized with 0 coefficients 


     PseudoPot. # 2 for  N read from file:
     /scratch/ahofstet/pseudo/N.pbe-n-kjpaw_psl.0.1.UPF
     MD5 check sum: f73187c8b701007e77325f868c9291d7
     Pseudo is Projector augmented-wave + core cor, Zval =  5.0
     Generated using "atomic" code by A. Dal Corso  v.5.0.99 svn rev. 10869
     Shape of augmentation charge: PSQ
     Using radial grid of 1085 points,  4 beta functions with: 
                l(1) =   0
                l(2) =   0
                l(3) =   1
                l(4) =   1
     Q(r) pseudized with 0 coefficients 


     PseudoPot. # 3 for  H read from file:
     /scratch/ahofstet/pseudo/H.pbe-kjpaw_psl.0.1.UPF
     MD5 check sum: 94e484f906d9e9773b2f6e52662335b2
     Pseudo is Projector augmented-wave, Zval =  1.0
     Generated using "atomic" code by A. Dal Corso  v.5.0.99 svn rev. 10869
     Shape of augmentation charge: PSQ
     Using radial grid of  929 points,  2 beta functions with: 
                l(1) =   0
                l(2) =   0
     Q(r) pseudized with 0 coefficients 


     PseudoPot. # 4 for  O read from file:
     /scratch/ahofstet/pseudo/O.pbe-n-kjpaw_psl.0.1.UPF
     MD5 check sum: 3f94a2996a3169367d6eb21d9b593f20
     Pseudo is Projector augmented-wave + core cor, Zval =  6.0
     Generated using "atomic" code by A. Dal Corso  v.5.0.99 svn rev. 10869
     Shape of augmentation charge: BESSEL
     Using radial grid of 1095 points,  4 beta functions with: 
                l(1) =   0
                l(2) =   0
                l(3) =   1
                l(4) =   1
     Q(r) pseudized with 0 coefficients 


     atomic species   valence    mass     pseudopotential
        C              4.00    12.01070      C( 1.00)
        N              5.00    14.00670      N( 1.00)
        H              1.00     1.00794      H( 1.00)
        O              6.00    15.99940      O( 1.00)

      2 Sym. Ops., with inversion, found



   Cartesian axes

     site n.     atom                  positions (alat units)
         1           O   tau(   1) = (  -0.1927846   0.0522778   0.6577862  )
         2           O   tau(   2) = (   0.7128023   0.3628297   0.2777233  )
         3           O   tau(   3) = (   0.3594498  -0.0655611   0.6664063  )
         4           O   tau(   4) = (   0.1605678   0.4806685   0.2691031  )
         5           N   tau(   5) = (   0.7682766  -0.0536885   0.3660032  )
         6           N   tau(   6) = (  -0.2482589   0.4687960   0.5695063  )
         7           N   tau(   7) = (   0.0356464  -0.0660360   0.4725092  )
         8           N   tau(   8) = (   0.4843713   0.4811435   0.4630003  )
         9           N   tau(   9) = (   0.0442142  -0.1348033   0.3041971  )
        10           N   tau(  10) = (   0.4758034   0.5499108   0.6313123  )
        11           N   tau(  11) = (   0.4274548   0.0764381   0.9313216  )
        12           N   tau(  12) = (   0.0925628   0.3386693   0.0041879  )
        13           N   tau(  13) = (   0.3366794   0.0626404   0.7794192  )
        14           N   tau(  14) = (   0.1833382   0.3524671   0.1560902  )
        15           N   tau(  15) = (   0.2111732   0.1874150   0.7582475  )
        16           N   tau(  16) = (   0.3088445   0.2276925   0.1772620  )
        17           N   tau(  17) = (   0.2181238   0.2882936   0.9040078  )
        18           N   tau(  18) = (   0.3018939   0.1268139   0.0315017  )
        19           N   tau(  19) = (   0.5851815  -0.0281634   0.3468306  )
        20           N   tau(  20) = (  -0.0651639   0.4432709   0.5886789  )
        21           C   tau(  21) = (   0.8801789  -0.1279443   0.2428515  )
        22           C   tau(  22) = (  -0.3601613   0.5430517   0.6926579  )
        23           C   tau(  23) = (  -0.1322619  -0.0130102   0.5187354  )
        24           C   tau(  24) = (   0.6522795   0.4281177   0.4167741  )
        25           C   tau(  25) = (   0.3934757   0.7878587   0.0705553  )
        26           C   tau(  26) = (   0.1265419  -0.3727512   0.8649542  )
        27           H   tau(  27) = (   0.5644312   0.0991065   0.3016261  )
        28           H   tau(  28) = (  -0.0444136   0.3160009   0.6338834  )
        29           H   tau(  29) = (   0.5281810  -0.0363047   0.4715345  )
        30           H   tau(  30) = (  -0.0081634   0.4514122   0.4639749  )
        31           H   tau(  31) = (   0.1508213  -0.0600628   0.5486581  )
        32           H   tau(  32) = (   0.3691963   0.4751702   0.3868513  )
        33           N   tau(  33) = (  -0.0879693   0.7132725   0.0914959  )
        34           N   tau(  34) = (   0.6079870  -0.2981651   0.8440135  )
        35           H   tau(  35) = (  -0.0038316   0.6285064   0.1624503  )
        36           H   tau(  36) = (   0.5238492  -0.2133989   0.7730592  )
        37           H   tau(  37) = (  -0.2049770   0.7366774   0.1615832  )
        38           H   tau(  38) = (   0.7249947  -0.3215699   0.7739262  )
        39           H   tau(  39) = (  -0.0258581   0.8349065   0.0770394  )
        40           H   tau(  40) = (   0.5458757  -0.4197990   0.8584700  )
        41           H   tau(  41) = (  -0.1580959   0.0913244   0.9018436  )
        42           H   tau(  42) = (   0.6781135   0.3237830   0.0336658  )

     number of k points=    14
                       cart. coord. in units 2pi/alat
        k(    1) = (   0.0000000   0.0000000   0.0000000), wk =   0.0740741
        k(    2) = (   0.0000000   0.0000000   0.3563121), wk =   0.1481481
        k(    3) = (   0.0000000   0.3388527   0.2059552), wk =   0.1481481
        k(    4) = (   0.0000000   0.3388527   0.5622673), wk =   0.1481481
        k(    5) = (   0.0000000   0.3388527  -0.1503569), wk =   0.1481481
        k(    6) = (   0.3333333   0.1473095   0.1056588), wk =   0.1481481
        k(    7) = (   0.3333333   0.1473095   0.4619709), wk =   0.1481481
        k(    8) = (   0.3333333   0.1473095  -0.2506532), wk =   0.1481481
        k(    9) = (   0.3333333   0.4861622   0.3116140), wk =   0.1481481
        k(   10) = (   0.3333333   0.4861622   0.6679261), wk =   0.1481481
        k(   11) = (   0.3333333   0.4861622  -0.0446980), wk =   0.1481481
        k(   12) = (   0.3333333  -0.1915432  -0.1002964), wk =   0.1481481
        k(   13) = (   0.3333333  -0.1915432   0.2560157), wk =   0.1481481
        k(   14) = (   0.3333333  -0.1915432  -0.4566084), wk =   0.1481481

     Dense  grid:   356121 G-vectors     FFT dimensions: (  96, 100, 100)

     Estimated max dynamical RAM per process >     231.89MB

     Estimated total allocated dynamical RAM >    1855.08MB

     Check: negative/imaginary core charge=   -0.000002    0.000000

     Initial potential from superposition of free atoms

     starting charge  151.99948, renormalised to  152.00000
     Starting wfc are  126 randomized atomic wfcs
     Checking if some PAW data can be deallocated... 

     total cpu time spent up to now is       14.2 secs

     per-process dynamical memory:   246.5 Mb

     Self-consistent Calculation

     iteration #  1     ecut=   100.00 Ry     beta=0.50
     Davidson diagonalization with overlap
     ethr =  1.00E-02,  avg # of iterations =  3.1

     total cpu time spent up to now is       44.1 secs

     total energy              =    -800.80598152 Ry
     Harris-Foulkes estimate   =    -802.82867940 Ry
     estimated scf accuracy    <       3.82622911 Ry

     iteration #  2     ecut=   100.00 Ry     beta=0.50
     Davidson diagonalization with overlap
     ethr =  2.52E-03,  avg # of iterations =  3.0

     total cpu time spent up to now is       66.0 secs

     total energy              =    -801.46527428 Ry
     Harris-Foulkes estimate   =    -801.76949284 Ry
     estimated scf accuracy    <       0.66720988 Ry

     iteration #  3     ecut=   100.00 Ry     beta=0.50
     Davidson diagonalization with overlap
     ethr =  4.39E-04,  avg # of iterations =  7.9

     total cpu time spent up to now is       92.7 secs

     total energy              =    -801.60697478 Ry
     Harris-Foulkes estimate   =    -801.64744317 Ry
     estimated scf accuracy    <       0.11540362 Ry

     iteration #  4     ecut=   100.00 Ry     beta=0.50
     Davidson diagonalization with overlap
     ethr =  7.59E-05,  avg # of iterations =  6.1

     total cpu time spent up to now is      114.9 secs

     total energy              =    -801.62428298 Ry
     Harris-Foulkes estimate   =    -801.63022172 Ry
     estimated scf accuracy    <       0.02066585 Ry

     iteration #  5     ecut=   100.00 Ry     beta=0.50
     Davidson diagonalization with overlap
     ethr =  1.36E-05,  avg # of iterations =  7.8

     total cpu time spent up to now is      141.1 secs

     total energy              =    -801.62813904 Ry
     Harris-Foulkes estimate   =    -801.62914758 Ry
     estimated scf accuracy    <       0.00294185 Ry

     iteration #  6     ecut=   100.00 Ry     beta=0.50
     Davidson diagonalization with overlap
     ethr =  1.94E-06,  avg # of iterations =  7.2

     total cpu time spent up to now is      170.5 secs

     total energy              =    -801.62890432 Ry
     Harris-Foulkes estimate   =    -801.62917720 Ry
     estimated scf accuracy    <       0.00076392 Ry

     iteration #  7     ecut=   100.00 Ry     beta=0.50
     Davidson diagonalization with overlap
     ethr =  5.03E-07,  avg # of iterations =  2.0

     total cpu time spent up to now is      189.8 secs

     total energy              =    -801.62904744 Ry
     Harris-Foulkes estimate   =    -801.62906440 Ry
     estimated scf accuracy    <       0.00007014 Ry

     iteration #  8     ecut=   100.00 Ry     beta=0.50
     Davidson diagonalization with overlap
     ethr =  4.61E-08,  avg # of iterations =  3.0

     total cpu time spent up to now is      214.7 secs

     total energy              =    -801.62906819 Ry
     Harris-Foulkes estimate   =    -801.62907247 Ry
     estimated scf accuracy    <       0.00001489 Ry

     iteration #  9     ecut=   100.00 Ry     beta=0.50
     Davidson diagonalization with overlap
     ethr =  9.80E-09,  avg # of iterations =  3.0

     total cpu time spent up to now is      234.6 secs

     total energy              =    -801.62907093 Ry
     Harris-Foulkes estimate   =    -801.62907132 Ry
     estimated scf accuracy    <       0.00000180 Ry

     iteration # 10     ecut=   100.00 Ry     beta=0.50
     Davidson diagonalization with overlap
     ethr =  1.18E-09,  avg # of iterations =  3.1

     total cpu time spent up to now is      258.9 secs

     total energy              =    -801.62907152 Ry
     Harris-Foulkes estimate   =    -801.62907163 Ry
     estimated scf accuracy    <       0.00000041 Ry

     iteration # 11     ecut=   100.00 Ry     beta=0.50
     Davidson diagonalization with overlap
     ethr =  2.68E-10,  avg # of iterations =  3.0

     total cpu time spent up to now is      278.3 secs

     total energy              =    -801.62907158 Ry
     Harris-Foulkes estimate   =    -801.62907160 Ry
     estimated scf accuracy    <       0.00000006 Ry

     iteration # 12     ecut=   100.00 Ry     beta=0.50
     Davidson diagonalization with overlap
     ethr =  4.17E-11,  avg # of iterations =  3.0

     total cpu time spent up to now is      302.3 secs

     total energy              =    -801.62907160 Ry
     Harris-Foulkes estimate   =    -801.62907161 Ry
     estimated scf accuracy    <       0.00000002 Ry

     iteration # 13     ecut=   100.00 Ry     beta=0.50
     Davidson diagonalization with overlap
     ethr =  1.06E-11,  avg # of iterations =  2.0

     total cpu time spent up to now is      320.8 secs

     End of self-consistent calculation

          k = 0.0000 0.0000 0.0000 ( 44561 PWs)   bands (ev):

   -22.2286 -22.1849 -20.3547 -20.2593 -18.8657 -18.8333 -18.2479 -18.2200
   -17.4431 -17.4093 -15.8673 -15.8438 -15.7947 -15.7881 -14.0387 -14.0121
   -13.2561 -13.2514 -12.8481 -12.8170 -10.0886 -10.0539  -8.8470  -8.8431
    -8.2531  -8.1844  -7.9528  -7.8049  -6.5108  -6.4823  -6.0127  -5.8045
    -5.7841  -5.6095  -5.5842  -5.4061  -5.3759  -5.3715  -5.3276  -5.2518
    -5.2109  -5.1024  -5.0760  -4.9093  -4.1724  -4.1535  -3.8563  -3.8022
    -3.3044  -3.2039  -2.3046  -2.1637  -2.0959  -2.0123  -1.5806  -1.3831
    -0.9498  -0.8870  -0.8102  -0.7879  -0.2685  -0.2580  -0.1749  -0.1405
    -0.0390   0.0474   0.3975   0.6172   0.7244   0.7392   1.0288   1.2310
     1.4336   1.6584   1.9043   2.1277   5.5786   5.6290   5.9662   6.0798
     7.3134   7.4441   7.5034   7.8467   7.9912   9.3622   9.3944   9.4946
     9.6191   9.8952   9.9101

          k = 0.0000 0.0000 0.3563 ( 44533 PWs)   bands (ev):

   -22.2268 -22.1848 -20.3614 -20.2658 -18.8569 -18.8264 -18.2458 -18.2204
   -17.4428 -17.4088 -15.8626 -15.8317 -15.7849 -15.7758 -14.1582 -14.0820
   -13.1620 -13.1606 -12.8969 -12.8505  -9.9824  -9.9380  -8.9593  -8.9305
    -8.1866  -8.0983  -7.9158  -7.8203  -6.7481  -6.6290  -5.9808  -5.9153
    -5.7857  -5.6210  -5.5616  -5.4974  -5.4330  -5.3839  -5.2253  -5.1784
    -5.1138  -4.9526  -4.8655  -4.8026  -4.3121  -4.2052  -3.9844  -3.8432
    -3.3664  -3.2771  -2.1894  -2.1651  -2.1116  -1.9719  -1.6235  -1.3402
    -0.8755  -0.8653  -0.7361  -0.6722  -0.2989  -0.2335  -0.1663  -0.1142
    -0.0285   0.0663   0.3805   0.5417   0.6688   0.7384   0.8935   1.1050
     1.5003   1.6795   1.9492   2.1756   5.5942   5.6465   6.0005   6.0429
     7.2731   7.4109   7.5798   8.0232   8.1311   8.6559   9.2427   9.4261
     9.5400   9.8966  10.0080

          k = 0.0000 0.3389 0.2060 ( 44507 PWs)   bands (ev):

   -22.2263 -22.1850 -20.3436 -20.2852 -18.8624 -18.8233 -18.2422 -18.2209
   -17.4537 -17.3994 -15.8779 -15.8273 -15.7960 -15.7406 -14.1452 -14.0998
   -13.1779 -13.1532 -12.8997 -12.8504  -9.9886  -9.9394  -8.9476  -8.9423
    -8.1782  -8.0894  -7.9328  -7.8172  -6.7506  -6.6160  -5.9807  -5.9350
    -5.6909  -5.6504  -5.5662  -5.5358  -5.3946  -5.3215  -5.2610  -5.2169
    -5.0841  -4.9327  -4.8836  -4.8050  -4.3439  -4.2328  -4.2048  -3.6327
    -3.3461  -3.2820  -2.2910  -2.0924  -1.9965  -1.9652  -1.5891  -1.3702
    -0.8850  -0.8536  -0.7395  -0.7113  -0.4012  -0.2909  -0.2375  -0.1374
     0.0015   0.0863   0.4552   0.5418   0.7165   0.7821   0.9446   1.0586
     1.5416   1.6192   1.8663   2.2475   5.4928   5.7441   5.9351   6.1319
     7.3124   7.3695   7.4660   7.9965   8.2237   8.7212   9.0719   9.5105
     9.7311   9.8511   9.9048

          k = 0.0000 0.3389 0.5623 ( 44493 PWs)   bands (ev):

   -22.2256 -22.1857 -20.3427 -20.2862 -18.8620 -18.8238 -18.2405 -18.2224
   -17.4530 -17.4001 -15.8820 -15.8254 -15.7928 -15.7420 -14.1525 -14.0916
   -13.1776 -13.1532 -12.9018 -12.8487  -9.9836  -9.9434  -8.9586  -8.9326
    -8.1978  -8.0825  -7.9063  -7.8330  -6.7372  -6.6152  -6.0059  -5.8998
    -5.7073  -5.6078  -5.5517  -5.4713  -5.3792  -5.3372  -5.3079  -5.2636
    -5.0978  -5.0103  -4.8740  -4.8199  -4.4322  -4.1915  -4.0951  -3.6346
    -3.3258  -3.2980  -2.3169  -2.0839  -2.0356  -1.9164  -1.5937  -1.3745
    -0.9054  -0.8697  -0.7230  -0.6843  -0.3833  -0.3016  -0.2345  -0.0709
    -0.0400   0.0635   0.4593   0.5521   0.7280   0.7668   0.9384   1.0542
     1.5276   1.6495   1.8964   2.1926   5.5090   5.7243   5.9505   6.1104
     7.3201   7.3694   7.7195   7.9812   8.4017   8.5857   8.7278   9.2926
     9.6308   9.8077   9.8875

          k = 0.0000 0.3389-0.1504 ( 44507 PWs)   bands (ev):

   -22.2267 -22.1865 -20.3359 -20.2798 -18.8705 -18.8313 -18.2407 -18.2240
   -17.4547 -17.3987 -15.8898 -15.8423 -15.7960 -15.7531 -14.0469 -14.0078
   -13.2632 -13.2517 -12.8551 -12.8131 -10.0846 -10.0653  -8.8594  -8.8309
    -8.2665  -8.1697  -7.9402  -7.8186  -6.5084  -6.4731  -5.8871  -5.8117
    -5.7159  -5.6615  -5.5638  -5.4381  -5.3851  -5.3457  -5.3099  -5.2619
    -5.2368  -5.1686  -5.0836  -4.9643  -4.3558  -4.1576  -3.9358  -3.5541
    -3.2696  -3.2183  -2.3363  -2.1876  -2.1003  -1.8417  -1.5683  -1.4221
    -0.9675  -0.9111  -0.8093  -0.7663  -0.3585  -0.2789  -0.2015  -0.1305
    -0.0843   0.0108   0.4882   0.6388   0.7440   0.8205   1.0852   1.1922
     1.4526   1.5656   1.9418   2.0767   5.4827   5.7186   5.9815   6.0730
     7.3489   7.4140   7.8184   7.9317   8.0715   8.9877   9.1566   9.2695
     9.5702   9.6155   9.7118

          k = 0.3333 0.1473 0.1057 ( 44506 PWs)   bands (ev):

   -22.2269 -22.1849 -20.3598 -20.2628 -18.8641 -18.8287 -18.2408 -18.2152
   -17.4529 -17.4156 -15.8912 -15.8616 -15.7699 -15.7321 -14.1100 -14.0469
   -13.2281 -13.2196 -12.8606 -12.8130  -9.9953  -9.9393  -9.0448  -9.0047
    -8.1120  -8.0025  -7.9104  -7.8217  -6.7910  -6.6664  -5.9180  -5.8482
    -5.6818  -5.6279  -5.5605  -5.5011  -5.4446  -5.3844  -5.2702  -5.1861
    -5.1128  -5.0579  -4.9032  -4.8515  -4.3533  -4.3024  -3.8305  -3.7945
    -3.3322  -3.2119  -2.2990  -2.1155  -2.0115  -1.8971  -1.6031  -1.4031
    -1.0107  -0.8781  -0.8192  -0.7081  -0.3084  -0.2208  -0.1598  -0.1292
    -0.0083   0.0148   0.3994   0.5881   0.6992   0.7272   1.0096   1.1754
     1.4967   1.6336   1.8928   2.2046   5.5053   5.7421   5.9215   6.1079
     7.3152   7.4427   7.6043   7.8938   8.0709   8.8198   9.0460   9.3274
     9.5062   9.6949   9.8628

          k = 0.3333 0.1473 0.4620 ( 44513 PWs)   bands (ev):

   -22.2259 -22.1854 -20.3608 -20.2649 -18.8600 -18.8279 -18.2447 -18.2201
   -17.4470 -17.4093 -15.8885 -15.8597 -15.7666 -15.7302 -14.1536 -14.0816
   -13.1633 -13.1594 -12.8951 -12.8476  -9.9841  -9.9364  -8.9982  -8.9556
    -8.1751  -8.0880  -7.9214  -7.8216  -6.7442  -6.6117  -5.9546  -5.8195
    -5.7499  -5.6523  -5.5597  -5.4929  -5.4917  -5.3685  -5.3095  -5.2015
    -5.1385  -4.9059  -4.8735  -4.8183  -4.3550  -4.2244  -3.9595  -3.8046
    -3.3585  -3.2615  -2.3110  -2.1173  -2.0499  -1.8954  -1.5997  -1.4233
    -0.9155  -0.8342  -0.7101  -0.6256  -0.2886  -0.2458  -0.1355  -0.1183
    -0.0108   0.0447   0.4289   0.5282   0.6590   0.7243   0.8872   1.0706
     1.5139   1.6178   1.9380   2.1873   5.5325   5.7370   5.9354   6.1086
     7.2899   7.4114   7.7252   8.0001   8.2385   8.5747   8.8787   9.1415
     9.3105   9.7018   9.9203

          k = 0.3333 0.1473-0.2507 ( 44465 PWs)   bands (ev):

   -22.2267 -22.1860 -20.3553 -20.2605 -18.8658 -18.8329 -18.2506 -18.2248
   -17.4414 -17.4036 -15.8936 -15.8658 -15.7754 -15.7390 -14.0860 -14.0466
   -13.1896 -13.1865 -12.8809 -12.8465 -10.0782 -10.0539  -8.8026  -8.7876
    -8.3590  -8.2813  -7.9563  -7.7963  -6.4865  -6.4143  -5.9236  -5.8397
    -5.7791  -5.6112  -5.5377  -5.5053  -5.4209  -5.3696  -5.2878  -5.2342
    -5.2048  -5.1227  -5.0853  -4.9059  -4.1978  -4.1419  -3.9182  -3.8041
    -3.3198  -3.2416  -2.3096  -2.1990  -2.1125  -1.9040  -1.6146  -1.3845
    -0.8927  -0.7948  -0.7150  -0.6965  -0.2877  -0.2496  -0.1481  -0.1009
    -0.0543   0.1086   0.4416   0.6117   0.6387   0.7035   0.8935   1.1059
     1.4540   1.5758   1.9729   2.1042   5.5499   5.7108   5.9625   6.0921
     7.3163   7.4150   7.7863   7.9419   8.0382   8.8664   8.8829   9.0017
     9.4141   9.6881   9.7857

          k = 0.3333 0.4862 0.3116 ( 44492 PWs)   bands (ev):

   -22.2261 -22.1850 -20.3423 -20.2850 -18.8655 -18.8250 -18.2410 -18.2205
   -17.4563 -17.4012 -15.9112 -15.8317 -15.7815 -15.7081 -14.1421 -14.0977
   -13.1783 -13.1514 -12.9046 -12.8416  -9.9900  -9.9371  -8.9941  -8.9611
    -8.1926  -8.0732  -7.9192  -7.8228  -6.7480  -6.5830  -5.9929  -5.8400
    -5.6941  -5.6319  -5.5784  -5.4883  -5.4509  -5.3350  -5.2850  -5.1890
    -5.1027  -5.0156  -4.8952  -4.8419  -4.3173  -4.2309  -4.1746  -3.6184
    -3.3472  -3.2656  -2.2890  -2.1294  -1.9843  -1.9215  -1.5919  -1.3771
    -0.9138  -0.8371  -0.7380  -0.6672  -0.3840  -0.3048  -0.2095  -0.1123
    -0.0169   0.0617   0.4959   0.5452   0.7088   0.7623   0.9354   1.0390
     1.4983   1.6430   1.8607   2.2272   5.5200   5.7379   5.9376   6.1350
     7.2990   7.3786   7.7090   7.9239   8.0572   8.5300   8.7244   9.4633
     9.6243   9.7667   9.8653

          k = 0.3333 0.4862 0.6679 ( 44482 PWs)   bands (ev):

   -22.2262 -22.1863 -20.3363 -20.2810 -18.8698 -18.8316 -18.2448 -18.2274
   -17.4527 -17.3933 -15.9189 -15.8378 -15.7885 -15.7163 -14.0865 -14.0508
   -13.1960 -13.1865 -12.8934 -12.8372 -10.0805 -10.0588  -8.8106  -8.7796
    -8.3701  -8.2708  -7.9566  -7.8012  -6.4612  -6.4030  -5.9255  -5.8257
    -5.7477  -5.5840  -5.5466  -5.4879  -5.4318  -5.3333  -5.3003  -5.2637
    -5.1912  -5.1467  -5.0939  -4.9324  -4.3589  -4.1371  -4.0051  -3.6127
    -3.2842  -3.2650  -2.3271  -2.1362  -2.0834  -1.8923  -1.5766  -1.4212
    -0.8751  -0.8423  -0.7091  -0.6941  -0.3132  -0.2997  -0.2070  -0.1449
    -0.0541   0.0349   0.4905   0.6474   0.7146   0.7603   0.9698   1.0410
     1.4563   1.5445   1.9505   2.1093   5.5267   5.7227   5.9844   6.1022
     7.3236   7.3718   7.7122   7.9956   8.1369   8.5758   8.9400   9.1950
     9.5491   9.6561   9.7674

          k = 0.3333 0.4862-0.0447 ( 44509 PWs)   bands (ev):

   -22.2257 -22.1859 -20.3409 -20.2832 -18.8658 -18.8300 -18.2339 -18.2190
   -17.4634 -17.4063 -15.9130 -15.8346 -15.7851 -15.7088 -14.1152 -14.0462
   -13.2423 -13.2142 -12.8540 -12.8220  -9.9890  -9.9544  -9.0329  -9.0157
    -8.1113  -7.9907  -7.9298  -7.8121  -6.7793  -6.6657  -5.8431  -5.7568
    -5.6399  -5.6315  -5.5993  -5.5587  -5.3998  -5.3898  -5.3229  -5.2350
    -5.0992  -5.0927  -4.9508  -4.8671  -4.3827  -4.3276  -3.9750  -3.5751
    -3.2995  -3.2312  -2.3243  -2.0598  -1.9871  -1.8687  -1.5680  -1.4332
    -0.9730  -0.9045  -0.8333  -0.7515  -0.3712  -0.2923  -0.2321  -0.1345
    -0.0312   0.0484   0.4862   0.5852   0.7253   0.7982   1.0692   1.1495
     1.4670   1.6409   1.9132   2.1526   5.5072   5.7501   5.9340   6.0950
     7.3182   7.3892   7.8028   7.8391   8.2487   8.6712   8.8214   9.2312
     9.4582   9.5836   9.8369

          k = 0.3333-0.1915-0.1003 ( 44497 PWs)   bands (ev):

   -22.2274 -22.1850 -20.3366 -20.2806 -18.8703 -18.8311 -18.2469 -18.2254
   -17.4516 -17.3942 -15.9233 -15.8344 -15.7792 -15.7247 -14.0751 -14.0623
   -13.1959 -13.1865 -12.8958 -12.8352 -10.0873 -10.0516  -8.8150  -8.7759
    -8.3676  -8.2719  -7.9528  -7.8076  -6.4694  -6.4194  -5.9837  -5.8366
    -5.7179  -5.6055  -5.5269  -5.5103  -5.3817  -5.3480  -5.2568  -5.2527
    -5.1882  -5.1005  -5.0533  -4.9735  -4.3211  -4.1253  -4.0933  -3.5996
    -3.3124  -3.2442  -2.2107  -2.1782  -2.0634  -2.0221  -1.6338  -1.3269
    -0.8829  -0.8349  -0.7235  -0.6883  -0.3542  -0.2790  -0.2229  -0.1288
    -0.0474   0.0199   0.4887   0.6386   0.6904   0.7758   0.9416   1.0855
     1.4241   1.6010   1.9124   2.1480   5.6039   5.6384   5.9968   6.1054
     7.3034   7.3562   7.4747   7.9333   8.0255   8.5127   9.3523   9.3728
     9.5701   9.7858   9.9379

          k = 0.3333-0.1915 0.2560 ( 44520 PWs)   bands (ev):

   -22.2263 -22.1853 -20.3404 -20.2837 -18.8647 -18.8313 -18.2341 -18.2186
   -17.4616 -17.4079 -15.9207 -15.8283 -15.7755 -15.7175 -14.1170 -14.0437
   -13.2417 -13.2142 -12.8602 -12.8167  -9.9883  -9.9535  -9.0406  -9.0097
    -8.1314  -7.9865  -7.8978  -7.8298  -6.7904  -6.6516  -5.8675  -5.8032
    -5.6975  -5.6245  -5.5306  -5.4680  -5.4113  -5.3719  -5.3132  -5.2706
    -5.1355  -5.0288  -4.9452  -4.9262  -4.3889  -4.2998  -3.9858  -3.5663
    -3.3025  -3.2315  -2.2036  -2.0913  -2.0143  -1.9685  -1.5622  -1.4306
    -1.0118  -0.8937  -0.7835  -0.7515  -0.3524  -0.3082  -0.2357  -0.1334
    -0.0481   0.0411   0.4863   0.5913   0.7504   0.7705   1.0623   1.1589
     1.4246   1.7196   1.9209   2.1214   5.6087   5.6295   5.9990   6.0568
     7.3055   7.3958   7.7248   7.8686   7.9458   8.8153   9.0178   9.2800
     9.4523   9.6678   9.9417

          k = 0.3333-0.1915-0.4566 ( 44503 PWs)   bands (ev):

   -22.2260 -22.1851 -20.3420 -20.2852 -18.8624 -18.8285 -18.2394 -18.2223
   -17.4568 -17.4005 -15.9144 -15.8292 -15.7745 -15.7136 -14.1546 -14.0854
   -13.1770 -13.1539 -12.8952 -12.8503  -9.9805  -9.9481  -8.9849  -8.9680
    -8.1762  -8.0755  -7.9447  -7.8087  -6.7356  -6.6140  -5.9799  -5.8471
    -5.6597  -5.6327  -5.5473  -5.4507  -5.4297  -5.4110  -5.3299  -5.2079
    -5.0872  -4.9835  -4.9350  -4.8177  -4.4189  -4.2279  -4.0591  -3.6495
    -3.3145  -3.2966  -2.2118  -2.1381  -2.0181  -1.9600  -1.5961  -1.3766
    -0.9320  -0.8364  -0.6989  -0.6850  -0.3661  -0.2718  -0.2505  -0.1729
     0.0101   0.0786   0.4804   0.5376   0.7302   0.7618   0.9520   1.0331
     1.4779   1.6706   1.9338   2.1604   5.6089   5.6580   6.0030   6.0577
     7.2778   7.3485   7.6424   7.9468   8.1135   8.5213   8.9261   9.2768
     9.5918   9.7555   9.8515

     highest occupied, lowest unoccupied level (ev):     2.2475    5.4827

!    total energy              =    -801.62907160 Ry
     Harris-Foulkes estimate   =    -801.62907160 Ry
     estimated scf accuracy    <          2.2E-09 Ry

     total all-electron energy =     -3046.979609 Ry

     The total energy is the sum of the following terms:

     one-electron contribution =    -389.54835175 Ry
     hartree contribution      =     258.22036708 Ry
     xc contribution           =    -162.28200502 Ry
     ewald contribution        =    -280.84803297 Ry
     Dispersion Correction     =      -0.20263228 Ry
     one-center paw contrib.   =    -226.96841667 Ry

     convergence has been achieved in  13 iterations

     Forces acting on atoms (cartesian axes, Ry/au):

     atom    1 type  4   force =     0.00047686    0.00056315   -0.00051227
     atom    2 type  4   force =    -0.00047686   -0.00056315    0.00051227
     atom    3 type  4   force =     0.00148194   -0.00026877   -0.00232037
     atom    4 type  4   force =    -0.00148194    0.00026877    0.00232037
     atom    5 type  2   force =    -0.00219508    0.00235924    0.00261832
     atom    6 type  2   force =     0.00219508   -0.00235924   -0.00261832
     atom    7 type  2   force =    -0.00256630    0.00026231   -0.00082254
     atom    8 type  2   force =     0.00256630   -0.00026231    0.00082254
     atom    9 type  2   force =     0.00075208   -0.00362319    0.00126617
     atom   10 type  2   force =    -0.00075208    0.00362319   -0.00126617
     atom   11 type  2   force =    -0.00069112    0.00065331    0.00015872
     atom   12 type  2   force =     0.00069112   -0.00065331   -0.00015872
     atom   13 type  2   force =    -0.00159022    0.00062491    0.00106202
     atom   14 type  2   force =     0.00159022   -0.00062491   -0.00106202
     atom   15 type  2   force =     0.00068467    0.00035577    0.00060876
     atom   16 type  2   force =    -0.00068467   -0.00035577   -0.00060876
     atom   17 type  2   force =     0.00267009   -0.00046734    0.00041851
     atom   18 type  2   force =    -0.00267009    0.00046734   -0.00041851
     atom   19 type  2   force =     0.00370102   -0.00124126   -0.00063413
     atom   20 type  2   force =    -0.00370102    0.00124126    0.00063413
     atom   21 type  1   force =     0.00350989    0.00008684    0.00152344
     atom   22 type  1   force =    -0.00350989   -0.00008684   -0.00152344
     atom   23 type  1   force =    -0.00249886   -0.00046361   -0.00229191
     atom   24 type  1   force =     0.00249886    0.00046361    0.00229191
     atom   25 type  1   force =    -0.00139874    0.00252596   -0.00207795
     atom   26 type  1   force =     0.00139874   -0.00252596    0.00207795
     atom   27 type  3   force =    -0.00013412    0.00115455   -0.00019288
     atom   28 type  3   force =     0.00013412   -0.00115455    0.00019288
     atom   29 type  3   force =    -0.00068895   -0.00044226    0.00149189
     atom   30 type  3   force =     0.00068895    0.00044226   -0.00149189
     atom   31 type  3   force =    -0.00056191   -0.00012784   -0.00072770
     atom   32 type  3   force =     0.00056191    0.00012784    0.00072770
     atom   33 type  2   force =    -0.00037396   -0.00235952   -0.00086852
     atom   34 type  2   force =     0.00037396    0.00235952    0.00086852
     atom   35 type  3   force =    -0.00049452    0.00030941   -0.00122946
     atom   36 type  3   force =     0.00049452   -0.00030941    0.00122946
     atom   37 type  3   force =    -0.00099452    0.00003700    0.00176932
     atom   38 type  3   force =     0.00099452   -0.00003700   -0.00176932
     atom   39 type  3   force =     0.00093135    0.00098641   -0.00016173
     atom   40 type  3   force =    -0.00093135   -0.00098641    0.00016173
     atom   41 type  3   force =     0.00107669    0.00052550    0.00038593
     atom   42 type  3   force =    -0.00107669   -0.00052550   -0.00038593

     Total force =     0.016582     Total SCF correction =     0.000112


     Computing stress (Cartesian axis) and pressure

          total   stress  (Ry/bohr**3)                   (kbar)     P=   -3.35
  -0.00002989   0.00001545  -0.00000049         -4.40      2.27     -0.07
   0.00001545  -0.00001464  -0.00000329          2.27     -2.15     -0.48
  -0.00000049  -0.00000329  -0.00002385         -0.07     -0.48     -3.51


     Writing output data file scf.save
 
     init_run     :     13.36s CPU     13.70s WALL (       1 calls)
     electrons    :    298.99s CPU    306.67s WALL (       1 calls)
     forces       :      5.73s CPU      5.75s WALL (       1 calls)
     stress       :     22.02s CPU     22.04s WALL (       1 calls)

     Called by init_run:
     wfcinit      :      8.77s CPU      9.05s WALL (       1 calls)
     potinit      :      1.62s CPU      1.64s WALL (       1 calls)

     Called by electrons:
     c_bands      :    259.34s CPU    266.11s WALL (      13 calls)
     sum_band     :     34.83s CPU     35.55s WALL (      13 calls)
     v_of_rho     :      0.80s CPU      0.88s WALL (      14 calls)
     newd         :      1.29s CPU      1.32s WALL (      14 calls)
     PAW_pot      :      2.43s CPU      2.44s WALL (      14 calls)
     mix_rho      :      0.16s CPU      0.18s WALL (      13 calls)

     Called by c_bands:
     init_us_2    :      2.79s CPU      2.80s WALL (     406 calls)
     cegterg      :    250.47s CPU    257.20s WALL (     182 calls)

     Called by sum_band:
     sum_band:bec :      0.03s CPU      0.03s WALL (     182 calls)
     addusdens    :      1.41s CPU      1.42s WALL (      13 calls)

     Called by *egterg:
     h_psi        :    175.28s CPU    181.49s WALL (     954 calls)
     s_psi        :     17.16s CPU     17.16s WALL (     954 calls)
     g_psi        :      1.16s CPU      1.15s WALL (     758 calls)
     cdiaghg      :     16.76s CPU     16.75s WALL (     940 calls)

     Called by h_psi:
     h_psi:pot    :    173.66s CPU    179.85s WALL (     954 calls)
     h_psi:calbec :     15.49s CPU     15.59s WALL (     954 calls)
     vloc_psi     :    141.06s CPU    147.13s WALL (     954 calls)
     add_vuspsi   :     17.11s CPU     17.11s WALL (     954 calls)

     General routines
     calbec       :     23.40s CPU     23.54s WALL (    1206 calls)
     fft          :      0.50s CPU      0.63s WALL (     206 calls)
     fftw         :    151.54s CPU    157.81s WALL (  109338 calls)
 
     Parallel routines
     fft_scatter  :     35.10s CPU     39.10s WALL (  109544 calls)
 
     PWSCF        :  5m44.11s CPU     5m53.23s WALL

 
   This run was terminated on:  20:24:48   4Dec2017            

=------------------------------------------------------------------------------=
   JOB DONE.
=------------------------------------------------------------------------------=
