
     Program PWSCF v.6.1 (svn rev. 13369) starts on 10Dec2017 at  7:46:49 

     This program is part of the open-source Quantum ESPRESSO suite
     for quantum simulation of materials; please cite
         "P. Giannozzi et al., J. Phys.:Condens. Matter 21 395502 (2009);
          URL http://www.quantum-espresso.org", 
     in publications or presentations arising from this work. More details at
     http://www.quantum-espresso.org/quote

     Parallel version (MPI), running on     8 processors
     R & G space division:  proc/nbgrp/npool/nimage =       8
     Waiting for input...
     Reading input from standard input

     Current dimensions of program PWSCF are:
     Max number of different atomic species (ntypx) = 10
     Max number of k-points (npk) =  40000
     Max angular momentum in pseudopotentials (lmaxx) =  3
               file C.pbe-n-kjpaw_psl.0.1.UPF: wavefunction(s)  2P renormalized
               file N.pbe-n-kjpaw_psl.0.1.UPF: wavefunction(s)  2P renormalized
               file H.pbe-kjpaw_psl.0.1.UPF: wavefunction(s)  1S renormalized
               file O.pbe-n-kjpaw_psl.0.1.UPF: wavefunction(s)  2P renormalized

     -------------------------------------
     Parameters for Dispersion Correction:
     -------------------------------------
       atom      VdW radius       C_6     

        C          2.744         60.710
        N          2.640         42.670
        H          1.892          4.857
        O          2.536         24.284

     Subspace diagonalization in iterative solution of the eigenvalue problem:
     a serial algorithm will be used

 
     Parallelization info
     --------------------
     sticks:   dense  smooth     PW     G-vecs:    dense   smooth      PW
     Min         481     481    131                87051    87051   12156
     Max         482     482    132                87059    87059   12160
     Sum        3853    3853   1049               696431   696431   97263
 


     bravais-lattice index     =            0
     lattice parameter (alat)  =      12.9193  a.u.
     unit-cell volume          =    5155.2359 (a.u.)^3
     number of atoms/cell      =           76
     number of atomic types    =            4
     number of electrons       =       296.00
     number of Kohn-Sham states=          177
     kinetic-energy cutoff     =     100.0000  Ry
     charge density cutoff     =     400.0000  Ry
     convergence threshold     =      1.0E-08
     mixing beta               =       0.5000
     number of iterations used =            8  plain     mixing
     Exchange-correlation      =  SLA  PW   PBX  PBC ( 1  4  3  4 0 0)

     celldm(1)=  12.919302  celldm(2)=   0.000000  celldm(3)=   0.000000
     celldm(4)=   0.000000  celldm(5)=   0.000000  celldm(6)=   0.000000

     crystal axes: (cart. coord. in units of alat)
               a(1) = (   1.000000   0.000000   0.000000 )  
               a(2) = (   0.000000   0.726004   0.000000 )  
               a(3) = (  -0.223397   0.000000   3.293004 )  

     reciprocal axes: (cart. coord. in units 2 pi/alat)
               b(1) = (  1.000000  0.000000  0.067840 )  
               b(2) = (  0.000000  1.377403  0.000000 )  
               b(3) = (  0.000000  0.000000  0.303674 )  


     PseudoPot. # 1 for  C read from file:
     /scratch/ahofstet/pseudo/C.pbe-n-kjpaw_psl.0.1.UPF
     MD5 check sum: 430fe95172b1e11ef3f8ed03bac87931
     Pseudo is Projector augmented-wave + core cor, Zval =  4.0
     Generated using "atomic" code by A. Dal Corso  v.5.0.99 svn rev. 10869
     Shape of augmentation charge: BESSEL
     Using radial grid of 1073 points,  4 beta functions with: 
                l(1) =   0
                l(2) =   0
                l(3) =   1
                l(4) =   1
     Q(r) pseudized with 0 coefficients 


     PseudoPot. # 2 for  N read from file:
     /scratch/ahofstet/pseudo/N.pbe-n-kjpaw_psl.0.1.UPF
     MD5 check sum: f73187c8b701007e77325f868c9291d7
     Pseudo is Projector augmented-wave + core cor, Zval =  5.0
     Generated using "atomic" code by A. Dal Corso  v.5.0.99 svn rev. 10869
     Shape of augmentation charge: PSQ
     Using radial grid of 1085 points,  4 beta functions with: 
                l(1) =   0
                l(2) =   0
                l(3) =   1
                l(4) =   1
     Q(r) pseudized with 0 coefficients 


     PseudoPot. # 3 for  H read from file:
     /scratch/ahofstet/pseudo/H.pbe-kjpaw_psl.0.1.UPF
     MD5 check sum: 94e484f906d9e9773b2f6e52662335b2
     Pseudo is Projector augmented-wave, Zval =  1.0
     Generated using "atomic" code by A. Dal Corso  v.5.0.99 svn rev. 10869
     Shape of augmentation charge: PSQ
     Using radial grid of  929 points,  2 beta functions with: 
                l(1) =   0
                l(2) =   0
     Q(r) pseudized with 0 coefficients 


     PseudoPot. # 4 for  O read from file:
     /scratch/ahofstet/pseudo/O.pbe-n-kjpaw_psl.0.1.UPF
     MD5 check sum: 3f94a2996a3169367d6eb21d9b593f20
     Pseudo is Projector augmented-wave + core cor, Zval =  6.0
     Generated using "atomic" code by A. Dal Corso  v.5.0.99 svn rev. 10869
     Shape of augmentation charge: BESSEL
     Using radial grid of 1095 points,  4 beta functions with: 
                l(1) =   0
                l(2) =   0
                l(3) =   1
                l(4) =   1
     Q(r) pseudized with 0 coefficients 


     atomic species   valence    mass     pseudopotential
        C              4.00    12.01070      C( 1.00)
        N              5.00    14.00670      N( 1.00)
        H              1.00     1.00794      H( 1.00)
        O              6.00    15.99940      O( 1.00)

      4 Sym. Ops., with inversion, found ( 2 have fractional translation)



   Cartesian axes

     site n.     atom                  positions (alat units)
         1           C   tau(   1) = (   0.2085656  -0.0014011   1.3635734  )
         2           C   tau(   2) = (   0.6797357   0.3616009   0.2829288  )
         3           C   tau(   3) = (   0.5680370   0.7274053   1.9294311  )
         4           C   tau(   4) = (   0.0968668   0.3644032   3.0100756  )
         5           C   tau(   5) = (   0.0081672   0.6893957   1.3508606  )
         6           C   tau(   6) = (   0.8801341   0.3263936   0.2956416  )
         7           C   tau(   7) = (   0.7684353   0.0366085   1.9421438  )
         8           C   tau(   8) = (  -0.1035315   0.3996105   2.9973628  )
         9           C   tau(   9) = (  -0.0599556   0.5339044   1.2377408  )
        10           C   tau(  10) = (   0.9482569   0.1709023   0.4087614  )
        11           C   tau(  11) = (   0.8365581   0.1920998   2.0552636  )
        12           C   tau(  12) = (  -0.1716543   0.5551018   2.8842430  )
        13           C   tau(  13) = (   0.0760702   0.4098660   1.1366441  )
        14           C   tau(  14) = (   0.8122311   0.0468639   0.5098581  )
        15           C   tau(  15) = (   0.7005323   0.3161381   2.1563604  )
        16           C   tau(  16) = (  -0.0356285   0.6791402   2.7831463  )
        17           C   tau(  17) = (   0.2814416   0.4470254   1.1541668  )
        18           C   tau(  18) = (   0.6068597   0.0840233   0.4923355  )
        19           C   tau(  19) = (   0.4951609   0.2789788   2.1388377  )
        20           C   tau(  20) = (   0.1697429   0.6419809   2.8006690  )
        21           C   tau(  21) = (   0.3444868   0.6041870   1.2684591  )
        22           C   tau(  22) = (   0.5438144   0.2411849   0.3780432  )
        23           C   tau(  23) = (   0.4321157   0.1218172   2.0245454  )
        24           C   tau(  24) = (   0.2327881   0.4848193   2.9149613  )
        25           C   tau(  25) = (   0.2869362   0.1598700   1.4879604  )
        26           C   tau(  26) = (   0.6013650   0.5228721   0.1585419  )
        27           C   tau(  27) = (   0.4896663   0.5661342   1.8050441  )
        28           C   tau(  28) = (   0.1752375   0.2031321   3.1344626  )
        29           O   tau(  29) = (   0.4658102   0.1868825   1.5049196  )
        30           O   tau(  30) = (   0.4224910   0.5498846   0.1415827  )
        31           O   tau(  31) = (   0.3107923   0.5391216   1.7880849  )
        32           O   tau(  32) = (   0.3541115   0.1761196   3.1514218  )
        33           O   tau(  33) = (   0.1532976   0.2675718   1.5758733  )
        34           O   tau(  34) = (   0.7350037   0.6305739   0.0706289  )
        35           O   tau(  35) = (   0.6233049   0.4584323   1.7171311  )
        36           O   tau(  36) = (   0.0415989   0.0954302   3.2223755  )
        37           O   tau(  37) = (   0.1245590   0.1541942   0.9171284  )
        38           O   tau(  38) = (   0.7637423   0.5171962   0.7293738  )
        39           O   tau(  39) = (   0.6520435   0.5718100   2.3758761  )
        40           O   tau(  40) = (   0.0128603   0.2088079   2.5636306  )
        41           O   tau(  41) = (   0.8288828   0.2108653   1.0186627  )
        42           O   tau(  42) = (   0.0594184   0.5738673   0.6278395  )
        43           O   tau(  43) = (  -0.0522803   0.5151389   2.2743417  )
        44           O   tau(  44) = (   0.7171841   0.1521368   2.6651649  )
        45           O   tau(  45) = (   0.7483196   0.5051716   1.2315245  )
        46           O   tau(  46) = (   0.1399817   0.1421695   0.4149777  )
        47           O   tau(  47) = (   0.0282830   0.2208325   2.0614799  )
        48           O   tau(  48) = (   0.6366208   0.5838346   2.8780268  )
        49           O   tau(  49) = (   0.4130152   0.3282827   1.0712503  )
        50           O   tau(  50) = (   0.4752861  -0.0347194   0.5752519  )
        51           O   tau(  51) = (   0.3635874   0.3977215   2.2217541  )
        52           O   tau(  52) = (   0.3013164   0.7607235   2.7177525  )
        53           N   tau(  53) = (   0.0068886   0.2517702   1.0200871  )
        54           N   tau(  54) = (   0.8814127   0.6147723   0.6264151  )
        55           N   tau(  55) = (   0.7697140   0.4742340   2.2729173  )
        56           N   tau(  56) = (  -0.1048102   0.1112319   2.6665893  )
        57           H   tau(  57) = (  -0.0981117   0.0556064   1.4255317  )
        58           H   tau(  58) = (   0.9864130   0.4186085   0.2209705  )
        59           H   tau(  59) = (   0.8747143  -0.0556064   1.8674727  )
        60           H   tau(  60) = (  -0.2098105   0.3073956   3.0720339  )
        61           H   tau(  61) = (   0.2197863   0.3732120   1.6602637  )
        62           H   tau(  62) = (   0.4451175   0.7362141   3.2792429  )
        63           H   tau(  63) = (   0.5568162   0.3527922   1.6327407  )
        64           H   tau(  64) = (   0.3314850  -0.0102099   0.0137615  )
        65           H   tau(  65) = (   0.3375122   0.2315238   0.9905227  )
        66           H   tau(  66) = (   0.5507890   0.5945259   0.6559795  )
        67           H   tau(  67) = (   0.4390903   0.4944803   2.3024817  )
        68           H   tau(  68) = (   0.2258135   0.1314783   2.6370249  )
        69           H   tau(  69) = (   0.4995939   0.6298871   1.2874417  )
        70           H   tau(  70) = (   0.3887074   0.2668850   0.3590605  )
        71           H   tau(  71) = (   0.2770086   0.0961170   2.0055627  )
        72           H   tau(  72) = (   0.3878952   0.4591191   2.9339440  )
        73           H   tau(  73) = (   0.7196796   0.3880561   1.1487684  )
        74           H   tau(  74) = (   0.1686216   0.0250540   0.4977338  )
        75           H   tau(  75) = (   0.0569229   0.3379480   2.1442360  )
        76           H   tau(  76) = (   0.6079809   0.7009501   2.7952706  )

     number of k points=     6
                       cart. coord. in units 2pi/alat
        k(    1) = (   0.0000000   0.0000000   0.0000000), wk =   0.1666667
        k(    2) = (   0.0000000   0.3443506   0.0000000), wk =   0.3333333
        k(    3) = (   0.0000000  -0.6887013   0.0000000), wk =   0.1666667
        k(    4) = (   0.3333333   0.0000000   0.0226133), wk =   0.3333333
        k(    5) = (   0.3333333   0.3443506   0.0226133), wk =   0.6666667
        k(    6) = (   0.3333333  -0.6887013   0.0226133), wk =   0.3333333

     Dense  grid:   696431 G-vectors     FFT dimensions: (  90,  60, 288)

     Estimated max dynamical RAM per process >     590.70MB

     Estimated total allocated dynamical RAM >    4725.60MB

     Check: negative/imaginary core charge=   -0.000003    0.000000

     Initial potential from superposition of free atoms

     starting charge  295.99858, renormalised to  296.00000
     Starting wfc are  244 randomized atomic wfcs
     Checking if some PAW data can be deallocated... 

     total cpu time spent up to now is       27.7 secs

     per-process dynamical memory:   416.8 Mb

     Self-consistent Calculation

     iteration #  1     ecut=   100.00 Ry     beta=0.50
     Davidson diagonalization with overlap
     ethr =  1.00E-02,  avg # of iterations =  3.2

     total cpu time spent up to now is       90.4 secs

     total energy              =   -1650.30287795 Ry
     Harris-Foulkes estimate   =   -1654.77603454 Ry
     estimated scf accuracy    <       7.94589316 Ry

     iteration #  2     ecut=   100.00 Ry     beta=0.50
     Davidson diagonalization with overlap
     ethr =  2.68E-03,  avg # of iterations =  3.0

     total cpu time spent up to now is      134.0 secs

     total energy              =   -1651.64653238 Ry
     Harris-Foulkes estimate   =   -1652.57793993 Ry
     estimated scf accuracy    <       1.93094516 Ry

     iteration #  3     ecut=   100.00 Ry     beta=0.50
     Davidson diagonalization with overlap
     ethr =  6.52E-04,  avg # of iterations =  8.5

     total cpu time spent up to now is      183.9 secs

     total energy              =   -1652.09253526 Ry
     Harris-Foulkes estimate   =   -1652.20503103 Ry
     estimated scf accuracy    <       0.28487378 Ry

     iteration #  4     ecut=   100.00 Ry     beta=0.50
     Davidson diagonalization with overlap
     ethr =  9.62E-05,  avg # of iterations =  9.2

     total cpu time spent up to now is      237.6 secs

     total energy              =   -1652.15269115 Ry
     Harris-Foulkes estimate   =   -1652.17662575 Ry
     estimated scf accuracy    <       0.06098211 Ry

     iteration #  5     ecut=   100.00 Ry     beta=0.50
     Davidson diagonalization with overlap
     ethr =  2.06E-05,  avg # of iterations =  6.5

     total cpu time spent up to now is      281.8 secs

     total energy              =   -1652.16395542 Ry
     Harris-Foulkes estimate   =   -1652.17209208 Ry
     estimated scf accuracy    <       0.02168317 Ry

     iteration #  6     ecut=   100.00 Ry     beta=0.50
     Davidson diagonalization with overlap
     ethr =  7.33E-06,  avg # of iterations =  5.2

     total cpu time spent up to now is      320.9 secs

     total energy              =   -1652.16883739 Ry
     Harris-Foulkes estimate   =   -1652.16985318 Ry
     estimated scf accuracy    <       0.00307776 Ry

     iteration #  7     ecut=   100.00 Ry     beta=0.50
     Davidson diagonalization with overlap
     ethr =  1.04E-06,  avg # of iterations =  7.3

     total cpu time spent up to now is      380.9 secs

     total energy              =   -1652.17003875 Ry
     Harris-Foulkes estimate   =   -1652.17016427 Ry
     estimated scf accuracy    <       0.00037381 Ry

     iteration #  8     ecut=   100.00 Ry     beta=0.50
     Davidson diagonalization with overlap
     ethr =  1.26E-07,  avg # of iterations =  3.0

     total cpu time spent up to now is      419.0 secs

     total energy              =   -1652.17009881 Ry
     Harris-Foulkes estimate   =   -1652.17012622 Ry
     estimated scf accuracy    <       0.00009706 Ry

     iteration #  9     ecut=   100.00 Ry     beta=0.50
     Davidson diagonalization with overlap
     ethr =  3.28E-08,  avg # of iterations =  3.0

     total cpu time spent up to now is      464.5 secs

     total energy              =   -1652.17012658 Ry
     Harris-Foulkes estimate   =   -1652.17013353 Ry
     estimated scf accuracy    <       0.00002127 Ry

     iteration # 10     ecut=   100.00 Ry     beta=0.50
     Davidson diagonalization with overlap
     ethr =  7.18E-09,  avg # of iterations =  2.2

     total cpu time spent up to now is      498.7 secs

     total energy              =   -1652.17012847 Ry
     Harris-Foulkes estimate   =   -1652.17012984 Ry
     estimated scf accuracy    <       0.00000338 Ry

     iteration # 11     ecut=   100.00 Ry     beta=0.50
     Davidson diagonalization with overlap
     ethr =  1.14E-09,  avg # of iterations =  4.0

     total cpu time spent up to now is      557.2 secs

     total energy              =   -1652.17013063 Ry
     Harris-Foulkes estimate   =   -1652.17013099 Ry
     estimated scf accuracy    <       0.00000129 Ry

     iteration # 12     ecut=   100.00 Ry     beta=0.50
     Davidson diagonalization with overlap
     ethr =  4.35E-10,  avg # of iterations =  1.5

     total cpu time spent up to now is      589.4 secs

     total energy              =   -1652.17013052 Ry
     Harris-Foulkes estimate   =   -1652.17013071 Ry
     estimated scf accuracy    <       0.00000039 Ry

     iteration # 13     ecut=   100.00 Ry     beta=0.50
     Davidson diagonalization with overlap
     ethr =  1.32E-10,  avg # of iterations =  4.0

     total cpu time spent up to now is      644.0 secs

     total energy              =   -1652.17013072 Ry
     Harris-Foulkes estimate   =   -1652.17013077 Ry
     estimated scf accuracy    <       0.00000014 Ry

     iteration # 14     ecut=   100.00 Ry     beta=0.50
     Davidson diagonalization with overlap
     ethr =  4.79E-11,  avg # of iterations =  1.0

     total cpu time spent up to now is      675.7 secs

     total energy              =   -1652.17013071 Ry
     Harris-Foulkes estimate   =   -1652.17013073 Ry
     estimated scf accuracy    <       0.00000004 Ry

     iteration # 15     ecut=   100.00 Ry     beta=0.50
     Davidson diagonalization with overlap
     ethr =  1.51E-11,  avg # of iterations =  4.0

     total cpu time spent up to now is      728.7 secs

     End of self-consistent calculation

          k = 0.0000 0.0000 0.0000 ( 87053 PWs)   bands (ev):

   -23.7695 -23.7695 -23.7109 -23.7109 -20.7255 -20.7254 -20.3285 -20.3285
   -19.9251 -19.9250 -19.9049 -19.9049 -19.8525 -19.8514 -19.8473 -19.8462
   -19.0175 -19.0174 -18.9740 -18.9739 -18.3951 -18.3951 -18.0207 -18.0207
   -14.6802 -14.6766 -14.6739 -14.6702 -13.3123 -13.2990 -13.2925 -13.2790
   -11.5172 -11.5169 -11.5161 -11.5159 -10.9858 -10.9841 -10.8086 -10.8080
    -9.0248  -8.9729  -8.8499  -8.7599  -8.5397  -8.4902  -8.3574  -8.3488
    -8.0005  -7.9986  -7.8503  -7.8475  -6.9949  -6.9732  -6.9231  -6.9025
    -6.7476  -6.7236  -6.6535  -6.5764  -6.5363  -6.4594  -6.2383  -6.1810
    -6.1122  -6.0796  -6.0785  -6.0771  -5.7266  -5.7195  -5.5764  -5.5624
    -5.2632  -5.2594  -5.0189  -5.0171  -4.8898  -4.8883  -4.7217  -4.7089
    -4.2985  -4.2898  -4.2264  -4.2220  -3.9968  -3.9964  -3.9648  -3.9495
    -3.5541  -3.5253  -3.4344  -3.4179  -3.4103  -3.4069  -3.1269  -3.1139
    -3.0626  -3.0621  -2.9522  -2.9392  -2.6690  -2.6459  -2.6428  -2.5776
    -2.5207  -2.4810  -2.4616  -2.4259  -2.4205  -2.3826  -1.5650  -1.5645
    -1.2116  -1.1864  -1.1158  -1.1152  -1.0984  -1.0932  -1.0727  -1.0315
    -0.7418  -0.7275  -0.7216  -0.6492  -0.4476  -0.4091  -0.4023  -0.4003
    -0.3406  -0.3353  -0.2675  -0.2570   0.1043   0.1064   0.1715   0.1961
     0.2341   0.2364   0.2719   0.2816   0.3817   0.4035   0.4574   0.4800
     1.5027   1.5197   1.5257   1.5440   3.5350   3.6481   3.6530   3.7652
     5.0373   5.0431   5.2404   5.2411   6.3861   6.3957   6.4091   6.4158
     7.3152   7.4646   7.5189   7.5370   7.6426   7.6864   7.8345   8.0714
     8.7090   8.7649   9.0663   9.1732   9.1747   9.4271   9.7255   9.8927
     9.9950

          k = 0.0000 0.3444 0.0000 ( 87092 PWs)   bands (ev):

   -23.7587 -23.7586 -23.7172 -23.7172 -20.7006 -20.7006 -20.3444 -20.3444
   -19.9167 -19.9164 -19.9022 -19.9020 -19.8518 -19.8513 -19.8481 -19.8475
   -19.0180 -19.0179 -18.9873 -18.9872 -18.4061 -18.4061 -18.0121 -18.0121
   -14.6782 -14.6741 -14.6675 -14.6634 -13.3707 -13.3648 -13.3305 -13.3246
   -11.5387 -11.5380 -11.5314 -11.5308 -10.9895 -10.9874 -10.7861 -10.7840
    -8.9834  -8.9465  -8.8473  -8.7881  -8.4954  -8.4675  -8.3077  -8.3025
    -7.9897  -7.9893  -7.8456  -7.8434  -6.9770  -6.9596  -6.9136  -6.8966
    -6.7084  -6.6838  -6.6423  -6.5694  -6.5382  -6.4703  -6.2497  -6.2125
    -6.1854  -6.1685  -6.1482  -6.1455  -5.7114  -5.7027  -5.5940  -5.5788
    -5.3021  -5.2967  -5.0169  -5.0151  -4.8766  -4.8733  -4.7238  -4.7121
    -4.5251  -4.5218  -4.3098  -4.3031  -4.0385  -4.0362  -3.9926  -3.9917
    -3.3997  -3.3969  -3.2494  -3.2367  -3.1732  -3.1614  -3.1424  -3.1328
    -3.0274  -3.0245  -2.9419  -2.9335  -2.7000  -2.6812  -2.6778  -2.6468
    -2.6278  -2.6086  -2.4876  -2.4518  -2.3738  -2.3380  -1.5632  -1.5618
    -1.1250  -1.1003  -1.0933  -1.0881  -1.0608  -1.0399  -0.8980  -0.8688
    -0.6982  -0.6956  -0.6352  -0.6027  -0.4399  -0.4248  -0.4150  -0.4132
    -0.3504  -0.3364  -0.2887  -0.2745   0.1235   0.1280   0.1732   0.1836
     0.2263   0.2267   0.3257   0.3379   0.4255   0.4932   0.5040   0.5828
     1.6080   1.6171   1.6300   1.6407   3.4559   3.5284   3.5495   3.6173
     5.0021   5.0027   5.1108   5.1145   6.3140   6.3146   6.3572   6.3574
     7.3648   7.3776   7.5119   7.5446   7.5511   7.7201   7.8584   8.2943
     8.5049   8.8629   8.9833   9.2032   9.3949   9.6189   9.6461   9.7149
     9.8718

          k = 0.0000-0.6887 0.0000 ( 87122 PWs)   bands (ev):

   -23.7356 -23.7356 -23.7356 -23.7356 -20.6726 -20.6726 -20.3636 -20.3636
   -19.9040 -19.9040 -19.9035 -19.9035 -19.8499 -19.8499 -19.8498 -19.8498
   -19.0097 -19.0097 -19.0096 -19.0096 -18.4167 -18.4167 -18.0039 -18.0039
   -14.6723 -14.6723 -14.6601 -14.6601 -13.4245 -13.4245 -13.3716 -13.3716
   -11.5585 -11.5585 -11.5470 -11.5470 -10.9929 -10.9929 -10.7636 -10.7636
    -8.9436  -8.9436  -8.8294  -8.8294  -8.4386  -8.4386  -8.2605  -8.2605
    -7.9774  -7.9774  -7.8378  -7.8378  -6.9474  -6.9474  -6.8947  -6.8947
    -6.6577  -6.6577  -6.5945  -6.5945  -6.5154  -6.5154  -6.2935  -6.2935
    -6.2543  -6.2543  -6.1709  -6.1709  -5.6495  -5.6495  -5.6437  -5.6437
    -5.3320  -5.3320  -5.0013  -5.0013  -4.9048  -4.9048  -4.7047  -4.7047
    -4.6596  -4.6596  -4.3251  -4.3251  -4.1384  -4.1384  -3.9928  -3.9928
    -3.3657  -3.3657  -3.1660  -3.1660  -3.0598  -3.0598  -3.0148  -3.0148
    -2.9591  -2.9591  -2.9266  -2.9266  -2.7143  -2.7143  -2.6782  -2.6782
    -2.6633  -2.6633  -2.5220  -2.5220  -2.3634  -2.3634  -1.5687  -1.5687
    -1.0940  -1.0940  -1.0489  -1.0489  -0.9576  -0.9576  -0.7715  -0.7715
    -0.6516  -0.6516  -0.5186  -0.5186  -0.4381  -0.4381  -0.4141  -0.4141
    -0.3274  -0.3274  -0.3100  -0.3100   0.1517   0.1517   0.1558   0.1558
     0.2128   0.2128   0.3652   0.3652   0.6048   0.6048   0.6933   0.6933
     1.6963   1.6963   1.7208   1.7208   3.3533   3.3533   3.4056   3.4056
     4.9093   4.9093   5.0099   5.0099   6.2596   6.2596   6.3072   6.3072
     7.2853   7.2853   7.3940   7.3940   7.8903   7.8903   8.1449   8.1449
     8.8029   8.8029   8.9785   8.9785   9.4233   9.4233   9.6487   9.6487
     9.9666

          k = 0.3333 0.0000 0.0226 ( 86986 PWs)   bands (ev):

   -23.7683 -23.7683 -23.7100 -23.7100 -20.7239 -20.7239 -20.3293 -20.3292
   -20.0134 -20.0131 -19.9897 -19.9893 -19.7608 -19.7585 -19.7570 -19.7547
   -19.0255 -19.0251 -18.9835 -18.9832 -18.3962 -18.3962 -18.0196 -18.0196
   -14.6810 -14.6792 -14.6738 -14.6720 -13.3012 -13.2946 -13.2783 -13.2717
   -11.4426 -11.4425 -11.4334 -11.4333 -11.0020 -11.0003 -10.8220 -10.8194
    -9.0413  -8.9933  -8.9168  -8.8518  -8.5379  -8.5187  -8.4044  -8.3939
    -8.2709  -8.2568  -8.0343  -8.0330  -6.8399  -6.8241  -6.7799  -6.7747
    -6.7491  -6.7286  -6.7005  -6.6668  -6.5776  -6.5460  -6.1920  -6.1619
    -6.1110  -6.0784  -6.0715  -6.0669  -5.6742  -5.6655  -5.5230  -5.5057
    -5.2525  -5.2500  -4.8500  -4.8474  -4.7152  -4.7137  -4.5906  -4.5888
    -4.2903  -4.2900  -4.2249  -4.2228  -3.9417  -3.9404  -3.9284  -3.9262
    -3.6979  -3.6914  -3.5716  -3.5658  -3.4777  -3.4771  -3.4027  -3.4013
    -3.0293  -3.0265  -2.7384  -2.7362  -2.6265  -2.6006  -2.5644  -2.5457
    -2.5326  -2.5306  -2.2295  -2.2165  -2.1161  -2.1143  -1.6402  -1.6338
    -1.5193  -1.5081  -1.3699  -1.3671  -1.2033  -1.1775  -1.1102  -1.0908
    -0.7330  -0.7277  -0.6959  -0.6671  -0.4760  -0.4637  -0.4208  -0.4076
    -0.3028  -0.2975  -0.2179  -0.2140   0.0853   0.0906   0.1460   0.1510
     0.2589   0.2645   0.3226   0.3283   0.4374   0.4379   0.5348   0.5411
     1.5802   1.5840   1.6043   1.6087   3.5301   3.5668   3.6812   3.7118
     5.0316   5.0644   5.3353   5.3653   6.2019   6.2062   6.2379   6.2476
     7.4496   7.4764   7.5664   7.5798   7.7008   7.7479   8.2084   8.2447
     8.7372   8.8009   8.9164   8.9758   9.1550   9.1815   9.1908   9.5811
     9.7771

          k = 0.3333 0.3444 0.0226 ( 87039 PWs)   bands (ev):

   -23.7575 -23.7575 -23.7162 -23.7162 -20.6995 -20.6992 -20.3452 -20.3451
   -20.0032 -20.0028 -19.9861 -19.9857 -19.7622 -19.7609 -19.7587 -19.7570
   -19.0255 -19.0252 -18.9959 -18.9957 -18.4075 -18.4072 -18.0113 -18.0112
   -14.6819 -14.6777 -14.6687 -14.6650 -13.3611 -13.3567 -13.3209 -13.3163
   -11.4593 -11.4559 -11.4545 -11.4499 -11.0028 -10.9956 -10.7970 -10.7931
    -9.0065  -8.9694  -8.9112  -8.8642  -8.5109  -8.4903  -8.3738  -8.3641
    -8.2729  -8.2524  -8.0128  -8.0006  -6.8203  -6.8045  -6.7702  -6.7672
    -6.7368  -6.7162  -6.6939  -6.6780  -6.5709  -6.5492  -6.2045  -6.1878
    -6.1780  -6.1649  -6.1301  -6.0977  -5.6696  -5.6565  -5.5501  -5.5362
    -5.2695  -5.2471  -4.8446  -4.8273  -4.7465  -4.7243  -4.5859  -4.5553
    -4.5120  -4.5091  -4.3077  -4.2947  -4.0381  -4.0331  -3.9653  -3.9590
    -3.6795  -3.6727  -3.5733  -3.5680  -3.2315  -3.2162  -3.1736  -3.1003
    -3.0091  -2.9831  -2.7863  -2.7735  -2.7446  -2.7343  -2.6447  -2.5707
    -2.4856  -2.4549  -2.2268  -2.1986  -2.1179  -2.1031  -1.6412  -1.5938
    -1.4998  -1.4874  -1.3958  -1.3656  -1.0575  -0.9999  -0.9019  -0.8384
    -0.7070  -0.6898  -0.6348  -0.6228  -0.4883  -0.4278  -0.4259  -0.4140
    -0.3145  -0.3036  -0.2460  -0.2338   0.0994   0.1028   0.1374   0.1387
     0.2565   0.2604   0.3564   0.3639   0.4902   0.5225   0.5996   0.6300
     1.6593   1.6627   1.6815   1.6876   3.4450   3.4705   3.5513   3.5724
     4.9621   4.9952   5.1333   5.1723   6.1481   6.1553   6.2090   6.2145
     7.3368   7.3864   7.4989   7.5650   7.7596   7.9379   8.1853   8.3950
     8.6319   8.7242   8.8632   9.1376   9.2346   9.3090   9.5416   9.7186
     9.8501

          k = 0.3333-0.6887 0.0226 ( 87098 PWs)   bands (ev):

   -23.7346 -23.7346 -23.7346 -23.7346 -20.6718 -20.6718 -20.3642 -20.3642
   -19.9876 -19.9876 -19.9870 -19.9870 -19.7621 -19.7621 -19.7613 -19.7613
   -19.0169 -19.0169 -19.0168 -19.0168 -18.4180 -18.4180 -18.0033 -18.0033
   -14.6775 -14.6775 -14.6627 -14.6627 -13.4158 -13.4158 -13.3628 -13.3628
   -11.4750 -11.4750 -11.4685 -11.4685 -10.9990 -10.9990 -10.7708 -10.7708
    -8.9672  -8.9672  -8.8929  -8.8929  -8.4668  -8.4668  -8.3443  -8.3443
    -8.2561  -8.2561  -7.9767  -7.9767  -6.7848  -6.7848  -6.7415  -6.7415
    -6.7258  -6.7258  -6.6980  -6.6980  -6.5681  -6.5681  -6.2536  -6.2536
    -6.2427  -6.2427  -6.1048  -6.1048  -5.6234  -5.6234  -5.6078  -5.6078
    -5.2650  -5.2650  -4.8225  -4.8225  -4.7558  -4.7558  -4.6771  -4.6771
    -4.5485  -4.5485  -4.3057  -4.3057  -4.1529  -4.1529  -3.9753  -3.9753
    -3.6649  -3.6649  -3.5689  -3.5689  -3.0757  -3.0757  -3.0114  -3.0114
    -2.9165  -2.9165  -2.8021  -2.8021  -2.7545  -2.7545  -2.6661  -2.6661
    -2.4925  -2.4925  -2.1755  -2.1755  -2.1076  -2.1076  -1.6083  -1.6083
    -1.4867  -1.4867  -1.3922  -1.3922  -0.8636  -0.8636  -0.7207  -0.7207
    -0.6432  -0.6432  -0.5224  -0.5224  -0.4728  -0.4728  -0.4038  -0.4038
    -0.2841  -0.2841  -0.2795  -0.2795   0.1198   0.1198   0.1218   0.1218
     0.2530   0.2530   0.3814   0.3814   0.6550   0.6550   0.7367   0.7367
     1.7271   1.7271   1.7524   1.7524   3.3188   3.3188   3.3587   3.3587
     4.9037   4.9037   4.9593   4.9593   6.1128   6.1128   6.1957   6.1957
     7.3128   7.3128   7.4182   7.4182   8.0568   8.0568   8.2450   8.2450
     8.8587   8.8587   9.0106   9.0106   9.4573   9.4573   9.5616   9.5617
     9.9125

     highest occupied, lowest unoccupied level (ev):     1.7524    3.3188

!    total energy              =   -1652.17013073 Ry
     Harris-Foulkes estimate   =   -1652.17013073 Ry
     estimated scf accuracy    <          8.9E-09 Ry

     total all-electron energy =     -6207.085506 Ry

     The total energy is the sum of the following terms:

     one-electron contribution =    -861.01989170 Ry
     hartree contribution      =     554.92385341 Ry
     xc contribution           =    -329.29777274 Ry
     ewald contribution        =    -568.63566817 Ry
     Dispersion Correction     =      -0.36827084 Ry
     one-center paw contrib.   =    -447.77238068 Ry

     convergence has been achieved in  15 iterations

     Forces acting on atoms (cartesian axes, Ry/au):

     atom    1 type  1   force =     0.00224353   -0.01504778   -0.00066413
     atom    2 type  1   force =    -0.00224353   -0.01504778    0.00066413
     atom    3 type  1   force =    -0.00224353    0.01504778    0.00066413
     atom    4 type  1   force =     0.00224353    0.01504778   -0.00066413
     atom    5 type  1   force =     0.00047931    0.00401148    0.00117690
     atom    6 type  1   force =    -0.00047931    0.00401148   -0.00117690
     atom    7 type  1   force =    -0.00047931   -0.00401148   -0.00117690
     atom    8 type  1   force =     0.00047931   -0.00401148    0.00117690
     atom    9 type  1   force =     0.00456963   -0.01078830   -0.00047783
     atom   10 type  1   force =    -0.00456963   -0.01078830    0.00047783
     atom   11 type  1   force =    -0.00456963    0.01078830    0.00047783
     atom   12 type  1   force =     0.00456963    0.01078830   -0.00047783
     atom   13 type  1   force =    -0.00352017    0.00726447   -0.00230673
     atom   14 type  1   force =     0.00352017    0.00726447    0.00230673
     atom   15 type  1   force =     0.00352017   -0.00726447    0.00230673
     atom   16 type  1   force =    -0.00352017   -0.00726447   -0.00230673
     atom   17 type  1   force =    -0.00754291    0.00169309    0.00222561
     atom   18 type  1   force =     0.00754291    0.00169309   -0.00222561
     atom   19 type  1   force =     0.00754291   -0.00169309   -0.00222561
     atom   20 type  1   force =    -0.00754291   -0.00169309    0.00222561
     atom   21 type  1   force =    -0.01066536    0.00212437    0.00028450
     atom   22 type  1   force =     0.01066536    0.00212437   -0.00028450
     atom   23 type  1   force =     0.01066536   -0.00212437   -0.00028450
     atom   24 type  1   force =    -0.01066536   -0.00212437    0.00028450
     atom   25 type  1   force =     0.00104480    0.00360654    0.00705676
     atom   26 type  1   force =    -0.00104480    0.00360654   -0.00705676
     atom   27 type  1   force =    -0.00104480   -0.00360654   -0.00705676
     atom   28 type  1   force =     0.00104480   -0.00360654    0.00705676
     atom   29 type  4   force =     0.00022520   -0.00311706    0.00137368
     atom   30 type  4   force =    -0.00022520   -0.00311706   -0.00137368
     atom   31 type  4   force =    -0.00022520    0.00311706   -0.00137368
     atom   32 type  4   force =     0.00022520    0.00311706    0.00137368
     atom   33 type  4   force =     0.00194117   -0.00448168    0.00068937
     atom   34 type  4   force =    -0.00194117   -0.00448168   -0.00068937
     atom   35 type  4   force =    -0.00194117    0.00448168   -0.00068937
     atom   36 type  4   force =     0.00194117    0.00448168    0.00068937
     atom   37 type  4   force =     0.00300845    0.00336711    0.00604215
     atom   38 type  4   force =    -0.00300845    0.00336711   -0.00604215
     atom   39 type  4   force =    -0.00300845   -0.00336711   -0.00604215
     atom   40 type  4   force =     0.00300845   -0.00336711    0.00604215
     atom   41 type  4   force =    -0.00137193   -0.00149413   -0.00007974
     atom   42 type  4   force =     0.00137193   -0.00149413    0.00007974
     atom   43 type  4   force =     0.00137193    0.00149413    0.00007974
     atom   44 type  4   force =    -0.00137193    0.00149413   -0.00007974
     atom   45 type  4   force =     0.00334248   -0.00409694   -0.00132817
     atom   46 type  4   force =    -0.00334248   -0.00409694    0.00132817
     atom   47 type  4   force =    -0.00334248    0.00409694    0.00132817
     atom   48 type  4   force =     0.00334248    0.00409694   -0.00132817
     atom   49 type  4   force =     0.00661415    0.00539351   -0.00667351
     atom   50 type  4   force =    -0.00661415    0.00539351    0.00667351
     atom   51 type  4   force =    -0.00661415   -0.00539351    0.00667351
     atom   52 type  4   force =     0.00661415   -0.00539351   -0.00667351
     atom   53 type  2   force =    -0.00178232    0.00854344   -0.00352758
     atom   54 type  2   force =     0.00178232    0.00854344    0.00352758
     atom   55 type  2   force =     0.00178232   -0.00854344    0.00352758
     atom   56 type  2   force =    -0.00178232   -0.00854344   -0.00352758
     atom   57 type  3   force =     0.00072651   -0.00232830    0.00039163
     atom   58 type  3   force =    -0.00072651   -0.00232830   -0.00039163
     atom   59 type  3   force =    -0.00072651    0.00232830   -0.00039163
     atom   60 type  3   force =     0.00072651    0.00232830    0.00039163
     atom   61 type  3   force =    -0.00095591   -0.00027117   -0.00087144
     atom   62 type  3   force =     0.00095591   -0.00027117    0.00087144
     atom   63 type  3   force =     0.00095591    0.00027117    0.00087144
     atom   64 type  3   force =    -0.00095591    0.00027117   -0.00087144
     atom   65 type  3   force =     0.00087818    0.00183821    0.00029431
     atom   66 type  3   force =    -0.00087818    0.00183821   -0.00029431
     atom   67 type  3   force =    -0.00087818   -0.00183821   -0.00029431
     atom   68 type  3   force =     0.00087818   -0.00183821    0.00029431
     atom   69 type  3   force =    -0.00148330    0.00196089   -0.00242681
     atom   70 type  3   force =     0.00148330    0.00196089    0.00242681
     atom   71 type  3   force =     0.00148330   -0.00196089    0.00242681
     atom   72 type  3   force =    -0.00148330   -0.00196089   -0.00242681
     atom   73 type  3   force =     0.00057971    0.00044261   -0.00055908
     atom   74 type  3   force =    -0.00057971    0.00044261    0.00055908
     atom   75 type  3   force =    -0.00057971   -0.00044261    0.00055908
     atom   76 type  3   force =     0.00057971   -0.00044261   -0.00055908

     Total force =     0.065180     Total SCF correction =     0.000256


     Computing stress (Cartesian axis) and pressure

          total   stress  (Ry/bohr**3)                   (kbar)     P=    4.57
   0.00015589   0.00000000  -0.00000743         22.93      0.00     -1.09
   0.00000000  -0.00005159   0.00000000          0.00     -7.59      0.00
  -0.00000743   0.00000000  -0.00001118         -1.09      0.00     -1.65


     Writing output data file scf.save
 
     init_run     :     25.73s CPU     27.03s WALL (       1 calls)
     electrons    :    661.75s CPU    701.10s WALL (       1 calls)
     forces       :     14.85s CPU     15.00s WALL (       1 calls)
     stress       :     75.45s CPU     75.70s WALL (       1 calls)

     Called by init_run:
     wfcinit      :     15.62s CPU     16.81s WALL (       1 calls)
     potinit      :      3.65s CPU      3.68s WALL (       1 calls)

     Called by electrons:
     c_bands      :    584.31s CPU    618.00s WALL (      15 calls)
     sum_band     :     66.15s CPU     70.99s WALL (      15 calls)
     v_of_rho     :      1.71s CPU      1.83s WALL (      16 calls)
     newd         :      3.59s CPU      4.27s WALL (      16 calls)
     PAW_pot      :      5.48s CPU      5.48s WALL (      16 calls)
     mix_rho      :      0.40s CPU      0.44s WALL (      15 calls)

     Called by c_bands:
     init_us_2    :      4.84s CPU      4.87s WALL (     198 calls)
     cegterg      :    564.76s CPU    598.31s WALL (      90 calls)

     Called by sum_band:
     sum_band:bec :      0.05s CPU      0.05s WALL (      90 calls)
     addusdens    :      3.87s CPU      4.55s WALL (      15 calls)

     Called by *egterg:
     h_psi        :    316.18s CPU    343.10s WALL (     489 calls)
     s_psi        :     59.25s CPU     59.27s WALL (     489 calls)
     g_psi        :      2.54s CPU      2.53s WALL (     393 calls)
     cdiaghg      :     46.04s CPU     46.05s WALL (     483 calls)

     Called by h_psi:
     h_psi:pot    :    313.24s CPU    340.09s WALL (     489 calls)
     h_psi:calbec :     56.08s CPU     56.31s WALL (     489 calls)
     vloc_psi     :    197.95s CPU    224.55s WALL (     489 calls)
     add_vuspsi   :     59.21s CPU     59.23s WALL (     489 calls)

     General routines
     calbec       :     84.13s CPU     84.46s WALL (     609 calls)
     fft          :      1.92s CPU      2.11s WALL (     232 calls)
     fftw         :    213.22s CPU    241.29s WALL (  105372 calls)
 
     Parallel routines
     fft_scatter  :     49.99s CPU     70.42s WALL (  105604 calls)
 
     PWSCF        : 13m 5.09s CPU    14m21.06s WALL

 
   This run was terminated on:   8: 1:10  10Dec2017            

=------------------------------------------------------------------------------=
   JOB DONE.
=------------------------------------------------------------------------------=
