
     Program PWSCF v.6.1 (svn rev. 13369) starts on  4Nov2017 at  6: 3:38 

     This program is part of the open-source Quantum ESPRESSO suite
     for quantum simulation of materials; please cite
         "P. Giannozzi et al., J. Phys.:Condens. Matter 21 395502 (2009);
          URL http://www.quantum-espresso.org", 
     in publications or presentations arising from this work. More details at
     http://www.quantum-espresso.org/quote

     Parallel version (MPI), running on     8 processors
     R & G space division:  proc/nbgrp/npool/nimage =       8
     Waiting for input...
     Reading input from standard input

     Current dimensions of program PWSCF are:
     Max number of different atomic species (ntypx) = 10
     Max number of k-points (npk) =  40000
     Max angular momentum in pseudopotentials (lmaxx) =  3
               file C.pbe-n-kjpaw_psl.0.1.UPF: wavefunction(s)  2P renormalized
               file N.pbe-n-kjpaw_psl.0.1.UPF: wavefunction(s)  2P renormalized
               file H.pbe-kjpaw_psl.0.1.UPF: wavefunction(s)  1S renormalized
               file O.pbe-n-kjpaw_psl.0.1.UPF: wavefunction(s)  2P renormalized

     -------------------------------------
     Parameters for Dispersion Correction:
     -------------------------------------
       atom      VdW radius       C_6     

        C          2.744         60.710
        N          2.640         42.670
        H          1.892          4.857
        O          2.536         24.284

     Subspace diagonalization in iterative solution of the eigenvalue problem:
     a serial algorithm will be used

 
     Parallelization info
     --------------------
     sticks:   dense  smooth     PW     G-vecs:    dense   smooth      PW
     Min         675     675    183                62618    62618    8845
     Max         676     676    184                62622    62622    8851
     Sum        5401    5401   1471               500959   500959   70789
 


     bravais-lattice index     =            0
     lattice parameter (alat)  =      18.5439  a.u.
     unit-cell volume          =    3708.6491 (a.u.)^3
     number of atoms/cell      =           60
     number of atomic types    =            4
     number of electrons       =       160.00
     number of Kohn-Sham states=           96
     kinetic-energy cutoff     =     100.0000  Ry
     charge density cutoff     =     400.0000  Ry
     convergence threshold     =      1.0E-08
     mixing beta               =       0.5000
     number of iterations used =            8  plain     mixing
     Exchange-correlation      =  SLA  PW   PBX  PBC ( 1  4  3  4 0 0)

     celldm(1)=  18.543883  celldm(2)=   0.000000  celldm(3)=   0.000000
     celldm(4)=   0.000000  celldm(5)=   0.000000  celldm(6)=   0.000000

     crystal axes: (cart. coord. in units of alat)
               a(1) = (   1.000000   0.000000   0.000000 )  
               a(2) = (   0.000000   0.493937   0.000000 )  
               a(3) = (  -0.159616   0.000000   1.177450 )  

     reciprocal axes: (cart. coord. in units 2 pi/alat)
               b(1) = (  1.000000  0.000000  0.135561 )  
               b(2) = (  0.000000  2.024551  0.000000 )  
               b(3) = (  0.000000  0.000000  0.849293 )  


     PseudoPot. # 1 for  C read from file:
     /scratch/ahofstet/pseudo/C.pbe-n-kjpaw_psl.0.1.UPF
     MD5 check sum: 430fe95172b1e11ef3f8ed03bac87931
     Pseudo is Projector augmented-wave + core cor, Zval =  4.0
     Generated using "atomic" code by A. Dal Corso  v.5.0.99 svn rev. 10869
     Shape of augmentation charge: BESSEL
     Using radial grid of 1073 points,  4 beta functions with: 
                l(1) =   0
                l(2) =   0
                l(3) =   1
                l(4) =   1
     Q(r) pseudized with 0 coefficients 


     PseudoPot. # 2 for  N read from file:
     /scratch/ahofstet/pseudo/N.pbe-n-kjpaw_psl.0.1.UPF
     MD5 check sum: f73187c8b701007e77325f868c9291d7
     Pseudo is Projector augmented-wave + core cor, Zval =  5.0
     Generated using "atomic" code by A. Dal Corso  v.5.0.99 svn rev. 10869
     Shape of augmentation charge: PSQ
     Using radial grid of 1085 points,  4 beta functions with: 
                l(1) =   0
                l(2) =   0
                l(3) =   1
                l(4) =   1
     Q(r) pseudized with 0 coefficients 


     PseudoPot. # 3 for  H read from file:
     /scratch/ahofstet/pseudo/H.pbe-kjpaw_psl.0.1.UPF
     MD5 check sum: 94e484f906d9e9773b2f6e52662335b2
     Pseudo is Projector augmented-wave, Zval =  1.0
     Generated using "atomic" code by A. Dal Corso  v.5.0.99 svn rev. 10869
     Shape of augmentation charge: PSQ
     Using radial grid of  929 points,  2 beta functions with: 
                l(1) =   0
                l(2) =   0
     Q(r) pseudized with 0 coefficients 


     PseudoPot. # 4 for  O read from file:
     /scratch/ahofstet/pseudo/O.pbe-n-kjpaw_psl.0.1.UPF
     MD5 check sum: 3f94a2996a3169367d6eb21d9b593f20
     Pseudo is Projector augmented-wave + core cor, Zval =  6.0
     Generated using "atomic" code by A. Dal Corso  v.5.0.99 svn rev. 10869
     Shape of augmentation charge: BESSEL
     Using radial grid of 1095 points,  4 beta functions with: 
                l(1) =   0
                l(2) =   0
                l(3) =   1
                l(4) =   1
     Q(r) pseudized with 0 coefficients 


     atomic species   valence    mass     pseudopotential
        C              4.00    12.01070      C( 1.00)
        N              5.00    14.00670      N( 1.00)
        H              1.00     1.00794      H( 1.00)
        O              6.00    15.99940      O( 1.00)

      2 Sym. Ops., with inversion, found



   Cartesian axes

     site n.     atom                  positions (alat units)
         1           C   tau(   1) = (   0.1410860   0.4140979   0.5481695  )
         2           C   tau(   2) = (   0.7790690   0.1671269   0.0405744  )
         3           C   tau(   3) = (   0.6992980   0.0798387   0.6292806  )
         4           C   tau(   4) = (   0.0613149   0.3268097   1.1368757  )
         5           C   tau(   5) = (   0.2622617   0.3441443   0.6078183  )
         6           C   tau(   6) = (   0.4982843   0.0971290   1.1583635  )
         7           C   tau(   7) = (   0.5781223   0.1497923   0.5696318  )
         8           C   tau(   8) = (   0.3420996   0.3968076   0.0190866  )
         9           C   tau(   9) = (   0.2582210   0.2938648   0.7554367  )
        10           C   tau(  10) = (   0.5023131   0.0469021   1.0107364  )
        11           C   tau(  11) = (   0.5821630   0.2000718   0.4220134  )
        12           C   tau(  12) = (   0.3380709   0.4470345   0.1667137  )
        13           C   tau(  13) = (   0.3401719   0.4158073   0.7198141  )
        14           C   tau(  14) = (   0.4202949   0.1687751   1.0464126  )
        15           C   tau(  15) = (   0.5002120   0.0781293   0.4576360  )
        16           C   tau(  16) = (   0.4200890   0.3251615   0.1310375  )
        17           O   tau(  17) = (   0.0986001   0.0328900   0.5874260  )
        18           O   tau(  18) = (   0.8215604   0.2798693   0.0013602  )
        19           O   tau(  19) = (   0.7417838   0.4610466   0.5900241  )
        20           O   tau(  20) = (   0.0188236   0.2140674   1.1760899  )
        21           N   tau(  21) = (   0.0816340   0.3440073   0.4432563  )
        22           N   tau(  22) = (   0.8385427   0.0970376   0.1454883  )
        23           N   tau(  23) = (   0.7587500   0.1499293   0.7341938  )
        24           N   tau(  24) = (   0.0018412   0.3968990   1.0319618  )
        25           N   tau(  25) = (  -0.0391136   0.3913251   0.3810954  )
        26           N   tau(  26) = (   0.9593209   0.1443551   0.2075860  )
        27           N   tau(  27) = (   0.8794976   0.1026115   0.7963547  )
        28           N   tau(  28) = (  -0.1189370   0.3495815   0.9698641  )
        29           H   tau(  29) = (   0.3173383   0.2776375   0.5382119  )
        30           H   tau(  30) = (   0.4432569   0.5246034   1.2280539  )
        31           H   tau(  31) = (   0.5230457   0.2162991   0.6392383  )
        32           H   tau(  32) = (   0.3971271  -0.0306668  -0.0506038  )
        33           H   tau(  33) = (   0.3126532   0.1963154   0.7708493  )
        34           H   tau(  34) = (   0.4479350  -0.0506954   0.9953458  )
        35           H   tau(  35) = (   0.5277307   0.2976213   0.4066008  )
        36           H   tau(  36) = (   0.3924490   0.5446320   0.1821043  )
        37           H   tau(  37) = (   0.1640942   0.3042322   0.8133959  )
        38           H   tau(  38) = (   0.5964962   0.0571194   0.9528197  )
        39           H   tau(  39) = (   0.6762897   0.1897044   0.3640542  )
        40           H   tau(  40) = (   0.2438878   0.4368172   0.2246304  )
        41           H   tau(  41) = (   0.4510042   0.4129202   0.7186316  )
        42           H   tau(  42) = (   0.3094411   0.1659809   1.0475551  )
        43           H   tau(  43) = (   0.3893797   0.0810164   0.4588185  )
        44           H   tau(  44) = (   0.5309428   0.3279557   0.1298950  )
        45           H   tau(  45) = (   0.2965207   0.5162417   0.7490938  )
        46           H   tau(  46) = (   0.4639839   0.2692173   1.0172078  )
        47           H   tau(  47) = (   0.5438632  -0.0223051   0.4283563  )
        48           H   tau(  48) = (   0.3764000   0.2247193   0.1602424  )
        49           H   tau(  49) = (   0.0970083   0.2406442   0.4377338  )
        50           H   tau(  50) = (   0.8231964   0.4876116   0.1510648  )
        51           H   tau(  51) = (   0.7433757   0.2532924   0.7397163  )
        52           H   tau(  52) = (   0.0171876   0.0063250   1.0263853  )
        53           H   tau(  53) = (   0.8905369   0.4139064   0.4558617  )
        54           H   tau(  54) = (   0.0295957   0.1670353   0.1327786  )
        55           H   tau(  55) = (  -0.0501529   0.0800302   0.7215884  )
        56           H   tau(  56) = (   0.8107883   0.3269013   1.0446715  )
        57           H   tau(  57) = (  -0.0174532   0.4822176   0.3305567  )
        58           H   tau(  58) = (   0.9376924   0.2352389   0.2581530  )
        59           H   tau(  59) = (   0.8578372   0.0117190   0.8468934  )
        60           H   tau(  60) = (  -0.0973084   0.2586977   0.9192971  )

     number of k points=    12
                       cart. coord. in units 2pi/alat
        k(    1) = (   0.0000000   0.0000000   0.0000000), wk =   0.1250000
        k(    2) = (   0.0000000   0.0000000  -0.4246464), wk =   0.1250000
        k(    3) = (   0.0000000   0.5061378   0.0000000), wk =   0.2500000
        k(    4) = (   0.0000000   0.5061378  -0.4246464), wk =   0.2500000
        k(    5) = (   0.0000000  -1.0122756   0.0000000), wk =   0.1250000
        k(    6) = (   0.0000000  -1.0122756  -0.4246464), wk =   0.1250000
        k(    7) = (  -0.5000000   0.0000000  -0.0677804), wk =   0.1250000
        k(    8) = (  -0.5000000   0.0000000  -0.4924268), wk =   0.1250000
        k(    9) = (  -0.5000000   0.5061378  -0.0677804), wk =   0.2500000
        k(   10) = (  -0.5000000   0.5061378  -0.4924268), wk =   0.2500000
        k(   11) = (  -0.5000000  -1.0122756  -0.0677804), wk =   0.1250000
        k(   12) = (  -0.5000000  -1.0122756  -0.4924268), wk =   0.1250000

     Dense  grid:   500959 G-vectors     FFT dimensions: ( 120,  60, 144)

     Estimated max dynamical RAM per process >     316.97MB

     Estimated total allocated dynamical RAM >    2535.78MB

     Check: negative/imaginary core charge=   -0.000002    0.000000

     Initial potential from superposition of free atoms

     starting charge  159.99896, renormalised to  160.00000
     Starting wfc are  144 randomized atomic wfcs
     Checking if some PAW data can be deallocated... 

     total cpu time spent up to now is       19.0 secs

     per-process dynamical memory:   285.4 Mb

     Self-consistent Calculation

     iteration #  1     ecut=   100.00 Ry     beta=0.50
     Davidson diagonalization with overlap
     ethr =  1.00E-02,  avg # of iterations =  3.5

     total cpu time spent up to now is       61.7 secs

     total energy              =    -724.07165573 Ry
     Harris-Foulkes estimate   =    -727.33008139 Ry
     estimated scf accuracy    <       6.16756817 Ry

     iteration #  2     ecut=   100.00 Ry     beta=0.50
     Davidson diagonalization with overlap
     ethr =  3.85E-03,  avg # of iterations =  2.7

     total cpu time spent up to now is       86.6 secs

     total energy              =    -724.72763809 Ry
     Harris-Foulkes estimate   =    -725.03161580 Ry
     estimated scf accuracy    <       0.66727328 Ry

     iteration #  3     ecut=   100.00 Ry     beta=0.50
     Davidson diagonalization with overlap
     ethr =  4.17E-04,  avg # of iterations =  5.2

     total cpu time spent up to now is      135.0 secs

     total energy              =    -725.19203432 Ry
     Harris-Foulkes estimate   =    -725.42827522 Ry
     estimated scf accuracy    <       0.63436747 Ry

     iteration #  4     ecut=   100.00 Ry     beta=0.50
     Davidson diagonalization with overlap
     ethr =  3.96E-04,  avg # of iterations =  1.4

     total cpu time spent up to now is      156.8 secs

     total energy              =    -725.11518440 Ry
     Harris-Foulkes estimate   =    -725.23285388 Ry
     estimated scf accuracy    <       0.18239630 Ry

     iteration #  5     ecut=   100.00 Ry     beta=0.50
     Davidson diagonalization with overlap
     ethr =  1.14E-04,  avg # of iterations =  5.7

     total cpu time spent up to now is      205.2 secs

     total energy              =    -725.25253064 Ry
     Harris-Foulkes estimate   =    -725.34043772 Ry
     estimated scf accuracy    <       0.30211385 Ry

     iteration #  6     ecut=   100.00 Ry     beta=0.50
     Davidson diagonalization with overlap
     ethr =  1.14E-04,  avg # of iterations =  1.0

     total cpu time spent up to now is      226.7 secs

     total energy              =    -725.19691263 Ry
     Harris-Foulkes estimate   =    -725.26006990 Ry
     estimated scf accuracy    <       0.14250796 Ry

     iteration #  7     ecut=   100.00 Ry     beta=0.50
     Davidson diagonalization with overlap
     ethr =  8.91E-05,  avg # of iterations =  5.8

     total cpu time spent up to now is      263.0 secs

     total energy              =    -725.24377559 Ry
     Harris-Foulkes estimate   =    -725.24431031 Ry
     estimated scf accuracy    <       0.00243334 Ry

     iteration #  8     ecut=   100.00 Ry     beta=0.50
     Davidson diagonalization with overlap
     ethr =  1.52E-06,  avg # of iterations =  7.3

     total cpu time spent up to now is      300.5 secs

     total energy              =    -725.24376290 Ry
     Harris-Foulkes estimate   =    -725.24431355 Ry
     estimated scf accuracy    <       0.00123598 Ry

     iteration #  9     ecut=   100.00 Ry     beta=0.50
     Davidson diagonalization with overlap
     ethr =  7.72E-07,  avg # of iterations =  3.5

     total cpu time spent up to now is      325.7 secs

     total energy              =    -725.24388981 Ry
     Harris-Foulkes estimate   =    -725.24393590 Ry
     estimated scf accuracy    <       0.00010682 Ry

     iteration # 10     ecut=   100.00 Ry     beta=0.50
     Davidson diagonalization with overlap
     ethr =  6.68E-08,  avg # of iterations =  4.0

     total cpu time spent up to now is      367.7 secs

     total energy              =    -725.24400974 Ry
     Harris-Foulkes estimate   =    -725.24403109 Ry
     estimated scf accuracy    <       0.00005228 Ry

     iteration # 11     ecut=   100.00 Ry     beta=0.50
     Davidson diagonalization with overlap
     ethr =  3.27E-08,  avg # of iterations =  1.0

     total cpu time spent up to now is      389.2 secs

     total energy              =    -725.24400403 Ry
     Harris-Foulkes estimate   =    -725.24401208 Ry
     estimated scf accuracy    <       0.00001643 Ry

     iteration # 12     ecut=   100.00 Ry     beta=0.50
     Davidson diagonalization with overlap
     ethr =  1.03E-08,  avg # of iterations =  4.0

     total cpu time spent up to now is      428.6 secs

     total energy              =    -725.24401427 Ry
     Harris-Foulkes estimate   =    -725.24401792 Ry
     estimated scf accuracy    <       0.00000842 Ry

     iteration # 13     ecut=   100.00 Ry     beta=0.50
     Davidson diagonalization with overlap
     ethr =  5.26E-09,  avg # of iterations =  1.0

     total cpu time spent up to now is      450.1 secs

     total energy              =    -725.24401367 Ry
     Harris-Foulkes estimate   =    -725.24401464 Ry
     estimated scf accuracy    <       0.00000254 Ry

     iteration # 14     ecut=   100.00 Ry     beta=0.50
     Davidson diagonalization with overlap
     ethr =  1.58E-09,  avg # of iterations =  4.0

     total cpu time spent up to now is      488.3 secs

     total energy              =    -725.24401542 Ry
     Harris-Foulkes estimate   =    -725.24401546 Ry
     estimated scf accuracy    <       0.00000046 Ry

     iteration # 15     ecut=   100.00 Ry     beta=0.50
     Davidson diagonalization with overlap
     ethr =  2.88E-10,  avg # of iterations =  1.0

     total cpu time spent up to now is      509.8 secs

     total energy              =    -725.24401524 Ry
     Harris-Foulkes estimate   =    -725.24401543 Ry
     estimated scf accuracy    <       0.00000037 Ry

     iteration # 16     ecut=   100.00 Ry     beta=0.50
     Davidson diagonalization with overlap
     ethr =  2.29E-10,  avg # of iterations =  4.0

     total cpu time spent up to now is      540.5 secs

     End of self-consistent calculation

          k = 0.0000 0.0000 0.0000 ( 62607 PWs)   bands (ev):

   -20.4002 -20.3706 -20.3412 -20.3185 -18.5105 -18.4340 -18.3367 -18.2684
   -16.0183 -15.9747 -15.8875 -15.8513 -14.1626 -14.0980 -13.9329 -13.8545
   -10.4196 -10.4139 -10.2359 -10.2188  -9.1375  -8.9308  -8.9028  -8.7246
    -8.6672  -8.6502  -8.5862  -8.5207  -7.4385  -7.3981  -7.2201  -7.1680
    -7.0905  -6.9906  -6.7606  -6.6940  -6.5726  -6.3932  -6.3645  -6.3111
    -6.0241  -5.9410  -5.8697  -5.6553  -4.9288  -4.7977  -4.7908  -4.7187
    -4.3729  -4.2975  -3.7675  -3.7349  -3.7050  -3.6141  -3.5866  -3.5796
    -3.4889  -3.4050  -3.3625  -3.2875  -2.1376  -2.0967  -1.9849  -1.9082
    -1.5743  -1.5402  -1.4593  -1.3281  -1.3144  -1.3136  -0.8174  -0.7201
    -0.6290  -0.5375  -0.4931  -0.4237  -0.2001  -0.0650  -0.0400  -0.0171
     4.7811   4.8451   4.9079   4.9751   5.2783   5.7063   5.7831   5.9371
     6.7229   6.7836   6.9923   7.3163   7.6586   7.6620   7.8325   8.0081

          k = 0.0000 0.0000-0.4246 ( 62698 PWs)   bands (ev):

   -20.3885 -20.3882 -20.3271 -20.3268 -18.4797 -18.4796 -18.2952 -18.2952
   -15.9988 -15.9985 -15.8678 -15.8676 -14.1302 -14.1300 -13.8941 -13.8939
   -10.4408 -10.4406 -10.1907 -10.1907  -9.0694  -9.0682  -8.7923  -8.7916
    -8.7148  -8.7143  -8.5122  -8.5121  -7.4233  -7.4214  -7.1322  -7.1321
    -7.0497  -7.0486  -6.6798  -6.6794  -6.5721  -6.5715  -6.3662  -6.3644
    -5.9885  -5.9884  -5.7275  -5.7274  -4.8761  -4.8760  -4.7396  -4.7390
    -4.3285  -4.3278  -3.7648  -3.7646  -3.6556  -3.6551  -3.5746  -3.5726
    -3.4593  -3.4581  -3.3193  -3.3180  -2.1333  -2.1316  -1.9232  -1.9213
    -1.5430  -1.5430  -1.4013  -1.4012  -1.3349  -1.3348  -0.8164  -0.8160
    -0.5190  -0.5186  -0.4787  -0.4781  -0.1175  -0.1169  -0.0347  -0.0334
     4.7934   4.7937   4.9742   4.9745   5.4317   5.4319   5.9379   5.9382
     6.7017   6.7024   7.0412   7.0423   7.7685   7.7694   7.8548   7.8557

          k = 0.0000 0.5061 0.0000 ( 62629 PWs)   bands (ev):

   -20.3802 -20.3593 -20.3238 -20.3077 -18.4989 -18.4223 -18.3772 -18.3059
   -15.9834 -15.9506 -15.8855 -15.8604 -14.1499 -14.0770 -13.9862 -13.9043
   -10.3817 -10.3658 -10.2350 -10.2187  -9.3346  -9.2069  -9.0871  -8.9758
    -8.6219  -8.6162  -8.5692  -8.4992  -7.5958  -7.5652  -7.1319  -7.0516
    -6.9929  -6.9716  -6.7557  -6.6291  -6.5858  -6.3569  -6.3392  -6.2096
    -5.8697  -5.8480  -5.7821  -5.6373  -5.0044  -4.9538  -4.9535  -4.8673
    -4.3236  -4.2775  -3.8652  -3.8150  -3.7900  -3.7315  -3.6212  -3.5978
    -3.0852  -3.0225  -2.9601  -2.9444  -2.1459  -2.0823  -1.8962  -1.8223
    -1.5517  -1.4724  -1.4416  -1.3361  -1.2225  -1.1179  -0.8269  -0.6640
    -0.5448  -0.4745  -0.4189  -0.3633  -0.3209  -0.0776  -0.0059   0.0002
     4.6859   4.7027   4.8599   4.9019   5.4537   5.8337   6.0206   6.0699
     6.6464   6.7720   7.1318   7.3226   7.3492   7.4588   7.5504   7.6149

          k = 0.0000 0.5061-0.4246 ( 62660 PWs)   bands (ev):

   -20.3714 -20.3711 -20.3144 -20.3141 -18.4712 -18.4711 -18.3311 -18.3310
   -15.9685 -15.9682 -15.8719 -15.8718 -14.1182 -14.1178 -13.9409 -13.9406
   -10.3932 -10.3931 -10.1993 -10.1992  -9.2855  -9.2844  -9.0301  -9.0295
    -8.6470  -8.6467  -8.5076  -8.5074  -7.5846  -7.5829  -7.0852  -7.0836
    -6.9739  -6.9729  -6.6816  -6.6813  -6.4493  -6.4489  -6.3356  -6.3346
    -5.8860  -5.8853  -5.6635  -5.6631  -5.0019  -5.0015  -4.8856  -4.8853
    -4.2993  -4.2988  -3.8513  -3.8501  -3.7599  -3.7594  -3.6041  -3.6027
    -3.0566  -3.0546  -2.9525  -2.9501  -2.1118  -2.1097  -1.8699  -1.8678
    -1.4995  -1.4994  -1.3967  -1.3963  -1.1708  -1.1707  -0.7738  -0.7732
    -0.4819  -0.4815  -0.4105  -0.4100  -0.1843  -0.1830   0.0027   0.0040
     4.6950   4.6953   4.8971   4.8976   5.5917   5.5921   6.0844   6.0849
     6.7749   6.7757   7.1067   7.1070   7.4678   7.4683   7.6303   7.6314

          k = 0.0000-1.0123 0.0000 ( 62682 PWs)   bands (ev):

   -20.3539 -20.3536 -20.3016 -20.3013 -18.4530 -18.4528 -18.3774 -18.3773
   -15.9240 -15.9237 -15.8899 -15.8897 -14.0873 -14.0866 -14.0054 -14.0046
   -10.3117 -10.3116 -10.2347 -10.2344  -9.4902  -9.4892  -9.2381  -9.2377
    -8.5710  -8.5708  -8.5316  -8.5311  -7.6548  -7.6532  -7.1026  -7.1004
    -6.8425  -6.8409  -6.6734  -6.6728  -6.3937  -6.3928  -6.3522  -6.3519
    -5.7423  -5.7416  -5.6400  -5.6390  -5.1553  -5.1549  -4.9257  -4.9254
    -4.3023  -4.3020  -4.0516  -4.0503  -3.7572  -3.7554  -3.6763  -3.6761
    -2.7241  -2.7228  -2.5414  -2.5393  -1.9559  -1.9550  -1.7672  -1.7654
    -1.5376  -1.5374  -1.3649  -1.3645  -0.9860  -0.9855  -0.7864  -0.7862
    -0.4134  -0.4131  -0.3640  -0.3637  -0.2315  -0.2310   0.0005   0.0012
     4.5846   4.5846   4.8415   4.8420   5.8480   5.8480   6.2916   6.2920
     6.7127   6.7134   6.7760   6.7763   7.0994   7.0997   7.3231   7.3239

          k = 0.0000-1.0123-0.4246 ( 62588 PWs)   bands (ev):

   -20.3539 -20.3536 -20.3016 -20.3013 -18.4530 -18.4528 -18.3774 -18.3773
   -15.9239 -15.9236 -15.8900 -15.8899 -14.0872 -14.0864 -14.0055 -14.0047
   -10.3068 -10.3066 -10.2386 -10.2383  -9.4923  -9.4913  -9.2404  -9.2399
    -8.5590  -8.5587  -8.5387  -8.5382  -7.6577  -7.6561  -7.1078  -7.1057
    -6.8360  -6.8346  -6.6799  -6.6792  -6.3689  -6.3681  -6.3561  -6.3557
    -5.7334  -5.7321  -5.6782  -5.6767  -5.1451  -5.1445  -4.9199  -4.9194
    -4.3014  -4.3010  -4.0563  -4.0550  -3.7431  -3.7411  -3.6884  -3.6881
    -2.7213  -2.7199  -2.5455  -2.5434  -1.9511  -1.9500  -1.7847  -1.7829
    -1.5218  -1.5216  -1.3755  -1.3751  -0.9133  -0.9122  -0.8735  -0.8726
    -0.3787  -0.3783  -0.3100  -0.3093  -0.2894  -0.2879  -0.0108  -0.0091
     4.5953   4.5953   4.8461   4.8466   5.9807   5.9815   6.0500   6.0509
     6.8195   6.8198   6.9379   6.9386   7.0032   7.0043   7.3096   7.3103

          k =-0.5000 0.0000-0.0678 ( 62620 PWs)   bands (ev):

   -20.3990 -20.3695 -20.3424 -20.3199 -18.5107 -18.4338 -18.3368 -18.2683
   -16.0082 -15.9733 -15.8887 -15.8628 -14.1620 -14.0868 -13.9464 -13.8531
   -10.4059 -10.3972 -10.2392 -10.2357  -9.1202  -8.9401  -8.9059  -8.7647
    -8.7083  -8.6715  -8.5402  -8.5102  -7.4340  -7.3857  -7.2170  -7.1260
    -6.9677  -6.9135  -6.8785  -6.8326  -6.4772  -6.4443  -6.3407  -6.3152
    -6.0517  -6.0300  -5.8149  -5.6440  -4.9690  -4.8937  -4.8182  -4.7034
    -4.0607  -4.0499  -3.9323  -3.9230  -3.7090  -3.6043  -3.5893  -3.5713
    -3.5331  -3.4551  -3.3549  -3.2984  -2.2202  -2.0455  -1.9288  -1.8708
    -1.6326  -1.4947  -1.4532  -1.3728  -1.2971  -1.2516  -0.9417  -0.7246
    -0.5806  -0.5124  -0.4906  -0.3689  -0.2335  -0.0638  -0.0386  -0.0320
     4.6510   4.7413   5.0392   5.1169   5.4342   5.6441   5.6757   5.7032
     6.7452   6.7926   7.1633   7.4070   7.6134   7.6951   7.9594   8.0330

          k =-0.5000 0.0000-0.4924 ( 62684 PWs)   bands (ev):

   -20.3874 -20.3871 -20.3282 -20.3279 -18.4797 -18.4796 -18.2951 -18.2950
   -15.9941 -15.9938 -15.8722 -15.8721 -14.1376 -14.1374 -13.8867 -13.8865
   -10.3302 -10.3300 -10.3217 -10.3217  -9.0660  -9.0649  -8.7842  -8.7834
    -8.6231  -8.6228  -8.5802  -8.5802  -7.4101  -7.4083  -7.2429  -7.2419
    -6.9346  -6.9338  -6.8396  -6.8383  -6.3870  -6.3863  -6.3568  -6.3567
    -6.0612  -6.0610  -5.7204  -5.7203  -4.9011  -4.9005  -4.7983  -4.7982
    -4.0543  -4.0541  -3.9184  -3.9177  -3.6657  -3.6645  -3.5962  -3.5949
    -3.4903  -3.4893  -3.3158  -3.3142  -2.1419  -2.1399  -1.9009  -1.8984
    -1.6077  -1.6076  -1.3690  -1.3689  -1.2763  -1.2762  -0.8144  -0.8138
    -0.5532  -0.5527  -0.4381  -0.4374  -0.1257  -0.1256  -0.0533  -0.0524
     4.6902   4.6908   5.0838   5.0844   5.5698   5.5701   5.6910   5.6914
     6.6955   6.6966   7.3778   7.3789   7.4632   7.4633   7.9431   7.9434

          k =-0.5000 0.5061-0.0678 ( 62624 PWs)   bands (ev):

   -20.3794 -20.3585 -20.3246 -20.3086 -18.4991 -18.4221 -18.3774 -18.3057
   -15.9773 -15.9524 -15.8837 -15.8668 -14.1456 -14.0727 -13.9923 -13.9074
   -10.3998 -10.3235 -10.2623 -10.2054  -9.3276  -9.2164  -9.0840  -9.0011
    -8.6750  -8.5847  -8.5335  -8.5085  -7.5844  -7.5405  -7.1952  -7.1382
    -6.9472  -6.9232  -6.6642  -6.6225  -6.4757  -6.4409  -6.3536  -6.2962
    -5.8947  -5.8332  -5.8255  -5.5849  -5.1148  -4.9713  -4.9430  -4.7865
    -4.1265  -4.1221  -3.9552  -3.9479  -3.8068  -3.7768  -3.6502  -3.6469
    -3.0723  -3.0195  -2.9522  -2.9449  -2.1440  -2.0979  -1.8353  -1.8311
    -1.5623  -1.4614  -1.4516  -1.3083  -1.2443  -1.0838  -0.8911  -0.6478
    -0.5334  -0.4530  -0.4340  -0.3859  -0.2999  -0.0840  -0.0042   0.0066
     4.6057   4.6558   4.9335   4.9455   5.6756   5.7714   5.7998   5.9983
     6.7292   6.7789   7.1343   7.1749   7.2668   7.5293   7.6910   7.8463

          k =-0.5000 0.5061-0.4924 ( 62658 PWs)   bands (ev):

   -20.3707 -20.3704 -20.3152 -20.3149 -18.4713 -18.4712 -18.3309 -18.3308
   -15.9672 -15.9669 -15.8729 -15.8728 -14.1225 -14.1221 -13.9368 -13.9365
   -10.3350 -10.3348 -10.2689 -10.2687  -9.2854  -9.2843  -9.0186  -9.0180
    -8.5987  -8.5984  -8.5493  -8.5492  -7.5637  -7.5620  -7.1907  -7.1892
    -6.9318  -6.9306  -6.6766  -6.6762  -6.4256  -6.4242  -6.2969  -6.2964
    -5.8874  -5.8866  -5.7046  -5.7039  -5.0431  -5.0427  -4.8617  -4.8615
    -4.1169  -4.1169  -3.9515  -3.9511  -3.7932  -3.7923  -3.6519  -3.6502
    -3.0524  -3.0504  -2.9466  -2.9443  -2.1195  -2.1174  -1.8371  -1.8349
    -1.5460  -1.5458  -1.3419  -1.3415  -1.1796  -1.1795  -0.7910  -0.7904
    -0.4526  -0.4520  -0.4291  -0.4288  -0.1822  -0.1809   0.0029   0.0042
     4.6337   4.6342   4.9399   4.9401   5.6737   5.6740   5.9800   5.9804
     6.6916   6.6932   7.1635   7.1637   7.5258   7.5261   7.6399   7.6405

          k =-0.5000-1.0123-0.0678 ( 62572 PWs)   bands (ev):

   -20.3535 -20.3532 -20.3020 -20.3017 -18.4532 -18.4530 -18.3771 -18.3770
   -15.9333 -15.9330 -15.8804 -15.8802 -14.0833 -14.0826 -14.0099 -14.0091
   -10.3172 -10.3169 -10.2264 -10.2263  -9.4896  -9.4886  -9.2443  -9.2439
    -8.5759  -8.5754  -8.5226  -8.5223  -7.6209  -7.6194  -7.1738  -7.1717
    -6.9294  -6.9284  -6.5171  -6.5158  -6.4017  -6.4012  -6.3453  -6.3449
    -5.7547  -5.7546  -5.6688  -5.6687  -5.0584  -5.0581  -5.0416  -5.0412
    -4.1362  -4.1360  -4.0627  -4.0617  -3.9510  -3.9500  -3.6279  -3.6269
    -2.7282  -2.7270  -2.5192  -2.5169  -1.9450  -1.9439  -1.7836  -1.7819
    -1.5193  -1.5192  -1.3774  -1.3771  -0.9878  -0.9872  -0.7661  -0.7657
    -0.4211  -0.4209  -0.3988  -0.3987  -0.2254  -0.2249   0.0230   0.0237
     4.5800   4.5805   4.8232   4.8233   5.9126   5.9127   6.2943   6.2948
     6.6796   6.6798   6.7696   6.7698   7.0717   7.0719   7.2705   7.2708

          k =-0.5000-1.0123-0.4924 ( 62508 PWs)   bands (ev):

   -20.3535 -20.3532 -20.3020 -20.3017 -18.4532 -18.4530 -18.3772 -18.3770
   -15.9332 -15.9329 -15.8805 -15.8803 -14.0832 -14.0824 -14.0100 -14.0092
   -10.3171 -10.3168 -10.2278 -10.2275  -9.4915  -9.4905  -9.2369  -9.2365
    -8.5679  -8.5675  -8.5363  -8.5360  -7.6205  -7.6190  -7.1753  -7.1731
    -6.9335  -6.9324  -6.5157  -6.5145  -6.3823  -6.3815  -6.3494  -6.3490
    -5.7344  -5.7328  -5.7099  -5.7085  -5.0564  -5.0560  -5.0342  -5.0337
    -4.1317  -4.1315  -4.0639  -4.0629  -3.9491  -3.9482  -3.6344  -3.6334
    -2.7230  -2.7217  -2.5239  -2.5215  -1.9342  -1.9330  -1.7945  -1.7928
    -1.5221  -1.5219  -1.3631  -1.3628  -0.9469  -0.9458  -0.8747  -0.8737
    -0.4281  -0.4279  -0.2762  -0.2747  -0.2695  -0.2689   0.0073   0.0089
     4.5859   4.5864   4.8240   4.8241   5.8911   5.8913   6.2652   6.2661
     6.6563   6.6574   6.8326   6.8332   7.2512   7.2517   7.3047   7.3067

     highest occupied, lowest unoccupied level (ev):     0.0237    4.5800

!    total energy              =    -725.24401533 Ry
     Harris-Foulkes estimate   =    -725.24401534 Ry
     estimated scf accuracy    <          8.0E-09 Ry

     total all-electron energy =     -2735.247478 Ry

     The total energy is the sum of the following terms:

     one-electron contribution =    -409.66807641 Ry
     hartree contribution      =     262.22930458 Ry
     xc contribution           =    -162.47374951 Ry
     ewald contribution        =    -204.43187086 Ry
     Dispersion Correction     =      -0.24635484 Ry
     one-center paw contrib.   =    -210.65326828 Ry

     convergence has been achieved in  16 iterations

     Forces acting on atoms (cartesian axes, Ry/au):

     atom    1 type  1   force =    -0.00507787   -0.00394377    0.00069671
     atom    2 type  1   force =     0.00506886   -0.00401104   -0.00064916
     atom    3 type  1   force =     0.00507787    0.00394377   -0.00069671
     atom    4 type  1   force =    -0.00506886    0.00401104    0.00064916
     atom    5 type  1   force =     0.00064832    0.00110984    0.01227077
     atom    6 type  1   force =    -0.00067475    0.00125612   -0.01193404
     atom    7 type  1   force =    -0.00064832   -0.00110984   -0.01227077
     atom    8 type  1   force =     0.00067475   -0.00125612    0.01193404
     atom    9 type  1   force =     0.00711533   -0.02678612   -0.00332661
     atom   10 type  1   force =    -0.00713772   -0.02743210    0.00339249
     atom   11 type  1   force =    -0.00711533    0.02678612    0.00332661
     atom   12 type  1   force =     0.00713772    0.02743210   -0.00339249
     atom   13 type  1   force =    -0.00836198    0.03335361    0.00140593
     atom   14 type  1   force =     0.00864258    0.03376228   -0.00154004
     atom   15 type  1   force =     0.00836198   -0.03335361   -0.00140593
     atom   16 type  1   force =    -0.00864258   -0.03376228    0.00154004
     atom   17 type  4   force =     0.00475611   -0.00198391   -0.00599546
     atom   18 type  4   force =    -0.00485053   -0.00205270    0.00589516
     atom   19 type  4   force =    -0.00475611    0.00198391    0.00599546
     atom   20 type  4   force =     0.00485053    0.00205270   -0.00589516
     atom   21 type  2   force =     0.00083600   -0.00163335    0.00705347
     atom   22 type  2   force =    -0.00086360   -0.00161282   -0.00709102
     atom   23 type  2   force =    -0.00083600    0.00163335   -0.00705347
     atom   24 type  2   force =     0.00086360    0.00161282    0.00709102
     atom   25 type  2   force =    -0.00330773    0.00188411   -0.00072962
     atom   26 type  2   force =     0.00339221    0.00202811    0.00075182
     atom   27 type  2   force =     0.00330773   -0.00188411    0.00072962
     atom   28 type  2   force =    -0.00339221   -0.00202811   -0.00075182
     atom   29 type  3   force =     0.00229424   -0.00004847   -0.00143022
     atom   30 type  3   force =    -0.00229225   -0.00016818    0.00128812
     atom   31 type  3   force =    -0.00229424    0.00004847    0.00143022
     atom   32 type  3   force =     0.00229225    0.00016818   -0.00128812
     atom   33 type  3   force =    -0.01077879    0.02380835    0.00176144
     atom   34 type  3   force =     0.01073028    0.02391465   -0.00172092
     atom   35 type  3   force =     0.01077879   -0.02380835   -0.00176144
     atom   36 type  3   force =    -0.01073028   -0.02391465    0.00172092
     atom   37 type  3   force =    -0.00119961    0.00411369   -0.00034479
     atom   38 type  3   force =     0.00100713    0.00442456    0.00035352
     atom   39 type  3   force =     0.00119961   -0.00411369    0.00034479
     atom   40 type  3   force =    -0.00100713   -0.00442456   -0.00035352
     atom   41 type  3   force =     0.00231989   -0.00385587   -0.00047669
     atom   42 type  3   force =    -0.00205582   -0.00404626    0.00052870
     atom   43 type  3   force =    -0.00231989    0.00385587    0.00047669
     atom   44 type  3   force =     0.00205582    0.00404626   -0.00052870
     atom   45 type  3   force =     0.01004671   -0.02934228   -0.00895175
     atom   46 type  3   force =    -0.01010964   -0.02926838    0.00887400
     atom   47 type  3   force =    -0.01004671    0.02934228    0.00895175
     atom   48 type  3   force =     0.01010964    0.02926838   -0.00887400
     atom   49 type  3   force =    -0.00013408    0.00963096    0.00074369
     atom   50 type  3   force =     0.00006646    0.00961836   -0.00084454
     atom   51 type  3   force =     0.00013408   -0.00963096   -0.00074369
     atom   52 type  3   force =    -0.00006646   -0.00961836    0.00084454
     atom   53 type  3   force =     0.00088115   -0.00020413    0.00060340
     atom   54 type  3   force =    -0.00084781   -0.00032794   -0.00063547
     atom   55 type  3   force =    -0.00088115    0.00020413   -0.00060340
     atom   56 type  3   force =     0.00084781    0.00032794    0.00063547
     atom   57 type  3   force =    -0.00179142   -0.00450169    0.00125622
     atom   58 type  3   force =     0.00170414   -0.00449740   -0.00120099
     atom   59 type  3   force =     0.00179142    0.00450169   -0.00125622
     atom   60 type  3   force =    -0.00170414    0.00449740    0.00120099

     Total force =     0.129833     Total SCF correction =     0.000163


     Computing stress (Cartesian axis) and pressure

          total   stress  (Ry/bohr**3)                   (kbar)     P=  -10.32
  -0.00003448   0.00000028   0.00001013         -5.07      0.04      1.49
   0.00000028  -0.00009885  -0.00000016          0.04    -14.54     -0.02
   0.00001013  -0.00000016  -0.00007706          1.49     -0.02    -11.34


     Writing output data file scf.save
 
     init_run     :     17.79s CPU     18.41s WALL (       1 calls)
     electrons    :    500.15s CPU    521.64s WALL (       1 calls)
     forces       :      9.19s CPU      9.26s WALL (       1 calls)
     stress       :     28.38s CPU     28.44s WALL (       1 calls)

     Called by init_run:
     wfcinit      :     11.85s CPU     12.33s WALL (       1 calls)
     potinit      :      2.14s CPU      2.17s WALL (       1 calls)

     Called by electrons:
     c_bands      :    443.19s CPU    461.51s WALL (      16 calls)
     sum_band     :     49.07s CPU     51.58s WALL (      16 calls)
     v_of_rho     :      1.03s CPU      1.15s WALL (      17 calls)
     newd         :      2.34s CPU      2.73s WALL (      17 calls)
     PAW_pot      :      4.15s CPU      4.15s WALL (      17 calls)
     mix_rho      :      0.24s CPU      0.26s WALL (      16 calls)

     Called by c_bands:
     init_us_2    :      4.23s CPU      4.24s WALL (     420 calls)
     cegterg      :    429.56s CPU    447.82s WALL (     192 calls)

     Called by sum_band:
     sum_band:bec :      0.04s CPU      0.04s WALL (     192 calls)
     addusdens    :      2.33s CPU      2.70s WALL (      16 calls)

     Called by *egterg:
     h_psi        :    249.59s CPU    262.44s WALL (     866 calls)
     s_psi        :     45.97s CPU     45.98s WALL (     866 calls)
     g_psi        :      1.77s CPU      1.77s WALL (     662 calls)
     cdiaghg      :     21.93s CPU     21.93s WALL (     854 calls)

     Called by h_psi:
     h_psi:pot    :    247.64s CPU    260.46s WALL (     866 calls)
     h_psi:calbec :     45.64s CPU     45.78s WALL (     866 calls)
     vloc_psi     :    155.94s CPU    168.60s WALL (     866 calls)
     add_vuspsi   :     46.06s CPU     46.07s WALL (     866 calls)

     General routines
     calbec       :     67.22s CPU     67.42s WALL (    1118 calls)
     fft          :      0.76s CPU      1.02s WALL (     245 calls)
     fftw         :    165.15s CPU    179.21s WALL (  127430 calls)
 
     Parallel routines
     fft_scatter  :     44.92s CPU     53.19s WALL (  127675 calls)
 
     PWSCF        :  9m21.15s CPU     9m44.86s WALL

 
   This run was terminated on:   6:13:23   4Nov2017            

=------------------------------------------------------------------------------=
   JOB DONE.
=------------------------------------------------------------------------------=
