
     Program PWSCF v.6.1 (svn rev. 13369) starts on  4Nov2017 at 17:27:54 

     This program is part of the open-source Quantum ESPRESSO suite
     for quantum simulation of materials; please cite
         "P. Giannozzi et al., J. Phys.:Condens. Matter 21 395502 (2009);
          URL http://www.quantum-espresso.org", 
     in publications or presentations arising from this work. More details at
     http://www.quantum-espresso.org/quote

     Parallel version (MPI), running on     8 processors
     R & G space division:  proc/nbgrp/npool/nimage =       8
     Waiting for input...
     Reading input from standard input

     Current dimensions of program PWSCF are:
     Max number of different atomic species (ntypx) = 10
     Max number of k-points (npk) =  40000
     Max angular momentum in pseudopotentials (lmaxx) =  3
               file C.pbe-n-kjpaw_psl.0.1.UPF: wavefunction(s)  2P renormalized
               file N.pbe-n-kjpaw_psl.0.1.UPF: wavefunction(s)  2P renormalized
               file H.pbe-kjpaw_psl.0.1.UPF: wavefunction(s)  1S renormalized
               file O.pbe-n-kjpaw_psl.0.1.UPF: wavefunction(s)  2P renormalized

     -------------------------------------
     Parameters for Dispersion Correction:
     -------------------------------------
       atom      VdW radius       C_6     

        C          2.744         60.710
        N          2.640         42.670
        H          1.892          4.857
        O          2.536         24.284

     Subspace diagonalization in iterative solution of the eigenvalue problem:
     a serial algorithm will be used

 
     Parallelization info
     --------------------
     sticks:   dense  smooth     PW     G-vecs:    dense   smooth      PW
     Min         711     711    191               118977   118977   16690
     Max         712     712    192               118982   118982   16703
     Sum        5693    5693   1533               951831   951831  133569
 


     bravais-lattice index     =            0
     lattice parameter (alat)  =      20.5638  a.u.
     unit-cell volume          =    7045.3420 (a.u.)^3
     number of atoms/cell      =          120
     number of atomic types    =            4
     number of electrons       =       328.00
     number of Kohn-Sham states=          196
     kinetic-energy cutoff     =     100.0000  Ry
     charge density cutoff     =     400.0000  Ry
     convergence threshold     =      1.0E-08
     mixing beta               =       0.5000
     number of iterations used =            8  plain     mixing
     Exchange-correlation      =  SLA  PW   PBX  PBC ( 1  4  3  4 0 0)

     celldm(1)=  20.563811  celldm(2)=   0.000000  celldm(3)=   0.000000
     celldm(4)=   0.000000  celldm(5)=   0.000000  celldm(6)=   0.000000

     crystal axes: (cart. coord. in units of alat)
               a(1) = (   1.000000   0.000000   0.000000 )  
               a(2) = (   0.000000   0.423024   0.000000 )  
               a(3) = (  -0.220349   0.000000   1.915256 )  

     reciprocal axes: (cart. coord. in units 2 pi/alat)
               b(1) = (  1.000000  0.000000  0.115050 )  
               b(2) = (  0.000000  2.363935  0.000000 )  
               b(3) = (  0.000000  0.000000  0.522124 )  


     PseudoPot. # 1 for  C read from file:
     /scratch/ahofstet/pseudo/C.pbe-n-kjpaw_psl.0.1.UPF
     MD5 check sum: 430fe95172b1e11ef3f8ed03bac87931
     Pseudo is Projector augmented-wave + core cor, Zval =  4.0
     Generated using "atomic" code by A. Dal Corso  v.5.0.99 svn rev. 10869
     Shape of augmentation charge: BESSEL
     Using radial grid of 1073 points,  4 beta functions with: 
                l(1) =   0
                l(2) =   0
                l(3) =   1
                l(4) =   1
     Q(r) pseudized with 0 coefficients 


     PseudoPot. # 2 for  N read from file:
     /scratch/ahofstet/pseudo/N.pbe-n-kjpaw_psl.0.1.UPF
     MD5 check sum: f73187c8b701007e77325f868c9291d7
     Pseudo is Projector augmented-wave + core cor, Zval =  5.0
     Generated using "atomic" code by A. Dal Corso  v.5.0.99 svn rev. 10869
     Shape of augmentation charge: PSQ
     Using radial grid of 1085 points,  4 beta functions with: 
                l(1) =   0
                l(2) =   0
                l(3) =   1
                l(4) =   1
     Q(r) pseudized with 0 coefficients 


     PseudoPot. # 3 for  H read from file:
     /scratch/ahofstet/pseudo/H.pbe-kjpaw_psl.0.1.UPF
     MD5 check sum: 94e484f906d9e9773b2f6e52662335b2
     Pseudo is Projector augmented-wave, Zval =  1.0
     Generated using "atomic" code by A. Dal Corso  v.5.0.99 svn rev. 10869
     Shape of augmentation charge: PSQ
     Using radial grid of  929 points,  2 beta functions with: 
                l(1) =   0
                l(2) =   0
     Q(r) pseudized with 0 coefficients 


     PseudoPot. # 4 for  O read from file:
     /scratch/ahofstet/pseudo/O.pbe-n-kjpaw_psl.0.1.UPF
     MD5 check sum: 3f94a2996a3169367d6eb21d9b593f20
     Pseudo is Projector augmented-wave + core cor, Zval =  6.0
     Generated using "atomic" code by A. Dal Corso  v.5.0.99 svn rev. 10869
     Shape of augmentation charge: BESSEL
     Using radial grid of 1095 points,  4 beta functions with: 
                l(1) =   0
                l(2) =   0
                l(3) =   1
                l(4) =   1
     Q(r) pseudized with 0 coefficients 


     atomic species   valence    mass     pseudopotential
        C              4.00    12.01070      C( 1.00)
        N              5.00    14.00670      N( 1.00)
        H              1.00     1.00794      H( 1.00)
        O              6.00    15.99940      O( 1.00)

      2 Sym. Ops., with inversion, found



   Cartesian axes

     site n.     atom                  positions (alat units)
         1           O   tau(   1) = (   0.2626784   0.1224178   0.6102925  )
         2           O   tau(   2) = (   0.6271305   0.3340301   0.3473890  )
         3           O   tau(   3) = (   0.5169722   0.3006058   1.3049630  )
         4           O   tau(   4) = (   0.1525201   0.0889934   1.5678666  )
         5           O   tau(   5) = (   0.2192378   0.3664592   1.0372268  )
         6           O   tau(   6) = (   0.4502867   0.1549092   1.8356571  )
         7           O   tau(   7) = (   0.5604129   0.0565644   0.8780288  )
         8           O   tau(   8) = (   0.3293640   0.2681143   0.0795984  )
         9           O   tau(   9) = (   0.2502503   0.1459141   0.3595203  )
        10           O   tau(  10) = (   0.6395882   0.3574992   0.5981745  )
        11           O   tau(  11) = (   0.5294004   0.2771094   1.5557352  )
        12           O   tau(  12) = (   0.1400625   0.0655243   1.3170811  )
        13           O   tau(  13) = (   0.7210451   0.1445192   0.7005874  )
        14           O   tau(  14) = (   0.1687761   0.3559684   0.2571108  )
        15           O   tau(  15) = (   0.0586056   0.2785043   1.2146682  )
        16           O   tau(  16) = (   0.6108745   0.0670551   1.6581447  )
        17           N   tau(  17) = (  -0.0342787   0.1888302   0.7428568  )
        18           N   tau(  18) = (   0.9241026   0.4002624   0.2147856  )
        19           N   tau(  19) = (   0.8139293   0.2341934   1.1723987  )
        20           N   tau(  20) = (  -0.1444519   0.0227612   1.7004699  )
        21           N   tau(  21) = (   0.3873281   0.3392451   0.6623911  )
        22           N   tau(  22) = (   0.5025407   0.1278247   0.2952563  )
        23           N   tau(  23) = (   0.3923225   0.0837784   1.2528645  )
        24           N   tau(  24) = (   0.2771099   0.2951988   1.6199993  )
        25           C   tau(  25) = (   0.1788075   0.1698099   0.6843094  )
        26           C   tau(  26) = (   0.7110149   0.3813586   0.2733555  )
        27           C   tau(  27) = (   0.6008432   0.2532136   1.2309461  )
        28           C   tau(  28) = (   0.0686357   0.0416649   1.6419000  )
        29           C   tau(  29) = (   0.0535145   0.1301288   0.6775108  )
        30           C   tau(  30) = (   0.8362886   0.3416197   0.2801385  )
        31           C   tau(  31) = (   0.7261362   0.2928948   1.2377448  )
        32           C   tau(  32) = (  -0.0566379   0.0814039   1.6351171  )
        33           C   tau(  33) = (   0.0178415   0.0313436   0.5897923  )
        34           C   tau(  34) = (   0.8719245   0.2428016   0.3678555  )
        35           C   tau(  35) = (   0.7618092   0.3916800   1.3254633  )
        36           C   tau(  36) = (  -0.0922738   0.1802219   1.5474001  )
        37           C   tau(  37) = (  -0.0031039   0.2775533   0.8220917  )
        38           C   tau(  38) = (   0.8929671   0.0659619   0.1355421  )
        39           C   tau(  39) = (   0.7827545   0.1454702   1.0931638  )
        40           C   tau(  40) = (  -0.1133164   0.3570617   1.7797135  )
        41           C   tau(  41) = (   0.1180551   0.3158018   0.8434296  )
        42           C   tau(  42) = (   0.7718248   0.1042705   0.1141848  )
        43           C   tau(  43) = (   0.6615955   0.1072218   1.0718259  )
        44           C   tau(  44) = (   0.0078258   0.3187530   1.8010708  )
        45           C   tau(  45) = (   0.1438223   0.4115840   0.9393658  )
        46           C   tau(  46) = (   0.5257523   0.2000322   1.9334823  )
        47           C   tau(  47) = (   0.6358283   0.0114396   0.9758898  )
        48           C   tau(  48) = (   0.2538983   0.2229913  -0.0182268  )
        49           C   tau(  49) = (   0.3440101   0.2940507   0.7850302  )
        50           C   tau(  50) = (   0.5458649   0.0826561   0.1726061  )
        51           C   tau(  51) = (   0.4356406   0.1289729   1.1302254  )
        52           C   tau(  52) = (   0.2337858   0.3403675   1.7426495  )
        53           C   tau(  53) = (   0.2109324   0.2588222   0.7743538  )
        54           C   tau(  54) = (   0.6789197   0.0473424   0.1832926  )
        55           C   tau(  55) = (   0.5687183   0.1642013   1.1409017  )
        56           C   tau(  56) = (   0.1007310   0.3756812   1.7319630  )
        57           H   tau(  57) = (   0.1624625   0.3244127   1.0948545  )
        58           H   tau(  58) = (   0.5070338   0.1128894   1.7779868  )
        59           H   tau(  59) = (   0.6171882   0.0986109   0.8204011  )
        60           H   tau(  60) = (   0.2726169   0.3101342   0.1372687  )
        61           H   tau(  61) = (   0.2137211   0.2258424   0.3314572  )
        62           H   tau(  62) = (   0.6761029   0.0144018   0.6262381  )
        63           H   tau(  63) = (   0.5659296   0.1971812   1.5837984  )
        64           H   tau(  64) = (   0.1035478   0.4086217   1.2890175  )
        65           H   tau(  65) = (   0.2420054   0.1393028   0.4505226  )
        66           H   tau(  66) = (   0.6478336   0.3508910   0.5071625  )
        67           H   tau(  67) = (   0.5376452   0.2837207   1.4647330  )
        68           H   tau(  68) = (   0.1318170   0.0721325   1.4080931  )
        69           H   tau(  69) = (   0.8124608   0.1562940   0.7172728  )
        70           H   tau(  70) = (   0.0773619   0.3677301   0.2404077  )
        71           H   tau(  71) = (  -0.0328101   0.2667296   1.1979827  )
        72           H   tau(  72) = (   0.7022887   0.0552934   1.6748479  )
        73           H   tau(  73) = (   0.6942530   0.2242093   0.6638135  )
        74           H   tau(  74) = (   0.1955573   0.0126370   0.2938831  )
        75           H   tau(  75) = (   0.0853976   0.1988143   1.2514421  )
        76           H   tau(  76) = (   0.5840933   0.4103866   1.6213725  )
        77           H   tau(  77) = (   0.3602868   0.2704270   0.6016057  )
        78           H   tau(  78) = (   0.5295943   0.0590122   0.3560344  )
        79           H   tau(  79) = (   0.4193638   0.1525965   1.3136499  )
        80           H   tau(  80) = (   0.2500563   0.3640114   1.5592211  )
        81           H   tau(  81) = (   0.4828322   0.3494924   0.6550534  )
        82           H   tau(  82) = (   0.4070391   0.1380519   0.3025972  )
        83           H   tau(  83) = (   0.2968185   0.0735311   1.2602022  )
        84           H   tau(  84) = (   0.3726116   0.2849717   1.6126583  )
        85           H   tau(  85) = (   0.3414899   0.0004591   0.6411344  )
        86           H   tau(  86) = (   0.5483631   0.2120823   0.3165201  )
        87           H   tau(  87) = (   0.4381608   0.4225644   1.2741212  )
        88           H   tau(  88) = (   0.2312876   0.2109412   1.5987354  )
        89           H   tau(  89) = (   0.9181099   0.0172572   0.5916220  )
        90           H   tau(  90) = (  -0.0283501   0.2287097   0.3660466  )
        91           H   tau(  91) = (  -0.1384593   0.4057663   1.3236335  )
        92           H   tau(  92) = (   0.8080007   0.1943139   1.5492089  )
        93           H   tau(  93) = (   0.0456123   0.0544965   0.4954030  )
        94           H   tau(  94) = (   0.8441280   0.2659441   0.4622386  )
        95           H   tau(  95) = (   0.7340383   0.3685270   1.4198526  )
        96           H   tau(  96) = (  -0.0644773   0.1570794   1.4530169  )
        97           H   tau(  97) = (   0.0635212   0.3660400   0.6118603  )
        98           H   tau(  98) = (   0.8262378   0.1544840   0.3457551  )
        99           H   tau(  99) = (   0.7161294   0.0569836   1.3033952  )
       100           H   tau( 100) = (  -0.0465871   0.2685396   1.5695005  )
       101           H   tau( 101) = (  -0.0786557   0.3216375   0.8711601  )
       102           H   tau( 102) = (   0.9685383   0.1100039   0.0864593  )
       103           H   tau( 103) = (   0.8583064   0.1013860   1.0440954  )
       104           H   tau( 104) = (  -0.1888877   0.3130197   1.8287962  )
       105           H   tau( 105) = (   0.0554066   0.0223618   0.9758632  )
       106           H   tau( 106) = (   0.6141843   0.2337518   1.8969359  )
       107           H   tau( 107) = (   0.7242440   0.4006618   0.9393924  )
       108           H   tau( 108) = (   0.1654664   0.1892718   0.0183196  )
       109           H   tau( 109) = (   0.1901944   0.0701155   0.8988409  )
       110           H   tau( 110) = (   0.6998036   0.2816439   0.0587280  )
       111           H   tau( 111) = (   0.5894563   0.3529080   1.0164147  )
       112           H   tau( 112) = (   0.0798470   0.1413797   1.8565276  )
       113           H   tau( 113) = (   0.4011439   0.2143843   0.8080787  )
       114           H   tau( 114) = (   0.4886796   0.0030245   0.1495131  )
       115           H   tau( 115) = (   0.3785067   0.2086393   1.1071768  )
       116           H   tau( 116) = (   0.2909711   0.4199991   1.7657424  )
       117           H   tau( 117) = (   0.3599380   0.3658555   0.8528514  )
       118           H   tau( 118) = (   0.5299953   0.1544846   0.1048174  )
       119           H   tau( 119) = (   0.4197127   0.0571680   1.0624041  )
       120           H   tau( 120) = (   0.2496554   0.2685390   1.8104382  )

     number of k points=     6
                       cart. coord. in units 2pi/alat
        k(    1) = (   0.0000000   0.0000000   0.0000000), wk =   0.2500000
        k(    2) = (   0.0000000   0.5909836   0.0000000), wk =   0.5000000
        k(    3) = (   0.0000000  -1.1819673   0.0000000), wk =   0.2500000
        k(    4) = (  -0.5000000   0.0000000  -0.0575248), wk =   0.2500000
        k(    5) = (  -0.5000000   0.5909836  -0.0575248), wk =   0.5000000
        k(    6) = (  -0.5000000  -1.1819673  -0.0575248), wk =   0.2500000

     Dense  grid:   951831 G-vectors     FFT dimensions: ( 135,  60, 256)

     Estimated max dynamical RAM per process >     889.21MB

     Estimated total allocated dynamical RAM >    7113.66MB

     Check: negative/imaginary core charge=   -0.000002    0.000000

     Initial potential from superposition of free atoms

     starting charge  327.99798, renormalised to  328.00000
     Starting wfc are  288 randomized atomic wfcs
     Checking if some PAW data can be deallocated... 

     total cpu time spent up to now is       49.0 secs

     per-process dynamical memory:   573.4 Mb

     Self-consistent Calculation

     iteration #  1     ecut=   100.00 Ry     beta=0.50
     Davidson diagonalization with overlap
     ethr =  1.00E-02,  avg # of iterations =  4.5

     total cpu time spent up to now is      179.6 secs

     total energy              =   -1556.94714709 Ry
     Harris-Foulkes estimate   =   -1563.24525947 Ry
     estimated scf accuracy    <      11.73174446 Ry

     iteration #  2     ecut=   100.00 Ry     beta=0.50
     Davidson diagonalization with overlap
     ethr =  3.58E-03,  avg # of iterations =  3.0

     total cpu time spent up to now is      258.2 secs

     total energy              =   -1558.67573977 Ry
     Harris-Foulkes estimate   =   -1559.17517557 Ry
     estimated scf accuracy    <       1.18600236 Ry

     iteration #  3     ecut=   100.00 Ry     beta=0.50
     Davidson diagonalization with overlap
     ethr =  3.62E-04,  avg # of iterations =  6.2

     total cpu time spent up to now is      395.3 secs

     total energy              =   -1559.11124198 Ry
     Harris-Foulkes estimate   =   -1559.27630990 Ry
     estimated scf accuracy    <       0.41251387 Ry

     iteration #  4     ecut=   100.00 Ry     beta=0.50
     Davidson diagonalization with overlap
     ethr =  1.26E-04,  avg # of iterations =  2.5

     total cpu time spent up to now is      462.3 secs

     total energy              =   -1559.11684089 Ry
     Harris-Foulkes estimate   =   -1559.15261355 Ry
     estimated scf accuracy    <       0.08393679 Ry

     iteration #  5     ecut=   100.00 Ry     beta=0.50
     Davidson diagonalization with overlap
     ethr =  2.56E-05,  avg # of iterations =  6.2

     total cpu time spent up to now is      606.7 secs

     total energy              =   -1559.16074313 Ry
     Harris-Foulkes estimate   =   -1559.19370190 Ry
     estimated scf accuracy    <       0.09945124 Ry

     iteration #  6     ecut=   100.00 Ry     beta=0.50
     Davidson diagonalization with overlap
     ethr =  2.56E-05,  avg # of iterations =  1.2

     total cpu time spent up to now is      669.2 secs

     total energy              =   -1559.15076983 Ry
     Harris-Foulkes estimate   =   -1559.16670614 Ry
     estimated scf accuracy    <       0.03506403 Ry

     iteration #  7     ecut=   100.00 Ry     beta=0.50
     Davidson diagonalization with overlap
     ethr =  1.07E-05,  avg # of iterations =  5.8

     total cpu time spent up to now is      788.4 secs

     total energy              =   -1559.16429534 Ry
     Harris-Foulkes estimate   =   -1559.16488382 Ry
     estimated scf accuracy    <       0.00193265 Ry

     iteration #  8     ecut=   100.00 Ry     beta=0.50
     Davidson diagonalization with overlap
     ethr =  5.89E-07,  avg # of iterations =  2.0

     total cpu time spent up to now is      853.8 secs

     total energy              =   -1559.16420932 Ry
     Harris-Foulkes estimate   =   -1559.16444915 Ry
     estimated scf accuracy    <       0.00057369 Ry

     iteration #  9     ecut=   100.00 Ry     beta=0.50
     Davidson diagonalization with overlap
     ethr =  1.75E-07,  avg # of iterations =  4.0

     total cpu time spent up to now is      964.4 secs

     total energy              =   -1559.16449514 Ry
     Harris-Foulkes estimate   =   -1559.16452768 Ry
     estimated scf accuracy    <       0.00012139 Ry

     iteration # 10     ecut=   100.00 Ry     beta=0.50
     Davidson diagonalization with overlap
     ethr =  3.70E-08,  avg # of iterations =  1.0

     total cpu time spent up to now is     1026.5 secs

     total energy              =   -1559.16447390 Ry
     Harris-Foulkes estimate   =   -1559.16450082 Ry
     estimated scf accuracy    <       0.00005344 Ry

     iteration # 11     ecut=   100.00 Ry     beta=0.50
     Davidson diagonalization with overlap
     ethr =  1.63E-08,  avg # of iterations =  4.0

     total cpu time spent up to now is     1136.5 secs

     total energy              =   -1559.16449816 Ry
     Harris-Foulkes estimate   =   -1559.16450453 Ry
     estimated scf accuracy    <       0.00002111 Ry

     iteration # 12     ecut=   100.00 Ry     beta=0.50
     Davidson diagonalization with overlap
     ethr =  6.44E-09,  avg # of iterations =  1.0

     total cpu time spent up to now is     1198.8 secs

     total energy              =   -1559.16449404 Ry
     Harris-Foulkes estimate   =   -1559.16449903 Ry
     estimated scf accuracy    <       0.00000910 Ry

     iteration # 13     ecut=   100.00 Ry     beta=0.50
     Davidson diagonalization with overlap
     ethr =  2.77E-09,  avg # of iterations =  3.7

     total cpu time spent up to now is     1304.4 secs

     total energy              =   -1559.16449830 Ry
     Harris-Foulkes estimate   =   -1559.16449890 Ry
     estimated scf accuracy    <       0.00000225 Ry

     iteration # 14     ecut=   100.00 Ry     beta=0.50
     Davidson diagonalization with overlap
     ethr =  6.86E-10,  avg # of iterations =  1.0

     total cpu time spent up to now is     1366.9 secs

     total energy              =   -1559.16449777 Ry
     Harris-Foulkes estimate   =   -1559.16449837 Ry
     estimated scf accuracy    <       0.00000110 Ry

     iteration # 15     ecut=   100.00 Ry     beta=0.50
     Davidson diagonalization with overlap
     ethr =  3.36E-10,  avg # of iterations =  3.8

     total cpu time spent up to now is     1465.3 secs

     total energy              =   -1559.16449820 Ry
     Harris-Foulkes estimate   =   -1559.16449824 Ry
     estimated scf accuracy    <       0.00000012 Ry

     iteration # 16     ecut=   100.00 Ry     beta=0.50
     Davidson diagonalization with overlap
     ethr =  3.55E-11,  avg # of iterations =  2.3

     total cpu time spent up to now is     1530.5 secs

     total energy              =   -1559.16449820 Ry
     Harris-Foulkes estimate   =   -1559.16449821 Ry
     estimated scf accuracy    <       0.00000004 Ry

     iteration # 17     ecut=   100.00 Ry     beta=0.50
     Davidson diagonalization with overlap
     ethr =  1.17E-11,  avg # of iterations =  4.0

     total cpu time spent up to now is     1632.2 secs

     End of self-consistent calculation

          k = 0.0000 0.0000 0.0000 (118967 PWs)   bands (ev):

   -19.2662 -19.2384 -19.1959 -19.1823 -19.0906 -19.0680 -19.0191 -19.0103
   -18.9505 -18.8945 -18.8841 -18.8427 -18.2303 -18.2290 -18.2236 -18.2147
   -17.6566 -17.6561 -17.6217 -17.6216 -17.2909 -17.2874 -17.2828 -17.2783
   -14.0851 -14.0825 -14.0779 -14.0761 -12.8863 -12.8646 -12.8430 -12.8195
   -11.9003 -11.8648 -11.8604 -11.8284 -10.8396 -10.8242 -10.7929 -10.7850
   -10.1110 -10.0970 -10.0404 -10.0390  -8.7781  -8.7579  -8.7531  -8.7340
    -8.3744  -8.3520  -8.3061  -8.2758  -7.5775  -7.5713  -7.5587  -7.5547
    -7.3212  -7.3190  -7.3188  -7.3082  -7.1274  -7.0725  -7.0628  -7.0439
    -6.6128  -6.5775  -6.5187  -6.4630  -6.4365  -6.4142  -6.3829  -6.3648
    -5.9864  -5.9515  -5.9409  -5.8808  -5.6898  -5.6867  -5.6768  -5.6730
    -5.5136  -5.4042  -5.3738  -5.3444  -4.6738  -4.6189  -4.5872  -4.5807
    -4.5149  -4.4632  -4.4488  -4.3468  -4.2989  -4.2742  -4.2277  -4.1610
    -4.1550  -4.1072  -4.0543  -4.0339  -3.9587  -3.9416  -3.8556  -3.7379
    -3.7321  -3.7105  -3.6927  -3.6841  -3.5996  -3.5964  -3.5909  -3.5392
    -3.3480  -3.3129  -3.2305  -3.2150  -2.9349  -2.9322  -2.8789  -2.8613
    -2.8548  -2.8120  -2.7929  -2.7714  -2.5718  -2.5314  -2.4477  -2.4213
    -2.1311  -2.0935  -2.0837  -2.0828  -1.8144  -1.7841  -1.6936  -1.6834
    -1.3493  -1.3453  -1.3444  -1.3213  -1.0467  -1.0463  -0.9986  -0.9633
    -0.9345  -0.9177  -0.8571  -0.8280  -0.7342  -0.6988  -0.6437  -0.5951
    -0.2119  -0.1829  -0.0698  -0.0606   0.4196   0.4512   0.4645   0.4746
     0.6986   0.7526   0.7624   0.8043   4.3200   4.3448   4.3890   4.4041
     4.9246   4.9812   5.0744   5.1337   5.2854   5.3264   5.9378   6.0867
     6.2764   6.5238   6.6556   6.7104   6.7558   6.9390   6.9902   7.0046
     7.5327   7.5459   7.6108   7.9671   8.0378   8.0467   8.0495   8.2099
     8.2432   8.2910   8.3579   8.4092

          k = 0.0000 0.5910 0.0000 (119042 PWs)   bands (ev):

   -19.1847 -19.1553 -19.1321 -19.1181 -19.0483 -19.0421 -19.0033 -18.9915
   -18.8764 -18.8378 -18.7998 -18.7751 -18.3263 -18.3262 -18.3229 -18.3179
   -17.7469 -17.7436 -17.7199 -17.7166 -17.2707 -17.2679 -17.2623 -17.2592
   -14.0746 -14.0722 -14.0660 -14.0638 -12.8969 -12.8815 -12.8682 -12.8521
   -11.8776 -11.8503 -11.8472 -11.8217 -10.9504 -10.9427 -10.9239 -10.9193
   -10.0783 -10.0499 -10.0308  -9.9960  -8.7440  -8.7292  -8.7143  -8.6939
    -8.3748  -8.3663  -8.3252  -8.3082  -7.6649  -7.6615  -7.6276  -7.6248
    -7.3597  -7.3528  -7.3527  -7.3512  -7.1371  -7.0960  -7.0602  -7.0487
    -6.6364  -6.5844  -6.5513  -6.4984  -6.4282  -6.3896  -6.3719  -6.3393
    -6.0047  -5.9668  -5.9617  -5.9022  -5.7178  -5.7061  -5.6607  -5.6535
    -5.3380  -5.3139  -5.2309  -5.1814  -5.0311  -4.9954  -4.9492  -4.9413
    -4.6425  -4.5792  -4.5719  -4.4855  -4.3336  -4.2690  -4.2663  -4.1858
    -4.0725  -4.0144  -3.9843  -3.9716  -3.9032  -3.8502  -3.8270  -3.7980
    -3.7507  -3.7071  -3.6840  -3.5766  -3.5295  -3.4620  -3.4159  -3.4029
    -3.0844  -3.0595  -3.0514  -2.9863  -2.9220  -2.9140  -2.8851  -2.8395
    -2.7709  -2.7356  -2.7157  -2.6975  -2.5730  -2.5607  -2.5431  -2.5285
    -2.2546  -2.2159  -2.1747  -2.1556  -1.8414  -1.8372  -1.7217  -1.7085
    -1.3314  -1.3273  -1.3179  -1.3176  -1.0298  -1.0154  -0.9693  -0.9550
    -0.7978  -0.7547  -0.7236  -0.6919  -0.5985  -0.5894  -0.5287  -0.5030
    -0.1828  -0.1610  -0.0621  -0.0614   0.4415   0.4648   0.4848   0.5016
     0.8570   0.8956   0.9173   0.9481   4.2614   4.2998   4.3112   4.3510
     5.0379   5.0858   5.1156   5.1347   5.7117   5.7850   6.2889   6.4558
     6.5564   6.8338   6.8473   6.9921   7.0061   7.1159   7.2043   7.3903
     7.4229   7.5992   7.7885   7.8853   7.9934   8.0758   8.1121   8.1463
     8.2234   8.2816   8.3818   8.4311

          k = 0.0000-1.1820 0.0000 (118964 PWs)   bands (ev):

   -19.0671 -19.0670 -19.0569 -19.0568 -19.0062 -19.0059 -18.9931 -18.9928
   -18.7043 -18.7036 -18.7002 -18.6995 -18.4675 -18.4671 -18.4637 -18.4633
   -17.8453 -17.8453 -17.8420 -17.8419 -17.2443 -17.2428 -17.2367 -17.2352
   -14.0691 -14.0688 -14.0588 -14.0585 -12.8977 -12.8975 -12.8906 -12.8904
   -11.8308 -11.8305 -11.8140 -11.8136 -11.0468 -11.0461 -11.0367 -11.0359
   -10.0609 -10.0602 -10.0195 -10.0189  -8.7016  -8.7009  -8.6645  -8.6638
    -8.3778  -8.3773  -8.3430  -8.3422  -7.7304  -7.7302  -7.6869  -7.6868
    -7.3891  -7.3889  -7.3783  -7.3783  -7.1251  -7.1250  -7.0542  -7.0540
    -6.6099  -6.6096  -6.5683  -6.5680  -6.3957  -6.3952  -6.3502  -6.3497
    -5.9924  -5.9924  -5.9707  -5.9707  -5.7374  -5.7371  -5.6652  -5.6652
    -5.3633  -5.3628  -5.3333  -5.3326  -5.0143  -5.0142  -4.9267  -4.9266
    -4.6990  -4.6989  -4.6489  -4.6487  -4.3788  -4.3785  -4.2895  -4.2892
    -4.0074  -4.0072  -3.9609  -3.9604  -3.7948  -3.7945  -3.6514  -3.6513
    -3.6204  -3.6201  -3.4829  -3.4828  -3.4238  -3.4234  -3.2440  -3.2438
    -3.2078  -3.2074  -3.1337  -3.1334  -2.9274  -2.9273  -2.8860  -2.8859
    -2.8045  -2.8044  -2.7484  -2.7481  -2.5412  -2.5407  -2.4843  -2.4836
    -2.2088  -2.2079  -2.1719  -2.1710  -1.8542  -1.8539  -1.7475  -1.7473
    -1.3010  -1.3010  -1.2870  -1.2870  -0.9950  -0.9947  -0.9362  -0.9359
    -0.7579  -0.7569  -0.6970  -0.6961  -0.3382  -0.3382  -0.2531  -0.2530
    -0.1231  -0.1223  -0.0224  -0.0217   0.4789   0.4797   0.5198   0.5206
     1.0586   1.0595   1.1206   1.1215   4.0824   4.0826   4.1049   4.1051
     5.1640   5.1652   5.2797   5.2808   6.6724   6.6730   6.7626   6.7630
     6.8552   6.8556   7.1768   7.1770   7.3361   7.3361   7.4631   7.4632
     7.5534   7.5535   7.7442   7.7453   7.8967   7.8976   7.9610   7.9616
     8.1446   8.1449   8.2073   8.2073

          k =-0.5000 0.0000-0.0575 (118890 PWs)   bands (ev):

   -19.2528 -19.2277 -19.2097 -19.1872 -19.0882 -19.0776 -19.0138 -19.0125
   -18.9376 -18.9074 -18.8863 -18.8570 -18.2379 -18.2287 -18.1968 -18.1957
   -17.6610 -17.6609 -17.6356 -17.6351 -17.2937 -17.2825 -17.2811 -17.2692
   -14.0844 -14.0808 -14.0793 -14.0765 -12.8806 -12.8686 -12.8375 -12.8251
   -11.9007 -11.8698 -11.8627 -11.8261 -10.8309 -10.8166 -10.8026 -10.7864
   -10.1048 -10.1011 -10.0397 -10.0396  -8.7789  -8.7784  -8.7296  -8.7281
    -8.3532  -8.3375  -8.3075  -8.2984  -7.5805  -7.5750  -7.5593  -7.5536
    -7.3605  -7.3361  -7.3324  -7.3128  -7.1304  -7.0811  -7.0544  -7.0427
    -6.6485  -6.6038  -6.5866  -6.5122  -6.3967  -6.3632  -6.3267  -6.3233
    -5.9226  -5.9178  -5.9101  -5.8807  -5.7008  -5.6801  -5.6752  -5.6685
    -5.4384  -5.4228  -5.4046  -5.3329  -4.6285  -4.6259  -4.5834  -4.5605
    -4.5224  -4.5188  -4.4655  -4.4531  -4.3756  -4.3065  -4.2287  -4.1988
    -4.1579  -4.1210  -4.0633  -4.0474  -3.9678  -3.9309  -3.8430  -3.8180
    -3.7710  -3.7353  -3.6968  -3.6330  -3.6002  -3.5844  -3.4591  -3.4462
    -3.2875  -3.2418  -3.2090  -3.1145  -3.0059  -2.9151  -2.8779  -2.8609
    -2.8311  -2.7619  -2.7185  -2.6773  -2.6741  -2.6500  -2.5890  -2.5696
    -2.1199  -2.0981  -2.0839  -2.0265  -1.8091  -1.7977  -1.6975  -1.6839
    -1.3614  -1.3450  -1.3068  -1.3046  -1.0382  -1.0354  -0.9807  -0.9720
    -0.9572  -0.8910  -0.8457  -0.8153  -0.7529  -0.6995  -0.6697  -0.6174
    -0.1469  -0.1466  -0.1342  -0.1122   0.4357   0.4412   0.4815   0.5075
     0.7304   0.7344   0.7634   0.7764   4.2999   4.3756   4.3891   4.4341
     4.9615   5.0534   5.0554   5.1111   5.3476   5.3539   5.7910   5.9138
     6.2916   6.3548   6.3679   6.6650   6.7760   7.0588   7.3090   7.3224
     7.7082   7.7137   7.7387   7.7876   7.8086   8.0906   8.1001   8.1065
     8.1583   8.2005   8.3474   8.3776

          k =-0.5000 0.5910-0.0575 (118956 PWs)   bands (ev):

   -19.1728 -19.1460 -19.1441 -19.1210 -19.0537 -19.0438 -19.0046 -18.9912
   -18.8582 -18.8259 -18.8238 -18.7931 -18.3363 -18.3272 -18.3025 -18.3010
   -17.7490 -17.7467 -17.7255 -17.7234 -17.2717 -17.2660 -17.2616 -17.2556
   -14.0724 -14.0696 -14.0683 -14.0661 -12.8929 -12.8852 -12.8644 -12.8568
   -11.8811 -11.8516 -11.8485 -11.8161 -10.9502 -10.9351 -10.9337 -10.9181
   -10.0688 -10.0576 -10.0211 -10.0052  -8.7367  -8.7331  -8.7019  -8.6996
    -8.3679  -8.3477  -8.3340  -8.3189  -7.6611  -7.6610  -7.6256  -7.6238
    -7.3752  -7.3694  -7.3571  -7.3438  -7.1301  -7.1016  -7.0635  -7.0488
    -6.6682  -6.6228  -6.6216  -6.5436  -6.3883  -6.3501  -6.3215  -6.3105
    -5.9657  -5.9490  -5.9317  -5.9253  -5.7207  -5.7095  -5.6547  -5.6523
    -5.3089  -5.2846  -5.2363  -5.2307  -5.0015  -4.9832  -4.9531  -4.9390
    -4.6508  -4.5979  -4.5401  -4.4872  -4.3899  -4.3238  -4.2122  -4.1998
    -4.1131  -4.0428  -4.0267  -4.0005  -3.9396  -3.9279  -3.8857  -3.8304
    -3.7308  -3.7118  -3.5922  -3.5332  -3.4234  -3.3874  -3.3809  -3.2830
    -3.0592  -3.0330  -2.9828  -2.9362  -2.9167  -2.8931  -2.8741  -2.8509
    -2.8330  -2.8232  -2.7381  -2.7115  -2.6272  -2.6122  -2.6109  -2.5807
    -2.2764  -2.1910  -2.1886  -2.1419  -1.8201  -1.7948  -1.7355  -1.7326
    -1.3324  -1.3246  -1.2958  -1.2892  -1.0122  -1.0078  -0.9703  -0.9617
    -0.7880  -0.7672  -0.7327  -0.7241  -0.5942  -0.5841  -0.5272  -0.5263
    -0.1492  -0.1405  -0.1033  -0.0796   0.4557   0.4696   0.4937   0.5143
     0.8767   0.8871   0.9222   0.9233   4.2775   4.2919   4.3555   4.3576
     4.9976   5.0817   5.1115   5.1821   5.7480   5.8004   6.2108   6.2631
     6.4190   6.6215   6.7957   7.0012   7.0596   7.2859   7.5106   7.5248
     7.6696   7.7122   7.7381   7.7417   7.9767   8.0032   8.0774   8.1081
     8.1697   8.1793   8.4721   8.4817

          k =-0.5000-1.1820-0.0575 (119028 PWs)   bands (ev):

   -19.0695 -19.0694 -19.0545 -19.0544 -19.0060 -19.0058 -18.9928 -18.9928
   -18.7040 -18.7037 -18.7000 -18.6997 -18.4670 -18.4666 -18.4647 -18.4643
   -17.8454 -17.8454 -17.8422 -17.8422 -17.2443 -17.2427 -17.2361 -17.2346
   -14.0655 -14.0651 -14.0625 -14.0621 -12.8957 -12.8955 -12.8939 -12.8938
   -11.8381 -11.8379 -11.8046 -11.8043 -11.0542 -11.0534 -11.0321 -11.0314
   -10.0526 -10.0519 -10.0272 -10.0266  -8.6882  -8.6875  -8.6751  -8.6744
    -8.3676  -8.3671  -8.3481  -8.3473  -7.7198  -7.7196  -7.6862  -7.6862
    -7.3901  -7.3898  -7.3766  -7.3765  -7.1212  -7.1211  -7.0603  -7.0602
    -6.6634  -6.6633  -6.6049  -6.6048  -6.3596  -6.3590  -6.3259  -6.3254
    -5.9828  -5.9828  -5.9655  -5.9654  -5.7453  -5.7449  -5.6603  -5.6601
    -5.3825  -5.3819  -5.3018  -5.3012  -4.9966  -4.9962  -4.9892  -4.9892
    -4.6914  -4.6906  -4.6356  -4.6350  -4.3871  -4.3869  -4.2647  -4.2643
    -4.0227  -4.0222  -3.8884  -3.8881  -3.8403  -3.8403  -3.7153  -3.7150
    -3.5961  -3.5959  -3.4410  -3.4409  -3.4257  -3.4250  -3.2661  -3.2660
    -3.1648  -3.1645  -3.1511  -3.1509  -2.8933  -2.8929  -2.8661  -2.8660
    -2.8279  -2.8278  -2.7998  -2.7998  -2.5283  -2.5280  -2.4803  -2.4797
    -2.2131  -2.2120  -2.1776  -2.1766  -1.8296  -1.8293  -1.7877  -1.7875
    -1.3035  -1.3035  -1.2883  -1.2883  -0.9761  -0.9759  -0.9404  -0.9401
    -0.7592  -0.7582  -0.6931  -0.6923  -0.3569  -0.3569  -0.2513  -0.2512
    -0.0983  -0.0976  -0.0465  -0.0458   0.4958   0.4962   0.5167   0.5172
     1.0662   1.0670   1.1119   1.1127   4.0944   4.0946   4.1104   4.1105
     5.1655   5.1666   5.2847   5.2858   6.6174   6.6179   6.7187   6.7188
     6.8596   6.8596   7.0656   7.0658   7.2806   7.2809   7.4464   7.4464
     7.5809   7.5811   7.7192   7.7200   7.8809   7.8812   8.0598   8.0600
     8.1660   8.1661   8.4879   8.4879

     highest occupied, lowest unoccupied level (ev):     1.1215    4.0824

!    total energy              =   -1559.16449821 Ry
     Harris-Foulkes estimate   =   -1559.16449822 Ry
     estimated scf accuracy    <          4.2E-09 Ry

     total all-electron energy =     -5799.556154 Ry

     The total energy is the sum of the following terms:

     one-electron contribution =    -865.11774520 Ry
     hartree contribution      =     557.92655342 Ry
     xc contribution           =    -341.23052164 Ry
     ewald contribution        =    -479.04641018 Ry
     Dispersion Correction     =      -0.51674994 Ry
     one-center paw contrib.   =    -431.17962468 Ry

     convergence has been achieved in  17 iterations

     Forces acting on atoms (cartesian axes, Ry/au):

     atom    1 type  4   force =     0.00801208    0.00449637   -0.01060560
     atom    2 type  4   force =    -0.00806684    0.00442426    0.01069068
     atom    3 type  4   force =    -0.00801208   -0.00449637    0.01060560
     atom    4 type  4   force =     0.00806684   -0.00442426   -0.01069068
     atom    5 type  4   force =    -0.00107521   -0.00225298    0.00598315
     atom    6 type  4   force =     0.00098964   -0.00219724   -0.00594376
     atom    7 type  4   force =     0.00107521    0.00225298   -0.00598315
     atom    8 type  4   force =    -0.00098964    0.00219724    0.00594376
     atom    9 type  4   force =     0.00007401    0.00135882   -0.00045321
     atom   10 type  4   force =    -0.00010203    0.00121054    0.00021545
     atom   11 type  4   force =    -0.00007401   -0.00135882    0.00045321
     atom   12 type  4   force =     0.00010203   -0.00121054   -0.00021545
     atom   13 type  4   force =     0.00154165    0.00331406   -0.00077020
     atom   14 type  4   force =    -0.00158685    0.00326797    0.00074132
     atom   15 type  4   force =    -0.00154165   -0.00331406    0.00077020
     atom   16 type  4   force =     0.00158685   -0.00326797   -0.00074132
     atom   17 type  2   force =     0.00397464   -0.02439145   -0.00736823
     atom   18 type  2   force =    -0.00391754   -0.02434146    0.00734550
     atom   19 type  2   force =    -0.00397464    0.02439145    0.00736823
     atom   20 type  2   force =     0.00391754    0.02434146   -0.00734550
     atom   21 type  2   force =     0.00129631   -0.00256868   -0.00364742
     atom   22 type  2   force =    -0.00123875   -0.00236893    0.00357521
     atom   23 type  2   force =    -0.00129631    0.00256868    0.00364742
     atom   24 type  2   force =     0.00123875    0.00236893   -0.00357521
     atom   25 type  1   force =    -0.00751290   -0.01287386    0.00670722
     atom   26 type  1   force =     0.00752346   -0.01277259   -0.00687028
     atom   27 type  1   force =     0.00751290    0.01287386   -0.00670722
     atom   28 type  1   force =    -0.00752346    0.01277259    0.00687028
     atom   29 type  1   force =     0.00066637    0.03228741    0.00258836
     atom   30 type  1   force =    -0.00067179    0.03204196   -0.00240275
     atom   31 type  1   force =    -0.00066637   -0.03228741   -0.00258836
     atom   32 type  1   force =     0.00067179   -0.03204196    0.00240275
     atom   33 type  1   force =    -0.00189320   -0.01118963   -0.00477225
     atom   34 type  1   force =     0.00177536   -0.01106677    0.00468790
     atom   35 type  1   force =     0.00189320    0.01118963    0.00477225
     atom   36 type  1   force =    -0.00177536    0.01106677   -0.00468790
     atom   37 type  1   force =     0.00893892    0.00474406    0.00857258
     atom   38 type  1   force =    -0.00897526    0.00491026   -0.00872768
     atom   39 type  1   force =    -0.00893892   -0.00474406   -0.00857258
     atom   40 type  1   force =     0.00897526   -0.00491026    0.00872768
     atom   41 type  1   force =    -0.00884863   -0.01697114   -0.00497592
     atom   42 type  1   force =     0.00881842   -0.01719319    0.00523424
     atom   43 type  1   force =     0.00884863    0.01697114    0.00497592
     atom   44 type  1   force =    -0.00881842    0.01719319   -0.00523424
     atom   45 type  1   force =     0.00286275    0.01644436    0.00033294
     atom   46 type  1   force =    -0.00278949    0.01648781   -0.00043422
     atom   47 type  1   force =    -0.00286275   -0.01644436   -0.00033294
     atom   48 type  1   force =     0.00278949   -0.01648781    0.00043422
     atom   49 type  1   force =    -0.00119354    0.00052770   -0.00227746
     atom   50 type  1   force =     0.00109775    0.00020048    0.00244675
     atom   51 type  1   force =     0.00119354   -0.00052770    0.00227746
     atom   52 type  1   force =    -0.00109775   -0.00020048   -0.00244675
     atom   53 type  1   force =    -0.00683998    0.00845924   -0.00568638
     atom   54 type  1   force =     0.00698711    0.00859359    0.00553303
     atom   55 type  1   force =     0.00683998   -0.00845924    0.00568638
     atom   56 type  1   force =    -0.00698711   -0.00859359   -0.00553303
     atom   57 type  3   force =     0.00048235   -0.00053270    0.00196772
     atom   58 type  3   force =    -0.00043782   -0.00055127   -0.00199298
     atom   59 type  3   force =    -0.00048235    0.00053270   -0.00196772
     atom   60 type  3   force =     0.00043782    0.00055127    0.00199298
     atom   61 type  3   force =    -0.00021186   -0.00192524   -0.00077898
     atom   62 type  3   force =     0.00026321   -0.00182030    0.00082541
     atom   63 type  3   force =     0.00021186    0.00192524    0.00077898
     atom   64 type  3   force =    -0.00026321    0.00182030   -0.00082541
     atom   65 type  3   force =     0.00261098    0.00087646    0.00418490
     atom   66 type  3   force =    -0.00263292    0.00089392   -0.00401888
     atom   67 type  3   force =    -0.00261098   -0.00087646   -0.00418490
     atom   68 type  3   force =     0.00263292   -0.00089392    0.00401888
     atom   69 type  3   force =     0.00080429   -0.00081939    0.00259421
     atom   70 type  3   force =    -0.00077740   -0.00082314   -0.00258671
     atom   71 type  3   force =    -0.00080429    0.00081939   -0.00259421
     atom   72 type  3   force =     0.00077740    0.00082314    0.00258671
     atom   73 type  3   force =    -0.00064557   -0.00304497    0.00052833
     atom   74 type  3   force =     0.00067338   -0.00300970   -0.00049950
     atom   75 type  3   force =     0.00064557    0.00304497   -0.00052833
     atom   76 type  3   force =    -0.00067338    0.00300970    0.00049950
     atom   77 type  3   force =     0.00030866    0.00136577   -0.00076903
     atom   78 type  3   force =    -0.00030245    0.00128990    0.00081632
     atom   79 type  3   force =    -0.00030866   -0.00136577    0.00076903
     atom   80 type  3   force =     0.00030245   -0.00128990   -0.00081632
     atom   81 type  3   force =     0.00016670    0.00214647    0.00158443
     atom   82 type  3   force =    -0.00020023    0.00211286   -0.00158478
     atom   83 type  3   force =    -0.00016670   -0.00214647   -0.00158443
     atom   84 type  3   force =     0.00020023   -0.00211286    0.00158478
     atom   85 type  3   force =    -0.00182197   -0.00152997   -0.00244640
     atom   86 type  3   force =     0.00178140   -0.00162694    0.00245037
     atom   87 type  3   force =     0.00182197    0.00152997    0.00244640
     atom   88 type  3   force =    -0.00178140    0.00162694   -0.00245037
     atom   89 type  3   force =    -0.00008639   -0.00059426    0.00001987
     atom   90 type  3   force =     0.00015652   -0.00061191   -0.00001633
     atom   91 type  3   force =     0.00008639    0.00059426   -0.00001987
     atom   92 type  3   force =    -0.00015652    0.00061191    0.00001633
     atom   93 type  3   force =     0.00003630    0.00181055   -0.00130404
     atom   94 type  3   force =    -0.00003078    0.00180636    0.00131627
     atom   95 type  3   force =    -0.00003630   -0.00181055    0.00130404
     atom   96 type  3   force =     0.00003078   -0.00180636   -0.00131627
     atom   97 type  3   force =    -0.00402494    0.01302952   -0.00364948
     atom   98 type  3   force =     0.00405248    0.01306209    0.00365978
     atom   99 type  3   force =     0.00402494   -0.01302952    0.00364948
     atom  100 type  3   force =    -0.00405248   -0.01306209   -0.00365978
     atom  101 type  3   force =    -0.00159866    0.00093185    0.00236787
     atom  102 type  3   force =     0.00158070    0.00090874   -0.00234489
     atom  103 type  3   force =     0.00159866   -0.00093185   -0.00236787
     atom  104 type  3   force =    -0.00158070   -0.00090874    0.00234489
     atom  105 type  3   force =    -0.00022809    0.00086133   -0.00005613
     atom  106 type  3   force =     0.00018676    0.00084207    0.00010073
     atom  107 type  3   force =     0.00022809   -0.00086133    0.00005613
     atom  108 type  3   force =    -0.00018676   -0.00084207   -0.00010073
     atom  109 type  3   force =    -0.00224086   -0.01613882    0.00716625
     atom  110 type  3   force =     0.00222287   -0.01614892   -0.00715162
     atom  111 type  3   force =     0.00224086    0.01613882   -0.00716625
     atom  112 type  3   force =    -0.00222287    0.01614892    0.00715162
     atom  113 type  3   force =     0.00211593   -0.00433096    0.00534889
     atom  114 type  3   force =    -0.00203007   -0.00421516   -0.00532512
     atom  115 type  3   force =    -0.00211593    0.00433096   -0.00534889
     atom  116 type  3   force =     0.00203007    0.00421516    0.00532512
     atom  117 type  3   force =     0.00275575    0.00318214    0.00306682
     atom  118 type  3   force =    -0.00279141    0.00332669   -0.00320378
     atom  119 type  3   force =    -0.00275575   -0.00318214   -0.00306682
     atom  120 type  3   force =     0.00279141   -0.00332669    0.00320378

     Total force =     0.127954     Total SCF correction =     0.000137


     Computing stress (Cartesian axis) and pressure

          total   stress  (Ry/bohr**3)                   (kbar)     P=   -6.65
  -0.00007648  -0.00000001   0.00000585        -11.25     -0.00      0.86
  -0.00000001  -0.00005272  -0.00000008         -0.00     -7.75     -0.01
   0.00000585  -0.00000008  -0.00000647          0.86     -0.01     -0.95


     Writing output data file scf.save
 
     init_run     :     45.81s CPU     48.03s WALL (       1 calls)
     electrons    :   1512.89s CPU   1583.44s WALL (       1 calls)
     forces       :     24.70s CPU     24.97s WALL (       1 calls)
     stress       :     98.24s CPU     98.65s WALL (       1 calls)

     Called by init_run:
     wfcinit      :     34.33s CPU     35.98s WALL (       1 calls)
     potinit      :      4.13s CPU      4.22s WALL (       1 calls)

     Called by electrons:
     c_bands      :   1360.11s CPU   1419.15s WALL (      17 calls)
     sum_band     :    135.53s CPU    145.22s WALL (      17 calls)
     v_of_rho     :      2.26s CPU      2.55s WALL (      18 calls)
     newd         :      6.13s CPU      7.52s WALL (      18 calls)
     PAW_pot      :      8.22s CPU      8.23s WALL (      18 calls)
     mix_rho      :      0.49s CPU      0.55s WALL (      17 calls)

     Called by c_bands:
     init_us_2    :      7.20s CPU      7.24s WALL (     222 calls)
     cegterg      :   1333.29s CPU   1392.25s WALL (     102 calls)

     Called by sum_band:
     sum_band:bec :      0.07s CPU      0.07s WALL (     102 calls)
     addusdens    :      6.14s CPU      7.46s WALL (      17 calls)

     Called by *egterg:
     h_psi        :    697.76s CPU    745.95s WALL (     445 calls)
     s_psi        :    172.47s CPU    172.56s WALL (     445 calls)
     g_psi        :      3.43s CPU      3.43s WALL (     337 calls)
     cdiaghg      :     72.38s CPU     72.53s WALL (     439 calls)

     Called by h_psi:
     h_psi:pot    :    692.89s CPU    740.99s WALL (     445 calls)
     h_psi:calbec :    167.51s CPU    167.86s WALL (     445 calls)
     vloc_psi     :    352.86s CPU    400.51s WALL (     445 calls)
     add_vuspsi   :    172.52s CPU    172.62s WALL (     445 calls)

     General routines
     calbec       :    242.47s CPU    242.98s WALL (     577 calls)
     fft          :      1.37s CPU      2.25s WALL (     258 calls)
     fftw         :    377.30s CPU    432.36s WALL (  134482 calls)
 
     Parallel routines
     fft_scatter  :     78.02s CPU    129.27s WALL (  134740 calls)
 
     PWSCF        : 28m11.69s CPU    29m58.72s WALL

 
   This run was terminated on:  17:57:53   4Nov2017            

=------------------------------------------------------------------------------=
   JOB DONE.
=------------------------------------------------------------------------------=
