
     Program PWSCF v.6.1 (svn rev. 13369) starts on 20Dec2017 at  7:35:39 

     This program is part of the open-source Quantum ESPRESSO suite
     for quantum simulation of materials; please cite
         "P. Giannozzi et al., J. Phys.:Condens. Matter 21 395502 (2009);
          URL http://www.quantum-espresso.org", 
     in publications or presentations arising from this work. More details at
     http://www.quantum-espresso.org/quote

     Parallel version (MPI), running on     8 processors
     R & G space division:  proc/nbgrp/npool/nimage =       8
     Waiting for input...
     Reading input from standard input

     Current dimensions of program PWSCF are:
     Max number of different atomic species (ntypx) = 10
     Max number of k-points (npk) =  40000
     Max angular momentum in pseudopotentials (lmaxx) =  3
               file C.pbe-n-kjpaw_psl.0.1.UPF: wavefunction(s)  2P renormalized
               file N.pbe-n-kjpaw_psl.0.1.UPF: wavefunction(s)  2P renormalized
               file H.pbe-kjpaw_psl.0.1.UPF: wavefunction(s)  1S renormalized
               file O.pbe-n-kjpaw_psl.0.1.UPF: wavefunction(s)  2P renormalized

     -------------------------------------
     Parameters for Dispersion Correction:
     -------------------------------------
       atom      VdW radius       C_6     

        C          2.744         60.710
        N          2.640         42.670
        H          1.892          4.857
        O          2.536         24.284

     Subspace diagonalization in iterative solution of the eigenvalue problem:
     a serial algorithm will be used

 
     Parallelization info
     --------------------
     sticks:   dense  smooth     PW     G-vecs:    dense   smooth      PW
     Min        1472    1472    385               196608   196608   26351
     Max        1474    1474    386               196610   196610   26354
     Sum       11779   11779   3081              1572867  1572867  210815
 


     bravais-lattice index     =            0
     lattice parameter (alat)  =      16.7309  a.u.
     unit-cell volume          =   11640.6915 (a.u.)^3
     number of atoms/cell      =          176
     number of atomic types    =            4
     number of electrons       =       584.00
     number of Kohn-Sham states=          350
     kinetic-energy cutoff     =     100.0000  Ry
     charge density cutoff     =     400.0000  Ry
     convergence threshold     =      1.0E-08
     mixing beta               =       0.5000
     number of iterations used =            8  plain     mixing
     Exchange-correlation      =  SLA  PW   PBX  PBC ( 1  4  3  4 0 0)

     celldm(1)=  16.730879  celldm(2)=   0.000000  celldm(3)=   0.000000
     celldm(4)=   0.000000  celldm(5)=   0.000000  celldm(6)=   0.000000

     crystal axes: (cart. coord. in units of alat)
               a(1) = (   1.000000   0.000000   0.000000 )  
               a(2) = (   0.000000   1.319689   0.000000 )  
               a(3) = (  -0.290965   0.000000   1.883436 )  

     reciprocal axes: (cart. coord. in units 2 pi/alat)
               b(1) = (  1.000000  0.000000  0.154487 )  
               b(2) = (  0.000000  0.757754  0.000000 )  
               b(3) = (  0.000000  0.000000  0.530945 )  


     PseudoPot. # 1 for  C read from file:
     /scratch/ahofstet/pseudo/C.pbe-n-kjpaw_psl.0.1.UPF
     MD5 check sum: 430fe95172b1e11ef3f8ed03bac87931
     Pseudo is Projector augmented-wave + core cor, Zval =  4.0
     Generated using "atomic" code by A. Dal Corso  v.5.0.99 svn rev. 10869
     Shape of augmentation charge: BESSEL
     Using radial grid of 1073 points,  4 beta functions with: 
                l(1) =   0
                l(2) =   0
                l(3) =   1
                l(4) =   1
     Q(r) pseudized with 0 coefficients 


     PseudoPot. # 2 for  N read from file:
     /scratch/ahofstet/pseudo/N.pbe-n-kjpaw_psl.0.1.UPF
     MD5 check sum: f73187c8b701007e77325f868c9291d7
     Pseudo is Projector augmented-wave + core cor, Zval =  5.0
     Generated using "atomic" code by A. Dal Corso  v.5.0.99 svn rev. 10869
     Shape of augmentation charge: PSQ
     Using radial grid of 1085 points,  4 beta functions with: 
                l(1) =   0
                l(2) =   0
                l(3) =   1
                l(4) =   1
     Q(r) pseudized with 0 coefficients 


     PseudoPot. # 3 for  H read from file:
     /scratch/ahofstet/pseudo/H.pbe-kjpaw_psl.0.1.UPF
     MD5 check sum: 94e484f906d9e9773b2f6e52662335b2
     Pseudo is Projector augmented-wave, Zval =  1.0
     Generated using "atomic" code by A. Dal Corso  v.5.0.99 svn rev. 10869
     Shape of augmentation charge: PSQ
     Using radial grid of  929 points,  2 beta functions with: 
                l(1) =   0
                l(2) =   0
     Q(r) pseudized with 0 coefficients 


     PseudoPot. # 4 for  O read from file:
     /scratch/ahofstet/pseudo/O.pbe-n-kjpaw_psl.0.1.UPF
     MD5 check sum: 3f94a2996a3169367d6eb21d9b593f20
     Pseudo is Projector augmented-wave + core cor, Zval =  6.0
     Generated using "atomic" code by A. Dal Corso  v.5.0.99 svn rev. 10869
     Shape of augmentation charge: BESSEL
     Using radial grid of 1095 points,  4 beta functions with: 
                l(1) =   0
                l(2) =   0
                l(3) =   1
                l(4) =   1
     Q(r) pseudized with 0 coefficients 


     atomic species   valence    mass     pseudopotential
        C              4.00    12.01070      C( 1.00)
        N              5.00    14.00670      N( 1.00)
        H              1.00     1.00794      H( 1.00)
        O              6.00    15.99940      O( 1.00)

      4 Sym. Ops., with inversion, found ( 2 have fractional translation)



   Cartesian axes

     site n.     atom                  positions (alat units)
         1           O   tau(   1) = (   0.9418178   0.6133752   0.2517542  )
         2           O   tau(   2) = (  -0.0873005   1.2732198   0.6899637  )
         3           O   tau(   3) = (  -0.2327832   0.7063139   1.6316816  )
         4           O   tau(   4) = (   0.7963351   0.0464693   1.1934722  )
         5           O   tau(   5) = (   0.0832506   0.8249127   0.1859659  )
         6           O   tau(   6) = (   0.7712667   0.1650681   0.7557520  )
         7           O   tau(   7) = (   0.6257840   0.4947765   1.6974699  )
         8           O   tau(   8) = (  -0.0622321   1.1546210   1.1276839  )
         9           O   tau(   9) = (   0.7704809   0.3234128   0.1313149  )
        10           O   tau(  10) = (   0.0840363   0.9832574   0.8104030  )
        11           O   tau(  11) = (  -0.0614464   0.9962764   1.7521210  )
        12           O   tau(  12) = (   0.6249982   0.3364318   1.0730328  )
        13           O   tau(  13) = (   0.7076351   0.1303286   0.2978208  )
        14           O   tau(  14) = (   0.1468822   0.7901732   0.6438971  )
        15           O   tau(  15) = (   0.0013995   1.1893606   1.5856150  )
        16           O   tau(  16) = (   0.5621524   0.5295160   1.2395387  )
        17           O   tau(  17) = (   0.2869949   0.7946493   1.5631133  )
        18           O   tau(  18) = (   0.2765570   0.1348047   1.2620404  )
        19           O   tau(  19) = (   0.4220397   0.5250399   0.3203225  )
        20           O   tau(  20) = (   0.4324776   1.1848845   0.6213954  )
        21           O   tau(  21) = (   0.3378829   0.9552156   1.3733477  )
        22           O   tau(  22) = (   0.2256690   0.2953711   1.4518061  )
        23           O   tau(  23) = (   0.3711517   0.3644735   0.5100882  )
        24           O   tau(  24) = (   0.4833656   1.0243181   0.4316297  )
        25           N   tau(  25) = (   0.6337328   1.2842945   1.5257991  )
        26           N   tau(  26) = (  -0.0701809   0.6244499   1.2993546  )
        27           N   tau(  27) = (   0.0753018   0.0353946   0.3576367  )
        28           N   tau(  28) = (   0.7792155   0.6952392   0.5840812  )
        29           N   tau(  29) = (   0.7142996   0.0774712   1.5236815  )
        30           N   tau(  30) = (  -0.1507477   0.7373158   1.3014722  )
        31           N   tau(  31) = (  -0.0052650   1.2422179   0.3597543  )
        32           N   tau(  32) = (   0.8597823   0.5823734   0.5819636  )
        33           N   tau(  33) = (  -0.2008406   0.1753806   1.5186101  )
        34           N   tau(  34) = (   0.7643925   0.8352252   1.3065437  )
        35           N   tau(  35) = (   0.9098752   1.1443085   0.3648258  )
        36           N   tau(  36) = (  -0.0553579   0.4844640   0.5768921  )
        37           C   tau(  37) = (   0.3977351   1.1093306   1.3560396  )
        38           C   tau(  38) = (   0.1658168   0.4494860   1.4691141  )
        39           C   tau(  39) = (   0.3112995   0.2103586   0.5273962  )
        40           C   tau(  40) = (   0.5432178   0.8702032   0.4143217  )
        41           H   tau(  41) = (   0.3315105   1.1653567   1.2680625  )
        42           H   tau(  42) = (   0.2320414   0.5055121   1.5570912  )
        43           H   tau(  43) = (   0.3775241   0.1543325   0.6153733  )
        44           H   tau(  44) = (   0.4769932   0.8141771   0.3263446  )
        45           H   tau(  45) = (   0.5165177   1.1013822   1.3210237  )
        46           H   tau(  46) = (   0.0470342   0.4415376   1.5041301  )
        47           H   tau(  47) = (   0.1925169   0.2183069   0.5624121  )
        48           H   tau(  48) = (   0.6620004   0.8781515   0.3793058  )
        49           C   tau(  49) = (   0.3792334   1.1756879   1.5134791  )
        50           C   tau(  50) = (   0.1843184   0.5158434   1.3116746  )
        51           C   tau(  51) = (   0.3298012   0.1440012   0.3699567  )
        52           C   tau(  52) = (   0.5247161   0.8038458   0.5717612  )
        53           H   tau(  53) = (   0.2597310   1.2056713   1.5295412  )
        54           H   tau(  54) = (   0.3038209   0.5458268   1.2956126  )
        55           H   tau(  55) = (   0.4493036   0.1140178   0.3538947  )
        56           H   tau(  56) = (   0.4052137   0.7738624   0.5878232  )
        57           C   tau(  57) = (   0.4696560   1.3117688   1.5624432  )
        58           C   tau(  58) = (   0.0938959   0.6519242   1.2627105  )
        59           C   tau(  59) = (   0.2393786   0.0079203   0.3209926  )
        60           C   tau(  60) = (   0.6151387   0.6677649   0.6207253  )
        61           H   tau(  61) = (   0.4317495   0.0924936   1.4997692  )
        62           H   tau(  62) = (   0.1318024   0.7523382   1.3253846  )
        63           H   tau(  63) = (   0.2772851   1.2271956   0.3836667  )
        64           H   tau(  64) = (   0.5772322   0.5673510   0.5580512  )
        65           C   tau(  65) = (   0.4476410   0.0172579   1.7305434  )
        66           C   tau(  66) = (   0.1159109   0.6771025   1.0946104  )
        67           C   tau(  67) = (   0.2613936   1.3024313   0.1528925  )
        68           C   tau(  68) = (   0.5931237   0.6425867   0.7888255  )
        69           C   tau(  69) = (   0.4740911   0.1653248   1.7837947  )
        70           C   tau(  70) = (   0.0894608   0.8251694   1.0413590  )
        71           C   tau(  71) = (   0.2349435   1.1543643   0.0996411  )
        72           C   tau(  72) = (   0.6195738   0.4945198   0.8420768  )
        73           H   tau(  73) = (   0.5012760   0.2569170   1.7064047  )
        74           H   tau(  74) = (   0.0622759   0.9167616   1.1187490  )
        75           H   tau(  75) = (   0.2077586   1.0627722   0.1770311  )
        76           H   tau(  76) = (   0.6467587   0.4029276   0.7646868  )
        77           C   tau(  77) = (   0.7539349   0.1901045   0.0534706  )
        78           C   tau(  78) = (   0.1005824   0.8499491   0.8882473  )
        79           C   tau(  79) = (  -0.0449003   1.1295846   1.8299652  )
        80           C   tau(  80) = (   0.6084522   0.4697400   0.9951885  )
        81           C   tau(  81) = (   0.7710471   0.2809509   0.2880535  )
        82           C   tau(  82) = (   0.0834702   0.9407955   0.6536644  )
        83           C   tau(  83) = (  -0.0620125   1.0387382   1.5953823  )
        84           C   tau(  84) = (   0.6255644   0.3788936   1.2297715  )
        85           H   tau(  85) = (   0.6996625   0.3598247   0.3518628  )
        86           H   tau(  86) = (   0.1548548   1.0196692   0.5898551  )
        87           H   tau(  87) = (   0.0093721   0.9598645   1.5315730  )
        88           H   tau(  88) = (   0.5541798   0.3000199   1.2935807  )
        89           H   tau(  89) = (   0.8879032   0.2783848   0.3309250  )
        90           H   tau(  90) = (  -0.0333859   0.9382294   0.6107930  )
        91           H   tau(  91) = (  -0.1788686   1.0413043   1.5525109  )
        92           H   tau(  92) = (   0.7424205   0.3814597   1.2726429  )
        93           C   tau(  93) = (   0.7144441   0.0743144   0.1526247  )
        94           C   tau(  94) = (   0.1400732   0.7341590   0.7890932  )
        95           C   tau(  95) = (  -0.0054096   1.2453747   1.7308111  )
        96           C   tau(  96) = (   0.5689614   0.5855301   1.0943426  )
        97           C   tau(  97) = (   0.6821764   1.2502280   0.1026210  )
        98           C   tau(  98) = (   0.1723409   0.5903835   0.8390969  )
        99           C   tau(  99) = (   0.0268581   0.0694611   1.7808148  )
       100           C   tau( 100) = (   0.5366937   0.7293057   1.0443389  )
       101           H   tau( 101) = (   0.6488096   1.1612970   0.1807587  )
       102           H   tau( 102) = (   0.2057077   0.5014524   0.7609592  )
       103           H   tau( 103) = (   0.0602250   0.1583922   1.7026771  )
       104           H   tau( 104) = (   0.5033269   0.8182368   1.1224767  )
       105           C   tau( 105) = (   0.4055963   1.2201078   1.8299416  )
       106           C   tau( 106) = (   0.1579556   0.5602633   0.9952121  )
       107           C   tau( 107) = (   0.3034383   0.0995813   0.0534942  )
       108           C   tau( 108) = (   0.5510790   0.7594259   0.8882237  )
       109           C   tau( 109) = (   0.3682953   1.0593503   1.7775920  )
       110           C   tau( 110) = (   0.1952565   0.3995057   1.0475617  )
       111           C   tau( 111) = (   0.3407392   0.2603389   0.1058438  )
       112           C   tau( 112) = (   0.5137781   0.9201835   0.8358741  )
       113           H   tau( 113) = (   0.2444185   1.0463851   1.7841663  )
       114           H   tau( 114) = (   0.3191334   0.3865405   1.0409875  )
       115           H   tau( 115) = (   0.4646161   0.2733041   0.0992696  )
       116           H   tau( 116) = (   0.3899012   0.9331486   0.8424483  )
       117           C   tau( 117) = (   0.4150077   1.0388708   1.6123057  )
       118           C   tau( 118) = (   0.1485441   0.3790263   1.2128481  )
       119           C   tau( 119) = (   0.2940268   0.2808183   0.2711301  )
       120           C   tau( 120) = (   0.5604905   0.9406629   0.6705878  )
       121           H   tau( 121) = (   0.5384135   1.0190777   1.6072683  )
       122           H   tau( 122) = (   0.0251383   0.3592331   1.2178854  )
       123           H   tau( 123) = (   0.1706210   0.3006114   0.2761675  )
       124           H   tau( 124) = (   0.6838963   0.9604560   0.6655504  )
       125           C   tau( 125) = (   0.3408735   0.9139376   1.5217614  )
       126           C   tau( 126) = (   0.2226783   0.2540930   1.3033923  )
       127           C   tau( 127) = (   0.3681610   0.4057515   0.3616744  )
       128           C   tau( 128) = (   0.4863563   1.0655961   0.5800435  )
       129           C   tau( 129) = (   0.4378826   0.9381397   1.8773803  )
       130           C   tau( 130) = (   0.1256693   0.2782952   0.9477734  )
       131           C   tau( 131) = (   0.2711520   0.3815494   0.0060555  )
       132           C   tau( 132) = (   0.5833653   1.0413940   0.9356624  )
       133           C   tau( 133) = (   0.8815711   0.9508077   0.0380376  )
       134           C   tau( 134) = (  -0.0270538   0.2909631   0.9036803  )
       135           C   tau( 135) = (  -0.1725365   0.3688815   1.8453983  )
       136           C   tau( 136) = (   0.7360884   1.0287261   0.9797555  )
       137           H   tau( 137) = (   0.9480508   1.0503296   0.0097904  )
       138           H   tau( 138) = (  -0.0935335   0.3904850   0.9319275  )
       139           H   tau( 139) = (  -0.2390162   0.2693596   1.8736455  )
       140           H   tau( 140) = (   0.8025681   0.9292042   0.9515083  )
       141           C   tau( 141) = (   0.9418760   0.8343205   0.1222893  )
       142           C   tau( 142) = (  -0.0873587   0.1744759   0.8194286  )
       143           C   tau( 143) = (  -0.2328414   0.4853687   1.7611465  )
       144           C   tau( 144) = (   0.7963933   1.1452133   1.0640072  )
       145           C   tau( 145) = (   0.8568836   0.7078489   0.1628719  )
       146           C   tau( 146) = (  -0.0023664   0.0480043   0.7788461  )
       147           C   tau( 147) = (  -0.1478491   0.6118403   1.7205640  )
       148           C   tau( 148) = (   0.7114009   1.2716849   1.1045898  )
       149           C   tau( 149) = (   0.7067514   0.6940089   0.1229638  )
       150           C   tau( 150) = (   0.1477659   0.0341643   0.8187541  )
       151           C   tau( 151) = (   0.0022831   0.6256803   1.7604720  )
       152           C   tau( 152) = (   0.5612687   1.2855249   1.0646818  )
       153           H   tau( 153) = (   0.6390540   0.5980688   0.1589334  )
       154           H   tau( 154) = (   0.2154633   1.2579134   0.7827846  )
       155           H   tau( 155) = (   0.0699806   0.7216204   1.7245025  )
       156           H   tau( 156) = (   0.4935713   0.0617758   1.1006513  )
       157           C   tau( 157) = (   0.6441472   0.8122891   0.0372646  )
       158           C   tau( 158) = (   0.2103701   0.1524445   0.9044533  )
       159           C   tau( 159) = (   0.0648874   0.5074001   1.8461712  )
       160           C   tau( 160) = (   0.4986645   1.1672447   0.9789825  )
       161           H   tau( 161) = (   0.5263413   0.8051510   0.0026400  )
       162           H   tau( 162) = (   0.3281760   0.1453064   0.9390780  )
       163           H   tau( 163) = (   0.1826933   0.5145382   1.8807959  )
       164           H   tau( 164) = (   0.3808586   1.1743828   0.9443579  )
       165           C   tau( 165) = (   0.0933088   0.6735454   0.2459305  )
       166           C   tau( 166) = (   0.7612085   0.0137008   0.6957874  )
       167           C   tau( 167) = (   0.6157258   0.6461438   1.6375053  )
       168           C   tau( 168) = (  -0.0521740   1.3059884   1.1876484  )
       169           H   tau( 169) = (   0.1396484   0.6781815   0.3609345  )
       170           H   tau( 170) = (   0.7148689   0.0183369   0.5807834  )
       171           H   tau( 171) = (   0.5693862   0.6415077   1.5225013  )
       172           H   tau( 172) = (  -0.0058344   1.3013523   1.3026525  )
       173           H   tau( 173) = (   0.1626123   0.6037843   0.1696579  )
       174           H   tau( 174) = (   0.6919050   1.2636289   0.7720600  )
       175           H   tau( 175) = (   0.5464223   0.7159048   1.7137779  )
       176           H   tau( 176) = (   0.0171296   0.0560602   1.1113759  )

     number of k points=     4
                       cart. coord. in units 2pi/alat
        k(    1) = (   0.0000000   0.0000000   0.0000000), wk =   0.5000000
        k(    2) = (   0.0000000  -0.3788771   0.0000000), wk =   0.5000000
        k(    3) = (  -0.5000000   0.0000000  -0.0772433), wk =   0.5000000
        k(    4) = (  -0.5000000  -0.3788771  -0.0772433), wk =   0.5000000

     Dense  grid:  1572867 G-vectors     FFT dimensions: ( 108, 144, 216)

     Estimated max dynamical RAM per process >    2280.82MB

     Estimated total allocated dynamical RAM >   18246.54MB

     Check: negative/imaginary core charge=   -0.000002    0.000000

     Initial potential from superposition of free atoms

     starting charge  583.99598, renormalised to  584.00000
     Starting wfc are  524 randomized atomic wfcs
     Checking if some PAW data can be deallocated... 

     total cpu time spent up to now is      138.5 secs

     per-process dynamical memory:  1242.8 Mb

     Self-consistent Calculation

     iteration #  1     ecut=   100.00 Ry     beta=0.50
     Davidson diagonalization with overlap
     ethr =  1.00E-02,  avg # of iterations =  4.0

     total cpu time spent up to now is      560.4 secs

     total energy              =   -2881.31400192 Ry
     Harris-Foulkes estimate   =   -2889.57993622 Ry
     estimated scf accuracy    <      16.25302101 Ry

     iteration #  2     ecut=   100.00 Ry     beta=0.50
     Davidson diagonalization with overlap
     ethr =  2.78E-03,  avg # of iterations =  2.0

     total cpu time spent up to now is      772.0 secs

     total energy              =   -2881.65050916 Ry
     Harris-Foulkes estimate   =   -2882.97244626 Ry
     estimated scf accuracy    <       2.63214569 Ry

     iteration #  3     ecut=   100.00 Ry     beta=0.50
     Davidson diagonalization with overlap
     ethr =  4.51E-04,  avg # of iterations =  5.0

     total cpu time spent up to now is     1242.0 secs

     total energy              =   -2883.47207514 Ry
     Harris-Foulkes estimate   =   -2884.34116222 Ry
     estimated scf accuracy    <       2.25423271 Ry

     iteration #  4     ecut=   100.00 Ry     beta=0.50
     Davidson diagonalization with overlap
     ethr =  3.86E-04,  avg # of iterations =  2.0

     total cpu time spent up to now is     1441.0 secs

     total energy              =   -2883.39356975 Ry
     Harris-Foulkes estimate   =   -2883.67590182 Ry
     estimated scf accuracy    <       0.60908503 Ry

     iteration #  5     ecut=   100.00 Ry     beta=0.50
     Davidson diagonalization with overlap
     ethr =  1.04E-04,  avg # of iterations =  7.0

     total cpu time spent up to now is     1870.5 secs

     total energy              =   -2883.68940756 Ry
     Harris-Foulkes estimate   =   -2883.72913163 Ry
     estimated scf accuracy    <       0.21378404 Ry

     iteration #  6     ecut=   100.00 Ry     beta=0.50
     Davidson diagonalization with overlap
     ethr =  3.66E-05,  avg # of iterations =  2.0

     total cpu time spent up to now is     2073.9 secs

     total energy              =   -2883.67103696 Ry
     Harris-Foulkes estimate   =   -2883.71806586 Ry
     estimated scf accuracy    <       0.09338359 Ry

     iteration #  7     ecut=   100.00 Ry     beta=0.50
     Davidson diagonalization with overlap
     ethr =  1.60E-05,  avg # of iterations =  2.8

     total cpu time spent up to now is     2277.8 secs

     total energy              =   -2883.67033910 Ry
     Harris-Foulkes estimate   =   -2883.68064934 Ry
     estimated scf accuracy    <       0.01701975 Ry

     iteration #  8     ecut=   100.00 Ry     beta=0.50
     Davidson diagonalization with overlap
     ethr =  2.91E-06,  avg # of iterations =  5.0

     total cpu time spent up to now is     2774.3 secs

     total energy              =   -2883.68559779 Ry
     Harris-Foulkes estimate   =   -2883.69171812 Ry
     estimated scf accuracy    <       0.01632593 Ry

     iteration #  9     ecut=   100.00 Ry     beta=0.50
     Davidson diagonalization with overlap
     c_bands:  2 eigenvalues not converged
     ethr =  2.80E-06,  avg # of iterations =  7.8

     total cpu time spent up to now is     2992.6 secs

     total energy              =   -2883.68264455 Ry
     Harris-Foulkes estimate   =   -2883.68617169 Ry
     estimated scf accuracy    <       0.00571231 Ry

     iteration # 10     ecut=   100.00 Ry     beta=0.50
     Davidson diagonalization with overlap
     ethr =  9.78E-07,  avg # of iterations =  9.0

     total cpu time spent up to now is     3455.5 secs

     total energy              =   -2883.68656173 Ry
     Harris-Foulkes estimate   =   -2883.68751207 Ry
     estimated scf accuracy    <       0.00353342 Ry

     iteration # 11     ecut=   100.00 Ry     beta=0.50
     Davidson diagonalization with overlap
     ethr =  6.05E-07,  avg # of iterations =  1.0

     total cpu time spent up to now is     3650.3 secs

     total energy              =   -2883.68564303 Ry
     Harris-Foulkes estimate   =   -2883.68661881 Ry
     estimated scf accuracy    <       0.00187020 Ry

     iteration # 12     ecut=   100.00 Ry     beta=0.50
     Davidson diagonalization with overlap
     ethr =  3.20E-07,  avg # of iterations =  4.0

     total cpu time spent up to now is     3988.8 secs

     total energy              =   -2883.68642545 Ry
     Harris-Foulkes estimate   =   -2883.68645721 Ry
     estimated scf accuracy    <       0.00017653 Ry

     iteration # 13     ecut=   100.00 Ry     beta=0.50
     Davidson diagonalization with overlap
     ethr =  3.02E-08,  avg # of iterations =  1.2

     total cpu time spent up to now is     4184.1 secs

     total energy              =   -2883.68637392 Ry
     Harris-Foulkes estimate   =   -2883.68643131 Ry
     estimated scf accuracy    <       0.00012041 Ry

     iteration # 14     ecut=   100.00 Ry     beta=0.50
     Davidson diagonalization with overlap
     ethr =  2.06E-08,  avg # of iterations =  3.8

     total cpu time spent up to now is     4466.9 secs

     total energy              =   -2883.68640591 Ry
     Harris-Foulkes estimate   =   -2883.68640729 Ry
     estimated scf accuracy    <       0.00000426 Ry

     iteration # 15     ecut=   100.00 Ry     beta=0.50
     Davidson diagonalization with overlap
     ethr =  7.30E-10,  avg # of iterations =  4.0

     total cpu time spent up to now is     4841.7 secs

     total energy              =   -2883.68640673 Ry
     Harris-Foulkes estimate   =   -2883.68640831 Ry
     estimated scf accuracy    <       0.00000371 Ry

     iteration # 16     ecut=   100.00 Ry     beta=0.50
     Davidson diagonalization with overlap
     ethr =  6.35E-10,  avg # of iterations =  1.0

     total cpu time spent up to now is     5036.8 secs

     total energy              =   -2883.68640640 Ry
     Harris-Foulkes estimate   =   -2883.68640690 Ry
     estimated scf accuracy    <       0.00000109 Ry

     iteration # 17     ecut=   100.00 Ry     beta=0.50
     Davidson diagonalization with overlap
     ethr =  1.87E-10,  avg # of iterations =  4.0

     total cpu time spent up to now is     5420.5 secs

     total energy              =   -2883.68640731 Ry
     Harris-Foulkes estimate   =   -2883.68640731 Ry
     estimated scf accuracy    <       0.00000042 Ry

     iteration # 18     ecut=   100.00 Ry     beta=0.50
     Davidson diagonalization with overlap
     ethr =  7.24E-11,  avg # of iterations =  1.0

     total cpu time spent up to now is     5615.9 secs

     total energy              =   -2883.68640711 Ry
     Harris-Foulkes estimate   =   -2883.68640732 Ry
     estimated scf accuracy    <       0.00000041 Ry

     iteration # 19     ecut=   100.00 Ry     beta=0.50
     Davidson diagonalization with overlap
     ethr =  7.03E-11,  avg # of iterations =  1.0

     total cpu time spent up to now is     5810.5 secs

     total energy              =   -2883.68640708 Ry
     Harris-Foulkes estimate   =   -2883.68640714 Ry
     estimated scf accuracy    <       0.00000009 Ry

     iteration # 20     ecut=   100.00 Ry     beta=0.50
     Davidson diagonalization with overlap
     ethr =  1.62E-11,  avg # of iterations =  4.0

     total cpu time spent up to now is     6217.9 secs

     total energy              =   -2883.68640717 Ry
     Harris-Foulkes estimate   =   -2883.68640719 Ry
     estimated scf accuracy    <       0.00000006 Ry

     iteration # 21     ecut=   100.00 Ry     beta=0.50
     Davidson diagonalization with overlap
     ethr =  9.99E-12,  avg # of iterations =  1.0

     total cpu time spent up to now is     6412.7 secs

     total energy              =   -2883.68640716 Ry
     Harris-Foulkes estimate   =   -2883.68640717 Ry
     estimated scf accuracy    <       0.00000003 Ry

     iteration # 22     ecut=   100.00 Ry     beta=0.50
     Davidson diagonalization with overlap
     ethr =  5.30E-12,  avg # of iterations =  4.0

     total cpu time spent up to now is     6784.6 secs

     total energy              =   -2883.68640718 Ry
     Harris-Foulkes estimate   =   -2883.68640718 Ry
     estimated scf accuracy    <       0.00000001 Ry

     iteration # 23     ecut=   100.00 Ry     beta=0.50
     Davidson diagonalization with overlap
     ethr =  2.42E-12,  avg # of iterations =  1.0

     total cpu time spent up to now is     6979.6 secs

     total energy              =   -2883.68640717 Ry
     Harris-Foulkes estimate   =   -2883.68640718 Ry
     estimated scf accuracy    <       0.00000001 Ry

     iteration # 24     ecut=   100.00 Ry     beta=0.50
     Davidson diagonalization with overlap
     ethr =  2.40E-12,  avg # of iterations =  3.0

     total cpu time spent up to now is     7185.1 secs

     End of self-consistent calculation

          k = 0.0000 0.0000 0.0000 (196577 PWs)   bands (ev):

   -21.5009 -21.4995 -21.4978 -21.4970 -21.3891 -21.3887 -21.3873 -21.3865
   -21.1290 -21.1282 -21.1095 -21.1088 -20.8171 -20.8171 -20.8126 -20.8126
   -19.0600 -19.0597 -19.0585 -19.0584 -18.8084 -18.8084 -18.7982 -18.7981
   -18.7952 -18.7951 -18.7857 -18.7857 -17.5602 -17.5596 -17.5593 -17.5587
   -15.0827 -15.0748 -15.0433 -15.0358 -14.3845 -14.3829 -14.3583 -14.3563
   -14.0089 -13.9991 -13.9953 -13.9938 -12.9429 -12.9426 -12.9378 -12.9237
   -12.2390 -12.2301 -12.2095 -12.1902 -11.7351 -11.7310 -11.6989 -11.6883
   -11.6165 -11.5793 -11.5216 -11.4867 -11.4348 -11.4055 -11.3935 -11.3884
   -10.8188 -10.8094 -10.7863 -10.7719 -10.3217 -10.3204 -10.2972 -10.2744
    -9.6278  -9.6173  -9.6155  -9.6076  -9.0511  -9.0424  -8.9917  -8.9831
    -8.6508  -8.6483  -8.5877  -8.5802  -8.5064  -8.5001  -8.4842  -8.4688
    -8.3162  -8.3116  -8.2868  -8.2767  -8.1311  -8.1097  -8.0815  -8.0724
    -7.8038  -7.7791  -7.7592  -7.7258  -6.9866  -6.9632  -6.8740  -6.8606
    -6.7558  -6.7181  -6.7064  -6.6703  -6.2107  -6.2065  -6.2056  -6.1740
    -6.0499  -5.9864  -5.9631  -5.9269  -5.9111  -5.8499  -5.8435  -5.8102
    -5.8097  -5.7794  -5.7703  -5.7149  -5.6845  -5.6694  -5.6670  -5.6388
    -5.6358  -5.6269  -5.5987  -5.5595  -5.5415  -5.4678  -5.4406  -5.3764
    -5.3585  -5.3506  -5.3217  -5.2500  -5.1828  -5.1239  -5.1202  -5.1188
    -5.1003  -5.0183  -4.9851  -4.9799  -4.9657  -4.9048  -4.8918  -4.8702
    -4.6838  -4.5617  -4.5555  -4.5175  -4.4310  -4.3595  -4.2753  -4.0843
    -4.0637  -4.0368  -4.0064  -3.9340  -3.9280  -3.9210  -3.8863  -3.8607
    -3.8102  -3.7847  -3.7715  -3.7188  -3.7126  -3.6673  -3.6588  -3.6479
    -3.6002  -3.5954  -3.5173  -3.5077  -3.4643  -3.4444  -3.4300  -3.4262
    -3.3940  -3.3164  -3.3014  -3.2828  -3.2218  -3.2020  -3.1869  -3.1433
    -3.0748  -3.0190  -2.9634  -2.8774  -2.8143  -2.7913  -2.7124  -2.6759
    -2.6579  -2.6153  -2.5996  -2.5971  -2.5885  -2.5867  -2.4842  -2.4256
    -2.4234  -2.3923  -2.3214  -2.3031  -2.2824  -2.2568  -2.2101  -2.1644
    -2.1534  -2.1454  -2.1052  -2.0454  -2.0395  -1.9928  -1.9563  -1.9412
    -1.9403  -1.9371  -1.8158  -1.7846  -1.7216  -1.6942  -1.6726  -1.6562
    -1.6477  -1.6174  -1.6151  -1.6052  -1.5832  -1.5474  -1.5000  -1.4996
    -1.4689  -1.4686  -1.4572  -1.4391  -1.3344  -1.3305  -1.3125  -1.3088
    -0.9714  -0.9628  -0.9622  -0.9222  -0.8385  -0.8324  -0.7296  -0.7289
    -0.6109  -0.5130  -0.5025  -0.4238  -0.3317  -0.2970  -0.2083  -0.1952
    -0.1942  -0.1731  -0.0303   0.0064   0.3053   0.3644   0.5140   0.5327
     0.6597   0.6969   0.7098   0.7249   0.8939   0.9030   0.9694   0.9993
     1.0217   1.0253   1.2213   1.2347   1.7434   1.7790   1.9196   1.9456
     2.0612   2.0808   2.1530   2.1702   4.9714   4.9805   4.9830   4.9922
     5.3263   5.3340   5.4381   5.4705   5.6350   5.7350   5.7555   5.7560
     5.8994   5.9313   5.9375   5.9378   5.9559   5.9665   6.0499   6.0731
     6.1211   6.1662   6.2808   6.3375   6.3777   6.4563   6.4688   6.4870
     6.9596   6.9610   7.1337   7.1635   7.3734   7.4294   7.4787   7.5452
     7.5550   7.6224   7.8068   7.9046   7.9382   8.0203   8.0665   8.0846
     8.1378   8.1709   8.2253   8.2265   8.2537   8.3779   8.4483   8.5358
     8.5819   8.6041   8.7018   8.7186   8.8268   8.8708

          k = 0.0000-0.3789 0.0000 (196634 PWs)   bands (ev):

   -21.4993 -21.4993 -21.4982 -21.4982 -21.3885 -21.3885 -21.3874 -21.3874
   -21.1286 -21.1286 -21.1092 -21.1092 -20.8148 -20.8148 -20.8148 -20.8148
   -19.0599 -19.0599 -19.0584 -19.0584 -18.8084 -18.8084 -18.7982 -18.7982
   -18.7905 -18.7905 -18.7904 -18.7904 -17.5597 -17.5597 -17.5592 -17.5592
   -15.0814 -15.0814 -15.0382 -15.0382 -14.3745 -14.3745 -14.3598 -14.3598
   -14.0070 -14.0070 -13.9968 -13.9968 -12.9464 -12.9464 -12.9312 -12.9312
   -12.2351 -12.2351 -12.2045 -12.2045 -11.7477 -11.7477 -11.6839 -11.6839
   -11.5602 -11.5602 -11.5138 -11.5138 -11.4219 -11.4219 -11.3928 -11.3928
   -10.8017 -10.8017 -10.7914 -10.7914 -10.3319 -10.3319 -10.2991 -10.2991
    -9.6060  -9.6060  -9.5908  -9.5908  -9.0442  -9.0442  -9.0097  -9.0097
    -8.6835  -8.6835  -8.5845  -8.5845  -8.4984  -8.4984  -8.4797  -8.4797
    -8.3158  -8.3158  -8.3047  -8.3047  -8.1094  -8.1094  -8.0751  -8.0751
    -7.7653  -7.7653  -7.7037  -7.7037  -6.9574  -6.9574  -6.9004  -6.9004
    -6.7340  -6.7340  -6.7076  -6.7076  -6.2485  -6.2485  -6.1499  -6.1499
    -5.9908  -5.9908  -5.9604  -5.9604  -5.8749  -5.8749  -5.8241  -5.8241
    -5.8077  -5.8077  -5.7541  -5.7541  -5.6789  -5.6789  -5.6370  -5.6370
    -5.6096  -5.6096  -5.5779  -5.5779  -5.4843  -5.4843  -5.4490  -5.4490
    -5.3341  -5.3341  -5.2793  -5.2793  -5.2039  -5.2039  -5.1145  -5.1145
    -5.0704  -5.0704  -4.9537  -4.9537  -4.9111  -4.9111  -4.8967  -4.8967
    -4.6224  -4.6224  -4.5719  -4.5719  -4.3319  -4.3319  -4.2382  -4.2382
    -4.0652  -4.0652  -3.9547  -3.9547  -3.9127  -3.9127  -3.8327  -3.8327
    -3.8151  -3.8151  -3.7582  -3.7582  -3.7215  -3.7215  -3.7020  -3.7020
    -3.5178  -3.5178  -3.5046  -3.5046  -3.4799  -3.4799  -3.4487  -3.4487
    -3.3997  -3.3997  -3.2756  -3.2756  -3.1942  -3.1942  -3.1652  -3.1652
    -3.0150  -3.0150  -2.9252  -2.9252  -2.8017  -2.8017  -2.7441  -2.7441
    -2.6115  -2.6115  -2.5852  -2.5852  -2.5377  -2.5377  -2.4563  -2.4563
    -2.3953  -2.3953  -2.3178  -2.3178  -2.2655  -2.2655  -2.2018  -2.2018
    -2.1477  -2.1477  -2.1360  -2.1360  -2.0072  -2.0072  -1.9832  -1.9832
    -1.8655  -1.8655  -1.8219  -1.8219  -1.7230  -1.7230  -1.6529  -1.6529
    -1.6227  -1.6227  -1.5819  -1.5819  -1.5451  -1.5451  -1.5243  -1.5243
    -1.4714  -1.4714  -1.4229  -1.4229  -1.3888  -1.3888  -1.2161  -1.2161
    -1.0689  -1.0689  -0.9253  -0.9253  -0.7786  -0.7786  -0.7702  -0.7702
    -0.5836  -0.5836  -0.5022  -0.5022  -0.2309  -0.2309  -0.2072  -0.2072
    -0.1280  -0.1280  -0.0707  -0.0707   0.4184   0.4184   0.4481   0.4481
     0.6433   0.6433   0.6833   0.6833   0.8875   0.8875   0.9922   0.9922
     1.1096   1.1096   1.1748   1.1748   1.7575   1.7575   1.9220   1.9220
     2.0872   2.0872   2.1641   2.1641   4.9760   4.9760   4.9858   4.9858
     5.4014   5.4014   5.4526   5.4526   5.6715   5.6715   5.7310   5.7310
     5.8730   5.8730   5.9267   5.9267   5.9782   5.9782   6.0207   6.0207
     6.1961   6.1961   6.2907   6.2907   6.4045   6.4045   6.5148   6.5148
     6.9965   6.9965   7.0636   7.0636   7.4253   7.4253   7.5353   7.5353
     7.6286   7.6286   7.7720   7.7720   7.8452   7.8452   8.0591   8.0591
     8.2463   8.2463   8.3677   8.3677   8.4075   8.4075   8.5051   8.5051
     8.6260   8.6260   8.6949   8.6949   8.7256   8.7256

          k =-0.5000 0.0000-0.0772 (196578 PWs)   bands (ev):

   -21.5006 -21.4992 -21.4977 -21.4969 -21.3895 -21.3887 -21.3877 -21.3865
   -21.1290 -21.1282 -21.1095 -21.1088 -20.8172 -20.8171 -20.8125 -20.8125
   -19.0600 -19.0597 -19.0586 -19.0584 -18.8085 -18.8084 -18.7988 -18.7981
   -18.7951 -18.7945 -18.7858 -18.7857 -17.5600 -17.5596 -17.5592 -17.5590
   -15.0770 -15.0682 -15.0496 -15.0411 -14.3963 -14.3962 -14.3474 -14.3433
   -14.0099 -14.0008 -13.9935 -13.9932 -12.9460 -12.9413 -12.9350 -12.9242
   -12.2255 -12.2207 -12.2202 -12.2031 -11.7223 -11.7145 -11.7108 -11.7088
   -11.5747 -11.5570 -11.5351 -11.5282 -11.4436 -11.4044 -11.3960 -11.3807
   -10.8229 -10.8061 -10.7825 -10.7757 -10.3287 -10.3111 -10.2881 -10.2834
    -9.6288  -9.6142  -9.6124  -9.6106  -9.0418  -9.0243  -9.0015  -8.9942
    -8.6239  -8.6213  -8.6177  -8.6028  -8.5146  -8.5108  -8.5094  -8.5088
    -8.2981  -8.2876  -8.2728  -8.2681  -8.1133  -8.0961  -8.0870  -8.0841
    -7.8031  -7.7861  -7.7607  -7.7253  -6.9859  -6.9420  -6.8844  -6.8552
    -6.7512  -6.7333  -6.6702  -6.6700  -6.1739  -6.1661  -6.1643  -6.1619
    -6.0285  -6.0052  -5.9968  -5.9796  -5.9620  -5.9399  -5.9358  -5.9212
    -5.8062  -5.7885  -5.7773  -5.7568  -5.6692  -5.6576  -5.6519  -5.6171
    -5.6134  -5.6108  -5.5495  -5.5362  -5.5344  -5.4929  -5.4444  -5.3548
    -5.3428  -5.3216  -5.2897  -5.2333  -5.1590  -5.1052  -5.0985  -5.0748
    -5.0698  -5.0638  -5.0196  -4.9964  -4.9885  -4.9456  -4.8752  -4.8591
    -4.6286  -4.5850  -4.5790  -4.5745  -4.4357  -4.4223  -4.1977  -4.0886
    -4.0170  -3.9974  -3.9528  -3.9357  -3.9191  -3.8742  -3.8741  -3.8530
    -3.8527  -3.8461  -3.7764  -3.7544  -3.7281  -3.7180  -3.6941  -3.6823
    -3.5955  -3.5638  -3.5526  -3.5139  -3.4598  -3.4080  -3.4038  -3.3487
    -3.3484  -3.3435  -3.3164  -3.2772  -3.2407  -3.2181  -3.1672  -3.1069
    -3.0974  -3.0090  -2.9024  -2.8940  -2.7842  -2.7510  -2.7324  -2.7215
    -2.6757  -2.6526  -2.6248  -2.6231  -2.5795  -2.5024  -2.4952  -2.4533
    -2.4164  -2.3753  -2.3134  -2.3119  -2.2504  -2.2392  -2.2017  -2.1689
    -2.1592  -2.1254  -2.1072  -2.1052  -1.9999  -1.9772  -1.9696  -1.9278
    -1.8901  -1.8890  -1.7913  -1.7608  -1.6863  -1.6809  -1.6738  -1.6595
    -1.6582  -1.6432  -1.6338  -1.6037  -1.5480  -1.5418  -1.5374  -1.5091
    -1.5078  -1.5013  -1.4801  -1.4530  -1.4396  -1.4292  -1.2167  -1.1949
    -1.0501  -0.9913  -0.9750  -0.9533  -0.8470  -0.8203  -0.7474  -0.6946
    -0.5988  -0.5411  -0.4438  -0.3980  -0.3203  -0.2778  -0.2446  -0.1923
    -0.1821  -0.1715  -0.0894  -0.0329   0.3255   0.3431   0.4846   0.5296
     0.6641   0.6984   0.7573   0.7699   0.8678   0.8713   0.9571   0.9650
     1.0437   1.0510   1.2251   1.2348   1.8009   1.8265   1.8518   1.8895
     2.0563   2.0708   2.1468   2.1736   4.9661   4.9716   4.9856   5.0115
     5.3820   5.4134   5.4287   5.4466   5.6563   5.6889   5.7354   5.7438
     5.8307   5.8782   5.9333   5.9404   5.9672   5.9769   6.1200   6.1254
     6.2113   6.2133   6.2217   6.3000   6.3651   6.4160   6.4533   6.5077
     7.0978   7.2053   7.2316   7.3168   7.4141   7.4444   7.4900   7.5899
     7.6072   7.6225   7.6796   7.7733   7.8356   7.8853   7.9609   8.0228
     8.0422   8.1267   8.1853   8.2611   8.4127   8.4233   8.4557   8.5344
     8.5839   8.5863   8.6028   8.6642   8.7634   8.8033

          k =-0.5000-0.3789-0.0772 (196544 PWs)   bands (ev):

   -21.4991 -21.4991 -21.4981 -21.4981 -21.3889 -21.3889 -21.3873 -21.3873
   -21.1286 -21.1286 -21.1092 -21.1092 -20.8149 -20.8149 -20.8148 -20.8148
   -19.0600 -19.0600 -19.0584 -19.0584 -18.8084 -18.8084 -18.7983 -18.7983
   -18.7905 -18.7905 -18.7903 -18.7903 -17.5598 -17.5598 -17.5591 -17.5591
   -15.0697 -15.0697 -15.0502 -15.0502 -14.3832 -14.3832 -14.3508 -14.3508
   -14.0062 -14.0062 -13.9978 -13.9978 -12.9464 -12.9464 -12.9311 -12.9311
   -12.2277 -12.2277 -12.2121 -12.2121 -11.7331 -11.7331 -11.6878 -11.6878
   -11.5798 -11.5798 -11.4997 -11.4997 -11.4276 -11.4276 -11.3889 -11.3889
   -10.8026 -10.8026 -10.7917 -10.7917 -10.3301 -10.3301 -10.3006 -10.3006
    -9.6072  -9.6072  -9.5922  -9.5922  -9.0317  -9.0317  -9.0159  -9.0159
    -8.6329  -8.6329  -8.6243  -8.6243  -8.5173  -8.5173  -8.4967  -8.4967
    -8.3334  -8.3334  -8.2626  -8.2626  -8.1136  -8.1136  -8.0775  -8.0775
    -7.7755  -7.7755  -7.6968  -7.6968  -6.9458  -6.9458  -6.8955  -6.8955
    -6.7263  -6.7263  -6.7084  -6.7084  -6.1842  -6.1842  -6.1174  -6.1174
    -6.0418  -6.0418  -5.9788  -5.9788  -5.9510  -5.9510  -5.8580  -5.8580
    -5.8353  -5.8353  -5.7487  -5.7487  -5.6791  -5.6791  -5.6588  -5.6588
    -5.5984  -5.5984  -5.5508  -5.5508  -5.5315  -5.5315  -5.4433  -5.4433
    -5.3055  -5.3055  -5.2538  -5.2538  -5.1362  -5.1362  -5.1100  -5.1100
    -5.0348  -5.0348  -5.0163  -5.0163  -4.9766  -4.9766  -4.8576  -4.8576
    -4.6550  -4.6550  -4.5156  -4.5156  -4.3321  -4.3321  -4.2036  -4.2036
    -4.0811  -4.0811  -3.9458  -3.9458  -3.9176  -3.9176  -3.8901  -3.8901
    -3.7889  -3.7889  -3.7376  -3.7376  -3.7103  -3.7103  -3.6895  -3.6895
    -3.6006  -3.6006  -3.4983  -3.4983  -3.4539  -3.4539  -3.4158  -3.4158
    -3.3848  -3.3848  -3.2763  -3.2763  -3.1880  -3.1880  -3.1748  -3.1748
    -3.0526  -3.0526  -2.9330  -2.9330  -2.7326  -2.7326  -2.6998  -2.6998
    -2.6793  -2.6793  -2.6044  -2.6044  -2.5893  -2.5893  -2.4371  -2.4371
    -2.3503  -2.3503  -2.2688  -2.2688  -2.2599  -2.2599  -2.2061  -2.2061
    -2.1814  -2.1814  -2.1049  -2.1049  -1.9902  -1.9902  -1.9759  -1.9759
    -1.8772  -1.8772  -1.8081  -1.8081  -1.6780  -1.6780  -1.6601  -1.6601
    -1.6357  -1.6357  -1.5907  -1.5907  -1.5876  -1.5876  -1.5287  -1.5287
    -1.4519  -1.4519  -1.4430  -1.4430  -1.3279  -1.3279  -1.2883  -1.2883
    -1.1012  -1.1012  -0.9393  -0.9393  -0.8409  -0.8409  -0.6603  -0.6603
    -0.6017  -0.6017  -0.3979  -0.3979  -0.3568  -0.3568  -0.2059  -0.2059
    -0.1660  -0.1660  -0.0470  -0.0470   0.4191   0.4191   0.4282   0.4282
     0.6829   0.6829   0.7076   0.7076   0.8556   0.8556   0.9721   0.9721
     1.1039   1.1039   1.1910   1.1910   1.8029   1.8029   1.8677   1.8677
     2.0792   2.0792   2.1650   2.1650   4.9664   4.9664   4.9997   4.9997
     5.4298   5.4298   5.4564   5.4564   5.6593   5.6593   5.7627   5.7627
     5.8099   5.8099   5.9029   5.9029   6.0060   6.0060   6.0543   6.0543
     6.2216   6.2216   6.2931   6.2931   6.3876   6.3876   6.5071   6.5071
     7.1842   7.1842   7.2330   7.2330   7.4565   7.4565   7.5340   7.5340
     7.5802   7.5802   7.6817   7.6817   7.8799   7.8799   8.0532   8.0532
     8.1356   8.1356   8.1484   8.1484   8.3865   8.3865   8.4077   8.4077
     8.5591   8.5591   8.6464   8.6464   8.8878   8.8878

     highest occupied, lowest unoccupied level (ev):     2.1736    4.9661

!    total energy              =   -2883.68640717 Ry
     Harris-Foulkes estimate   =   -2883.68640717 Ry
     estimated scf accuracy    <          3.0E-09 Ry

     total all-electron energy =    -11092.725291 Ry

     The total energy is the sum of the following terms:

     one-electron contribution =   -1558.86227705 Ry
     hartree contribution      =    1011.09241890 Ry
     xc contribution           =    -616.28906631 Ry
     ewald contribution        =    -858.79856935 Ry
     Dispersion Correction     =      -0.86473649 Ry
     one-center paw contrib.   =    -859.96417688 Ry

     convergence has been achieved in  24 iterations

     Forces acting on atoms (cartesian axes, Ry/au):

     atom    1 type  4   force =    -0.00034727   -0.00000835    0.00045525
     atom    2 type  4   force =     0.00034727   -0.00000835   -0.00045525
     atom    3 type  4   force =     0.00034727    0.00000835   -0.00045525
     atom    4 type  4   force =    -0.00034727    0.00000835    0.00045525
     atom    5 type  4   force =    -0.00009758   -0.00018348    0.00007547
     atom    6 type  4   force =     0.00009758   -0.00018348   -0.00007547
     atom    7 type  4   force =     0.00009758    0.00018348   -0.00007547
     atom    8 type  4   force =    -0.00009758    0.00018348    0.00007547
     atom    9 type  4   force =    -0.00050645    0.00032303    0.00002995
     atom   10 type  4   force =     0.00050645    0.00032303   -0.00002995
     atom   11 type  4   force =     0.00050645   -0.00032303   -0.00002995
     atom   12 type  4   force =    -0.00050645   -0.00032303    0.00002995
     atom   13 type  4   force =    -0.00068662    0.00020967    0.00085783
     atom   14 type  4   force =     0.00068662    0.00020967   -0.00085783
     atom   15 type  4   force =     0.00068662   -0.00020967   -0.00085783
     atom   16 type  4   force =    -0.00068662   -0.00020967    0.00085783
     atom   17 type  4   force =     0.00061758    0.00035691   -0.00097661
     atom   18 type  4   force =    -0.00061758    0.00035691    0.00097661
     atom   19 type  4   force =    -0.00061758   -0.00035691    0.00097661
     atom   20 type  4   force =     0.00061758   -0.00035691   -0.00097661
     atom   21 type  4   force =    -0.00020010    0.00032043    0.00005260
     atom   22 type  4   force =     0.00020010    0.00032043   -0.00005260
     atom   23 type  4   force =     0.00020010   -0.00032043   -0.00005260
     atom   24 type  4   force =    -0.00020010   -0.00032043    0.00005260
     atom   25 type  2   force =     0.00090857   -0.00012013    0.00037344
     atom   26 type  2   force =    -0.00090857   -0.00012013   -0.00037344
     atom   27 type  2   force =    -0.00090857    0.00012013   -0.00037344
     atom   28 type  2   force =     0.00090857    0.00012013    0.00037344
     atom   29 type  2   force =     0.00069935    0.00075836   -0.00025962
     atom   30 type  2   force =    -0.00069935    0.00075836    0.00025962
     atom   31 type  2   force =    -0.00069935   -0.00075836    0.00025962
     atom   32 type  2   force =     0.00069935   -0.00075836   -0.00025962
     atom   33 type  2   force =    -0.00086043   -0.00042815   -0.00052178
     atom   34 type  2   force =     0.00086043   -0.00042815    0.00052178
     atom   35 type  2   force =     0.00086043    0.00042815    0.00052178
     atom   36 type  2   force =    -0.00086043    0.00042815   -0.00052178
     atom   37 type  1   force =     0.00026199   -0.00070539    0.00037313
     atom   38 type  1   force =    -0.00026199   -0.00070539   -0.00037313
     atom   39 type  1   force =    -0.00026199    0.00070539   -0.00037313
     atom   40 type  1   force =     0.00026199    0.00070539    0.00037313
     atom   41 type  3   force =     0.00002443   -0.00061194    0.00095027
     atom   42 type  3   force =    -0.00002443   -0.00061194   -0.00095027
     atom   43 type  3   force =    -0.00002443    0.00061194   -0.00095027
     atom   44 type  3   force =     0.00002443    0.00061194    0.00095027
     atom   45 type  3   force =     0.00024923   -0.00004348    0.00017967
     atom   46 type  3   force =    -0.00024923   -0.00004348   -0.00017967
     atom   47 type  3   force =    -0.00024923    0.00004348   -0.00017967
     atom   48 type  3   force =     0.00024923    0.00004348    0.00017967
     atom   49 type  1   force =     0.00018161   -0.00021024    0.00029807
     atom   50 type  1   force =    -0.00018161   -0.00021024   -0.00029807
     atom   51 type  1   force =    -0.00018161    0.00021024   -0.00029807
     atom   52 type  1   force =     0.00018161    0.00021024    0.00029807
     atom   53 type  3   force =    -0.00129765    0.00041284    0.00028721
     atom   54 type  3   force =     0.00129765    0.00041284   -0.00028721
     atom   55 type  3   force =     0.00129765   -0.00041284   -0.00028721
     atom   56 type  3   force =    -0.00129765   -0.00041284    0.00028721
     atom   57 type  1   force =    -0.00028674   -0.00034122    0.00016648
     atom   58 type  1   force =     0.00028674   -0.00034122   -0.00016648
     atom   59 type  1   force =     0.00028674    0.00034122   -0.00016648
     atom   60 type  1   force =    -0.00028674    0.00034122    0.00016648
     atom   61 type  3   force =     0.00029068   -0.00039479    0.00019005
     atom   62 type  3   force =    -0.00029068   -0.00039479   -0.00019005
     atom   63 type  3   force =    -0.00029068    0.00039479   -0.00019005
     atom   64 type  3   force =     0.00029068    0.00039479    0.00019005
     atom   65 type  1   force =     0.00021349    0.00001841    0.00019783
     atom   66 type  1   force =    -0.00021349    0.00001841   -0.00019783
     atom   67 type  1   force =    -0.00021349   -0.00001841   -0.00019783
     atom   68 type  1   force =     0.00021349   -0.00001841    0.00019783
     atom   69 type  1   force =    -0.00011806    0.00061938    0.00002246
     atom   70 type  1   force =     0.00011806    0.00061938   -0.00002246
     atom   71 type  1   force =     0.00011806   -0.00061938   -0.00002246
     atom   72 type  1   force =    -0.00011806   -0.00061938    0.00002246
     atom   73 type  3   force =     0.00043840   -0.00000287    0.00006539
     atom   74 type  3   force =    -0.00043840   -0.00000287   -0.00006539
     atom   75 type  3   force =    -0.00043840    0.00000287   -0.00006539
     atom   76 type  3   force =     0.00043840    0.00000287    0.00006539
     atom   77 type  1   force =    -0.00001496    0.00034649    0.00009373
     atom   78 type  1   force =     0.00001496    0.00034649   -0.00009373
     atom   79 type  1   force =     0.00001496   -0.00034649   -0.00009373
     atom   80 type  1   force =    -0.00001496   -0.00034649    0.00009373
     atom   81 type  1   force =    -0.00038547   -0.00013420   -0.00040496
     atom   82 type  1   force =     0.00038547   -0.00013420    0.00040496
     atom   83 type  1   force =     0.00038547    0.00013420    0.00040496
     atom   84 type  1   force =    -0.00038547    0.00013420   -0.00040496
     atom   85 type  3   force =     0.00032890   -0.00042257   -0.00002053
     atom   86 type  3   force =    -0.00032890   -0.00042257    0.00002053
     atom   87 type  3   force =    -0.00032890    0.00042257    0.00002053
     atom   88 type  3   force =     0.00032890    0.00042257   -0.00002053
     atom   89 type  3   force =     0.00018343   -0.00011551   -0.00012912
     atom   90 type  3   force =    -0.00018343   -0.00011551    0.00012912
     atom   91 type  3   force =    -0.00018343    0.00011551    0.00012912
     atom   92 type  3   force =     0.00018343    0.00011551   -0.00012912
     atom   93 type  1   force =     0.00034743   -0.00011811    0.00042033
     atom   94 type  1   force =    -0.00034743   -0.00011811   -0.00042033
     atom   95 type  1   force =    -0.00034743    0.00011811   -0.00042033
     atom   96 type  1   force =     0.00034743    0.00011811    0.00042033
     atom   97 type  1   force =    -0.00013292    0.00010708    0.00048229
     atom   98 type  1   force =     0.00013292    0.00010708   -0.00048229
     atom   99 type  1   force =     0.00013292   -0.00010708   -0.00048229
     atom  100 type  1   force =    -0.00013292   -0.00010708    0.00048229
     atom  101 type  3   force =     0.00023755    0.00032231    0.00005419
     atom  102 type  3   force =    -0.00023755    0.00032231   -0.00005419
     atom  103 type  3   force =    -0.00023755   -0.00032231   -0.00005419
     atom  104 type  3   force =     0.00023755   -0.00032231    0.00005419
     atom  105 type  1   force =    -0.00048100    0.00023827   -0.00026546
     atom  106 type  1   force =     0.00048100    0.00023827    0.00026546
     atom  107 type  1   force =     0.00048100   -0.00023827    0.00026546
     atom  108 type  1   force =    -0.00048100   -0.00023827   -0.00026546
     atom  109 type  1   force =    -0.00060087    0.00006614    0.00003592
     atom  110 type  1   force =     0.00060087    0.00006614   -0.00003592
     atom  111 type  1   force =     0.00060087   -0.00006614   -0.00003592
     atom  112 type  1   force =    -0.00060087   -0.00006614    0.00003592
     atom  113 type  3   force =     0.00079755   -0.00020291   -0.00027490
     atom  114 type  3   force =    -0.00079755   -0.00020291    0.00027490
     atom  115 type  3   force =    -0.00079755    0.00020291    0.00027490
     atom  116 type  3   force =     0.00079755    0.00020291   -0.00027490
     atom  117 type  1   force =     0.00007448    0.00060481   -0.00031057
     atom  118 type  1   force =    -0.00007448    0.00060481    0.00031057
     atom  119 type  1   force =    -0.00007448   -0.00060481    0.00031057
     atom  120 type  1   force =     0.00007448   -0.00060481   -0.00031057
     atom  121 type  3   force =    -0.00025878   -0.00066328   -0.00076076
     atom  122 type  3   force =     0.00025878   -0.00066328    0.00076076
     atom  123 type  3   force =     0.00025878    0.00066328    0.00076076
     atom  124 type  3   force =    -0.00025878    0.00066328   -0.00076076
     atom  125 type  1   force =     0.00016416   -0.00051270   -0.00032811
     atom  126 type  1   force =    -0.00016416   -0.00051270    0.00032811
     atom  127 type  1   force =    -0.00016416    0.00051270    0.00032811
     atom  128 type  1   force =     0.00016416    0.00051270   -0.00032811
     atom  129 type  1   force =    -0.00076252    0.00066702   -0.00062348
     atom  130 type  1   force =     0.00076252    0.00066702    0.00062348
     atom  131 type  1   force =     0.00076252   -0.00066702    0.00062348
     atom  132 type  1   force =    -0.00076252   -0.00066702   -0.00062348
     atom  133 type  1   force =     0.00118357    0.00037795    0.00007574
     atom  134 type  1   force =    -0.00118357    0.00037795   -0.00007574
     atom  135 type  1   force =    -0.00118357   -0.00037795   -0.00007574
     atom  136 type  1   force =     0.00118357   -0.00037795    0.00007574
     atom  137 type  3   force =     0.00009708   -0.00020030   -0.00062966
     atom  138 type  3   force =    -0.00009708   -0.00020030    0.00062966
     atom  139 type  3   force =    -0.00009708    0.00020030    0.00062966
     atom  140 type  3   force =     0.00009708    0.00020030   -0.00062966
     atom  141 type  1   force =     0.00009607   -0.00013242   -0.00010113
     atom  142 type  1   force =    -0.00009607   -0.00013242    0.00010113
     atom  143 type  1   force =    -0.00009607    0.00013242    0.00010113
     atom  144 type  1   force =     0.00009607    0.00013242   -0.00010113
     atom  145 type  1   force =    -0.00015485    0.00011170   -0.00027311
     atom  146 type  1   force =     0.00015485    0.00011170    0.00027311
     atom  147 type  1   force =     0.00015485   -0.00011170    0.00027311
     atom  148 type  1   force =    -0.00015485   -0.00011170   -0.00027311
     atom  149 type  1   force =     0.00016018    0.00014518   -0.00028919
     atom  150 type  1   force =    -0.00016018    0.00014518    0.00028919
     atom  151 type  1   force =    -0.00016018   -0.00014518    0.00028919
     atom  152 type  1   force =     0.00016018   -0.00014518   -0.00028919
     atom  153 type  3   force =    -0.00006851   -0.00037707   -0.00012065
     atom  154 type  3   force =     0.00006851   -0.00037707    0.00012065
     atom  155 type  3   force =     0.00006851    0.00037707    0.00012065
     atom  156 type  3   force =    -0.00006851    0.00037707   -0.00012065
     atom  157 type  1   force =     0.00026756    0.00000054    0.00009560
     atom  158 type  1   force =    -0.00026756    0.00000054   -0.00009560
     atom  159 type  1   force =    -0.00026756   -0.00000054   -0.00009560
     atom  160 type  1   force =     0.00026756   -0.00000054    0.00009560
     atom  161 type  3   force =    -0.00034269   -0.00008892    0.00040781
     atom  162 type  3   force =     0.00034269   -0.00008892   -0.00040781
     atom  163 type  3   force =     0.00034269    0.00008892   -0.00040781
     atom  164 type  3   force =    -0.00034269    0.00008892    0.00040781
     atom  165 type  1   force =    -0.00057235   -0.00074371    0.00017675
     atom  166 type  1   force =     0.00057235   -0.00074371   -0.00017675
     atom  167 type  1   force =     0.00057235    0.00074371   -0.00017675
     atom  168 type  1   force =    -0.00057235    0.00074371    0.00017675
     atom  169 type  3   force =    -0.00008622    0.00000943   -0.00029409
     atom  170 type  3   force =     0.00008622    0.00000943    0.00029409
     atom  171 type  3   force =     0.00008622   -0.00000943    0.00029409
     atom  172 type  3   force =    -0.00008622   -0.00000943   -0.00029409
     atom  173 type  3   force =     0.00000124    0.00063097   -0.00033595
     atom  174 type  3   force =    -0.00000124    0.00063097    0.00033595
     atom  175 type  3   force =    -0.00000124   -0.00063097    0.00033595
     atom  176 type  3   force =     0.00000124   -0.00063097   -0.00033595

     Total force =     0.009589     Total SCF correction =     0.000116


     Computing stress (Cartesian axis) and pressure

          total   stress  (Ry/bohr**3)                   (kbar)     P=   -3.83
  -0.00003004   0.00000000  -0.00000044         -4.42      0.00     -0.07
   0.00000000  -0.00002059   0.00000000          0.00     -3.03      0.00
  -0.00000044   0.00000000  -0.00002757         -0.07      0.00     -4.06


     Writing output data file scf.save
 
     init_run     :    133.98s CPU    137.79s WALL (       1 calls)
     electrons    :   6851.66s CPU   7046.88s WALL (       1 calls)
     forces       :     71.74s CPU     72.33s WALL (       1 calls)
     stress       :    341.28s CPU    342.00s WALL (       1 calls)

     Called by init_run:
     wfcinit      :    114.15s CPU    117.69s WALL (       1 calls)
     potinit      :      6.99s CPU      7.04s WALL (       1 calls)

     Called by electrons:
     c_bands      :   6209.25s CPU   6373.10s WALL (      24 calls)
     sum_band     :    598.05s CPU    624.61s WALL (      24 calls)
     v_of_rho     :      6.19s CPU      6.70s WALL (      25 calls)
     newd         :     19.65s CPU     23.92s WALL (      25 calls)
     PAW_pot      :     17.12s CPU     17.12s WALL (      25 calls)
     mix_rho      :      1.72s CPU      1.88s WALL (      24 calls)

     Called by c_bands:
     init_us_2    :     19.37s CPU     19.57s WALL (     204 calls)
     cegterg      :   6124.58s CPU   6287.81s WALL (      96 calls)

     Called by sum_band:
     sum_band:bec :      0.27s CPU      0.27s WALL (      96 calls)
     addusdens    :     21.38s CPU     25.63s WALL (      24 calls)

     Called by *egterg:
     h_psi        :   2998.11s CPU   3127.68s WALL (     422 calls)
     s_psi        :    846.11s CPU    846.58s WALL (     422 calls)
     g_psi        :      9.56s CPU      9.57s WALL (     322 calls)
     cdiaghg      :    312.50s CPU    312.61s WALL (     418 calls)

     Called by h_psi:
     h_psi:pot    :   2983.81s CPU   3112.97s WALL (     422 calls)
     h_psi:calbec :    833.29s CPU    834.98s WALL (     422 calls)
     vloc_psi     :   1305.24s CPU   1432.10s WALL (     422 calls)
     add_vuspsi   :    845.27s CPU    845.88s WALL (     422 calls)

     General routines
     calbec       :   1202.44s CPU   1204.81s WALL (     538 calls)
     fft          :      6.60s CPU      7.51s WALL (     349 calls)
     fftw         :   1339.50s CPU   1487.07s WALL (  222558 calls)
 
     Parallel routines
     fft_scatter  :    334.57s CPU    482.62s WALL (  222907 calls)
 
     PWSCF        :     2h 3m CPU        2h 7m WALL

 
   This run was terminated on:   9:43:13  20Dec2017            

=------------------------------------------------------------------------------=
   JOB DONE.
=------------------------------------------------------------------------------=
