
     Program PWSCF v.6.1 (svn rev. 13369) starts on 15Dec2017 at  5:56:51 

     This program is part of the open-source Quantum ESPRESSO suite
     for quantum simulation of materials; please cite
         "P. Giannozzi et al., J. Phys.:Condens. Matter 21 395502 (2009);
          URL http://www.quantum-espresso.org", 
     in publications or presentations arising from this work. More details at
     http://www.quantum-espresso.org/quote

     Parallel version (MPI), running on     8 processors
     R & G space division:  proc/nbgrp/npool/nimage =       8
     Waiting for input...
     Reading input from standard input

     Current dimensions of program PWSCF are:
     Max number of different atomic species (ntypx) = 10
     Max number of k-points (npk) =  40000
     Max angular momentum in pseudopotentials (lmaxx) =  3
               file C.pbe-n-kjpaw_psl.0.1.UPF: wavefunction(s)  2P renormalized
               file N.pbe-n-kjpaw_psl.0.1.UPF: wavefunction(s)  2P renormalized
               file H.pbe-kjpaw_psl.0.1.UPF: wavefunction(s)  1S renormalized
               file O.pbe-n-kjpaw_psl.0.1.UPF: wavefunction(s)  2P renormalized

     -------------------------------------
     Parameters for Dispersion Correction:
     -------------------------------------
       atom      VdW radius       C_6     

        C          2.744         60.710
        N          2.640         42.670
        H          1.892          4.857
        O          2.536         24.284

     Subspace diagonalization in iterative solution of the eigenvalue problem:
     a serial algorithm will be used

 
     Parallelization info
     --------------------
     sticks:   dense  smooth     PW     G-vecs:    dense   smooth      PW
     Min        1138    1138    304               106086   106086   14738
     Max        1139    1139    305               106089   106089   14743
     Sum        9107    9107   2437               848701   848701  117921
 


     bravais-lattice index     =            0
     lattice parameter (alat)  =      28.0889  a.u.
     unit-cell volume          =    6281.9970 (a.u.)^3
     number of atoms/cell      =           88
     number of atomic types    =            4
     number of electrons       =       384.00
     number of Kohn-Sham states=          230
     kinetic-energy cutoff     =     100.0000  Ry
     charge density cutoff     =     400.0000  Ry
     convergence threshold     =      1.0E-08
     mixing beta               =       0.5000
     number of iterations used =            8  plain     mixing
     Exchange-correlation      =  SLA  PW   PBX  PBC ( 1  4  3  4 0 0)

     celldm(1)=  28.088889  celldm(2)=   0.000000  celldm(3)=   0.000000
     celldm(4)=   0.000000  celldm(5)=   0.000000  celldm(6)=   0.000000

     crystal axes: (cart. coord. in units of alat)
               a(1) = (   1.000000   0.000000   0.000000 )  
               a(2) = (   0.000000   0.362285   0.000000 )  
               a(3) = (   0.000000   0.000000   0.782427 )  

     reciprocal axes: (cart. coord. in units 2 pi/alat)
               b(1) = (  1.000000  0.000000  0.000000 )  
               b(2) = (  0.000000  2.760260  0.000000 )  
               b(3) = (  0.000000  0.000000  1.278074 )  


     PseudoPot. # 1 for  C read from file:
     /scratch/ahofstet/pseudo/C.pbe-n-kjpaw_psl.0.1.UPF
     MD5 check sum: 430fe95172b1e11ef3f8ed03bac87931
     Pseudo is Projector augmented-wave + core cor, Zval =  4.0
     Generated using "atomic" code by A. Dal Corso  v.5.0.99 svn rev. 10869
     Shape of augmentation charge: BESSEL
     Using radial grid of 1073 points,  4 beta functions with: 
                l(1) =   0
                l(2) =   0
                l(3) =   1
                l(4) =   1
     Q(r) pseudized with 0 coefficients 


     PseudoPot. # 2 for  N read from file:
     /scratch/ahofstet/pseudo/N.pbe-n-kjpaw_psl.0.1.UPF
     MD5 check sum: f73187c8b701007e77325f868c9291d7
     Pseudo is Projector augmented-wave + core cor, Zval =  5.0
     Generated using "atomic" code by A. Dal Corso  v.5.0.99 svn rev. 10869
     Shape of augmentation charge: PSQ
     Using radial grid of 1085 points,  4 beta functions with: 
                l(1) =   0
                l(2) =   0
                l(3) =   1
                l(4) =   1
     Q(r) pseudized with 0 coefficients 


     PseudoPot. # 3 for  H read from file:
     /scratch/ahofstet/pseudo/H.pbe-kjpaw_psl.0.1.UPF
     MD5 check sum: 94e484f906d9e9773b2f6e52662335b2
     Pseudo is Projector augmented-wave, Zval =  1.0
     Generated using "atomic" code by A. Dal Corso  v.5.0.99 svn rev. 10869
     Shape of augmentation charge: PSQ
     Using radial grid of  929 points,  2 beta functions with: 
                l(1) =   0
                l(2) =   0
     Q(r) pseudized with 0 coefficients 


     PseudoPot. # 4 for  O read from file:
     /scratch/ahofstet/pseudo/O.pbe-n-kjpaw_psl.0.1.UPF
     MD5 check sum: 3f94a2996a3169367d6eb21d9b593f20
     Pseudo is Projector augmented-wave + core cor, Zval =  6.0
     Generated using "atomic" code by A. Dal Corso  v.5.0.99 svn rev. 10869
     Shape of augmentation charge: BESSEL
     Using radial grid of 1095 points,  4 beta functions with: 
                l(1) =   0
                l(2) =   0
                l(3) =   1
                l(4) =   1
     Q(r) pseudized with 0 coefficients 


     atomic species   valence    mass     pseudopotential
        C              4.00    12.01070      C( 1.00)
        N              5.00    14.00670      N( 1.00)
        H              1.00     1.00794      H( 1.00)
        O              6.00    15.99940      O( 1.00)

      4 Sym. Ops. (no inversion) found ( 3 have fractional translation)



   Cartesian axes

     site n.     atom                  positions (alat units)
         1           O   tau(   1) = (   0.0563554   0.0642883   0.0008538  )
         2           O   tau(   2) = (   0.4436446   0.2454307   0.3920674  )
         3           O   tau(   3) = (   0.5563554   0.1168541   0.0008538  )
         4           O   tau(   4) = (   0.9436446   0.2979964   0.3920674  )
         5           O   tau(   5) = (   0.9424553   0.2617785   0.1865446  )
         6           O   tau(   6) = (   0.5575447   0.0806361   0.5777582  )
         7           O   tau(   7) = (   0.4424553   0.2816486   0.1865446  )
         8           O   tau(   8) = (   0.0575447   0.1005062   0.5777582  )
         9           O   tau(   9) = (   0.8969851   0.2767779   0.0466692  )
        10           O   tau(  10) = (   0.6030149   0.0956355   0.4378828  )
        11           O   tau(  11) = (   0.3969851   0.2666492   0.0466692  )
        12           O   tau(  12) = (   0.1030149   0.0855068   0.4378828  )
        13           N   tau(  13) = (   0.0032731   0.1371509   0.7813321  )
        14           N   tau(  14) = (   0.4967269   0.3182933   0.3901184  )
        15           N   tau(  15) = (   0.5032731   0.0439915   0.7813321  )
        16           N   tau(  16) = (   0.9967269   0.2251338   0.3901184  )
        17           N   tau(  17) = (   0.0804704   0.0402607   0.0888860  )
        18           N   tau(  18) = (   0.4195296   0.2214031   0.4800996  )
        19           N   tau(  19) = (   0.5804704   0.1408816   0.0888860  )
        20           N   tau(  20) = (   0.9195296   0.3220240   0.4800996  )
        21           N   tau(  21) = (   0.9402370   0.2386507   0.1064239  )
        22           N   tau(  22) = (   0.5597630   0.0575084   0.4976376  )
        23           N   tau(  23) = (   0.4402370   0.3047763   0.1064239  )
        24           N   tau(  24) = (   0.0597630   0.1236340   0.4976376  )
        25           N   tau(  25) = (   0.0512656   0.1045662   0.2311079  )
        26           N   tau(  26) = (   0.4487344   0.2857085   0.6223215  )
        27           N   tau(  27) = (   0.5512656   0.0765762   0.2311079  )
        28           N   tau(  28) = (   0.9487344   0.2577185   0.6223215  )
        29           C   tau(  29) = (   0.9932412   0.1615559   0.0833076  )
        30           C   tau(  30) = (   0.5067588   0.3426982   0.4745213  )
        31           C   tau(  31) = (   0.4932412   0.0195865   0.0833076  )
        32           C   tau(  32) = (   0.0067588   0.2007288   0.4745213  )
        33           C   tau(  33) = (   0.0419325   0.1017435   0.1420203  )
        34           C   tau(  34) = (   0.4580675   0.2828858   0.5332340  )
        35           C   tau(  35) = (   0.5419325   0.0793989   0.1420203  )
        36           C   tau(  36) = (   0.9580675   0.2605413   0.5332340  )
        37           H   tau(  37) = (   0.0846911   0.0526754   0.2617284  )
        38           H   tau(  38) = (   0.4153089   0.2338177   0.6529421  )
        39           H   tau(  39) = (   0.5846911   0.1284670   0.2617284  )
        40           H   tau(  40) = (   0.9153089   0.3096093   0.6529421  )
        41           H   tau(  41) = (   0.0191801   0.1523121   0.2683969  )
        42           H   tau(  42) = (   0.4808199   0.3334544   0.6596106  )
        43           H   tau(  43) = (   0.5191801   0.0288303   0.2683969  )
        44           H   tau(  44) = (   0.9808199   0.2099726   0.6596106  )
        45           O   tau(  45) = (   0.1894505   0.2835757   0.3606008  )
        46           O   tau(  46) = (   0.3105495   0.1024334   0.7518144  )
        47           O   tau(  47) = (   0.6894505   0.2598513   0.3606008  )
        48           O   tau(  48) = (   0.8105495   0.0787090   0.7518144  )
        49           O   tau(  49) = (   0.3171112   0.0957579   0.1745339  )
        50           O   tau(  50) = (   0.1828888   0.2769003   0.5657476  )
        51           O   tau(  51) = (   0.8171112   0.0853844   0.1745339  )
        52           O   tau(  52) = (   0.6828888   0.2665268   0.5657476  )
        53           O   tau(  53) = (   0.3504101   0.0720442   0.3166764  )
        54           O   tau(  54) = (   0.1495899   0.2531865   0.7078900  )
        55           O   tau(  55) = (   0.8504101   0.1090982   0.3166764  )
        56           O   tau(  56) = (   0.6495899   0.2902405   0.7078900  )
        57           N   tau(  57) = (   0.2443446   0.2121305   0.3632402  )
        58           N   tau(  58) = (   0.2556554   0.0309881   0.7544538  )
        59           N   tau(  59) = (   0.7443446   0.3312966   0.3632402  )
        60           N   tau(  60) = (   0.7556554   0.1501543   0.7544538  )
        61           N   tau(  61) = (   0.1674840   0.3086949   0.2719784  )
        62           N   tau(  62) = (   0.3325160   0.1275525   0.6631921  )
        63           N   tau(  63) = (   0.6674840   0.2347322   0.2719784  )
        64           N   tau(  64) = (   0.8325160   0.0535898   0.6631921  )
        65           N   tau(  65) = (   0.3127361   0.1140323   0.2559513  )
        66           N   tau(  66) = (   0.1872639   0.2951746   0.6471650  )
        67           N   tau(  67) = (   0.8127361   0.0671101   0.2559513  )
        68           N   tau(  68) = (   0.6872639   0.2482524   0.6471650  )
        69           N   tau(  69) = (   0.2031952   0.2463499   0.1296818  )
        70           N   tau(  70) = (   0.2968048   0.0652076   0.5208954  )
        71           N   tau(  71) = (   0.7031952   0.2970771   0.1296818  )
        72           N   tau(  72) = (   0.7968048   0.1159348   0.5208954  )
        73           C   tau(  73) = (   0.2579853   0.1899981   0.2787495  )
        74           C   tau(  74) = (   0.2420147   0.0088557   0.6699632  )
        75           C   tau(  75) = (   0.7579853   0.3534290   0.2787495  )
        76           C   tau(  76) = (   0.7420147   0.1722866   0.6699632  )
        77           C   tau(  77) = (   0.2097515   0.2494695   0.2193482  )
        78           C   tau(  78) = (   0.2902485   0.0683271   0.6105619  )
        79           C   tau(  79) = (   0.7097515   0.2939576   0.2193482  )
        80           C   tau(  80) = (   0.7902485   0.1128152   0.6105619  )
        81           H   tau(  81) = (   0.1736776   0.2998154   0.0977210  )
        82           H   tau(  82) = (   0.3263224   0.1186730   0.4889347  )
        83           H   tau(  83) = (   0.6736776   0.2436117   0.0977210  )
        84           H   tau(  84) = (   0.8263224   0.0624693   0.4889347  )
        85           H   tau(  85) = (   0.2490284   0.2085052   0.0959443  )
        86           H   tau(  86) = (   0.2509716   0.0273628   0.4871579  )
        87           H   tau(  87) = (   0.7490284   0.3349219   0.0959443  )
        88           H   tau(  88) = (   0.7509716   0.1537795   0.4871579  )

     number of k points=    12
                       cart. coord. in units 2pi/alat
        k(    1) = (   0.0000000   0.0000000   0.0000000), wk =   0.1250000
        k(    2) = (   0.0000000   0.0000000  -0.6390370), wk =   0.1250000
        k(    3) = (   0.0000000   0.6900650   0.0000000), wk =   0.2500000
        k(    4) = (   0.0000000   0.6900650  -0.6390370), wk =   0.2500000
        k(    5) = (   0.0000000  -1.3801300   0.0000000), wk =   0.1250000
        k(    6) = (   0.0000000  -1.3801300  -0.6390370), wk =   0.1250000
        k(    7) = (  -0.5000000   0.0000000   0.0000000), wk =   0.1250000
        k(    8) = (  -0.5000000   0.0000000  -0.6390370), wk =   0.1250000
        k(    9) = (  -0.5000000   0.6900650   0.0000000), wk =   0.2500000
        k(   10) = (  -0.5000000   0.6900650  -0.6390370), wk =   0.2500000
        k(   11) = (  -0.5000000  -1.3801300   0.0000000), wk =   0.1250000
        k(   12) = (  -0.5000000  -1.3801300  -0.6390370), wk =   0.1250000

     Dense  grid:   848701 G-vectors     FFT dimensions: ( 180,  72, 144)

     Estimated max dynamical RAM per process >    1191.61MB

     Estimated total allocated dynamical RAM >    9532.88MB

     Check: negative/imaginary core charge=   -0.000002    0.000000

     Initial potential from superposition of free atoms

     starting charge  383.99891, renormalised to  384.00000
     Starting wfc are  304 randomized atomic wfcs
     Checking if some PAW data can be deallocated... 

     total cpu time spent up to now is       80.3 secs

     per-process dynamical memory:   879.0 Mb

     Self-consistent Calculation

     iteration #  1     ecut=   100.00 Ry     beta=0.50
     Davidson diagonalization with overlap
     ethr =  1.00E-02,  avg # of iterations =  3.1

     total cpu time spent up to now is      343.7 secs

     total energy              =   -2211.70187063 Ry
     Harris-Foulkes estimate   =   -2216.59695791 Ry
     estimated scf accuracy    <       8.83951925 Ry

     iteration #  2     ecut=   100.00 Ry     beta=0.50
     Davidson diagonalization with overlap
     ethr =  2.30E-03,  avg # of iterations =  3.0

     total cpu time spent up to now is      542.6 secs

     total energy              =   -2213.29281818 Ry
     Harris-Foulkes estimate   =   -2214.60301185 Ry
     estimated scf accuracy    <       2.85624157 Ry

     iteration #  3     ecut=   100.00 Ry     beta=0.50
     Davidson diagonalization with overlap
     ethr =  7.44E-04,  avg # of iterations =  3.2

     total cpu time spent up to now is      715.9 secs

     total energy              =   -2213.86694216 Ry
     Harris-Foulkes estimate   =   -2213.94472607 Ry
     estimated scf accuracy    <       0.23700896 Ry

     iteration #  4     ecut=   100.00 Ry     beta=0.50
     Davidson diagonalization with overlap
     ethr =  6.17E-05,  avg # of iterations =  8.7

     total cpu time spent up to now is     1012.9 secs

     total energy              =   -2213.91260099 Ry
     Harris-Foulkes estimate   =   -2213.95454073 Ry
     estimated scf accuracy    <       0.11003843 Ry

     iteration #  5     ecut=   100.00 Ry     beta=0.50
     Davidson diagonalization with overlap
     ethr =  2.87E-05,  avg # of iterations =  3.8

     total cpu time spent up to now is     1176.8 secs

     total energy              =   -2213.93016354 Ry
     Harris-Foulkes estimate   =   -2213.93872104 Ry
     estimated scf accuracy    <       0.02598662 Ry

     iteration #  6     ecut=   100.00 Ry     beta=0.50
     Davidson diagonalization with overlap
     ethr =  6.77E-06,  avg # of iterations =  4.9

     total cpu time spent up to now is     1369.7 secs

     total energy              =   -2213.93515481 Ry
     Harris-Foulkes estimate   =   -2213.93721216 Ry
     estimated scf accuracy    <       0.00585269 Ry

     iteration #  7     ecut=   100.00 Ry     beta=0.50
     Davidson diagonalization with overlap
     ethr =  1.52E-06,  avg # of iterations =  3.6

     total cpu time spent up to now is     1530.4 secs

     total energy              =   -2213.93608192 Ry
     Harris-Foulkes estimate   =   -2213.93631324 Ry
     estimated scf accuracy    <       0.00066437 Ry

     iteration #  8     ecut=   100.00 Ry     beta=0.50
     Davidson diagonalization with overlap
     ethr =  1.73E-07,  avg # of iterations =  3.0

     total cpu time spent up to now is     1749.5 secs

     total energy              =   -2213.93629177 Ry
     Harris-Foulkes estimate   =   -2213.93634812 Ry
     estimated scf accuracy    <       0.00017612 Ry

     iteration #  9     ecut=   100.00 Ry     beta=0.50
     Davidson diagonalization with overlap
     ethr =  4.59E-08,  avg # of iterations =  2.0

     total cpu time spent up to now is     1909.2 secs

     total energy              =   -2213.93631776 Ry
     Harris-Foulkes estimate   =   -2213.93633017 Ry
     estimated scf accuracy    <       0.00003932 Ry

     iteration # 10     ecut=   100.00 Ry     beta=0.50
     Davidson diagonalization with overlap
     ethr =  1.02E-08,  avg # of iterations =  2.7

     total cpu time spent up to now is     2071.0 secs

     total energy              =   -2213.93632358 Ry
     Harris-Foulkes estimate   =   -2213.93632652 Ry
     estimated scf accuracy    <       0.00000915 Ry

     iteration # 11     ecut=   100.00 Ry     beta=0.50
     Davidson diagonalization with overlap
     ethr =  2.38E-09,  avg # of iterations =  3.0

     total cpu time spent up to now is     2287.1 secs

     total energy              =   -2213.93632603 Ry
     Harris-Foulkes estimate   =   -2213.93632675 Ry
     estimated scf accuracy    <       0.00000175 Ry

     iteration # 12     ecut=   100.00 Ry     beta=0.50
     Davidson diagonalization with overlap
     ethr =  4.57E-10,  avg # of iterations =  3.0

     total cpu time spent up to now is     2448.6 secs

     total energy              =   -2213.93632638 Ry
     Harris-Foulkes estimate   =   -2213.93632647 Ry
     estimated scf accuracy    <       0.00000038 Ry

     iteration # 13     ecut=   100.00 Ry     beta=0.50
     Davidson diagonalization with overlap
     ethr =  9.89E-11,  avg # of iterations =  3.0

     total cpu time spent up to now is     2662.0 secs

     total energy              =   -2213.93632648 Ry
     Harris-Foulkes estimate   =   -2213.93632652 Ry
     estimated scf accuracy    <       0.00000009 Ry

     iteration # 14     ecut=   100.00 Ry     beta=0.50
     Davidson diagonalization with overlap
     ethr =  2.37E-11,  avg # of iterations =  2.0

     total cpu time spent up to now is     2818.7 secs

     total energy              =   -2213.93632650 Ry
     Harris-Foulkes estimate   =   -2213.93632650 Ry
     estimated scf accuracy    <       0.00000001 Ry

     iteration # 15     ecut=   100.00 Ry     beta=0.50
     Davidson diagonalization with overlap
     ethr =  3.89E-12,  avg # of iterations =  3.0

     total cpu time spent up to now is     3051.3 secs

     End of self-consistent calculation

          k = 0.0000 0.0000 0.0000 (106073 PWs)   bands (ev):

   -23.6418 -23.6379 -23.6358 -23.6332 -23.5738 -23.5737 -23.5712 -23.5702
   -22.7390 -22.7378 -22.7346 -22.7321 -22.7065 -22.7039 -22.7018 -22.6979
   -19.1724 -19.1722 -19.1705 -19.1702 -19.1158 -19.1157 -19.1132 -19.1129
   -16.5518 -16.5444 -16.5380 -16.5231 -16.3583 -16.3497 -16.3332 -16.3329
   -15.5298 -15.4955 -15.4902 -15.4891 -15.4583 -15.4444 -15.4369 -15.4299
   -13.9931 -13.9924 -13.9641 -13.9310 -13.8412 -13.8154 -13.7978 -13.7907
   -11.5697 -11.5573 -11.5535 -11.5534 -11.5224 -11.4880 -11.4878 -11.4663
    -8.7076  -8.6974  -8.6809  -8.6317  -8.5363  -8.5245  -8.5060  -8.4622
    -8.2179  -8.1060  -8.1051  -8.0999  -8.0504  -7.9871  -7.9356  -7.8867
    -6.6814  -6.6014  -6.5933  -6.5579  -6.5173  -6.4707  -6.4617  -6.4160
    -6.1613  -6.1289  -6.0958  -6.0786  -6.0433  -6.0004  -5.9735  -5.9442
    -5.9020  -5.8772  -5.8586  -5.8405  -5.8229  -5.8137  -5.7862  -5.7452
    -5.3976  -5.3941  -5.3560  -5.3262  -5.1502  -5.1461  -5.1326  -5.1284
    -5.1085  -5.0676  -4.9597  -4.9586  -4.9314  -4.9286  -4.8866  -4.8660
    -4.8326  -4.7884  -4.7509  -4.7272  -4.5747  -4.5317  -4.4992  -4.3864
    -3.4593  -3.3616  -3.3566  -3.2637  -3.2552  -3.2403  -3.2300  -3.2194
    -2.1221  -2.0873  -2.0847  -2.0607  -1.5931  -1.5786  -1.5727  -1.5592
    -1.5058  -1.4527  -1.4058  -1.3576  -1.1421  -1.0745  -0.9629  -0.8886
    -0.7196  -0.7034  -0.6769  -0.6280  -0.6157  -0.6101  -0.5176  -0.5111
    -0.4684  -0.4672  -0.4642  -0.3914  -0.3836  -0.3836  -0.3791  -0.3602
    -0.3150  -0.2786  -0.2661  -0.2321  -0.1706  -0.1638  -0.1371  -0.1325
     0.0130   0.0766   0.0881   0.0891   0.1481   0.1812   0.2314   0.2316
     0.4366   0.4519   0.4545   0.4942   0.5469   0.5555   0.5750   0.5891
     1.4664   1.5064   1.5174   1.5719   1.7062   1.7482   1.7520   1.7528
     3.6128   3.6465   3.6946   3.7478   3.8042   3.8495   3.8949   3.8960
     5.3633   5.3827   5.4129   5.4874   5.8455   5.8517   5.8579   5.9190
     7.5139   7.5565   7.7055   7.7905   8.0287   8.0296   8.0543   8.0916
     8.2038   8.2197   8.3082   8.3374   8.3945   8.4331   8.4352   8.4829
     8.5308   9.0738   9.2499   9.3069   9.4001   9.4157

          k = 0.0000 0.0000-0.6390 (106070 PWs)   bands (ev):

   -23.6376 -23.6376 -23.6368 -23.6368 -23.5725 -23.5725 -23.5718 -23.5718
   -22.7384 -22.7384 -22.7334 -22.7334 -22.7052 -22.7052 -22.6998 -22.6998
   -19.1714 -19.1714 -19.1713 -19.1713 -19.1145 -19.1145 -19.1142 -19.1142
   -16.5407 -16.5407 -16.5377 -16.5377 -16.3462 -16.3462 -16.3425 -16.3425
   -15.5112 -15.5112 -15.4907 -15.4907 -15.4527 -15.4527 -15.4320 -15.4320
   -13.9749 -13.9749 -13.9621 -13.9621 -13.8186 -13.8186 -13.8055 -13.8055
   -11.5598 -11.5598 -11.5588 -11.5588 -11.4915 -11.4915 -11.4903 -11.4903
    -8.6968  -8.6968  -8.6678  -8.6678  -8.5244  -8.5244  -8.4974  -8.4974
    -8.1614  -8.1614  -8.0782  -8.0782  -8.0226  -8.0226  -7.9417  -7.9417
    -6.6113  -6.6113  -6.5558  -6.5558  -6.5075  -6.5075  -6.4292  -6.4292
    -6.1198  -6.1198  -6.0795  -6.0795  -6.0023  -6.0023  -5.9888  -5.9888
    -5.8742  -5.8742  -5.8467  -5.8467  -5.8332  -5.8332  -5.7682  -5.7682
    -5.4076  -5.4076  -5.3903  -5.3903  -5.1434  -5.1434  -5.1091  -5.1091
    -5.0348  -5.0348  -5.0325  -5.0325  -4.9175  -4.9175  -4.8579  -4.8579
    -4.8064  -4.8064  -4.7545  -4.7545  -4.5293  -4.5293  -4.4966  -4.4966
    -3.3694  -3.3694  -3.3226  -3.3226  -3.2676  -3.2676  -3.2392  -3.2392
    -2.1036  -2.1036  -2.0752  -2.0752  -1.5711  -1.5711  -1.5649  -1.5649
    -1.4286  -1.4286  -1.4257  -1.4257  -1.0294  -1.0294  -0.9672  -0.9672
    -0.6885  -0.6885  -0.6806  -0.6806  -0.6593  -0.6593  -0.4903  -0.4903
    -0.4880  -0.4880  -0.4485  -0.4485  -0.4022  -0.4022  -0.3522  -0.3522
    -0.2708  -0.2708  -0.2521  -0.2521  -0.1800  -0.1800  -0.1162  -0.1162
     0.0337   0.0337   0.0897   0.0897   0.1567   0.1567   0.2379   0.2379
     0.4531   0.4531   0.4837   0.4837   0.5659   0.5659   0.5721   0.5721
     1.4924   1.4924   1.5358   1.5358   1.7332   1.7332   1.7551   1.7551
     3.6622   3.6622   3.6635   3.6635   3.8657   3.8657   3.8782   3.8782
     5.3999   5.3999   5.4218   5.4218   5.8573   5.8573   5.8828   5.8828
     7.6018   7.6018   7.6154   7.6154   7.9556   7.9556   8.0390   8.0390
     8.2733   8.2733   8.2774   8.2774   8.4488   8.4488   8.5096   8.5096
     8.8757   8.8757   9.2382   9.2383   9.3953   9.3980

          k = 0.0000 0.6901 0.0000 (106070 PWs)   bands (ev):

   -23.6340 -23.6318 -23.6301 -23.6287 -23.5730 -23.5719 -23.5710 -23.5705
   -22.7433 -22.7424 -22.7372 -22.7353 -22.7098 -22.7082 -22.7033 -22.7007
   -19.1721 -19.1719 -19.1707 -19.1704 -19.1153 -19.1152 -19.1129 -19.1126
   -16.5288 -16.5228 -16.5174 -16.5075 -16.3823 -16.3790 -16.3612 -16.3607
   -15.5257 -15.5033 -15.4907 -15.4878 -15.4660 -15.4610 -15.4317 -15.4253
   -13.9764 -13.9725 -13.9484 -13.9269 -13.8453 -13.8356 -13.8099 -13.8038
   -11.5672 -11.5473 -11.5468 -11.5429 -11.5068 -11.4993 -11.4789 -11.4719
    -8.7214  -8.6841  -8.6808  -8.6535  -8.5241  -8.5128  -8.4796  -8.4673
    -8.1875  -8.1858  -8.1128  -8.0977  -8.0527  -8.0000  -7.8998  -7.8896
    -6.6407  -6.6128  -6.5845  -6.5269  -6.5220  -6.5063  -6.4586  -6.4287
    -6.2107  -6.1956  -6.1762  -6.1381  -6.1258  -6.0940  -6.0612  -6.0496
    -5.9265  -5.9171  -5.8688  -5.8507  -5.8314  -5.8170  -5.7565  -5.7519
    -5.3941  -5.3646  -5.3437  -5.3104  -5.2213  -5.2126  -5.1887  -5.1287
    -5.0180  -4.9559  -4.9228  -4.9160  -4.8507  -4.8379  -4.8042  -4.7993
    -4.7412  -4.7184  -4.6348  -4.6207  -4.5563  -4.4817  -4.4709  -4.3868
    -3.4349  -3.3534  -3.3483  -3.2801  -3.2723  -3.2682  -3.2322  -3.2213
    -2.1415  -2.1274  -2.1047  -2.1042  -1.6059  -1.5691  -1.5073  -1.5058
    -1.4642  -1.4252  -1.4232  -1.3514  -1.1072  -1.0756  -0.9171  -0.8783
    -0.6800  -0.6540  -0.6479  -0.6077  -0.5815  -0.5621  -0.5085  -0.5084
    -0.4854  -0.4575  -0.4420  -0.4342  -0.4147  -0.3968  -0.3569  -0.3521
    -0.3235  -0.2974  -0.2562  -0.2553  -0.2330  -0.2029  -0.1528  -0.1416
     0.0145   0.0236   0.0745   0.0903   0.1476   0.1695   0.1752   0.2406
     0.4506   0.4545   0.4870   0.4882   0.5239   0.5587   0.5651   0.5808
     1.4156   1.4157   1.4241   1.4888   1.7834   1.7947   1.8142   1.8369
     3.6443   3.6981   3.6997   3.7508   3.8021   3.8316   3.8454   3.8862
     5.4338   5.4404   5.5037   5.5194   5.7822   5.7974   5.8062   5.8790
     7.5041   7.6381   7.6722   7.7744   7.9572   8.0040   8.0340   8.0384
     8.0950   8.1887   8.2369   8.3411   8.4000   8.4336   8.4791   8.4896
     8.7716   9.1415   9.1901   9.2937   9.3550   9.3724

          k = 0.0000 0.6901-0.6390 (106156 PWs)   bands (ev):

   -23.6321 -23.6321 -23.6302 -23.6302 -23.5720 -23.5720 -23.5711 -23.5711
   -22.7429 -22.7429 -22.7361 -22.7361 -22.7089 -22.7089 -22.7021 -22.7021
   -19.1718 -19.1718 -19.1707 -19.1707 -19.1141 -19.1141 -19.1139 -19.1139
   -16.5205 -16.5205 -16.5176 -16.5176 -16.3726 -16.3726 -16.3703 -16.3703
   -15.5179 -15.5179 -15.4830 -15.4830 -15.4620 -15.4620 -15.4326 -15.4326
   -13.9659 -13.9659 -13.9445 -13.9445 -13.8280 -13.8280 -13.8188 -13.8188
   -11.5601 -11.5601 -11.5381 -11.5381 -11.5011 -11.5011 -11.4830 -11.4830
    -8.7138  -8.7138  -8.6594  -8.6594  -8.5156  -8.5156  -8.4850  -8.4850
    -8.1718  -8.1718  -8.1091  -8.1091  -8.0000  -8.0000  -7.9378  -7.9378
    -6.6595  -6.6595  -6.5147  -6.5147  -6.5045  -6.5045  -6.4162  -6.4162
    -6.1915  -6.1915  -6.1424  -6.1424  -6.0896  -6.0896  -6.0750  -6.0750
    -5.9242  -5.9242  -5.8642  -5.8642  -5.8226  -5.8226  -5.7594  -5.7594
    -5.3883  -5.3883  -5.3571  -5.3571  -5.2243  -5.2243  -5.1561  -5.1561
    -4.9851  -4.9851  -4.9069  -4.9069  -4.8716  -4.8716  -4.7808  -4.7808
    -4.7239  -4.7239  -4.6341  -4.6341  -4.5144  -4.5144  -4.4485  -4.4485
    -3.3739  -3.3739  -3.3274  -3.3274  -3.2741  -3.2741  -3.2479  -3.2479
    -2.1276  -2.1276  -2.1106  -2.1106  -1.5474  -1.5474  -1.5254  -1.5254
    -1.4451  -1.4451  -1.3815  -1.3815  -1.0122  -1.0122  -0.9648  -0.9648
    -0.6729  -0.6729  -0.6342  -0.6342  -0.5999  -0.5999  -0.4868  -0.4868
    -0.4673  -0.4673  -0.4507  -0.4507  -0.4161  -0.4161  -0.3674  -0.3674
    -0.3134  -0.3134  -0.2470  -0.2470  -0.2043  -0.2043  -0.1420  -0.1420
     0.0317   0.0317   0.0604   0.0604   0.1637   0.1637   0.2085   0.2085
     0.4665   0.4665   0.4883   0.4883   0.5462   0.5462   0.5742   0.5742
     1.4137   1.4137   1.4615   1.4615   1.7950   1.7950   1.8218   1.8218
     3.6765   3.6765   3.7042   3.7042   3.8327   3.8327   3.8628   3.8628
     5.4471   5.4471   5.5016   5.5016   5.7916   5.7916   5.8418   5.8418
     7.5843   7.5843   7.6716   7.6716   7.9203   7.9203   8.0067   8.0067
     8.2100   8.2100   8.2627   8.2627   8.4118   8.4118   8.4831   8.4831
     9.0348   9.0348   9.2588   9.2588   9.3294   9.3295

          k = 0.0000-1.3801 0.0000 (106068 PWs)   bands (ev):

   -23.6248 -23.6248 -23.6247 -23.6247 -23.5724 -23.5724 -23.5702 -23.5702
   -22.7473 -22.7473 -22.7391 -22.7391 -22.7127 -22.7127 -22.7042 -22.7042
   -19.1713 -19.1713 -19.1711 -19.1711 -19.1148 -19.1148 -19.1125 -19.1125
   -16.4872 -16.4872 -16.4861 -16.4861 -16.4210 -16.4210 -16.3995 -16.3995
   -15.5157 -15.5157 -15.4874 -15.4874 -15.4748 -15.4748 -15.4266 -15.4266
   -13.9424 -13.9424 -13.9360 -13.9360 -13.8557 -13.8557 -13.8218 -13.8218
   -11.5504 -11.5504 -11.5352 -11.5352 -11.5019 -11.5019 -11.4744 -11.4744
    -8.7089  -8.7089  -8.6710  -8.6710  -8.5022  -8.5022  -8.4685  -8.4685
    -8.1868  -8.1868  -8.1402  -8.1402  -8.0180  -8.0180  -7.8872  -7.8872
    -6.5751  -6.5751  -6.5459  -6.5459  -6.5295  -6.5295  -6.4727  -6.4727
    -6.2598  -6.2598  -6.2366  -6.2366  -6.1946  -6.1946  -6.1135  -6.1135
    -5.9545  -5.9545  -5.8407  -5.8407  -5.8185  -5.8185  -5.7666  -5.7666
    -5.3518  -5.3518  -5.3182  -5.3182  -5.2727  -5.2727  -5.1956  -5.1956
    -4.9839  -4.9839  -4.8685  -4.8685  -4.7669  -4.7669  -4.6901  -4.6901
    -4.6349  -4.6349  -4.5520  -4.5520  -4.4729  -4.4729  -4.4175  -4.4175
    -3.3572  -3.3572  -3.3418  -3.3418  -3.2847  -3.2847  -3.2300  -3.2300
    -2.1542  -2.1542  -2.1409  -2.1409  -1.5556  -1.5556  -1.4709  -1.4709
    -1.4514  -1.4514  -1.3538  -1.3538  -1.0655  -1.0655  -0.8749  -0.8749
    -0.6677  -0.6677  -0.5820  -0.5820  -0.5346  -0.5346  -0.5080  -0.5080
    -0.4915  -0.4915  -0.4221  -0.4221  -0.3630  -0.3630  -0.3571  -0.3571
    -0.3216  -0.3216  -0.2859  -0.2859  -0.2251  -0.2251  -0.2197  -0.2197
    -0.0002  -0.0002   0.0611   0.0611   0.1427   0.1427   0.1962   0.1962
     0.4731   0.4731   0.4975   0.4975   0.5257   0.5257   0.5644   0.5644
     1.3550   1.3550   1.3993   1.3993   1.8274   1.8274   1.8825   1.8825
     3.7071   3.7071   3.7447   3.7447   3.8001   3.8001   3.8341   3.8341
     5.5519   5.5519   5.6008   5.6008   5.6910   5.6910   5.7418   5.7418
     7.5790   7.5790   7.7171   7.7171   7.9412   7.9412   7.9833   7.9833
     8.0964   8.0964   8.2939   8.2939   8.4002   8.4002   8.4217   8.4217
     9.2184   9.2185   9.2958   9.2958   9.3655   9.3658

          k = 0.0000-1.3801-0.6390 (106136 PWs)   bands (ev):

   -23.6258 -23.6258 -23.6237 -23.6237 -23.5716 -23.5716 -23.5710 -23.5710
   -22.7475 -22.7475 -22.7389 -22.7389 -22.7127 -22.7127 -22.7043 -22.7043
   -19.1721 -19.1721 -19.1703 -19.1703 -19.1137 -19.1137 -19.1135 -19.1135
   -16.4875 -16.4875 -16.4863 -16.4863 -16.4112 -16.4112 -16.4098 -16.4098
   -15.5205 -15.5205 -15.4848 -15.4848 -15.4638 -15.4638 -15.4354 -15.4354
   -13.9533 -13.9533 -13.9250 -13.9250 -13.8404 -13.8404 -13.8347 -13.8347
   -11.5482 -11.5482 -11.5351 -11.5351 -11.4962 -11.4962 -11.4848 -11.4848
    -8.7285  -8.7285  -8.6524  -8.6524  -8.5080  -8.5080  -8.4729  -8.4729
    -8.1915  -8.1915  -8.1195  -8.1195  -7.9673  -7.9673  -7.9551  -7.9551
    -6.6715  -6.6715  -6.5235  -6.5235  -6.4822  -6.4822  -6.4080  -6.4080
    -6.2754  -6.2754  -6.2002  -6.2002  -6.1555  -6.1555  -6.1339  -6.1339
    -5.9492  -5.9492  -5.8827  -5.8827  -5.8235  -5.8235  -5.7505  -5.7505
    -5.3467  -5.3467  -5.3083  -5.3083  -5.2988  -5.2988  -5.2297  -5.2297
    -4.9483  -4.9483  -4.8958  -4.8958  -4.7762  -4.7762  -4.6834  -4.6834
    -4.6214  -4.6214  -4.5621  -4.5621  -4.4865  -4.4865  -4.4024  -4.4024
    -3.3774  -3.3774  -3.3244  -3.3244  -3.2886  -3.2886  -3.2541  -3.2541
    -2.1510  -2.1510  -2.1409  -2.1409  -1.5157  -1.5157  -1.4852  -1.4852
    -1.4410  -1.4410  -1.3563  -1.3563  -1.0016  -1.0016  -0.9508  -0.9508
    -0.6408  -0.6408  -0.6122  -0.6122  -0.5687  -0.5687  -0.5052  -0.5052
    -0.4932  -0.4932  -0.4340  -0.4340  -0.3631  -0.3631  -0.3436  -0.3436
    -0.3137  -0.3137  -0.2936  -0.2936  -0.2515  -0.2515  -0.1712  -0.1712
     0.0138   0.0138   0.0786   0.0786   0.1150   0.1150   0.1954   0.1954
     0.4864   0.4864   0.4944   0.4944   0.5386   0.5386   0.5589   0.5589
     1.3627   1.3627   1.3955   1.3955   1.8454   1.8454   1.8655   1.8655
     3.7024   3.7024   3.7506   3.7506   3.7979   3.7979   3.8328   3.8328
     5.5414   5.5414   5.6227   5.6227   5.6761   5.6761   5.7451   5.7451
     7.6007   7.6007   7.7194   7.7194   7.8440   7.8440   7.9532   7.9532
     8.1613   8.1613   8.2776   8.2776   8.3889   8.3889   8.4251   8.4251
     9.1775   9.1776   9.2926   9.2927   9.3689   9.3693

          k =-0.5000 0.0000 0.0000 (106154 PWs)   bands (ev):

   -23.6403 -23.6403 -23.6340 -23.6340 -23.5737 -23.5737 -23.5707 -23.5707
   -22.7370 -22.7370 -22.7351 -22.7351 -22.7041 -22.7041 -22.7006 -22.7006
   -19.1723 -19.1723 -19.1703 -19.1703 -19.1157 -19.1157 -19.1130 -19.1130
   -16.5495 -16.5495 -16.5292 -16.5292 -16.3540 -16.3540 -16.3330 -16.3330
   -15.5175 -15.5175 -15.4876 -15.4876 -15.4420 -15.4420 -15.4400 -15.4400
   -13.9936 -13.9936 -13.9483 -13.9483 -13.8269 -13.8269 -13.7941 -13.7941
   -11.5646 -11.5646 -11.5534 -11.5534 -11.5091 -11.5091 -11.4720 -11.4720
    -8.7032  -8.7032  -8.6593  -8.6593  -8.5296  -8.5296  -8.4809  -8.4809
    -8.1844  -8.1844  -8.0826  -8.0826  -8.0206  -8.0206  -7.9071  -7.9071
    -6.6641  -6.6641  -6.5396  -6.5396  -6.5002  -6.5002  -6.4481  -6.4481
    -6.1479  -6.1479  -6.0780  -6.0780  -6.0308  -6.0308  -5.9538  -5.9538
    -5.8811  -5.8811  -5.8679  -5.8679  -5.8103  -5.8103  -5.7651  -5.7651
    -5.3961  -5.3961  -5.3401  -5.3401  -5.1485  -5.1485  -5.1361  -5.1361
    -5.0579  -5.0579  -5.0118  -5.0118  -4.9313  -4.9313  -4.8322  -4.8322
    -4.8182  -4.8182  -4.7381  -4.7381  -4.5783  -4.5783  -4.4254  -4.4254
    -3.4288  -3.4288  -3.2920  -3.2920  -3.2518  -3.2518  -3.2202  -3.2202
    -2.1085  -2.1085  -2.0685  -2.0685  -1.5832  -1.5832  -1.5705  -1.5705
    -1.4847  -1.4847  -1.3784  -1.3784  -1.1092  -1.1092  -0.9228  -0.9228
    -0.7158  -0.7158  -0.6474  -0.6474  -0.5726  -0.5726  -0.5394  -0.5394
    -0.4796  -0.4796  -0.4433  -0.4433  -0.4104  -0.4104  -0.3580  -0.3580
    -0.2637  -0.2637  -0.2497  -0.2497  -0.1984  -0.1984  -0.0900  -0.0900
     0.0127   0.0127   0.0925   0.0925   0.1784   0.1784   0.2272   0.2272
     0.4434   0.4434   0.4723   0.4723   0.5593   0.5593   0.5774   0.5774
     1.4841   1.4841   1.5436   1.5436   1.7250   1.7250   1.7578   1.7578
     3.6229   3.6229   3.7353   3.7353   3.8123   3.8123   3.9026   3.9026
     5.3632   5.3632   5.4580   5.4580   5.8442   5.8442   5.8950   5.8950
     7.5314   7.5314   7.7515   7.7515   8.0277   8.0277   8.0749   8.0749
     8.2288   8.2288   8.2788   8.2788   8.4196   8.4196   8.5078   8.5078
     8.6800   8.6800   9.3285   9.3288   9.3471   9.3471

          k =-0.5000 0.0000-0.6390 (105988 PWs)   bands (ev):

   -23.6372 -23.6372 -23.6372 -23.6372 -23.5721 -23.5721 -23.5721 -23.5721
   -22.7361 -22.7361 -22.7361 -22.7361 -22.7023 -22.7023 -22.7023 -22.7023
   -19.1713 -19.1713 -19.1713 -19.1713 -19.1143 -19.1143 -19.1143 -19.1143
   -16.5392 -16.5392 -16.5392 -16.5392 -16.3443 -16.3443 -16.3443 -16.3443
   -15.5027 -15.5027 -15.5027 -15.5027 -15.4406 -15.4406 -15.4406 -15.4406
   -13.9688 -13.9688 -13.9688 -13.9688 -13.8118 -13.8118 -13.8118 -13.8118
   -11.5593 -11.5593 -11.5593 -11.5593 -11.4909 -11.4909 -11.4909 -11.4909
    -8.6836  -8.6836  -8.6836  -8.6836  -8.5095  -8.5095  -8.5095  -8.5095
    -8.1311  -8.1311  -8.1311  -8.1311  -7.9709  -7.9709  -7.9709  -7.9709
    -6.5918  -6.5918  -6.5918  -6.5918  -6.4606  -6.4606  -6.4606  -6.4606
    -6.0994  -6.0994  -6.0994  -6.0994  -5.9958  -5.9958  -5.9958  -5.9958
    -5.8681  -5.8681  -5.8681  -5.8681  -5.7928  -5.7928  -5.7928  -5.7928
    -5.3992  -5.3992  -5.3992  -5.3992  -5.1316  -5.1316  -5.1316  -5.1316
    -5.0237  -5.0237  -5.0237  -5.0237  -4.8990  -4.8990  -4.8990  -4.8990
    -4.7726  -4.7726  -4.7726  -4.7726  -4.5137  -4.5137  -4.5137  -4.5137
    -3.3494  -3.3494  -3.3494  -3.3494  -3.2498  -3.2498  -3.2498  -3.2498
    -2.0891  -2.0891  -2.0891  -2.0891  -1.5698  -1.5698  -1.5698  -1.5698
    -1.4262  -1.4262  -1.4262  -1.4262  -1.0045  -1.0045  -1.0045  -1.0045
    -0.6710  -0.6710  -0.6710  -0.6710  -0.5830  -0.5830  -0.5830  -0.5830
    -0.4761  -0.4761  -0.4761  -0.4761  -0.3815  -0.3815  -0.3815  -0.3815
    -0.2538  -0.2538  -0.2538  -0.2538  -0.1421  -0.1421  -0.1421  -0.1421
     0.0530   0.0530   0.0530   0.0530   0.2050   0.2050   0.2050   0.2050
     0.4691   0.4691   0.4691   0.4691   0.5694   0.5694   0.5694   0.5694
     1.5126   1.5126   1.5126   1.5126   1.7456   1.7456   1.7456   1.7456
     3.6622   3.6622   3.6622   3.6622   3.8725   3.8725   3.8725   3.8725
     5.4102   5.4102   5.4102   5.4102   5.8708   5.8708   5.8708   5.8708
     7.6098   7.6098   7.6098   7.6098   7.9960   7.9960   7.9960   7.9960
     8.2716   8.2716   8.2716   8.2716   8.4785   8.4785   8.4785   8.4785
     9.0258   9.0258   9.0258   9.0258   9.3763   9.3763

          k =-0.5000 0.6901 0.0000 (106060 PWs)   bands (ev):

   -23.6331 -23.6331 -23.6292 -23.6292 -23.5725 -23.5725 -23.5707 -23.5707
   -22.7406 -22.7406 -22.7390 -22.7390 -22.7065 -22.7065 -22.7038 -22.7038
   -19.1720 -19.1720 -19.1706 -19.1706 -19.1153 -19.1153 -19.1128 -19.1128
   -16.5267 -16.5267 -16.5116 -16.5116 -16.3805 -16.3805 -16.3610 -16.3610
   -15.5138 -15.5138 -15.4953 -15.4953 -15.4550 -15.4550 -15.4317 -15.4317
   -13.9751 -13.9751 -13.9376 -13.9376 -13.8395 -13.8395 -13.8071 -13.8071
   -11.5605 -11.5605 -11.5419 -11.5419 -11.5028 -11.5028 -11.4753 -11.4753
    -8.7088  -8.7088  -8.6618  -8.6618  -8.5171  -8.5171  -8.4740  -8.4740
    -8.1793  -8.1793  -8.1248  -8.1248  -8.0122  -8.0122  -7.8968  -7.8968
    -6.6273  -6.6273  -6.5654  -6.5654  -6.5017  -6.5017  -6.4479  -6.4479
    -6.1901  -6.1901  -6.1710  -6.1710  -6.1112  -6.1112  -6.0484  -6.0484
    -5.9393  -5.9393  -5.8385  -5.8385  -5.8168  -5.8168  -5.7680  -5.7680
    -5.3850  -5.3850  -5.3238  -5.3238  -5.2214  -5.2214  -5.1516  -5.1516
    -4.9964  -4.9964  -4.9020  -4.9020  -4.8443  -4.8443  -4.8287  -4.8287
    -4.6997  -4.6997  -4.6371  -4.6371  -4.5350  -4.5350  -4.4151  -4.4151
    -3.4074  -3.4074  -3.3008  -3.3008  -3.2718  -3.2718  -3.2253  -3.2253
    -2.1298  -2.1298  -2.1097  -2.1097  -1.5858  -1.5858  -1.5117  -1.5117
    -1.4536  -1.4536  -1.3754  -1.3754  -1.0904  -1.0904  -0.9029  -0.9029
    -0.6564  -0.6564  -0.6025  -0.6025  -0.5845  -0.5845  -0.5424  -0.5424
    -0.4760  -0.4760  -0.4305  -0.4305  -0.4014  -0.4014  -0.3472  -0.3472
    -0.2924  -0.2924  -0.2630  -0.2630  -0.2153  -0.2153  -0.1663  -0.1663
     0.0176   0.0176   0.1024   0.1024   0.1433   0.1433   0.2111   0.2111
     0.4566   0.4566   0.4822   0.4822   0.5462   0.5462   0.5694   0.5694
     1.4132   1.4132   1.4580   1.4580   1.7904   1.7904   1.8255   1.8255
     3.6602   3.6602   3.7422   3.7422   3.8008   3.8008   3.8759   3.8759
     5.4380   5.4380   5.5093   5.5093   5.7834   5.7834   5.8505   5.8505
     7.5485   7.5485   7.7471   7.7471   7.9766   7.9766   8.0416   8.0416
     8.1219   8.1219   8.3103   8.3103   8.4064   8.4064   8.4838   8.4838
     8.9305   8.9305   9.2715   9.2716   9.3579   9.3579

          k =-0.5000 0.6901-0.6390 (106068 PWs)   bands (ev):

   -23.6321 -23.6321 -23.6302 -23.6302 -23.5720 -23.5720 -23.5712 -23.5712
   -22.7408 -22.7408 -22.7390 -22.7390 -22.7052 -22.7052 -22.7051 -22.7051
   -19.1718 -19.1718 -19.1707 -19.1707 -19.1140 -19.1140 -19.1140 -19.1140
   -16.5194 -16.5194 -16.5187 -16.5187 -16.3717 -16.3717 -16.3712 -16.3712
   -15.5148 -15.5148 -15.4924 -15.4924 -15.4505 -15.4505 -15.4379 -15.4379
   -13.9654 -13.9654 -13.9453 -13.9453 -13.8247 -13.8247 -13.8219 -13.8219
   -11.5598 -11.5598 -11.5387 -11.5387 -11.5005 -11.5005 -11.4833 -11.4833
    -8.7128  -8.7128  -8.6615  -8.6615  -8.5115  -8.5115  -8.4879  -8.4879
    -8.1578  -8.1578  -8.1320  -8.1320  -7.9804  -7.9804  -7.9485  -7.9485
    -6.6583  -6.6583  -6.5279  -6.5279  -6.4898  -6.4898  -6.4195  -6.4195
    -6.1855  -6.1855  -6.1492  -6.1492  -6.0917  -6.0917  -6.0730  -6.0730
    -5.9199  -5.9199  -5.8723  -5.8723  -5.8096  -5.8096  -5.7671  -5.7671
    -5.3855  -5.3855  -5.3631  -5.3631  -5.2121  -5.2121  -5.1678  -5.1678
    -4.9799  -4.9799  -4.9153  -4.9153  -4.8495  -4.8495  -4.8213  -4.8213
    -4.6690  -4.6690  -4.6626  -4.6626  -4.5139  -4.5139  -4.4513  -4.4513
    -3.3603  -3.3603  -3.3456  -3.3456  -3.2675  -3.2675  -3.2497  -3.2497
    -2.1252  -2.1252  -2.1128  -2.1128  -1.5435  -1.5435  -1.5307  -1.5307
    -1.4461  -1.4461  -1.3810  -1.3810  -0.9975  -0.9975  -0.9830  -0.9830
    -0.6390  -0.6390  -0.6368  -0.6368  -0.5854  -0.5854  -0.5559  -0.5559
    -0.4600  -0.4600  -0.4445  -0.4445  -0.3946  -0.3946  -0.3849  -0.3849
    -0.2971  -0.2971  -0.2363  -0.2363  -0.2115  -0.2115  -0.1565  -0.1565
     0.0412   0.0412   0.0539   0.0539   0.1829   0.1829   0.1924   0.1924
     0.4720   0.4720   0.4837   0.4837   0.5525   0.5525   0.5663   0.5663
     1.4228   1.4228   1.4520   1.4520   1.7983   1.7983   1.8193   1.8193
     3.6772   3.6772   3.7016   3.7016   3.8393   3.8393   3.8580   3.8580
     5.4465   5.4465   5.5017   5.5017   5.7979   5.7979   5.8361   5.8361
     7.5883   7.5883   7.6669   7.6669   7.9250   7.9250   7.9991   7.9991
     8.2229   8.2229   8.2507   8.2507   8.4327   8.4327   8.4614   8.4614
     9.0858   9.0858   9.2349   9.2352   9.3582   9.3585

          k =-0.5000-1.3801 0.0000 (106028 PWs)   bands (ev):

   -23.6248 -23.6248 -23.6247 -23.6247 -23.5724 -23.5724 -23.5702 -23.5702
   -22.7442 -22.7442 -22.7432 -22.7432 -22.7087 -22.7087 -22.7072 -22.7072
   -19.1712 -19.1712 -19.1712 -19.1712 -19.1148 -19.1148 -19.1125 -19.1125
   -16.4868 -16.4868 -16.4865 -16.4865 -16.4210 -16.4210 -16.3995 -16.3995
   -15.5094 -15.5094 -15.5017 -15.5017 -15.4650 -15.4650 -15.4285 -15.4285
   -13.9420 -13.9420 -13.9365 -13.9365 -13.8556 -13.8556 -13.8218 -13.8218
   -11.5495 -11.5495 -11.5366 -11.5366 -11.5010 -11.5010 -11.4747 -11.4747
    -8.7093  -8.7093  -8.6704  -8.6704  -8.5032  -8.5032  -8.4678  -8.4678
    -8.1870  -8.1870  -8.1393  -8.1393  -8.0192  -8.0192  -7.8867  -7.8867
    -6.5689  -6.5689  -6.5407  -6.5407  -6.5384  -6.5384  -6.4781  -6.4781
    -6.2538  -6.2538  -6.2373  -6.2373  -6.1965  -6.1965  -6.1139  -6.1139
    -5.9396  -5.9396  -5.8690  -5.8690  -5.8237  -5.8237  -5.7482  -5.7482
    -5.3436  -5.3436  -5.3083  -5.3083  -5.2772  -5.2772  -5.2158  -5.2158
    -4.9691  -4.9691  -4.8815  -4.8815  -4.7416  -4.7416  -4.7382  -4.7382
    -4.5996  -4.5996  -4.5431  -4.5431  -4.4884  -4.4884  -4.4183  -4.4183
    -3.3490  -3.3490  -3.3488  -3.3488  -3.2857  -3.2857  -3.2303  -3.2303
    -2.1481  -2.1481  -2.1473  -2.1473  -1.5571  -1.5571  -1.4783  -1.4783
    -1.4317  -1.4317  -1.3670  -1.3670  -1.0612  -1.0612  -0.8787  -0.8787
    -0.6289  -0.6289  -0.6002  -0.6002  -0.5829  -0.5829  -0.4887  -0.4887
    -0.4763  -0.4763  -0.4274  -0.4274  -0.3664  -0.3664  -0.3423  -0.3423
    -0.3181  -0.3181  -0.3108  -0.3108  -0.2248  -0.2248  -0.2125  -0.2125
     0.0176   0.0176   0.0411   0.0411   0.1700   0.1700   0.1730   0.1730
     0.4778   0.4778   0.4918   0.4918   0.5299   0.5299   0.5633   0.5633
     1.3559   1.3559   1.3968   1.3968   1.8282   1.8282   1.8822   1.8822
     3.7139   3.7139   3.7308   3.7308   3.8130   3.8130   3.8285   3.8285
     5.5568   5.5568   5.5894   5.5894   5.7177   5.7177   5.7214   5.7214
     7.5793   7.5793   7.7175   7.7175   7.9495   7.9495   7.9712   7.9712
     8.1016   8.1016   8.2938   8.2938   8.4052   8.4052   8.4134   8.4134
     9.2290   9.2291   9.2826   9.2827   9.3695   9.3696

          k =-0.5000-1.3801-0.6390 (106184 PWs)   bands (ev):

   -23.6258 -23.6258 -23.6237 -23.6237 -23.5716 -23.5716 -23.5710 -23.5710
   -22.7451 -22.7451 -22.7423 -22.7423 -22.7081 -22.7081 -22.7079 -22.7079
   -19.1721 -19.1721 -19.1703 -19.1703 -19.1136 -19.1136 -19.1136 -19.1136
   -16.4872 -16.4872 -16.4865 -16.4865 -16.4108 -16.4108 -16.4102 -16.4102
   -15.5177 -15.5177 -15.4939 -15.4939 -15.4516 -15.4516 -15.4413 -15.4413
   -13.9532 -13.9532 -13.9252 -13.9252 -13.8399 -13.8399 -13.8352 -13.8352
   -11.5451 -11.5451 -11.5395 -11.5395 -11.4903 -11.4903 -11.4894 -11.4894
    -8.7285  -8.7285  -8.6524  -8.6524  -8.5081  -8.5081  -8.4727  -8.4727
    -8.1932  -8.1932  -8.1172  -8.1172  -7.9624  -7.9624  -7.9608  -7.9608
    -6.6707  -6.6707  -6.5245  -6.5245  -6.4816  -6.4816  -6.4105  -6.4105
    -6.2685  -6.2685  -6.2090  -6.2090  -6.1518  -6.1518  -6.1316  -6.1316
    -5.9532  -5.9532  -5.8818  -5.8818  -5.8239  -5.8239  -5.7499  -5.7499
    -5.3222  -5.3222  -5.3169  -5.3169  -5.2883  -5.2883  -5.2598  -5.2598
    -4.9457  -4.9457  -4.8958  -4.8958  -4.7507  -4.7507  -4.7340  -4.7340
    -4.5893  -4.5893  -4.5560  -4.5560  -4.4891  -4.4891  -4.4107  -4.4107
    -3.3698  -3.3698  -3.3339  -3.3339  -3.2873  -3.2873  -3.2535  -3.2535
    -2.1569  -2.1569  -2.1356  -2.1356  -1.5036  -1.5036  -1.5018  -1.5018
    -1.4370  -1.4370  -1.3544  -1.3544  -0.9968  -0.9968  -0.9548  -0.9548
    -0.6369  -0.6369  -0.6244  -0.6244  -0.5611  -0.5611  -0.5154  -0.5154
    -0.4652  -0.4652  -0.4641  -0.4641  -0.3531  -0.3531  -0.3299  -0.3299
    -0.3194  -0.3194  -0.2984  -0.2984  -0.2534  -0.2534  -0.1745  -0.1745
     0.0129   0.0129   0.0864   0.0864   0.1178   0.1178   0.1887   0.1887
     0.4866   0.4866   0.4939   0.4939   0.5417   0.5417   0.5574   0.5574
     1.3640   1.3640   1.3930   1.3930   1.8444   1.8444   1.8668   1.8668
     3.7052   3.7052   3.7425   3.7425   3.8044   3.8044   3.8318   3.8318
     5.5400   5.5400   5.6211   5.6211   5.6852   5.6852   5.7387   5.7387
     7.6031   7.6031   7.7070   7.7070   7.8750   7.8750   7.9301   7.9301
     8.1689   8.1689   8.2742   8.2742   8.3909   8.3909   8.4188   8.4188
     9.1777   9.1777   9.2901   9.2909   9.3962   9.3963

     highest occupied, lowest unoccupied level (ev):     1.8825    3.6128

!    total energy              =   -2213.93632650 Ry
     Harris-Foulkes estimate   =   -2213.93632651 Ry
     estimated scf accuracy    <          9.4E-09 Ry

     total all-electron energy =     -8352.048933 Ry

     The total energy is the sum of the following terms:

     one-electron contribution =   -1008.67701598 Ry
     hartree contribution      =     666.84770835 Ry
     xc contribution           =    -426.39762811 Ry
     ewald contribution        =    -845.18277396 Ry
     Dispersion Correction     =      -0.41861699 Ry
     one-center paw contrib.   =    -600.10799982 Ry

     convergence has been achieved in  15 iterations

     Forces acting on atoms (cartesian axes, Ry/au):

     atom    1 type  4   force =    -0.00460672   -0.00015192    0.00230511
     atom    2 type  4   force =     0.00460672   -0.00015192    0.00230511
     atom    3 type  4   force =    -0.00460672    0.00015192    0.00230511
     atom    4 type  4   force =     0.00460672    0.00015192    0.00230511
     atom    5 type  4   force =    -0.00111900   -0.00018604    0.00078806
     atom    6 type  4   force =     0.00111900   -0.00018604    0.00078806
     atom    7 type  4   force =    -0.00111900    0.00018604    0.00078806
     atom    8 type  4   force =     0.00111900    0.00018604    0.00078806
     atom    9 type  4   force =     0.00155054    0.00053313   -0.00286367
     atom   10 type  4   force =    -0.00155054    0.00053313   -0.00286367
     atom   11 type  4   force =     0.00155054   -0.00053313   -0.00286367
     atom   12 type  4   force =    -0.00155054   -0.00053313   -0.00286367
     atom   13 type  2   force =     0.00032395    0.00111377    0.00331473
     atom   14 type  2   force =    -0.00032395    0.00111377    0.00331473
     atom   15 type  2   force =     0.00032395   -0.00111377    0.00331473
     atom   16 type  2   force =    -0.00032395   -0.00111377    0.00331473
     atom   17 type  2   force =    -0.00179773    0.00016733    0.00042529
     atom   18 type  2   force =     0.00179773    0.00016733    0.00042529
     atom   19 type  2   force =    -0.00179773   -0.00016733    0.00042529
     atom   20 type  2   force =     0.00179773   -0.00016733    0.00042529
     atom   21 type  2   force =     0.00254710    0.00186475    0.00304274
     atom   22 type  2   force =    -0.00254710    0.00186475    0.00304274
     atom   23 type  2   force =     0.00254710   -0.00186475    0.00304274
     atom   24 type  2   force =    -0.00254710   -0.00186475    0.00304274
     atom   25 type  2   force =    -0.00196955   -0.00270020   -0.00206759
     atom   26 type  2   force =     0.00196955   -0.00270020   -0.00206759
     atom   27 type  2   force =    -0.00196955    0.00270020   -0.00206759
     atom   28 type  2   force =     0.00196955    0.00270020   -0.00206759
     atom   29 type  1   force =     0.00099297   -0.00101814   -0.00261623
     atom   30 type  1   force =    -0.00099297   -0.00101814   -0.00261623
     atom   31 type  1   force =     0.00099297    0.00101814   -0.00261623
     atom   32 type  1   force =    -0.00099297    0.00101814   -0.00261623
     atom   33 type  1   force =     0.00133031    0.00236577   -0.00223737
     atom   34 type  1   force =    -0.00133031    0.00236577   -0.00223737
     atom   35 type  1   force =     0.00133031   -0.00236577   -0.00223737
     atom   36 type  1   force =    -0.00133031   -0.00236577   -0.00223737
     atom   37 type  3   force =     0.00061435    0.00017327   -0.00021641
     atom   38 type  3   force =    -0.00061435    0.00017327   -0.00021641
     atom   39 type  3   force =     0.00061435   -0.00017327   -0.00021641
     atom   40 type  3   force =    -0.00061435   -0.00017327   -0.00021641
     atom   41 type  3   force =    -0.00102542   -0.00043563   -0.00013873
     atom   42 type  3   force =     0.00102542   -0.00043563   -0.00013873
     atom   43 type  3   force =    -0.00102542    0.00043563   -0.00013873
     atom   44 type  3   force =     0.00102542    0.00043563   -0.00013873
     atom   45 type  4   force =     0.00360693    0.00181732   -0.00209825
     atom   46 type  4   force =    -0.00360693    0.00181732   -0.00209825
     atom   47 type  4   force =     0.00360693   -0.00181732   -0.00209825
     atom   48 type  4   force =    -0.00360693   -0.00181732   -0.00209825
     atom   49 type  4   force =     0.00133383   -0.00052757   -0.00074556
     atom   50 type  4   force =    -0.00133383   -0.00052757   -0.00074556
     atom   51 type  4   force =     0.00133383    0.00052757   -0.00074556
     atom   52 type  4   force =    -0.00133383    0.00052757   -0.00074556
     atom   53 type  4   force =    -0.00161979   -0.00054500    0.00226350
     atom   54 type  4   force =     0.00161979   -0.00054500    0.00226350
     atom   55 type  4   force =    -0.00161979    0.00054500    0.00226350
     atom   56 type  4   force =     0.00161979    0.00054500    0.00226350
     atom   57 type  2   force =     0.00019440   -0.00177924   -0.00415777
     atom   58 type  2   force =    -0.00019440   -0.00177924   -0.00415777
     atom   59 type  2   force =     0.00019440    0.00177924   -0.00415777
     atom   60 type  2   force =    -0.00019440    0.00177924   -0.00415777
     atom   61 type  2   force =     0.00207009    0.00072660   -0.00011065
     atom   62 type  2   force =    -0.00207009    0.00072660   -0.00011065
     atom   63 type  2   force =     0.00207009   -0.00072660   -0.00011065
     atom   64 type  2   force =    -0.00207009   -0.00072660   -0.00011065
     atom   65 type  2   force =    -0.00120860   -0.00034605   -0.00296355
     atom   66 type  2   force =     0.00120860   -0.00034605   -0.00296355
     atom   67 type  2   force =    -0.00120860    0.00034605   -0.00296355
     atom   68 type  2   force =     0.00120860    0.00034605   -0.00296355
     atom   69 type  2   force =     0.00223206    0.00276399    0.00253206
     atom   70 type  2   force =    -0.00223206    0.00276399    0.00253206
     atom   71 type  2   force =     0.00223206   -0.00276399    0.00253206
     atom   72 type  2   force =    -0.00223206   -0.00276399    0.00253206
     atom   73 type  1   force =    -0.00113855    0.00031905    0.00359961
     atom   74 type  1   force =     0.00113855    0.00031905    0.00359961
     atom   75 type  1   force =    -0.00113855   -0.00031905    0.00359961
     atom   76 type  1   force =     0.00113855   -0.00031905    0.00359961
     atom   77 type  1   force =    -0.00157005   -0.00101023    0.00197961
     atom   78 type  1   force =     0.00157005   -0.00101023    0.00197961
     atom   79 type  1   force =    -0.00157005    0.00101023    0.00197961
     atom   80 type  1   force =     0.00157005    0.00101023    0.00197961
     atom   81 type  3   force =    -0.00044034    0.00003352   -0.00062325
     atom   82 type  3   force =     0.00044034    0.00003352   -0.00062325
     atom   83 type  3   force =    -0.00044034   -0.00003352   -0.00062325
     atom   84 type  3   force =     0.00044034   -0.00003352   -0.00062325
     atom   85 type  3   force =     0.00029930    0.00066065    0.00058831
     atom   86 type  3   force =    -0.00029930    0.00066065    0.00058831
     atom   87 type  3   force =     0.00029930   -0.00066065    0.00058831
     atom   88 type  3   force =    -0.00029930   -0.00066065    0.00058831

     Total force =     0.029803     Total SCF correction =     0.000244


     Computing stress (Cartesian axis) and pressure

          total   stress  (Ry/bohr**3)                   (kbar)     P=   -0.58
   0.00000395   0.00000000   0.00000000          0.58      0.00      0.00
   0.00000000   0.00000038   0.00000000          0.00      0.06      0.00
   0.00000000   0.00000000  -0.00001624          0.00      0.00     -2.39


     Writing output data file scf.save
 
     init_run     :     76.76s CPU     79.61s WALL (       1 calls)
     electrons    :   2872.16s CPU   2971.15s WALL (       1 calls)
     forces       :     37.60s CPU     37.82s WALL (       1 calls)
     stress       :    197.44s CPU    197.95s WALL (       1 calls)

     Called by init_run:
     wfcinit      :     71.05s CPU     73.76s WALL (       1 calls)
     potinit      :      2.04s CPU      2.06s WALL (       1 calls)

     Called by electrons:
     c_bands      :   2599.69s CPU   2685.45s WALL (      15 calls)
     sum_band     :    260.46s CPU    272.67s WALL (      15 calls)
     v_of_rho     :      1.94s CPU      2.13s WALL (      16 calls)
     newd         :      4.08s CPU      4.93s WALL (      16 calls)
     PAW_pot      :      5.53s CPU      5.53s WALL (      16 calls)
     mix_rho      :      0.44s CPU      0.47s WALL (      15 calls)

     Called by c_bands:
     init_us_2    :     12.33s CPU     12.36s WALL (     396 calls)
     cegterg      :   2547.38s CPU   2633.06s WALL (     180 calls)

     Called by sum_band:
     sum_band:bec :      0.19s CPU      0.19s WALL (     180 calls)
     addusdens    :      4.27s CPU      5.02s WALL (      15 calls)

     Called by *egterg:
     h_psi        :   1323.64s CPU   1389.82s WALL (     816 calls)
     s_psi        :    328.36s CPU    328.45s WALL (     816 calls)
     g_psi        :      5.92s CPU      5.92s WALL (     624 calls)
     cdiaghg      :    155.50s CPU    155.52s WALL (     804 calls)

     Called by h_psi:
     h_psi:pot    :   1314.58s CPU   1380.59s WALL (     816 calls)
     h_psi:calbec :    316.84s CPU    317.34s WALL (     816 calls)
     vloc_psi     :    668.49s CPU    733.90s WALL (     816 calls)
     add_vuspsi   :    329.24s CPU    329.35s WALL (     816 calls)

     General routines
     calbec       :    473.15s CPU    473.90s WALL (    1056 calls)
     fft          :      2.35s CPU      2.66s WALL (     232 calls)
     fftw         :    717.62s CPU    791.08s WALL (  264808 calls)
 
     Parallel routines
     fft_scatter  :    155.49s CPU    218.51s WALL (  265040 calls)
 
     PWSCF        : 53m23.76s CPU    56m56.44s WALL

 
   This run was terminated on:   6:53:47  15Dec2017            

=------------------------------------------------------------------------------=
   JOB DONE.
=------------------------------------------------------------------------------=
