
     Program PWSCF v.6.1 (svn rev. 13369) starts on 21Dec2017 at  2:49:30 

     This program is part of the open-source Quantum ESPRESSO suite
     for quantum simulation of materials; please cite
         "P. Giannozzi et al., J. Phys.:Condens. Matter 21 395502 (2009);
          URL http://www.quantum-espresso.org", 
     in publications or presentations arising from this work. More details at
     http://www.quantum-espresso.org/quote

     Parallel version (MPI), running on     8 processors
     R & G space division:  proc/nbgrp/npool/nimage =       8
     Waiting for input...
     Reading input from standard input

     Current dimensions of program PWSCF are:
     Max number of different atomic species (ntypx) = 10
     Max number of k-points (npk) =  40000
     Max angular momentum in pseudopotentials (lmaxx) =  3
               file C.pbe-n-kjpaw_psl.0.1.UPF: wavefunction(s)  2P renormalized
               file N.pbe-n-kjpaw_psl.0.1.UPF: wavefunction(s)  2P renormalized
               file H.pbe-kjpaw_psl.0.1.UPF: wavefunction(s)  1S renormalized
               file O.pbe-n-kjpaw_psl.0.1.UPF: wavefunction(s)  2P renormalized

     -------------------------------------
     Parameters for Dispersion Correction:
     -------------------------------------
       atom      VdW radius       C_6     

        C          2.744         60.710
        N          2.640         42.670
        H          1.892          4.857
        O          2.536         24.284

     Subspace diagonalization in iterative solution of the eigenvalue problem:
     a serial algorithm will be used

 
     Parallelization info
     --------------------
     sticks:   dense  smooth     PW     G-vecs:    dense   smooth      PW
     Min        2049    2049    543               171270   171270   23405
     Max        2050    2050    544               171273   171273   23407
     Sum       16393   16393   4349              1370165  1370165  187249
 


     bravais-lattice index     =            0
     lattice parameter (alat)  =      23.8899  a.u.
     unit-cell volume          =   10141.8857 (a.u.)^3
     number of atoms/cell      =          144
     number of atomic types    =            4
     number of electrons       =       480.00
     number of Kohn-Sham states=          288
     kinetic-energy cutoff     =     100.0000  Ry
     charge density cutoff     =     400.0000  Ry
     convergence threshold     =      1.0E-08
     mixing beta               =       0.5000
     number of iterations used =            8  plain     mixing
     Exchange-correlation      =  SLA  PW   PBX  PBC ( 1  4  3  4 0 0)

     celldm(1)=  23.889918  celldm(2)=   0.000000  celldm(3)=   0.000000
     celldm(4)=   0.000000  celldm(5)=   0.000000  celldm(6)=   0.000000

     crystal axes: (cart. coord. in units of alat)
               a(1) = (   1.000000   0.000000   0.000000 )  
               a(2) = (   0.000000   0.902705   0.000000 )  
               a(3) = (  -0.433896   0.000000   0.824003 )  

     reciprocal axes: (cart. coord. in units 2 pi/alat)
               b(1) = (  1.000000  0.000000  0.526571 )  
               b(2) = (  0.000000  1.107781  0.000000 )  
               b(3) = (  0.000000  0.000000  1.213588 )  


     PseudoPot. # 1 for  C read from file:
     /scratch/ahofstet/pseudo/C.pbe-n-kjpaw_psl.0.1.UPF
     MD5 check sum: 430fe95172b1e11ef3f8ed03bac87931
     Pseudo is Projector augmented-wave + core cor, Zval =  4.0
     Generated using "atomic" code by A. Dal Corso  v.5.0.99 svn rev. 10869
     Shape of augmentation charge: BESSEL
     Using radial grid of 1073 points,  4 beta functions with: 
                l(1) =   0
                l(2) =   0
                l(3) =   1
                l(4) =   1
     Q(r) pseudized with 0 coefficients 


     PseudoPot. # 2 for  N read from file:
     /scratch/ahofstet/pseudo/N.pbe-n-kjpaw_psl.0.1.UPF
     MD5 check sum: f73187c8b701007e77325f868c9291d7
     Pseudo is Projector augmented-wave + core cor, Zval =  5.0
     Generated using "atomic" code by A. Dal Corso  v.5.0.99 svn rev. 10869
     Shape of augmentation charge: PSQ
     Using radial grid of 1085 points,  4 beta functions with: 
                l(1) =   0
                l(2) =   0
                l(3) =   1
                l(4) =   1
     Q(r) pseudized with 0 coefficients 


     PseudoPot. # 3 for  H read from file:
     /scratch/ahofstet/pseudo/H.pbe-kjpaw_psl.0.1.UPF
     MD5 check sum: 94e484f906d9e9773b2f6e52662335b2
     Pseudo is Projector augmented-wave, Zval =  1.0
     Generated using "atomic" code by A. Dal Corso  v.5.0.99 svn rev. 10869
     Shape of augmentation charge: PSQ
     Using radial grid of  929 points,  2 beta functions with: 
                l(1) =   0
                l(2) =   0
     Q(r) pseudized with 0 coefficients 


     PseudoPot. # 4 for  O read from file:
     /scratch/ahofstet/pseudo/O.pbe-n-kjpaw_psl.0.1.UPF
     MD5 check sum: 3f94a2996a3169367d6eb21d9b593f20
     Pseudo is Projector augmented-wave + core cor, Zval =  6.0
     Generated using "atomic" code by A. Dal Corso  v.5.0.99 svn rev. 10869
     Shape of augmentation charge: BESSEL
     Using radial grid of 1095 points,  4 beta functions with: 
                l(1) =   0
                l(2) =   0
                l(3) =   1
                l(4) =   1
     Q(r) pseudized with 0 coefficients 


     atomic species   valence    mass     pseudopotential
        C              4.00    12.01070      C( 1.00)
        N              5.00    14.00670      N( 1.00)
        H              1.00     1.00794      H( 1.00)
        O              6.00    15.99940      O( 1.00)

      4 Sym. Ops., with inversion, found ( 2 have fractional translation)



   Cartesian axes

     site n.     atom                  positions (alat units)
         1           C   tau(   1) = (   0.4410365   0.0234668   0.1891301  )
         2           C   tau(   2) = (   0.8420154   0.4748195   0.2228714  )
         3           C   tau(   3) = (   0.1250673   0.8792384   0.6348729  )
         4           C   tau(   4) = (  -0.2759116   0.4278858   0.6011316  )
         5           C   tau(   5) = (   0.4082732   0.1293519   0.1432990  )
         6           C   tau(   6) = (  -0.1252214   0.5807045   0.2687025  )
         7           C   tau(   7) = (   0.1578305   0.7733534   0.6807040  )
         8           C   tau(   8) = (   0.6913251   0.3220008   0.5553005  )
         9           C   tau(   9) = (   0.3400871   0.1755639   0.2111630  )
        10           C   tau(  10) = (  -0.0570352   0.6269166   0.2008385  )
        11           C   tau(  11) = (   0.2260167   0.7271413   0.6128400  )
        12           C   tau(  12) = (   0.6231389   0.2757887   0.6231644  )
        13           C   tau(  13) = (   0.3239778   0.1010754   0.3038018  )
        14           C   tau(  14) = (  -0.0409259   0.5524280   0.1081997  )
        15           C   tau(  15) = (   0.2421260   0.8016299   0.5202011  )
        16           C   tau(  16) = (   0.6070296   0.3502772   0.7158033  )
        17           C   tau(  17) = (   0.2704178   0.0012491   0.2568120  )
        18           C   tau(  18) = (   0.0126341   0.4526018   0.1551895  )
        19           C   tau(  19) = (   0.2956859   0.9014561   0.5671910  )
        20           C   tau(  20) = (   0.5534697   0.4501035   0.6688135  )
        21           C   tau(  21) = (   0.3389559   0.8587625   0.1901397  )
        22           C   tau(  22) = (  -0.0559041   0.4074099   0.2218617  )
        23           C   tau(  23) = (   0.2271478   0.0439427   0.6338632  )
        24           C   tau(  24) = (   0.6220078   0.4952954   0.6021412  )
        25           C   tau(  25) = (   0.4403643   0.0576919   0.3085085  )
        26           C   tau(  26) = (   0.8426876   0.5090445   0.1034930  )
        27           C   tau(  27) = (   0.1257395   0.8450134   0.5154944  )
        28           C   tau(  28) = (  -0.2765838   0.3936607   0.7205100  )
        29           C   tau(  29) = (   0.4164146   0.1941622   0.0477471  )
        30           C   tau(  30) = (  -0.1333627   0.6455148   0.3642543  )
        31           C   tau(  31) = (   0.1496892   0.7085431   0.7762558  )
        32           C   tau(  32) = (   0.6994665   0.2571905   0.4597486  )
        33           O   tau(  33) = (   0.0290622   0.1814454   0.7893507  )
        34           O   tau(  34) = (  -0.1799066   0.6327980   0.4466537  )
        35           O   tau(  35) = (   0.5370415   0.7212599   0.0346523  )
        36           O   tau(  36) = (   0.7460104   0.2699073   0.3773492  )
        37           C   tau(  37) = (   0.3053286   0.2767307   0.1666356  )
        38           C   tau(  38) = (  -0.0222767   0.7280834   0.2453659  )
        39           C   tau(  39) = (   0.2607751   0.6259745   0.6573674  )
        40           C   tau(  40) = (   0.5883805   0.1746219   0.5786370  )
        41           O   tau(  41) = (   0.2505290   0.3470337   0.2002474  )
        42           O   tau(  42) = (   0.0325229   0.7983864   0.2117541  )
        43           O   tau(  43) = (   0.3155748   0.5556715   0.6237556  )
        44           O   tau(  44) = (   0.5335809   0.1043189   0.6122489  )
        45           O   tau(  45) = (   0.3535810   0.2853010   0.0651513  )
        46           O   tau(  46) = (  -0.0705291   0.7366536   0.3468502  )
        47           O   tau(  47) = (   0.2125228   0.6174043   0.7588517  )
        48           O   tau(  48) = (   0.6366328   0.1660517   0.4771528  )
        49           C   tau(  49) = (   0.1159983   0.3538393   0.4770644  )
        50           C   tau(  50) = (  -0.2668426   0.8051919   0.7589400  )
        51           C   tau(  51) = (   0.4501055   0.5488660   0.3469385  )
        52           C   tau(  52) = (   0.8329464   0.0975133   0.0650630  )
        53           C   tau(  53) = (   0.1913499   0.3365757   0.5690803  )
        54           C   tau(  54) = (  -0.3421942   0.7879284   0.6669241  )
        55           C   tau(  55) = (   0.3747539   0.5661295   0.2549227  )
        56           C   tau(  56) = (   0.9082980   0.1147769   0.1570788  )
        57           C   tau(  57) = (   0.1381811   0.3565084   0.6593818  )
        58           C   tau(  58) = (  -0.2890255   0.8078610   0.5766227  )
        59           C   tau(  59) = (   0.4279226   0.5461969   0.1646212  )
        60           C   tau(  60) = (   0.8551292   0.0948442   0.2473803  )
        61           C   tau(  61) = (   0.0258321   0.3869127   0.6309047  )
        62           C   tau(  62) = (  -0.1766765   0.8382653   0.6050997  )
        63           C   tau(  63) = (   0.5402717   0.5157926   0.1930982  )
        64           C   tau(  64) = (   0.7427802   0.0644400   0.2189032  )
        65           C   tau(  65) = (   0.0345951   0.4919933   0.5689792  )
        66           C   tau(  66) = (  -0.1854395   0.0406407   0.6670253  )
        67           C   tau(  67) = (   0.5315086   0.4107119   0.2550238  )
        68           C   tau(  68) = (   0.7515433   0.8620646   0.1569777  )
        69           C   tau(  69) = (   0.0874675   0.4730694   0.4793062  )
        70           C   tau(  70) = (  -0.2383119   0.0217168   0.7566982  )
        71           C   tau(  71) = (   0.4786362   0.4296359   0.3446967  )
        72           C   tau(  72) = (   0.8044157   0.8809885   0.0673048  )
        73           C   tau(  73) = (   0.0140466   0.3105849   0.5336747  )
        74           C   tau(  74) = (  -0.1648910   0.7619375   0.7023297  )
        75           C   tau(  75) = (   0.5520571   0.5921204   0.2903282  )
        76           C   tau(  76) = (   0.7309948   0.1407677   0.1216733  )
        77           C   tau(  77) = (   0.3013307   0.3110261   0.5949605  )
        78           C   tau(  78) = (   0.5478250   0.7623787   0.6410439  )
        79           C   tau(  79) = (   0.2647731   0.5916792   0.2290425  )
        80           C   tau(  80) = (   0.0182788   0.1403265   0.1829590  )
        81           O   tau(  81) = (   0.3767274   0.2878559   0.5411183  )
        82           O   tau(  82) = (   0.4724283   0.7392085   0.6948862  )
        83           O   tau(  83) = (   0.1893764   0.6148494   0.2828847  )
        84           O   tau(  84) = (   0.0936755   0.1634967   0.1291168  )
        85           C   tau(  85) = (   0.2107310   0.3464731   0.7491112  )
        86           C   tau(  86) = (   0.6384246   0.7978258   0.4868933  )
        87           C   tau(  87) = (   0.3553728   0.5562321   0.0748918  )
        88           C   tau(  88) = (  -0.0723209   0.1048795   0.3371097  )
        89           O   tau(  89) = (   0.6342099   0.3584216   0.0190497  )
        90           O   tau(  90) = (   0.6488419   0.8097743   0.3929518  )
        91           O   tau(  91) = (  -0.0681062   0.5442836   0.8049533  )
        92           O   tau(  92) = (  -0.0827382   0.0929310   0.4310511  )
        93           O   tau(  93) = (   0.3102552   0.3152580   0.7065227  )
        94           O   tau(  94) = (   0.5389004   0.7666106   0.5294817  )
        95           O   tau(  95) = (   0.2558485   0.5874473   0.1174803  )
        96           O   tau(  96) = (   0.0272033   0.1360946   0.2945212  )
        97           H   tau(  97) = (   0.5116971   0.8885141   0.1565403  )
        98           H   tau(  98) = (   0.7713548   0.4371615   0.2554612  )
        99           H   tau(  99) = (   0.0544067   0.0141912   0.6674626  )
       100           H   tau( 100) = (  -0.2052510   0.4655438   0.5685418  )
       101           H   tau( 101) = (   0.2892743   0.1335425   0.3760212  )
       102           H   tau( 102) = (  -0.0062224   0.5848952   0.0359803  )
       103           H   tau( 103) = (   0.2768295   0.7691627   0.4479818  )
       104           H   tau( 104) = (   0.5723262   0.3178101   0.7880226  )
       105           H   tau( 105) = (   0.1891699   0.8811122   0.2730258  )
       106           H   tau( 106) = (   0.0938820   0.4297595   0.1389757  )
       107           H   tau( 107) = (   0.3769339   0.0215931   0.5509772  )
       108           H   tau( 108) = (   0.4722218   0.4729457   0.6850273  )
       109           H   tau( 109) = (   0.3272048   0.7903266   0.1394825  )
       110           H   tau( 110) = (  -0.0441530   0.3389739   0.2725190  )
       111           H   tau( 111) = (   0.2388989   0.1123787   0.6845205  )
       112           H   tau( 112) = (   0.6102567   0.5637313   0.5514840  )
       113           H   tau( 113) = (   0.4989446   0.1190679   0.3273445  )
       114           H   tau( 114) = (   0.7841073   0.5704205   0.0846570  )
       115           H   tau( 115) = (   0.0671592   0.7836374   0.4966585  )
       116           H   tau( 116) = (  -0.2180036   0.3322848   0.7393460  )
       117           H   tau( 117) = (   0.4490640   0.8928344   0.3621202  )
       118           H   tau( 118) = (   0.8339879   0.4414818   0.0498813  )
       119           H   tau( 119) = (   0.1170398   0.0098709   0.4618828  )
       120           H   tau( 120) = (  -0.2678842   0.4612235   0.7741216  )
       121           H   tau( 121) = (   0.1380248   0.3209127   0.4001507  )
       122           H   tau( 122) = (   0.1450271   0.7722654   0.0118507  )
       123           H   tau( 123) = (   0.4280790   0.5817925   0.4238522  )
       124           H   tau( 124) = (   0.4210766   0.1304399   0.8121522  )
       125           H   tau( 125) = (  -0.0325946   0.3837929   0.6942683  )
       126           H   tau( 126) = (  -0.1182498   0.8351455   0.5417361  )
       127           H   tau( 127) = (   0.5986984   0.5189124   0.1297346  )
       128           H   tau( 128) = (   0.6843535   0.0675597   0.2822668  )
       129           H   tau( 129) = (   0.0041468   0.5665772   0.5989606  )
       130           H   tau( 130) = (  -0.1549912   0.1152245   0.6370438  )
       131           H   tau( 131) = (   0.5619569   0.3361281   0.2250423  )
       132           H   tau( 132) = (   0.7210950   0.7874807   0.1869591  )
       133           H   tau( 133) = (   0.1124319   0.5285007   0.4184894  )
       134           H   tau( 134) = (  -0.2632763   0.0771481   0.8175150  )
       135           H   tau( 135) = (   0.4536718   0.3742045   0.4055135  )
       136           H   tau( 136) = (   0.8293801   0.8255572   0.0064879  )
       137           H   tau( 137) = (   0.0194190   0.2265718   0.5549962  )
       138           H   tau( 138) = (  -0.1702634   0.6779244   0.6810083  )
       139           H   tau( 139) = (   0.5466847   0.6761335   0.2690068  )
       140           H   tau( 140) = (   0.7363672   0.2247809   0.1429947  )
       141           H   tau( 141) = (  -0.0581021   0.3259473   0.4877842  )
       142           H   tau( 142) = (  -0.0927422   0.7773000   0.7482203  )
       143           H   tau( 143) = (   0.6242059   0.5767579   0.3362188  )
       144           H   tau( 144) = (   0.6588460   0.1254053   0.0757827  )

     number of k points=     8
                       cart. coord. in units 2pi/alat
        k(    1) = (   0.0000000   0.0000000   0.0000000), wk =   0.2500000
        k(    2) = (   0.0000000   0.0000000  -0.6067939), wk =   0.2500000
        k(    3) = (   0.0000000  -0.5538906   0.0000000), wk =   0.2500000
        k(    4) = (   0.0000000  -0.5538906  -0.6067939), wk =   0.2500000
        k(    5) = (  -0.5000000   0.0000000  -0.2632856), wk =   0.2500000
        k(    6) = (  -0.5000000   0.0000000  -0.8700796), wk =   0.2500000
        k(    7) = (  -0.5000000  -0.5538906  -0.2632856), wk =   0.2500000
        k(    8) = (  -0.5000000  -0.5538906  -0.8700796), wk =   0.2500000

     Dense  grid:  1370165 G-vectors     FFT dimensions: ( 160, 144, 144)

     Estimated max dynamical RAM per process >    2030.78MB

     Estimated total allocated dynamical RAM >   16246.22MB

     Check: negative/imaginary core charge=   -0.000002    0.000000

     Initial potential from superposition of free atoms

     starting charge  479.99651, renormalised to  480.00000
     Starting wfc are  432 randomized atomic wfcs
     Checking if some PAW data can be deallocated... 

     total cpu time spent up to now is      170.8 secs

     per-process dynamical memory:  1313.4 Mb

     Self-consistent Calculation

     iteration #  1     ecut=   100.00 Ry     beta=0.50
     Davidson diagonalization with overlap
     ethr =  1.00E-02,  avg # of iterations =  3.9

     total cpu time spent up to now is      693.1 secs

     total energy              =   -2379.97774167 Ry
     Harris-Foulkes estimate   =   -2388.62000776 Ry
     estimated scf accuracy    <      15.96464940 Ry

     iteration #  2     ecut=   100.00 Ry     beta=0.50
     Davidson diagonalization with overlap
     ethr =  3.33E-03,  avg # of iterations =  3.0

     total cpu time spent up to now is      979.5 secs

     total energy              =   -2380.98196180 Ry
     Harris-Foulkes estimate   =   -2382.37799851 Ry
     estimated scf accuracy    <       2.71772825 Ry

     iteration #  3     ecut=   100.00 Ry     beta=0.50
     Davidson diagonalization with overlap
     ethr =  5.66E-04,  avg # of iterations =  5.0

     total cpu time spent up to now is     1583.8 secs

     total energy              =   -2382.84129913 Ry
     Harris-Foulkes estimate   =   -2383.92117601 Ry
     estimated scf accuracy    <       2.85685511 Ry

     iteration #  4     ecut=   100.00 Ry     beta=0.50
     Davidson diagonalization with overlap
     ethr =  5.66E-04,  avg # of iterations =  1.1

     total cpu time spent up to now is     1836.8 secs

     total energy              =   -2382.49938706 Ry
     Harris-Foulkes estimate   =   -2383.02954786 Ry
     estimated scf accuracy    <       0.75814546 Ry

     iteration #  5     ecut=   100.00 Ry     beta=0.50
     Davidson diagonalization with overlap
     ethr =  1.58E-04,  avg # of iterations =  5.0

     total cpu time spent up to now is     2430.8 secs

     total energy              =   -2382.90555093 Ry
     Harris-Foulkes estimate   =   -2383.60985134 Ry
     estimated scf accuracy    <       1.57196165 Ry

     iteration #  6     ecut=   100.00 Ry     beta=0.50
     Davidson diagonalization with overlap
     ethr =  1.58E-04,  avg # of iterations =  6.2

     total cpu time spent up to now is     2775.6 secs

     total energy              =   -2383.01793321 Ry
     Harris-Foulkes estimate   =   -2383.07904449 Ry
     estimated scf accuracy    <       0.13289792 Ry

     iteration #  7     ecut=   100.00 Ry     beta=0.50
     Davidson diagonalization with overlap
     ethr =  2.77E-05,  avg # of iterations =  8.1

     total cpu time spent up to now is     3393.3 secs

     total energy              =   -2383.11951665 Ry
     Harris-Foulkes estimate   =   -2383.12666732 Ry
     estimated scf accuracy    <       0.02569258 Ry

     iteration #  8     ecut=   100.00 Ry     beta=0.50
     Davidson diagonalization with overlap
     ethr =  5.35E-06,  avg # of iterations =  1.6

     total cpu time spent up to now is     3649.2 secs

     total energy              =   -2383.11532358 Ry
     Harris-Foulkes estimate   =   -2383.12071013 Ry
     estimated scf accuracy    <       0.01112095 Ry

     iteration #  9     ecut=   100.00 Ry     beta=0.50
     Davidson diagonalization with overlap
     ethr =  2.32E-06,  avg # of iterations =  5.6

     total cpu time spent up to now is     4094.9 secs

     total energy              =   -2383.11986256 Ry
     Harris-Foulkes estimate   =   -2383.12043079 Ry
     estimated scf accuracy    <       0.00138907 Ry

     iteration # 10     ecut=   100.00 Ry     beta=0.50
     Davidson diagonalization with overlap
     ethr =  2.89E-07,  avg # of iterations =  3.0

     total cpu time spent up to now is     4363.9 secs

     total energy              =   -2383.11980124 Ry
     Harris-Foulkes estimate   =   -2383.11998423 Ry
     estimated scf accuracy    <       0.00031394 Ry

     iteration # 11     ecut=   100.00 Ry     beta=0.50
     Davidson diagonalization with overlap
     ethr =  6.54E-08,  avg # of iterations =  4.0

     total cpu time spent up to now is     4888.2 secs

     total energy              =   -2383.12005953 Ry
     Harris-Foulkes estimate   =   -2383.12016983 Ry
     estimated scf accuracy    <       0.00028457 Ry

     iteration # 12     ecut=   100.00 Ry     beta=0.50
     Davidson diagonalization with overlap
     ethr =  5.93E-08,  avg # of iterations =  1.8

     total cpu time spent up to now is     5147.3 secs

     total energy              =   -2383.12003297 Ry
     Harris-Foulkes estimate   =   -2383.12007260 Ry
     estimated scf accuracy    <       0.00008363 Ry

     iteration # 13     ecut=   100.00 Ry     beta=0.50
     Davidson diagonalization with overlap
     ethr =  1.74E-08,  avg # of iterations =  4.0

     total cpu time spent up to now is     5604.2 secs

     total energy              =   -2383.12009213 Ry
     Harris-Foulkes estimate   =   -2383.12009684 Ry
     estimated scf accuracy    <       0.00002893 Ry

     iteration # 14     ecut=   100.00 Ry     beta=0.50
     Davidson diagonalization with overlap
     ethr =  6.03E-09,  avg # of iterations =  1.0

     total cpu time spent up to now is     5858.7 secs

     total energy              =   -2383.12008483 Ry
     Harris-Foulkes estimate   =   -2383.12009257 Ry
     estimated scf accuracy    <       0.00002015 Ry

     iteration # 15     ecut=   100.00 Ry     beta=0.50
     Davidson diagonalization with overlap
     ethr =  4.20E-09,  avg # of iterations =  3.0

     total cpu time spent up to now is     6183.5 secs

     total energy              =   -2383.12008795 Ry
     Harris-Foulkes estimate   =   -2383.12008838 Ry
     estimated scf accuracy    <       0.00000079 Ry

     iteration # 16     ecut=   100.00 Ry     beta=0.50
     Davidson diagonalization with overlap
     ethr =  1.64E-10,  avg # of iterations =  4.0

     total cpu time spent up to now is     6742.4 secs

     total energy              =   -2383.12008859 Ry
     Harris-Foulkes estimate   =   -2383.12008873 Ry
     estimated scf accuracy    <       0.00000044 Ry

     iteration # 17     ecut=   100.00 Ry     beta=0.50
     Davidson diagonalization with overlap
     ethr =  9.20E-11,  avg # of iterations =  1.0

     total cpu time spent up to now is     6993.1 secs

     total energy              =   -2383.12008853 Ry
     Harris-Foulkes estimate   =   -2383.12008860 Ry
     estimated scf accuracy    <       0.00000018 Ry

     iteration # 18     ecut=   100.00 Ry     beta=0.50
     Davidson diagonalization with overlap
     ethr =  3.76E-11,  avg # of iterations =  4.0

     total cpu time spent up to now is     7414.7 secs

     total energy              =   -2383.12008861 Ry
     Harris-Foulkes estimate   =   -2383.12008861 Ry
     estimated scf accuracy    <       0.00000002 Ry

     iteration # 19     ecut=   100.00 Ry     beta=0.50
     Davidson diagonalization with overlap
     ethr =  4.76E-12,  avg # of iterations =  4.0

     total cpu time spent up to now is     7709.0 secs

     total energy              =   -2383.12008860 Ry
     Harris-Foulkes estimate   =   -2383.12008862 Ry
     estimated scf accuracy    <       0.00000003 Ry

     iteration # 20     ecut=   100.00 Ry     beta=0.50
     Davidson diagonalization with overlap
     ethr =  4.76E-12,  avg # of iterations =  4.0

     total cpu time spent up to now is     7985.4 secs

     total energy              =   -2383.12008860 Ry
     Harris-Foulkes estimate   =   -2383.12008861 Ry
     estimated scf accuracy    <       0.00000001 Ry

     iteration # 21     ecut=   100.00 Ry     beta=0.50
     Davidson diagonalization with overlap
     ethr =  2.26E-12,  avg # of iterations =  4.0

     total cpu time spent up to now is     8440.1 secs

     End of self-consistent calculation

          k = 0.0000 0.0000 0.0000 (171325 PWs)   bands (ev):

   -21.7757 -21.7687 -21.7672 -21.7648 -21.7084 -21.7059 -21.7049 -21.6986
   -20.4467 -20.4442 -20.4378 -20.4356 -20.3711 -20.3700 -20.3619 -20.3616
   -19.3285 -19.3246 -19.3245 -19.3241 -19.2493 -19.2487 -19.2477 -19.2441
   -16.3517 -16.3463 -16.3378 -16.3335 -16.2546 -16.2537 -16.2490 -16.2485
   -13.3824 -13.3740 -13.3539 -13.3525 -13.2979 -13.2911 -13.2824 -13.2820
   -11.7274 -11.7196 -11.7064 -11.7034 -11.6236 -11.6216 -11.5973 -11.5904
   -11.2600 -11.2294 -11.2070 -11.1983 -11.1720 -11.1514 -11.1487 -11.1374
   -10.2296 -10.2122 -10.1733 -10.1552 -10.1510 -10.1493 -10.0729 -10.0680
    -8.8106  -8.7882  -8.7145  -8.7090  -8.7013  -8.6974  -8.6660  -8.6605
    -8.2336  -8.2223  -8.2202  -8.2058  -8.1646  -8.1645  -8.1210  -8.1122
    -7.3181  -7.3088  -7.2975  -7.2736  -7.2422  -7.2175  -7.1653  -7.1649
    -6.6259  -6.6122  -6.5382  -6.5218  -6.5085  -6.4930  -6.4867  -6.4692
    -6.2528  -6.2185  -6.1817  -6.1574  -6.0148  -6.0037  -5.9941  -5.9928
    -5.7304  -5.6811  -5.6683  -5.6398  -5.5812  -5.5662  -5.5604  -5.4568
    -5.4543  -5.4143  -5.3233  -5.2908  -5.2723  -5.2544  -5.2050  -5.1789
    -4.7737  -4.7546  -4.6858  -4.6758  -4.6626  -4.6447  -4.6436  -4.6062
    -4.1065  -4.0873  -4.0794  -4.0592  -4.0491  -4.0251  -3.9870  -3.9157
    -3.9151  -3.9032  -3.8794  -3.8582  -3.8435  -3.8065  -3.7884  -3.7846
    -3.7826  -3.7674  -3.7572  -3.7199  -3.7191  -3.6786  -3.6656  -3.6380
    -3.6297  -3.6249  -3.5783  -3.5650  -3.5436  -3.5403  -3.4920  -3.4747
    -3.2608  -3.2398  -3.0940  -3.0885  -2.9971  -2.9730  -2.9668  -2.9626
    -2.8972  -2.8757  -2.8068  -2.8029  -2.7866  -2.7670  -2.7487  -2.6591
    -2.3037  -2.3021  -2.2951  -2.2761  -2.2348  -2.1700  -2.1688  -2.1269
    -2.1123  -2.0734  -2.0724  -2.0606  -2.0446  -2.0383  -2.0345  -2.0046
    -1.9755  -1.9344  -1.9270  -1.9236  -1.8841  -1.8799  -1.8674  -1.8390
    -1.5650  -1.5374  -1.5253  -1.5226  -1.4353  -1.4304  -1.3788  -1.3725
    -0.8838  -0.8518  -0.8497  -0.8276  -0.8039  -0.7851  -0.7817  -0.7383
    -0.4469  -0.4324  -0.4065  -0.3668  -0.3483  -0.3253  -0.3093  -0.3072
    -0.2462  -0.2452  -0.2432  -0.2194  -0.1802  -0.1800  -0.1693  -0.1290
     0.4388   0.4790   0.4994   0.5237   0.5924   0.5972   0.5983   0.6121
     2.6642   2.7512   2.7804   2.7822   2.9038   2.9202   2.9370   2.9817
     5.2804   5.3085   5.3340   5.3385   5.4352   5.4549   5.4984   5.5155
     6.1024   6.1163   6.1547   6.1816   6.2692   6.2709   6.3299   6.3636
     6.3859   7.0500   7.0852   7.1136   7.1903   7.2361   7.2382   7.2796
     7.3180   7.3218   7.3772   7.4568   7.4837   7.5360   7.5401   7.5743
     7.6307   7.7772   7.8511   7.9372   8.0120   8.0871   8.1869   8.2397

          k = 0.0000 0.0000-0.6068 (171250 PWs)   bands (ev):

   -21.7730 -21.7730 -21.7652 -21.7652 -21.7081 -21.7081 -21.7009 -21.7009
   -20.4422 -20.4422 -20.4400 -20.4400 -20.3664 -20.3664 -20.3659 -20.3659
   -19.3269 -19.3269 -19.3238 -19.3238 -19.2494 -19.2494 -19.2456 -19.2456
   -16.3489 -16.3489 -16.3361 -16.3361 -16.2518 -16.2518 -16.2509 -16.2509
   -13.3755 -13.3755 -13.3559 -13.3559 -13.2901 -13.2901 -13.2868 -13.2868
   -11.7371 -11.7371 -11.6909 -11.6909 -11.6227 -11.6227 -11.5940 -11.5939
   -11.2412 -11.2412 -11.2037 -11.2037 -11.1607 -11.1607 -11.1460 -11.1460
   -10.2101 -10.2101 -10.1805 -10.1805 -10.1206 -10.1206 -10.0962 -10.0962
    -8.7671  -8.7671  -8.7471  -8.7471  -8.6881  -8.6881  -8.6738  -8.6738
    -8.2416  -8.2416  -8.1940  -8.1940  -8.1491  -8.1491  -8.1357  -8.1357
    -7.3226  -7.3226  -7.2902  -7.2902  -7.2363  -7.2363  -7.1468  -7.1468
    -6.6064  -6.6064  -6.5525  -6.5525  -6.5187  -6.5187  -6.4802  -6.4802
    -6.1967  -6.1967  -6.1572  -6.1572  -6.0040  -6.0040  -5.9632  -5.9632
    -5.7146  -5.7146  -5.6328  -5.6328  -5.5615  -5.5615  -5.5494  -5.5494
    -5.3986  -5.3986  -5.3766  -5.3766  -5.2782  -5.2782  -5.2251  -5.2251
    -4.7735  -4.7735  -4.6812  -4.6812  -4.6450  -4.6450  -4.6050  -4.6050
    -4.1297  -4.1297  -4.0495  -4.0495  -3.9629  -3.9629  -3.9468  -3.9468
    -3.9183  -3.9183  -3.8458  -3.8458  -3.8386  -3.8386  -3.8026  -3.8026
    -3.7670  -3.7670  -3.7408  -3.7408  -3.6946  -3.6946  -3.6723  -3.6723
    -3.6029  -3.6029  -3.5811  -3.5811  -3.5693  -3.5693  -3.4669  -3.4669
    -3.1612  -3.1612  -3.1142  -3.1142  -3.0432  -3.0432  -3.0130  -3.0130
    -2.8712  -2.8712  -2.8162  -2.8162  -2.7817  -2.7817  -2.7008  -2.7008
    -2.3082  -2.3082  -2.2752  -2.2752  -2.1865  -2.1865  -2.1659  -2.1659
    -2.0929  -2.0929  -2.0802  -2.0802  -2.0539  -2.0539  -2.0184  -2.0184
    -1.9611  -1.9611  -1.9137  -1.9137  -1.8703  -1.8703  -1.8171  -1.8171
    -1.5717  -1.5717  -1.5172  -1.5172  -1.4207  -1.4207  -1.3867  -1.3867
    -0.8851  -0.8851  -0.8449  -0.8449  -0.7638  -0.7638  -0.7509  -0.7509
    -0.4413  -0.4413  -0.4008  -0.4008  -0.3495  -0.3495  -0.3058  -0.3058
    -0.2340  -0.2340  -0.1972  -0.1972  -0.1876  -0.1876  -0.1762  -0.1762
     0.4788   0.4788   0.4919   0.4919   0.5936   0.5936   0.6084   0.6084
     2.6971   2.6971   2.7897   2.7897   2.8788   2.8788   2.9964   2.9964
     5.2933   5.2933   5.3280   5.3280   5.4433   5.4433   5.4882   5.4882
     6.1169   6.1169   6.1869   6.1869   6.2677   6.2677   6.3429   6.3429
     6.6995   6.6995   7.0854   7.0854   7.1365   7.1365   7.2815   7.2815
     7.3223   7.3223   7.3379   7.3379   7.5553   7.5553   7.5911   7.5911
     7.7243   7.7243   7.8890   7.8890   7.9952   7.9952   8.2389   8.2389

          k = 0.0000-0.5539 0.0000 (171236 PWs)   bands (ev):

   -21.7724 -21.7724 -21.7660 -21.7660 -21.7074 -21.7074 -21.7014 -21.7014
   -20.4455 -20.4455 -20.4367 -20.4367 -20.3705 -20.3705 -20.3617 -20.3617
   -19.3270 -19.3270 -19.3239 -19.3239 -19.2492 -19.2492 -19.2457 -19.2457
   -16.3495 -16.3495 -16.3351 -16.3351 -16.2542 -16.2542 -16.2488 -16.2488
   -13.3759 -13.3759 -13.3516 -13.3516 -13.2947 -13.2947 -13.2864 -13.2864
   -11.7234 -11.7234 -11.7052 -11.7052 -11.6232 -11.6232 -11.5932 -11.5932
   -11.2460 -11.2460 -11.2036 -11.2036 -11.1586 -11.1586 -11.1436 -11.1436
   -10.2180 -10.2180 -10.1792 -10.1792 -10.1376 -10.1376 -10.0697 -10.0697
    -8.7925  -8.7925  -8.7306  -8.7306  -8.6841  -8.6841  -8.6630  -8.6630
    -8.2272  -8.2272  -8.2102  -8.2102  -8.1638  -8.1638  -8.1170  -8.1170
    -7.3166  -7.3166  -7.2830  -7.2830  -7.2304  -7.2304  -7.1652  -7.1652
    -6.6375  -6.6375  -6.5461  -6.5461  -6.5077  -6.5077  -6.4805  -6.4805
    -6.2058  -6.2058  -6.1497  -6.1497  -6.1142  -6.1142  -6.0284  -6.0284
    -5.6664  -5.6664  -5.5707  -5.5707  -5.5386  -5.5386  -5.4663  -5.4663
    -5.4458  -5.4458  -5.3023  -5.3023  -5.2518  -5.2518  -5.2386  -5.2386
    -4.7166  -4.7166  -4.7024  -4.7024  -4.6686  -4.6686  -4.6412  -4.6412
    -4.0979  -4.0979  -4.0522  -4.0522  -4.0296  -4.0296  -4.0032  -4.0032
    -3.9051  -3.9051  -3.8554  -3.8554  -3.8193  -3.8193  -3.7891  -3.7891
    -3.7801  -3.7801  -3.7457  -3.7457  -3.6888  -3.6888  -3.6650  -3.6650
    -3.6112  -3.6112  -3.5968  -3.5968  -3.5278  -3.5278  -3.4712  -3.4712
    -3.2856  -3.2856  -3.0686  -3.0686  -2.9908  -2.9908  -2.9847  -2.9847
    -2.8902  -2.8902  -2.7997  -2.7997  -2.7797  -2.7797  -2.6968  -2.6968
    -2.3036  -2.3036  -2.2806  -2.2806  -2.2039  -2.2039  -2.1486  -2.1486
    -2.0793  -2.0793  -2.0756  -2.0756  -2.0378  -2.0378  -2.0132  -2.0132
    -1.9734  -1.9734  -1.9263  -1.9263  -1.8758  -1.8758  -1.8500  -1.8500
    -1.5611  -1.5611  -1.5224  -1.5224  -1.4253  -1.4253  -1.3863  -1.3863
    -0.8649  -0.8649  -0.8192  -0.8192  -0.8115  -0.8115  -0.7529  -0.7529
    -0.4192  -0.4192  -0.3688  -0.3688  -0.3541  -0.3541  -0.3153  -0.3153
    -0.2556  -0.2556  -0.2333  -0.2333  -0.1987  -0.1987  -0.1312  -0.1312
     0.4147   0.4147   0.5527   0.5527   0.5786   0.5786   0.6328   0.6328
     2.6945   2.6945   2.8013   2.8013   2.8933   2.8933   2.9751   2.9751
     5.2541   5.2541   5.3499   5.3499   5.4176   5.4176   5.5419   5.5419
     6.1119   6.1119   6.1746   6.1746   6.2154   6.2154   6.3500   6.3500
     6.7280   6.7280   7.1865   7.1865   7.2129   7.2129   7.2933   7.2933
     7.3597   7.3597   7.4305   7.4305   7.4596   7.4596   7.5454   7.5454
     7.6195   7.6195   7.9118   7.9118   7.9945   7.9945   8.2391   8.2391

          k = 0.0000-0.5539-0.6068 (171224 PWs)   bands (ev):

   -21.7720 -21.7720 -21.7663 -21.7663 -21.7072 -21.7072 -21.7016 -21.7016
   -20.4418 -20.4418 -20.4405 -20.4405 -20.3664 -20.3664 -20.3659 -20.3659
   -19.3266 -19.3266 -19.3242 -19.3242 -19.2491 -19.2491 -19.2459 -19.2459
   -16.3488 -16.3488 -16.3361 -16.3361 -16.2516 -16.2516 -16.2511 -16.2511
   -13.3744 -13.3744 -13.3522 -13.3522 -13.2919 -13.2919 -13.2905 -13.2905
   -11.7373 -11.7373 -11.6908 -11.6908 -11.6219 -11.6219 -11.5948 -11.5948
   -11.2410 -11.2410 -11.2034 -11.2034 -11.1539 -11.1539 -11.1532 -11.1532
   -10.1994 -10.1994 -10.1951 -10.1951 -10.1146 -10.1146 -10.0969 -10.0969
    -8.7650  -8.7650  -8.7435  -8.7435  -8.6891  -8.6891  -8.6757  -8.6757
    -8.2398  -8.2398  -8.1907  -8.1907  -8.1506  -8.1506  -8.1352  -8.1352
    -7.3215  -7.3215  -7.2954  -7.2954  -7.2259  -7.2259  -7.1551  -7.1551
    -6.6214  -6.6214  -6.5745  -6.5745  -6.5065  -6.5065  -6.4936  -6.4936
    -6.1622  -6.1622  -6.1528  -6.1528  -6.0564  -6.0564  -6.0466  -6.0466
    -5.6553  -5.6553  -5.6034  -5.6034  -5.5280  -5.5280  -5.4849  -5.4849
    -5.4202  -5.4202  -5.3385  -5.3385  -5.3163  -5.3163  -5.2225  -5.2225
    -4.7372  -4.7372  -4.6994  -4.6994  -4.6509  -4.6509  -4.6304  -4.6304
    -4.1272  -4.1272  -4.0371  -4.0371  -3.9765  -3.9765  -3.9320  -3.9320
    -3.8866  -3.8866  -3.8856  -3.8856  -3.8302  -3.8302  -3.8231  -3.8231
    -3.7892  -3.7892  -3.7341  -3.7341  -3.7083  -3.7083  -3.6745  -3.6745
    -3.5945  -3.5945  -3.5838  -3.5838  -3.5534  -3.5534  -3.4718  -3.4718
    -3.1717  -3.1717  -3.1276  -3.1276  -3.0499  -3.0499  -3.0036  -3.0036
    -2.8699  -2.8699  -2.8216  -2.8216  -2.7782  -2.7782  -2.6987  -2.6987
    -2.3127  -2.3127  -2.2687  -2.2687  -2.1734  -2.1734  -2.1677  -2.1677
    -2.0873  -2.0873  -2.0698  -2.0698  -2.0436  -2.0436  -2.0376  -2.0376
    -1.9597  -1.9597  -1.9359  -1.9359  -1.8573  -1.8573  -1.8277  -1.8277
    -1.5583  -1.5583  -1.5293  -1.5293  -1.4265  -1.4265  -1.3878  -1.3878
    -0.8901  -0.8901  -0.8258  -0.8258  -0.7644  -0.7644  -0.7588  -0.7588
    -0.4215  -0.4215  -0.3779  -0.3779  -0.3552  -0.3552  -0.3276  -0.3276
    -0.2329  -0.2329  -0.2164  -0.2164  -0.1803  -0.1803  -0.1737  -0.1737
     0.4618   0.4618   0.4785   0.4785   0.6173   0.6173   0.6237   0.6237
     2.7069   2.7069   2.7710   2.7710   2.8951   2.8951   2.9927   2.9927
     5.2766   5.2766   5.2952   5.2952   5.4672   5.4672   5.4959   5.4959
     6.1337   6.1337   6.1703   6.1703   6.2440   6.2440   6.3195   6.3195
     6.9025   6.9025   6.9219   6.9219   7.2457   7.2457   7.2655   7.2655
     7.3315   7.3315   7.3740   7.3740   7.4818   7.4818   7.5313   7.5313
     7.6754   7.6754   7.9940   7.9940   8.0702   8.0702   8.1470   8.1470

          k =-0.5000 0.0000-0.2633 (171396 PWs)   bands (ev):

   -21.7731 -21.7731 -21.7651 -21.7651 -21.7080 -21.7080 -21.7008 -21.7008
   -20.4425 -20.4425 -20.4402 -20.4402 -20.3663 -20.3663 -20.3655 -20.3655
   -19.3270 -19.3270 -19.3238 -19.3238 -19.2494 -19.2494 -19.2456 -19.2456
   -16.3498 -16.3498 -16.3357 -16.3357 -16.2515 -16.2515 -16.2505 -16.2505
   -13.3780 -13.3780 -13.3529 -13.3529 -13.2912 -13.2912 -13.2867 -13.2867
   -11.7253 -11.7253 -11.7052 -11.7052 -11.6266 -11.6266 -11.5881 -11.5881
   -11.2453 -11.2453 -11.2014 -11.2014 -11.1583 -11.1583 -11.1438 -11.1438
   -10.2242 -10.2242 -10.1716 -10.1716 -10.1409 -10.1409 -10.0694 -10.0694
    -8.7715  -8.7715  -8.7466  -8.7466  -8.6862  -8.6862  -8.6754  -8.6754
    -8.2293  -8.2293  -8.2117  -8.2117  -8.1668  -8.1668  -8.1194  -8.1194
    -7.3152  -7.3152  -7.2799  -7.2799  -7.2313  -7.2313  -7.1654  -7.1654
    -6.6095  -6.6095  -6.5363  -6.5363  -6.5030  -6.5030  -6.4759  -6.4759
    -6.2414  -6.2414  -6.1307  -6.1307  -6.0307  -6.0307  -6.0026  -6.0026
    -5.7026  -5.7026  -5.6347  -5.6347  -5.5695  -5.5695  -5.5074  -5.5074
    -5.4085  -5.4085  -5.3709  -5.3709  -5.2294  -5.2294  -5.2096  -5.2096
    -4.7789  -4.7789  -4.6638  -4.6638  -4.6547  -4.6547  -4.6185  -4.6185
    -4.1308  -4.1308  -4.0671  -4.0671  -4.0107  -4.0107  -3.9953  -3.9953
    -3.8904  -3.8904  -3.8670  -3.8670  -3.8032  -3.8032  -3.7829  -3.7829
    -3.7633  -3.7633  -3.7374  -3.7374  -3.7155  -3.7155  -3.6860  -3.6860
    -3.6165  -3.6165  -3.5674  -3.5674  -3.5378  -3.5378  -3.4929  -3.4929
    -3.1477  -3.1477  -3.1207  -3.1207  -3.0542  -3.0542  -3.0184  -3.0184
    -2.8878  -2.8878  -2.7803  -2.7803  -2.7626  -2.7626  -2.6957  -2.6957
    -2.2977  -2.2977  -2.2363  -2.2363  -2.1991  -2.1991  -2.1576  -2.1576
    -2.1098  -2.1098  -2.0643  -2.0643  -2.0507  -2.0507  -2.0095  -2.0095
    -1.9881  -1.9881  -1.9190  -1.9190  -1.8814  -1.8814  -1.8481  -1.8481
    -1.5568  -1.5568  -1.5074  -1.5074  -1.4285  -1.4285  -1.3849  -1.3849
    -0.8622  -0.8622  -0.8427  -0.8427  -0.7835  -0.7835  -0.7503  -0.7503
    -0.4220  -0.4220  -0.3907  -0.3907  -0.3528  -0.3528  -0.3048  -0.3048
    -0.2528  -0.2528  -0.2235  -0.2235  -0.2069  -0.2069  -0.1377  -0.1377
     0.4723   0.4723   0.4897   0.4897   0.5725   0.5725   0.6292   0.6292
     2.6972   2.6972   2.8077   2.8077   2.8997   2.8997   2.9571   2.9571
     5.2992   5.2992   5.3378   5.3378   5.4423   5.4423   5.4894   5.4894
     6.1203   6.1203   6.1815   6.1815   6.2485   6.2485   6.3518   6.3518
     6.6811   6.6811   7.0869   7.0869   7.1920   7.1920   7.2329   7.2329
     7.3560   7.3560   7.4340   7.4340   7.4703   7.4703   7.5649   7.5649
     7.7367   7.7367   7.8642   7.8642   8.1325   8.1325   8.2177   8.2177

          k =-0.5000 0.0000-0.8701 (171238 PWs)   bands (ev):

   -21.7751 -21.7690 -21.7676 -21.7645 -21.7081 -21.7063 -21.7052 -21.6984
   -20.4462 -20.4439 -20.4378 -20.4356 -20.3710 -20.3700 -20.3623 -20.3621
   -19.3282 -19.3247 -19.3246 -19.3240 -19.2496 -19.2486 -19.2474 -19.2444
   -16.3523 -16.3458 -16.3385 -16.3344 -16.2543 -16.2527 -16.2491 -16.2480
   -13.3809 -13.3704 -13.3563 -13.3560 -13.2953 -13.2941 -13.2833 -13.2814
   -11.7463 -11.7329 -11.6916 -11.6915 -11.6184 -11.6145 -11.6029 -11.5900
   -11.2554 -11.2308 -11.2130 -11.1960 -11.1669 -11.1524 -11.1496 -11.1353
   -10.2247 -10.1918 -10.1909 -10.1792 -10.1302 -10.1079 -10.0990 -10.0909
    -8.8167  -8.7845  -8.7139  -8.7079  -8.7057  -8.7006  -8.6705  -8.6587
    -8.2451  -8.2380  -8.1961  -8.1913  -8.1557  -8.1491  -8.1395  -8.1345
    -7.3276  -7.3195  -7.2897  -7.2805  -7.2527  -7.2149  -7.1614  -7.1411
    -6.6224  -6.5846  -6.5440  -6.5311  -6.5082  -6.5073  -6.5018  -6.4970
    -6.2278  -6.2050  -6.1530  -6.1154  -6.0051  -6.0005  -5.9808  -5.9702
    -5.7844  -5.6731  -5.6338  -5.6232  -5.5883  -5.5581  -5.5252  -5.4699
    -5.4589  -5.3725  -5.3653  -5.3635  -5.3328  -5.2952  -5.2152  -5.1801
    -4.7874  -4.7371  -4.7119  -4.6670  -4.6555  -4.6389  -4.6255  -4.5898
    -4.1674  -4.1069  -4.0602  -4.0449  -3.9957  -3.9561  -3.9518  -3.8959
    -3.8868  -3.8815  -3.8567  -3.8551  -3.8521  -3.8327  -3.8209  -3.8060
    -3.7858  -3.7618  -3.7556  -3.7340  -3.7187  -3.7039  -3.6786  -3.6691
    -3.6654  -3.6169  -3.6109  -3.5704  -3.5569  -3.5184  -3.4528  -3.4408
    -3.2816  -3.2166  -3.1459  -3.0868  -2.9972  -2.9823  -2.9768  -2.9764
    -2.9053  -2.8598  -2.8383  -2.8155  -2.7489  -2.7471  -2.7177  -2.7050
    -2.3162  -2.3007  -2.2567  -2.2551  -2.2025  -2.1946  -2.1511  -2.1384
    -2.1300  -2.1288  -2.0714  -2.0673  -2.0561  -2.0403  -2.0295  -2.0042
    -1.9752  -1.9607  -1.9496  -1.8836  -1.8647  -1.8500  -1.8470  -1.8075
    -1.5861  -1.5392  -1.5163  -1.5058  -1.4325  -1.4012  -1.4010  -1.3910
    -0.8853  -0.8636  -0.8608  -0.8356  -0.8313  -0.7861  -0.7337  -0.7162
    -0.4603  -0.4221  -0.4170  -0.3909  -0.3554  -0.3342  -0.3137  -0.2911
    -0.2398  -0.2362  -0.2296  -0.2155  -0.1787  -0.1680  -0.1658  -0.1615
     0.4297   0.4785   0.4839   0.5499   0.5828   0.5866   0.6125   0.6172
     2.6804   2.7460   2.7675   2.8039   2.8677   2.8861   2.9734   2.9997
     5.2721   5.2763   5.3213   5.3633   5.4498   5.4525   5.4636   5.4930
     6.1017   6.1114   6.1762   6.1950   6.2574   6.2880   6.3094   6.3778
     6.6528   6.7750   6.9306   7.1104   7.1804   7.2329   7.2775   7.2996
     7.3131   7.3286   7.3691   7.4752   7.4939   7.5217   7.5746   7.5796
     7.6183   7.7985   7.8697   8.0126   8.0810   8.1210   8.2418   8.2674

          k =-0.5000-0.5539-0.2633 (171256 PWs)   bands (ev):

   -21.7721 -21.7721 -21.7663 -21.7663 -21.7071 -21.7071 -21.7016 -21.7016
   -20.4420 -20.4420 -20.4407 -20.4407 -20.3662 -20.3662 -20.3656 -20.3656
   -19.3267 -19.3267 -19.3242 -19.3242 -19.2490 -19.2490 -19.2459 -19.2459
   -16.3498 -16.3498 -16.3357 -16.3357 -16.2514 -16.2514 -16.2506 -16.2506
   -13.3749 -13.3749 -13.3518 -13.3518 -13.2935 -13.2935 -13.2892 -13.2892
   -11.7246 -11.7246 -11.7060 -11.7060 -11.6265 -11.6265 -11.5882 -11.5882
   -11.2440 -11.2440 -11.2029 -11.2029 -11.1519 -11.1519 -11.1499 -11.1499
   -10.2185 -10.2185 -10.1849 -10.1849 -10.1325 -10.1325 -10.0689 -10.0689
    -8.7668  -8.7668  -8.7450  -8.7450  -8.6833  -8.6833  -8.6817  -8.6817
    -8.2274  -8.2274  -8.2103  -8.2103  -8.1659  -8.1659  -8.1196  -8.1196
    -7.3126  -7.3126  -7.2835  -7.2835  -7.2307  -7.2307  -7.1654  -7.1654
    -6.6219  -6.6219  -6.5588  -6.5588  -6.5020  -6.5020  -6.4837  -6.4837
    -6.1965  -6.1965  -6.1594  -6.1594  -6.0692  -6.0692  -6.0658  -6.0658
    -5.6200  -5.6200  -5.6165  -5.6165  -5.5159  -5.5159  -5.5004  -5.5004
    -5.4267  -5.4267  -5.2931  -5.2931  -5.2857  -5.2857  -5.2187  -5.2187
    -4.7368  -4.7368  -4.7077  -4.7077  -4.6435  -4.6435  -4.6409  -4.6409
    -4.1137  -4.1137  -4.0317  -4.0317  -4.0194  -4.0194  -3.9805  -3.9805
    -3.9596  -3.9596  -3.9045  -3.9045  -3.8294  -3.8294  -3.7701  -3.7701
    -3.7452  -3.7452  -3.7313  -3.7313  -3.6864  -3.6864  -3.6797  -3.6797
    -3.6193  -3.6193  -3.5838  -3.5838  -3.5216  -3.5216  -3.4925  -3.4925
    -3.1700  -3.1700  -3.1307  -3.1307  -3.0460  -3.0460  -3.0322  -3.0322
    -2.8813  -2.8813  -2.7803  -2.7803  -2.7625  -2.7625  -2.6951  -2.6951
    -2.2965  -2.2965  -2.2351  -2.2351  -2.1917  -2.1917  -2.1578  -2.1578
    -2.0971  -2.0971  -2.0817  -2.0817  -2.0435  -2.0435  -2.0200  -2.0200
    -1.9749  -1.9749  -1.9379  -1.9379  -1.8679  -1.8679  -1.8532  -1.8532
    -1.5571  -1.5571  -1.5130  -1.5130  -1.4244  -1.4244  -1.3932  -1.3932
    -0.8617  -0.8617  -0.8361  -0.8361  -0.7745  -0.7745  -0.7549  -0.7549
    -0.3954  -0.3954  -0.3943  -0.3943  -0.3322  -0.3322  -0.3182  -0.3182
    -0.2708  -0.2708  -0.2522  -0.2522  -0.1834  -0.1834  -0.1433  -0.1433
     0.4613   0.4613   0.4716   0.4716   0.5958   0.5958   0.6448   0.6448
     2.7042   2.7042   2.7969   2.7969   2.8997   2.8997   2.9648   2.9648
     5.2832   5.2832   5.2998   5.2998   5.4522   5.4522   5.5152   5.5152
     6.1124   6.1124   6.1771   6.1771   6.2406   6.2406   6.3384   6.3384
     6.9217   6.9217   7.0070   7.0070   7.2065   7.2065   7.2099   7.2099
     7.2871   7.2871   7.3309   7.3309   7.4824   7.4824   7.5367   7.5367
     7.7639   7.7639   7.9215   7.9215   8.1161   8.1161   8.1888   8.1889

          k =-0.5000-0.5539-0.8701 (171240 PWs)   bands (ev):

   -21.7721 -21.7721 -21.7661 -21.7661 -21.7076 -21.7076 -21.7013 -21.7013
   -20.4451 -20.4451 -20.4367 -20.4367 -20.3705 -20.3705 -20.3622 -20.3622
   -19.3268 -19.3268 -19.3239 -19.3239 -19.2492 -19.2492 -19.2458 -19.2458
   -16.3496 -16.3496 -16.3358 -16.3358 -16.2536 -16.2536 -16.2485 -16.2485
   -13.3753 -13.3753 -13.3520 -13.3520 -13.2948 -13.2948 -13.2873 -13.2873
   -11.7404 -11.7404 -11.6907 -11.6907 -11.6167 -11.6167 -11.5964 -11.5964
   -11.2464 -11.2464 -11.2011 -11.2011 -11.1593 -11.1593 -11.1427 -11.1427
   -10.2059 -10.2059 -10.1914 -10.1914 -10.1154 -10.1154 -10.0934 -10.0934
    -8.7935  -8.7935  -8.7351  -8.7351  -8.6826  -8.6826  -8.6648  -8.6648
    -8.2401  -8.2401  -8.1905  -8.1905  -8.1542  -8.1542  -8.1358  -8.1358
    -7.3219  -7.3219  -7.2919  -7.2919  -7.2257  -7.2257  -7.1559  -7.1559
    -6.6223  -6.6223  -6.5582  -6.5582  -6.5151  -6.5151  -6.4929  -6.4929
    -6.1821  -6.1821  -6.1534  -6.1534  -6.0778  -6.0778  -5.9951  -5.9951
    -5.6751  -5.6751  -5.6272  -5.6272  -5.4929  -5.4929  -5.4682  -5.4682
    -5.4493  -5.4493  -5.3520  -5.3520  -5.2687  -5.2687  -5.2352  -5.2352
    -4.7228  -4.7228  -4.7006  -4.7006  -4.6763  -4.6763  -4.6218  -4.6218
    -4.1415  -4.1415  -4.0081  -4.0081  -3.9636  -3.9636  -3.9427  -3.9427
    -3.9181  -3.9181  -3.8959  -3.8959  -3.8278  -3.8278  -3.7993  -3.7993
    -3.7781  -3.7781  -3.7577  -3.7577  -3.7081  -3.7081  -3.6840  -3.6840
    -3.5959  -3.5959  -3.5836  -3.5836  -3.5728  -3.5728  -3.4527  -3.4527
    -3.2573  -3.2573  -3.0791  -3.0791  -3.0110  -3.0110  -2.9963  -2.9963
    -2.9022  -2.9022  -2.8128  -2.8128  -2.7465  -2.7465  -2.7092  -2.7092
    -2.2976  -2.2976  -2.2587  -2.2587  -2.1884  -2.1884  -2.1627  -2.1627
    -2.1050  -2.1050  -2.0766  -2.0766  -2.0536  -2.0536  -2.0151  -2.0151
    -1.9682  -1.9682  -1.9265  -1.9265  -1.8535  -1.8535  -1.8325  -1.8325
    -1.5601  -1.5601  -1.5111  -1.5111  -1.4303  -1.4303  -1.3902  -1.3902
    -0.8915  -0.8915  -0.8228  -0.8228  -0.7964  -0.7964  -0.7334  -0.7334
    -0.4282  -0.4282  -0.3732  -0.3732  -0.3643  -0.3643  -0.3063  -0.3063
    -0.2691  -0.2691  -0.2169  -0.2169  -0.1713  -0.1713  -0.1579  -0.1579
     0.4090   0.4090   0.5559   0.5559   0.5800   0.5800   0.6334   0.6334
     2.7095   2.7095   2.7910   2.7910   2.8747   2.8747   2.9908   2.9908
     5.2375   5.2375   5.3569   5.3569   5.4124   5.4124   5.5209   5.5209
     6.1167   6.1167   6.1668   6.1668   6.2488   6.2488   6.3303   6.3303
     6.8913   6.8913   6.9955   6.9955   7.1179   7.1179   7.2940   7.2940
     7.3631   7.3631   7.4151   7.4151   7.4718   7.4718   7.5746   7.5746
     7.6834   7.6834   8.0024   8.0024   8.1552   8.1552   8.2420   8.2421

     highest occupied, lowest unoccupied level (ev):     0.6448    2.6642

!    total energy              =   -2383.12008861 Ry
     Harris-Foulkes estimate   =   -2383.12008861 Ry
     estimated scf accuracy    <          2.6E-09 Ry

     total all-electron energy =     -9154.460600 Ry

     The total energy is the sum of the following terms:

     one-electron contribution =   -1333.17131326 Ry
     hartree contribution      =     851.50286512 Ry
     xc contribution           =    -508.48427756 Ry
     ewald contribution        =    -684.80441596 Ry
     Dispersion Correction     =      -0.61237093 Ry
     one-center paw contrib.   =    -707.55057602 Ry

     convergence has been achieved in  21 iterations

     Forces acting on atoms (cartesian axes, Ry/au):

     atom    1 type  1   force =    -0.00020812   -0.00031889   -0.00041122
     atom    2 type  1   force =     0.00020812   -0.00031889    0.00041122
     atom    3 type  1   force =     0.00020812    0.00031889    0.00041122
     atom    4 type  1   force =    -0.00020812    0.00031889   -0.00041122
     atom    5 type  1   force =     0.00019342    0.00006080   -0.00027438
     atom    6 type  1   force =    -0.00019342    0.00006080    0.00027438
     atom    7 type  1   force =    -0.00019342   -0.00006080    0.00027438
     atom    8 type  1   force =     0.00019342   -0.00006080   -0.00027438
     atom    9 type  1   force =     0.00054776   -0.00037178    0.00008452
     atom   10 type  1   force =    -0.00054776   -0.00037178   -0.00008452
     atom   11 type  1   force =    -0.00054776    0.00037178   -0.00008452
     atom   12 type  1   force =     0.00054776    0.00037178    0.00008452
     atom   13 type  1   force =    -0.00003581    0.00012958    0.00002184
     atom   14 type  1   force =     0.00003581    0.00012958   -0.00002184
     atom   15 type  1   force =     0.00003581   -0.00012958   -0.00002184
     atom   16 type  1   force =    -0.00003581   -0.00012958    0.00002184
     atom   17 type  1   force =     0.00047475    0.00047698   -0.00007090
     atom   18 type  1   force =    -0.00047475    0.00047698    0.00007090
     atom   19 type  1   force =    -0.00047475   -0.00047698    0.00007090
     atom   20 type  1   force =     0.00047475   -0.00047698   -0.00007090
     atom   21 type  1   force =    -0.00040256   -0.00026228   -0.00002263
     atom   22 type  1   force =     0.00040256   -0.00026228    0.00002263
     atom   23 type  1   force =     0.00040256    0.00026228    0.00002263
     atom   24 type  1   force =    -0.00040256    0.00026228   -0.00002263
     atom   25 type  1   force =     0.00018058    0.00002880   -0.00002762
     atom   26 type  1   force =    -0.00018058    0.00002880    0.00002762
     atom   27 type  1   force =    -0.00018058   -0.00002880    0.00002762
     atom   28 type  1   force =     0.00018058   -0.00002880   -0.00002762
     atom   29 type  1   force =    -0.00009619   -0.00005337    0.00011558
     atom   30 type  1   force =     0.00009619   -0.00005337   -0.00011558
     atom   31 type  1   force =     0.00009619    0.00005337   -0.00011558
     atom   32 type  1   force =    -0.00009619    0.00005337    0.00011558
     atom   33 type  4   force =    -0.00025696   -0.00003494    0.00053804
     atom   34 type  4   force =     0.00025696   -0.00003494   -0.00053804
     atom   35 type  4   force =     0.00025696    0.00003494   -0.00053804
     atom   36 type  4   force =    -0.00025696    0.00003494    0.00053804
     atom   37 type  1   force =    -0.00020429   -0.00001961   -0.00035830
     atom   38 type  1   force =     0.00020429   -0.00001961    0.00035830
     atom   39 type  1   force =     0.00020429    0.00001961    0.00035830
     atom   40 type  1   force =    -0.00020429    0.00001961   -0.00035830
     atom   41 type  4   force =     0.00086575   -0.00087274    0.00026881
     atom   42 type  4   force =    -0.00086575   -0.00087274   -0.00026881
     atom   43 type  4   force =    -0.00086575    0.00087274   -0.00026881
     atom   44 type  4   force =     0.00086575    0.00087274    0.00026881
     atom   45 type  4   force =     0.00024327    0.00021904    0.00040528
     atom   46 type  4   force =    -0.00024327    0.00021904   -0.00040528
     atom   47 type  4   force =    -0.00024327   -0.00021904   -0.00040528
     atom   48 type  4   force =     0.00024327   -0.00021904    0.00040528
     atom   49 type  1   force =     0.00026919    0.00003524    0.00055680
     atom   50 type  1   force =    -0.00026919    0.00003524   -0.00055680
     atom   51 type  1   force =    -0.00026919   -0.00003524   -0.00055680
     atom   52 type  1   force =     0.00026919   -0.00003524    0.00055680
     atom   53 type  1   force =     0.00011649    0.00012157    0.00006170
     atom   54 type  1   force =    -0.00011649    0.00012157   -0.00006170
     atom   55 type  1   force =    -0.00011649   -0.00012157   -0.00006170
     atom   56 type  1   force =     0.00011649   -0.00012157    0.00006170
     atom   57 type  1   force =    -0.00022227    0.00027118    0.00048649
     atom   58 type  1   force =     0.00022227    0.00027118   -0.00048649
     atom   59 type  1   force =     0.00022227   -0.00027118   -0.00048649
     atom   60 type  1   force =    -0.00022227   -0.00027118    0.00048649
     atom   61 type  1   force =     0.00004710   -0.00015556    0.00030364
     atom   62 type  1   force =    -0.00004710   -0.00015556   -0.00030364
     atom   63 type  1   force =    -0.00004710    0.00015556   -0.00030364
     atom   64 type  1   force =     0.00004710    0.00015556    0.00030364
     atom   65 type  1   force =    -0.00016396   -0.00033310    0.00002310
     atom   66 type  1   force =     0.00016396   -0.00033310   -0.00002310
     atom   67 type  1   force =     0.00016396    0.00033310   -0.00002310
     atom   68 type  1   force =    -0.00016396    0.00033310    0.00002310
     atom   69 type  1   force =    -0.00001467    0.00020023    0.00040721
     atom   70 type  1   force =     0.00001467    0.00020023   -0.00040721
     atom   71 type  1   force =     0.00001467   -0.00020023   -0.00040721
     atom   72 type  1   force =    -0.00001467   -0.00020023    0.00040721
     atom   73 type  1   force =    -0.00001524    0.00008565    0.00014878
     atom   74 type  1   force =     0.00001524    0.00008565   -0.00014878
     atom   75 type  1   force =     0.00001524   -0.00008565   -0.00014878
     atom   76 type  1   force =    -0.00001524   -0.00008565    0.00014878
     atom   77 type  1   force =     0.00042891   -0.00005801   -0.00007656
     atom   78 type  1   force =    -0.00042891   -0.00005801    0.00007656
     atom   79 type  1   force =    -0.00042891    0.00005801    0.00007656
     atom   80 type  1   force =     0.00042891    0.00005801   -0.00007656
     atom   81 type  4   force =    -0.00123690    0.00010508    0.00058991
     atom   82 type  4   force =     0.00123690    0.00010508   -0.00058991
     atom   83 type  4   force =     0.00123690   -0.00010508   -0.00058991
     atom   84 type  4   force =    -0.00123690   -0.00010508    0.00058991
     atom   85 type  1   force =     0.00038578   -0.00018374    0.00049966
     atom   86 type  1   force =    -0.00038578   -0.00018374   -0.00049966
     atom   87 type  1   force =    -0.00038578    0.00018374   -0.00049966
     atom   88 type  1   force =     0.00038578    0.00018374    0.00049966
     atom   89 type  4   force =    -0.00000483   -0.00053295   -0.00154431
     atom   90 type  4   force =     0.00000483   -0.00053295    0.00154431
     atom   91 type  4   force =     0.00000483    0.00053295    0.00154431
     atom   92 type  4   force =    -0.00000483    0.00053295   -0.00154431
     atom   93 type  4   force =     0.00010169   -0.00010000    0.00006928
     atom   94 type  4   force =    -0.00010169   -0.00010000   -0.00006928
     atom   95 type  4   force =    -0.00010169    0.00010000   -0.00006928
     atom   96 type  4   force =     0.00010169    0.00010000    0.00006928
     atom   97 type  3   force =     0.00023526   -0.00070272    0.00050139
     atom   98 type  3   force =    -0.00023526   -0.00070272   -0.00050139
     atom   99 type  3   force =    -0.00023526    0.00070272   -0.00050139
     atom  100 type  3   force =     0.00023526    0.00070272    0.00050139
     atom  101 type  3   force =     0.00057218    0.00008805    0.00029656
     atom  102 type  3   force =    -0.00057218    0.00008805   -0.00029656
     atom  103 type  3   force =    -0.00057218   -0.00008805   -0.00029656
     atom  104 type  3   force =     0.00057218   -0.00008805    0.00029656
     atom  105 type  3   force =     0.00029157    0.00016325    0.00045130
     atom  106 type  3   force =    -0.00029157    0.00016325   -0.00045130
     atom  107 type  3   force =    -0.00029157   -0.00016325   -0.00045130
     atom  108 type  3   force =     0.00029157   -0.00016325    0.00045130
     atom  109 type  3   force =    -0.00030448    0.00018855   -0.00048368
     atom  110 type  3   force =     0.00030448    0.00018855    0.00048368
     atom  111 type  3   force =     0.00030448   -0.00018855    0.00048368
     atom  112 type  3   force =    -0.00030448   -0.00018855   -0.00048368
     atom  113 type  3   force =     0.00031376   -0.00027481    0.00032044
     atom  114 type  3   force =    -0.00031376   -0.00027481   -0.00032044
     atom  115 type  3   force =    -0.00031376    0.00027481   -0.00032044
     atom  116 type  3   force =     0.00031376    0.00027481    0.00032044
     atom  117 type  3   force =     0.00022164   -0.00030294    0.00064653
     atom  118 type  3   force =    -0.00022164   -0.00030294   -0.00064653
     atom  119 type  3   force =    -0.00022164    0.00030294   -0.00064653
     atom  120 type  3   force =     0.00022164    0.00030294    0.00064653
     atom  121 type  3   force =     0.00006393    0.00002079    0.00008907
     atom  122 type  3   force =    -0.00006393    0.00002079   -0.00008907
     atom  123 type  3   force =    -0.00006393   -0.00002079   -0.00008907
     atom  124 type  3   force =     0.00006393   -0.00002079    0.00008907
     atom  125 type  3   force =    -0.00057493   -0.00007998   -0.00000190
     atom  126 type  3   force =     0.00057493   -0.00007998    0.00000190
     atom  127 type  3   force =     0.00057493    0.00007998    0.00000190
     atom  128 type  3   force =    -0.00057493    0.00007998   -0.00000190
     atom  129 type  3   force =     0.00002238    0.00055267    0.00047649
     atom  130 type  3   force =    -0.00002238    0.00055267   -0.00047649
     atom  131 type  3   force =    -0.00002238   -0.00055267   -0.00047649
     atom  132 type  3   force =     0.00002238   -0.00055267    0.00047649
     atom  133 type  3   force =    -0.00032924   -0.00039219   -0.00003928
     atom  134 type  3   force =     0.00032924   -0.00039219    0.00003928
     atom  135 type  3   force =     0.00032924    0.00039219    0.00003928
     atom  136 type  3   force =    -0.00032924    0.00039219   -0.00003928
     atom  137 type  3   force =     0.00002879   -0.00022249   -0.00031176
     atom  138 type  3   force =    -0.00002879   -0.00022249    0.00031176
     atom  139 type  3   force =    -0.00002879    0.00022249    0.00031176
     atom  140 type  3   force =     0.00002879    0.00022249   -0.00031176
     atom  141 type  3   force =     0.00002577   -0.00010267   -0.00013195
     atom  142 type  3   force =    -0.00002577   -0.00010267    0.00013195
     atom  143 type  3   force =    -0.00002577    0.00010267    0.00013195
     atom  144 type  3   force =     0.00002577    0.00010267   -0.00013195

     Total force =     0.007632     Total SCF correction =     0.000097


     Computing stress (Cartesian axis) and pressure

          total   stress  (Ry/bohr**3)                   (kbar)     P=   -5.41
  -0.00003960   0.00000000  -0.00000046         -5.83      0.00     -0.07
   0.00000000  -0.00002686   0.00000000          0.00     -3.95      0.00
  -0.00000046   0.00000000  -0.00004387         -0.07      0.00     -6.45


     Writing output data file scf.save
 
     init_run     :    164.62s CPU    170.11s WALL (       1 calls)
     electrons    :   8006.25s CPU   8269.53s WALL (       1 calls)
     forces       :     74.62s CPU     75.11s WALL (       1 calls)
     stress       :    376.82s CPU    377.75s WALL (       1 calls)

     Called by init_run:
     wfcinit      :    147.27s CPU    152.53s WALL (       1 calls)
     potinit      :      6.07s CPU      6.12s WALL (       1 calls)

     Called by electrons:
     c_bands      :   7269.03s CPU   7495.22s WALL (      21 calls)
     sum_band     :    705.79s CPU    739.27s WALL (      21 calls)
     v_of_rho     :      5.16s CPU      5.65s WALL (      22 calls)
     newd         :     12.99s CPU     16.09s WALL (      22 calls)
     PAW_pot      :     12.24s CPU     12.24s WALL (      22 calls)
     mix_rho      :      1.30s CPU      1.37s WALL (      21 calls)

     Called by c_bands:
     init_us_2    :     24.38s CPU     24.56s WALL (     360 calls)
     cegterg      :   7161.22s CPU   7387.03s WALL (     168 calls)

     Called by sum_band:
     sum_band:bec :      0.31s CPU      0.32s WALL (     168 calls)
     addusdens    :     13.38s CPU     16.37s WALL (      21 calls)

     Called by *egterg:
     h_psi        :   3718.81s CPU   3907.16s WALL (     795 calls)
     s_psi        :    916.45s CPU    916.68s WALL (     795 calls)
     g_psi        :     12.72s CPU     12.73s WALL (     619 calls)
     cdiaghg      :    332.27s CPU    332.38s WALL (     787 calls)

     Called by h_psi:
     h_psi:pot    :   3700.09s CPU   3888.15s WALL (     795 calls)
     h_psi:calbec :    900.72s CPU    901.90s WALL (     795 calls)
     vloc_psi     :   1882.46s CPU   2069.14s WALL (     795 calls)
     add_vuspsi   :    916.90s CPU    917.10s WALL (     795 calls)

     General routines
     calbec       :   1278.67s CPU   1280.28s WALL (    1003 calls)
     fft          :      3.72s CPU      4.56s WALL (     310 calls)
     fftw         :   1913.29s CPU   2129.14s WALL (  330568 calls)
 
     Parallel routines
     fft_scatter  :    444.37s CPU    660.87s WALL (  330878 calls)
 
     PWSCF        :     2h24m CPU        2h29m WALL

 
   This run was terminated on:   5:19: 9  21Dec2017            

=------------------------------------------------------------------------------=
   JOB DONE.
=------------------------------------------------------------------------------=
