
     Program PWSCF v.6.1 (svn rev. 13369) starts on  4Nov2017 at  6:44:28 

     This program is part of the open-source Quantum ESPRESSO suite
     for quantum simulation of materials; please cite
         "P. Giannozzi et al., J. Phys.:Condens. Matter 21 395502 (2009);
          URL http://www.quantum-espresso.org", 
     in publications or presentations arising from this work. More details at
     http://www.quantum-espresso.org/quote

     Parallel version (MPI), running on     8 processors
     R & G space division:  proc/nbgrp/npool/nimage =       8
     Waiting for input...
     Reading input from standard input

     Current dimensions of program PWSCF are:
     Max number of different atomic species (ntypx) = 10
     Max number of k-points (npk) =  40000
     Max angular momentum in pseudopotentials (lmaxx) =  3
               file C.pbe-n-kjpaw_psl.0.1.UPF: wavefunction(s)  2P renormalized
               file N.pbe-n-kjpaw_psl.0.1.UPF: wavefunction(s)  2P renormalized
               file H.pbe-kjpaw_psl.0.1.UPF: wavefunction(s)  1S renormalized
               file O.pbe-n-kjpaw_psl.0.1.UPF: wavefunction(s)  2P renormalized

     -------------------------------------
     Parameters for Dispersion Correction:
     -------------------------------------
       atom      VdW radius       C_6     

        C          2.744         60.710
        N          2.640         42.670
        H          1.892          4.857
        O          2.536         24.284

     Subspace diagonalization in iterative solution of the eigenvalue problem:
     a serial algorithm will be used

 
     Parallelization info
     --------------------
     sticks:   dense  smooth     PW     G-vecs:    dense   smooth      PW
     Min        1335    1335    351                97888    97888   13205
     Max        1336    1336    352                97890    97890   13206
     Sum       10681   10681   2809               783111   783111  105641
 


     bravais-lattice index     =            0
     lattice parameter (alat)  =      14.9402  a.u.
     unit-cell volume          =    5797.0562 (a.u.)^3
     number of atoms/cell      =          100
     number of atomic types    =            4
     number of electrons       =       224.00
     number of Kohn-Sham states=          134
     kinetic-energy cutoff     =     100.0000  Ry
     charge density cutoff     =     400.0000  Ry
     convergence threshold     =      1.0E-08
     mixing beta               =       0.5000
     number of iterations used =            8  plain     mixing
     Exchange-correlation      =  SLA  PW   PBX  PBC ( 1  4  3  4 0 0)

     celldm(1)=  14.940175  celldm(2)=   0.000000  celldm(3)=   0.000000
     celldm(4)=   0.000000  celldm(5)=   0.000000  celldm(6)=   0.000000

     crystal axes: (cart. coord. in units of alat)
               a(1) = (   1.000000   0.000000   0.000000 )  
               a(2) = (   0.000000   1.504680   0.000000 )  
               a(3) = (  -0.173280   0.000000   1.155304 )  

     reciprocal axes: (cart. coord. in units 2 pi/alat)
               b(1) = (  1.000000  0.000000  0.149986 )  
               b(2) = (  0.000000  0.664593  0.000000 )  
               b(3) = (  0.000000  0.000000  0.865573 )  


     PseudoPot. # 1 for  C read from file:
     /scratch/ahofstet/pseudo/C.pbe-n-kjpaw_psl.0.1.UPF
     MD5 check sum: 430fe95172b1e11ef3f8ed03bac87931
     Pseudo is Projector augmented-wave + core cor, Zval =  4.0
     Generated using "atomic" code by A. Dal Corso  v.5.0.99 svn rev. 10869
     Shape of augmentation charge: BESSEL
     Using radial grid of 1073 points,  4 beta functions with: 
                l(1) =   0
                l(2) =   0
                l(3) =   1
                l(4) =   1
     Q(r) pseudized with 0 coefficients 


     PseudoPot. # 2 for  N read from file:
     /scratch/ahofstet/pseudo/N.pbe-n-kjpaw_psl.0.1.UPF
     MD5 check sum: f73187c8b701007e77325f868c9291d7
     Pseudo is Projector augmented-wave + core cor, Zval =  5.0
     Generated using "atomic" code by A. Dal Corso  v.5.0.99 svn rev. 10869
     Shape of augmentation charge: PSQ
     Using radial grid of 1085 points,  4 beta functions with: 
                l(1) =   0
                l(2) =   0
                l(3) =   1
                l(4) =   1
     Q(r) pseudized with 0 coefficients 


     PseudoPot. # 3 for  H read from file:
     /scratch/ahofstet/pseudo/H.pbe-kjpaw_psl.0.1.UPF
     MD5 check sum: 94e484f906d9e9773b2f6e52662335b2
     Pseudo is Projector augmented-wave, Zval =  1.0
     Generated using "atomic" code by A. Dal Corso  v.5.0.99 svn rev. 10869
     Shape of augmentation charge: PSQ
     Using radial grid of  929 points,  2 beta functions with: 
                l(1) =   0
                l(2) =   0
     Q(r) pseudized with 0 coefficients 


     PseudoPot. # 4 for  O read from file:
     /scratch/ahofstet/pseudo/O.pbe-n-kjpaw_psl.0.1.UPF
     MD5 check sum: 3f94a2996a3169367d6eb21d9b593f20
     Pseudo is Projector augmented-wave + core cor, Zval =  6.0
     Generated using "atomic" code by A. Dal Corso  v.5.0.99 svn rev. 10869
     Shape of augmentation charge: BESSEL
     Using radial grid of 1095 points,  4 beta functions with: 
                l(1) =   0
                l(2) =   0
                l(3) =   1
                l(4) =   1
     Q(r) pseudized with 0 coefficients 


     atomic species   valence    mass     pseudopotential
        C              4.00    12.01070      C( 1.00)
        N              5.00    14.00670      N( 1.00)
        H              1.00     1.00794      H( 1.00)
        O              6.00    15.99940      O( 1.00)

      2 Sym. Ops., with inversion, found



   Cartesian axes

     site n.     atom                  positions (alat units)
         1           N   tau(   1) = (   0.2430234   1.2709674   0.9495048  )
         2           N   tau(   2) = (  -0.0029529   0.5186302   0.7834648  )
         3           N   tau(   3) = (   0.5836968   0.2337126   0.2057993  )
         4           N   tau(   4) = (   0.8296731   0.9860498   0.3718394  )
         5           C   tau(   5) = (   0.3153746   1.3795874   0.8205937  )
         6           C   tau(   6) = (  -0.0753560   0.6272469   0.9123527  )
         7           C   tau(   7) = (   0.5113456   0.1250926   0.3347104  )
         8           C   tau(   8) = (   0.9020762   0.8774331   0.2429514  )
         9           H   tau(   9) = (   0.2664111   1.3585319   0.6920100  )
        10           H   tau(  10) = (  -0.0264009   0.6062065   1.0409447  )
        11           H   tau(  11) = (   0.5603091   0.1461481   0.4632941  )
        12           H   tau(  12) = (   0.8531211   0.8984735   0.1143595  )
        13           C   tau(  13) = (   0.3620797   0.0544375   0.8641207  )
        14           C   tau(  14) = (  -0.1220691   0.8067720   0.8688221  )
        15           C   tau(  15) = (   0.4646405   1.4502425   0.2911834  )
        16           C   tau(  16) = (   0.9487892   0.6979080   0.2864820  )
        17           H   tau(  17) = (   0.3440174   0.0932170   0.9953334  )
        18           H   tau(  18) = (  -0.1039837   0.8455537   0.7376124  )
        19           H   tau(  19) = (   0.4827028   1.4114630   0.1599707  )
        20           H   tau(  20) = (   0.9307038   0.6591263   0.4176917  )
        21           H   tau(  21) = (   0.3387723   0.1525960   0.7700200  )
        22           H   tau(  22) = (  -0.0987543   0.9049272   0.9629260  )
        23           H   tau(  23) = (   0.4879479   1.3520840   0.3852841  )
        24           H   tau(  24) = (   0.9254744   0.5997528   0.1923782  )
        25           C   tau(  25) = (   0.4987764   1.4286965   0.8314719  )
        26           C   tau(  26) = (   0.7412345   0.6763473   0.9014614  )
        27           C   tau(  27) = (   0.3279438   0.0759835   0.3238322  )
        28           C   tau(  28) = (   0.0854857   0.8283327   0.2538428  )
        29           H   tau(  29) = (   0.5705778   1.4343850   0.7138353  )
        30           H   tau(  30) = (   0.6694469   0.6820317   1.0191063  )
        31           H   tau(  31) = (   0.2561423   0.0702950   0.4414688  )
        32           H   tau(  32) = (   0.1572733   0.8226483   0.1361979  )
        33           H   tau(  33) = (   0.5695948   1.3834379   0.9406044  )
        34           H   tau(  34) = (   0.6704125   0.6310922   0.7923310  )
        35           H   tau(  35) = (   0.2571253   0.1212421   0.2146997  )
        36           H   tau(  36) = (   0.1563076   0.8735878   0.3629731  )
        37           C   tau(  37) = (   0.2964182   1.0973064   0.9258791  )
        38           C   tau(  38) = (  -0.0563407   0.3449659   0.8070801  )
        39           C   tau(  39) = (   0.5303020   0.4073736   0.2294250  )
        40           C   tau(  40) = (   0.8830609   1.1597141   0.3482240  )
        41           H   tau(  41) = (   0.2706143   1.0437693   0.8002018  )
        42           H   tau(  42) = (  -0.0305448   0.2914303   0.9327634  )
        43           H   tau(  43) = (   0.5561058   0.4609107   0.3551023  )
        44           H   tau(  44) = (   0.8572650   1.2132496   0.2225407  )
        45           C   tau(  45) = (   0.4550951   1.0371832   1.0122478  )
        46           C   tau(  46) = (   0.7850042   0.2848314   0.7206988  )
        47           C   tau(  47) = (   0.3716250   0.4674968   0.1430564  )
        48           C   tau(  48) = (   0.0417160   1.2198486   0.4346053  )
        49           H   tau(  49) = (   0.5189909   1.1292803   1.0925546  )
        50           H   tau(  50) = (   0.7211044   0.3769261   0.6403882  )
        51           H   tau(  51) = (   0.3077293   0.3753997   0.0627495  )
        52           H   tau(  52) = (   0.1056158   1.1277539   0.5149159  )
        53           H   tau(  53) = (   0.5382074   0.9497916   0.9452452  )
        54           H   tau(  54) = (   0.7018902   0.1974385   0.7877028  )
        55           H   tau(  55) = (   0.2885128   0.5548884   0.2100589  )
        56           H   tau(  56) = (   0.1248299   1.3072415   0.3676013  )
        57           C   tau(  57) = (   0.2834849   0.9761888   1.0717808  )
        58           C   tau(  58) = (  -0.0433725   0.2238518   0.6611871  )
        59           C   tau(  59) = (   0.5432353   0.5284912   0.0835234  )
        60           C   tau(  60) = (   0.8700927   1.2808282   0.4941170  )
        61           H   tau(  61) = (   0.2458418   0.8464492   1.0440655  )
        62           H   tau(  62) = (  -0.0057291   0.0941101   0.6888997  )
        63           H   tau(  63) = (   0.5808783   0.6582308   0.1112387  )
        64           H   tau(  64) = (   0.8324492   1.4105699   0.4664044  )
        65           H   tau(  65) = (   0.4095758   1.0274730   0.0352261  )
        66           H   tau(  66) = (   0.0038127   0.2751356   0.5424329  )
        67           H   tau(  67) = (   0.4171444   0.4772070   1.1200780  )
        68           H   tau(  68) = (   0.8229075   1.2295444   0.6128713  )
        69           C   tau(  69) = (   0.0602675   1.2831402   0.9466453  )
        70           C   tau(  70) = (   0.1798106   0.5308125   0.7863271  )
        71           C   tau(  71) = (   0.7664527   0.2215398   0.2086588  )
        72           C   tau(  72) = (   0.6469096   0.9738675   0.3689770  )
        73           H   tau(  73) = (   0.0004796   1.2361811   0.8301465  )
        74           H   tau(  74) = (   0.2396102   0.4838506   0.9028186  )
        75           H   tau(  75) = (   0.8262405   0.2684989   0.3251576  )
        76           H   tau(  76) = (   0.5871099   1.0208294   0.2524856  )
        77           C   tau(  77) = (  -0.0380600   1.2590063   1.1078472  )
        78           C   tau(  78) = (   0.2781018   0.5066745   0.6251070  )
        79           C   tau(  79) = (   0.8647802   0.2456737   0.0474569  )
        80           C   tau(  80) = (   0.5486183   0.9980055   0.5301971  )
        81           H   tau(  81) = (   0.2070142   1.2372678   0.0680612  )
        82           H   tau(  82) = (   0.2062895   0.4849222   0.5096026  )
        83           H   tau(  83) = (   0.6197060   0.2674122   1.0872429  )
        84           H   tau(  84) = (   0.6204306   1.0197577   0.6457015  )
        85           H   tau(  85) = (  -0.1585125   1.1919367   1.1010787  )
        86           H   tau(  86) = (   0.3985650   0.4396176   0.6318557  )
        87           H   tau(  87) = (   0.9852327   0.3127432   0.0542254  )
        88           H   tau(  88) = (   0.4281551   1.0650624   0.5234484  )
        89           C   tau(  89) = (  -0.0236003   1.4325675   1.0288021  )
        90           C   tau(  90) = (   0.2636514   0.6802370   0.7041490  )
        91           C   tau(  91) = (   0.8503205   0.0721124   0.1265020  )
        92           C   tau(  92) = (   0.5630688   0.8244430   0.4511552  )
        93           H   tau(  93) = (  -0.1344492   1.4876330   0.9682606  )
        94           H   tau(  94) = (   0.3745203   0.7352979   0.7646615  )
        95           H   tau(  95) = (   0.9611694   0.0170470   0.1870435  )
        96           H   tau(  96) = (   0.4521998   0.7693821   0.3906426  )
        97           H   tau(  97) = (   0.0591488   0.0180807   1.0920827  )
        98           H   tau(  98) = (   0.1808935   0.7704328   0.6408846  )
        99           H   tau(  99) = (   0.7675714   1.4865993   0.0632215  )
       100           H   tau( 100) = (   0.6458266   0.7342472   0.5144195  )

     number of k points=     8
                       cart. coord. in units 2pi/alat
        k(    1) = (   0.0000000   0.0000000   0.0000000), wk =   0.1666667
        k(    2) = (   0.0000000   0.0000000  -0.4327865), wk =   0.1666667
        k(    3) = (   0.0000000  -0.3322966   0.0000000), wk =   0.1666667
        k(    4) = (   0.0000000  -0.3322966  -0.4327865), wk =   0.1666667
        k(    5) = (   0.3333333   0.0000000   0.0499954), wk =   0.3333333
        k(    6) = (   0.3333333   0.0000000  -0.3827910), wk =   0.3333333
        k(    7) = (   0.3333333  -0.3322966   0.0499954), wk =   0.3333333
        k(    8) = (   0.3333333  -0.3322966  -0.3827910), wk =   0.3333333

     Dense  grid:   783111 G-vectors     FFT dimensions: (  96, 144, 120)

     Estimated max dynamical RAM per process >     575.06MB

     Estimated total allocated dynamical RAM >    4600.51MB

     Check: negative/imaginary core charge=   -0.000002    0.000000

     Initial potential from superposition of free atoms

     starting charge  223.99790, renormalised to  224.00000
     Starting wfc are  220 randomized atomic wfcs
     Checking if some PAW data can be deallocated... 

     total cpu time spent up to now is       36.5 secs

     per-process dynamical memory:   417.6 Mb

     Self-consistent Calculation

     iteration #  1     ecut=   100.00 Ry     beta=0.50
     Davidson diagonalization with overlap
     ethr =  1.00E-02,  avg # of iterations =  4.0

     total cpu time spent up to now is      118.6 secs

     total energy              =    -845.45604894 Ry
     Harris-Foulkes estimate   =    -850.99557830 Ry
     estimated scf accuracy    <      10.59954121 Ry

     iteration #  2     ecut=   100.00 Ry     beta=0.50
     Davidson diagonalization with overlap
     ethr =  4.73E-03,  avg # of iterations =  2.0

     total cpu time spent up to now is      159.9 secs

     total energy              =    -845.47754699 Ry
     Harris-Foulkes estimate   =    -846.17557073 Ry
     estimated scf accuracy    <       1.30081578 Ry

     iteration #  3     ecut=   100.00 Ry     beta=0.50
     Davidson diagonalization with overlap
     ethr =  5.81E-04,  avg # of iterations =  5.0

     total cpu time spent up to now is      260.1 secs

     total energy              =    -848.82221617 Ry
     Harris-Foulkes estimate   =    -848.42951461 Ry
     estimated scf accuracy    <       3.60683886 Ry

     iteration #  4     ecut=   100.00 Ry     beta=0.50
     Davidson diagonalization with overlap
     ethr =  5.81E-04,  avg # of iterations =  1.1

     total cpu time spent up to now is      300.2 secs

     total energy              =    -845.91691513 Ry
     Harris-Foulkes estimate   =    -848.83007718 Ry
     estimated scf accuracy    <       4.38155517 Ry

     iteration #  5     ecut=   100.00 Ry     beta=0.50
     Davidson diagonalization with overlap
     ethr =  5.81E-04,  avg # of iterations =  5.4

     total cpu time spent up to now is      386.9 secs

     total energy              =    -847.38113929 Ry
     Harris-Foulkes estimate   =    -847.49839427 Ry
     estimated scf accuracy    <       0.68988815 Ry

     iteration #  6     ecut=   100.00 Ry     beta=0.50
     Davidson diagonalization with overlap
     ethr =  3.08E-04,  avg # of iterations =  1.0

     total cpu time spent up to now is      426.9 secs

     total energy              =    -847.10414725 Ry
     Harris-Foulkes estimate   =    -847.38707033 Ry
     estimated scf accuracy    <       0.48419076 Ry

     iteration #  7     ecut=   100.00 Ry     beta=0.50
     Davidson diagonalization with overlap
     ethr =  2.16E-04,  avg # of iterations =  5.8

     total cpu time spent up to now is      491.4 secs

     total energy              =    -847.25742545 Ry
     Harris-Foulkes estimate   =    -847.27919872 Ry
     estimated scf accuracy    <       0.03318807 Ry

     iteration #  8     ecut=   100.00 Ry     beta=0.50
     Davidson diagonalization with overlap
     ethr =  1.48E-05,  avg # of iterations = 10.5

     total cpu time spent up to now is      585.1 secs

     total energy              =    -847.27493812 Ry
     Harris-Foulkes estimate   =    -847.27492452 Ry
     estimated scf accuracy    <       0.00234782 Ry

     iteration #  9     ecut=   100.00 Ry     beta=0.50
     Davidson diagonalization with overlap
     ethr =  1.05E-06,  avg # of iterations =  5.4

     total cpu time spent up to now is      632.4 secs

     total energy              =    -847.27380841 Ry
     Harris-Foulkes estimate   =    -847.27525702 Ry
     estimated scf accuracy    <       0.00258260 Ry

     iteration # 10     ecut=   100.00 Ry     beta=0.50
     Davidson diagonalization with overlap
     ethr =  1.05E-06,  avg # of iterations =  1.2

     total cpu time spent up to now is      672.6 secs

     total energy              =    -847.27383247 Ry
     Harris-Foulkes estimate   =    -847.27403166 Ry
     estimated scf accuracy    <       0.00030661 Ry

     iteration # 11     ecut=   100.00 Ry     beta=0.50
     Davidson diagonalization with overlap
     ethr =  1.37E-07,  avg # of iterations =  4.6

     total cpu time spent up to now is      765.7 secs

     total energy              =    -847.27453949 Ry
     Harris-Foulkes estimate   =    -847.27462820 Ry
     estimated scf accuracy    <       0.00074193 Ry

     iteration # 12     ecut=   100.00 Ry     beta=0.50
     Davidson diagonalization with overlap
     ethr =  1.37E-07,  avg # of iterations =  1.0

     total cpu time spent up to now is      805.8 secs

     total energy              =    -847.27419476 Ry
     Harris-Foulkes estimate   =    -847.27454137 Ry
     estimated scf accuracy    <       0.00058508 Ry

     iteration # 13     ecut=   100.00 Ry     beta=0.50
     Davidson diagonalization with overlap
     ethr =  1.37E-07,  avg # of iterations =  4.0

     total cpu time spent up to now is      877.3 secs

     total energy              =    -847.27437218 Ry
     Harris-Foulkes estimate   =    -847.27439859 Ry
     estimated scf accuracy    <       0.00004613 Ry

     iteration # 14     ecut=   100.00 Ry     beta=0.50
     Davidson diagonalization with overlap
     ethr =  2.06E-08,  avg # of iterations =  1.0

     total cpu time spent up to now is      917.3 secs

     total energy              =    -847.27437545 Ry
     Harris-Foulkes estimate   =    -847.27437672 Ry
     estimated scf accuracy    <       0.00000457 Ry

     iteration # 15     ecut=   100.00 Ry     beta=0.50
     Davidson diagonalization with overlap
     ethr =  2.04E-09,  avg # of iterations =  4.0

     total cpu time spent up to now is     1004.2 secs

     total energy              =    -847.27438653 Ry
     Harris-Foulkes estimate   =    -847.27438602 Ry
     estimated scf accuracy    <       0.00000404 Ry

     iteration # 16     ecut=   100.00 Ry     beta=0.50
     Davidson diagonalization with overlap
     ethr =  1.81E-09,  avg # of iterations =  1.0

     total cpu time spent up to now is     1044.3 secs

     total energy              =    -847.27438412 Ry
     Harris-Foulkes estimate   =    -847.27438657 Ry
     estimated scf accuracy    <       0.00000498 Ry

     iteration # 17     ecut=   100.00 Ry     beta=0.50
     Davidson diagonalization with overlap
     ethr =  1.81E-09,  avg # of iterations =  1.0

     total cpu time spent up to now is     1084.3 secs

     total energy              =    -847.27438404 Ry
     Harris-Foulkes estimate   =    -847.27438437 Ry
     estimated scf accuracy    <       0.00000108 Ry

     iteration # 18     ecut=   100.00 Ry     beta=0.50
     Davidson diagonalization with overlap
     ethr =  4.82E-10,  avg # of iterations =  4.0

     total cpu time spent up to now is     1156.9 secs

     total energy              =    -847.27438468 Ry
     Harris-Foulkes estimate   =    -847.27438471 Ry
     estimated scf accuracy    <       0.00000011 Ry

     iteration # 19     ecut=   100.00 Ry     beta=0.50
     Davidson diagonalization with overlap
     ethr =  5.03E-11,  avg # of iterations =  1.8

     total cpu time spent up to now is     1197.5 secs

     total energy              =    -847.27438466 Ry
     Harris-Foulkes estimate   =    -847.27438469 Ry
     estimated scf accuracy    <       0.00000006 Ry

     iteration # 20     ecut=   100.00 Ry     beta=0.50
     Davidson diagonalization with overlap
     ethr =  2.68E-11,  avg # of iterations =  4.2

     total cpu time spent up to now is     1261.1 secs

     End of self-consistent calculation

          k = 0.0000 0.0000 0.0000 ( 97877 PWs)   bands (ev):

   -18.0886 -18.0697 -18.0676 -18.0670 -15.8042 -15.7666 -15.7634 -15.7544
   -15.7463 -15.7383 -15.7347 -15.7295 -14.4908 -14.4210 -14.4210 -14.3836
    -9.6965  -9.6743  -9.5967  -9.5711  -9.5635  -9.5564  -9.5222  -9.5046
    -9.1072  -9.0382  -9.0132  -9.0118  -8.9996  -8.9978  -8.9879  -8.9707
    -8.9115  -8.8623  -8.8538  -8.7858  -8.4938  -8.2083  -8.1542  -8.0516
    -7.2103  -7.0051  -6.9959  -6.9579  -6.8760  -6.8718  -6.8267  -6.7586
    -6.7380  -6.5807  -6.4973  -6.4904  -6.1618  -6.0154  -5.9047  -5.8239
    -5.7943  -5.7408  -5.7016  -5.6942  -5.1548  -4.9155  -4.8391  -4.8223
    -4.1041  -3.9857  -3.9234  -3.9033  -3.8332  -3.7872  -3.7533  -3.7196
    -3.5159  -3.4752  -3.4274  -3.3364  -3.2735  -3.2567  -3.2259  -3.1458
    -3.0352  -3.0033  -2.9252  -2.8699  -2.6661  -2.5100  -2.5098  -2.4055
    -1.9538  -1.8395  -1.8260  -1.7632  -1.7428  -1.7112  -1.7095  -1.6420
    -1.3500  -1.3355  -1.3318  -1.2555  -1.2162  -1.2026  -1.1765  -1.1690
    -1.1543  -1.0067  -1.0065  -1.0042   0.1166   0.1823   0.2815   0.4583
     5.1713   5.5598   5.5671   5.6099   5.6569   5.7397   5.7806   5.9207
     6.3725   6.4602   6.4863   6.6396   6.8047   6.8067   6.9278   6.9647
     7.0260   7.2217   7.2388   7.3184   7.3992   7.4185

          k = 0.0000 0.0000-0.4328 ( 97880 PWs)   bands (ev):

   -18.0789 -18.0787 -18.0678 -18.0676 -15.7854 -15.7854 -15.7631 -15.7630
   -15.7410 -15.7409 -15.7297 -15.7295 -14.4616 -14.4616 -14.3968 -14.3968
    -9.6715  -9.6713  -9.6106  -9.6105  -9.5715  -9.5713  -9.4687  -9.4686
    -9.0552  -9.0550  -9.0176  -9.0175  -9.0073  -9.0072  -8.9407  -8.9406
    -8.9187  -8.9186  -8.8546  -8.8544  -8.3331  -8.3331  -8.1568  -8.1567
    -7.0502  -7.0501  -6.9727  -6.9727  -6.8909  -6.8909  -6.7884  -6.7884
    -6.7129  -6.7129  -6.4599  -6.4599  -6.0352  -6.0352  -5.8979  -5.8979
    -5.7354  -5.7354  -5.7249  -5.7249  -5.0846  -5.0845  -4.8425  -4.8423
    -4.0262  -4.0260  -3.8764  -3.8763  -3.7899  -3.7897  -3.7361  -3.7358
    -3.4447  -3.4447  -3.4129  -3.4129  -3.3318  -3.3317  -3.2181  -3.2180
    -3.0031  -3.0031  -2.8677  -2.8676  -2.5957  -2.5957  -2.4441  -2.4440
    -1.8883  -1.8883  -1.8048  -1.8045  -1.7591  -1.7588  -1.6530  -1.6529
    -1.3172  -1.3168  -1.2674  -1.2674  -1.2252  -1.2252  -1.2106  -1.2105
    -1.0922  -1.0920  -0.9815  -0.9813   0.2247   0.2250   0.2976   0.2979
     5.2423   5.2423   5.6531   5.6532   5.6962   5.6966   6.0648   6.0648
     6.3018   6.3020   6.5729   6.5730   6.7351   6.7352   6.9927   6.9927
     7.0604   7.0605   7.3532   7.3534   7.4030   7.4031

          k = 0.0000-0.3323 0.0000 ( 97900 PWs)   bands (ev):

   -18.0807 -18.0804 -18.0661 -18.0658 -15.7718 -15.7717 -15.7623 -15.7622
   -15.7520 -15.7519 -15.7338 -15.7336 -14.4513 -14.4513 -14.4061 -14.4060
    -9.6670  -9.6669  -9.6293  -9.6292  -9.5499  -9.5498  -9.4900  -9.4900
    -9.1150  -9.1149  -9.0263  -9.0261  -8.9875  -8.9875  -8.9403  -8.9403
    -8.8981  -8.8979  -8.8119  -8.8117  -8.3689  -8.3689  -8.0865  -8.0864
    -7.0979  -7.0977  -6.9670  -6.9669  -6.8703  -6.8702  -6.7934  -6.7933
    -6.6934  -6.6933  -6.5393  -6.5393  -5.9509  -5.9509  -5.9117  -5.9115
    -5.7696  -5.7696  -5.7301  -5.7300  -5.0343  -5.0343  -4.8363  -4.8362
    -4.0554  -4.0551  -3.8823  -3.8820  -3.8192  -3.8190  -3.7464  -3.7463
    -3.5170  -3.5170  -3.3375  -3.3375  -3.2699  -3.2699  -3.2029  -3.2027
    -3.0170  -3.0170  -2.9053  -2.9051  -2.5867  -2.5867  -2.4421  -2.4420
    -1.8369  -1.8368  -1.8075  -1.8074  -1.7474  -1.7472  -1.7258  -1.7257
    -1.3182  -1.3180  -1.3011  -1.3010  -1.2125  -1.2123  -1.1712  -1.1711
    -1.0825  -1.0824  -1.0056  -1.0055   0.1360   0.1362   0.3841   0.3843
     5.3268   5.3268   5.6509   5.6511   5.7814   5.7818   5.7922   5.7922
     6.4153   6.4153   6.5375   6.5375   6.7556   6.7557   6.8577   6.8577
     7.0856   7.0858   7.2659   7.2660   7.4351   7.4351

          k = 0.0000-0.3323-0.4328 ( 97888 PWs)   bands (ev):

   -18.0757 -18.0753 -18.0712 -18.0708 -15.7745 -15.7744 -15.7601 -15.7598
   -15.7449 -15.7445 -15.7408 -15.7407 -14.4409 -14.4408 -14.4168 -14.4168
    -9.6767  -9.6765  -9.6033  -9.6031  -9.5283  -9.5282  -9.5207  -9.5206
    -9.0466  -9.0465  -9.0355  -9.0354  -8.9698  -8.9697  -8.9629  -8.9627
    -8.9114  -8.9112  -8.8643  -8.8641  -8.3380  -8.3379  -8.1395  -8.1393
    -7.0682  -7.0681  -6.9956  -6.9955  -6.8748  -6.8748  -6.7275  -6.7274
    -6.6837  -6.6837  -6.5974  -6.5973  -5.8888  -5.8887  -5.8604  -5.8603
    -5.8038  -5.8036  -5.7811  -5.7810  -5.0503  -5.0502  -4.8842  -4.8840
    -3.9821  -3.9818  -3.9320  -3.9317  -3.7727  -3.7724  -3.7451  -3.7447
    -3.4227  -3.4226  -3.4209  -3.4209  -3.3335  -3.3333  -3.2201  -3.2199
    -2.9935  -2.9934  -2.8829  -2.8828  -2.5264  -2.5263  -2.5005  -2.5003
    -1.8244  -1.8242  -1.8059  -1.8055  -1.7549  -1.7546  -1.7283  -1.7281
    -1.3219  -1.3216  -1.3049  -1.3049  -1.2230  -1.2228  -1.1654  -1.1651
    -1.0444  -1.0441  -1.0337  -1.0333   0.2268   0.2272   0.2948   0.2952
     5.4005   5.4005   5.4550   5.4552   5.7968   5.7973   5.9622   5.9624
     6.3278   6.3279   6.6414   6.6415   6.6745   6.6748   6.8413   6.8415
     6.9881   6.9884   7.3683   7.3684   7.6701   7.6705

          k = 0.3333 0.0000 0.0500 ( 97908 PWs)   bands (ev):

   -18.0824 -18.0722 -18.0683 -18.0667 -15.8003 -15.7761 -15.7701 -15.7571
   -15.7509 -15.7429 -15.7361 -15.7328 -14.4527 -14.4185 -14.4129 -14.3943
    -9.6838  -9.6660  -9.6591  -9.6123  -9.6119  -9.5439  -9.5005  -9.4683
    -9.1525  -9.0670  -9.0182  -8.9863  -8.9769  -8.9719  -8.9426  -8.9060
    -8.9059  -8.8923  -8.8503  -8.8437  -8.4243  -8.2563  -8.2024  -8.1236
    -7.0261  -6.9810  -6.9177  -6.8752  -6.8336  -6.8293  -6.8269  -6.7858
    -6.7267  -6.6410  -6.5375  -6.4867  -6.1416  -5.9838  -5.9534  -5.8566
    -5.8140  -5.8036  -5.7871  -5.7705  -5.1878  -5.0850  -4.8812  -4.8698
    -4.0170  -3.9186  -3.8543  -3.8310  -3.7596  -3.7579  -3.7369  -3.6927
    -3.4526  -3.4339  -3.4127  -3.3017  -3.2414  -3.2313  -3.1673  -3.1201
    -3.0778  -3.0340  -2.9977  -2.9581  -2.6695  -2.5995  -2.4718  -2.4006
    -1.9281  -1.8809  -1.8436  -1.8122  -1.8043  -1.7630  -1.7417  -1.6650
    -1.3796  -1.3701  -1.3133  -1.2846  -1.1888  -1.1834  -1.1709  -1.1633
    -1.0691  -1.0182  -0.9675  -0.9579   0.1542   0.2328   0.2405   0.3801
     5.3398   5.4491   5.5747   5.6665   5.6771   5.7684   5.8688   6.0150
     6.0989   6.2522   6.4829   6.5520   6.7641   6.8250   6.9001   6.9778
     7.0437   7.0543   7.1796   7.3174   7.4045   7.4118

          k = 0.3333 0.0000-0.3828 ( 97883 PWs)   bands (ev):

   -18.0792 -18.0739 -18.0690 -18.0673 -15.7968 -15.7885 -15.7677 -15.7633
   -15.7464 -15.7441 -15.7331 -15.7264 -14.4491 -14.4234 -14.4046 -14.4025
    -9.6822  -9.6666  -9.6473  -9.5821  -9.5746  -9.5733  -9.5110  -9.4899
    -9.0980  -9.0879  -9.0361  -9.0195  -8.9836  -8.9792  -8.9326  -8.9304
    -8.8866  -8.8856  -8.8475  -8.8342  -8.4445  -8.2348  -8.1956  -8.1272
    -7.0648  -6.9918  -6.9872  -6.9639  -6.8515  -6.8472  -6.7433  -6.7235
    -6.6819  -6.6231  -6.5073  -6.4795  -6.0669  -6.0353  -5.9998  -5.8983
    -5.8372  -5.7711  -5.7510  -5.7395  -5.2756  -5.0390  -4.9986  -4.7822
    -3.9896  -3.9165  -3.8478  -3.8448  -3.7861  -3.7240  -3.6993  -3.6587
    -3.4381  -3.4129  -3.3409  -3.3376  -3.2776  -3.2710  -3.2688  -3.1772
    -3.0985  -3.0232  -2.9333  -2.9146  -2.6384  -2.6339  -2.4365  -2.3979
    -1.9285  -1.8891  -1.8622  -1.8449  -1.8113  -1.7339  -1.7250  -1.6894
    -1.3877  -1.3342  -1.3033  -1.2660  -1.1983  -1.1852  -1.1618  -1.1356
    -1.0600  -1.0239  -0.9950  -0.9844   0.1710   0.2062   0.2716   0.3768
     4.9894   5.4535   5.4756   5.5704   5.7619   5.7640   6.0171   6.0421
     6.2167   6.3280   6.4671   6.7379   6.7859   6.9863   7.0482   7.0871
     7.1730   7.2016   7.2493   7.3010   7.4368   7.4386

          k = 0.3333-0.3323 0.0500 ( 97934 PWs)   bands (ev):

   -18.0769 -18.0766 -18.0682 -18.0679 -15.7869 -15.7867 -15.7660 -15.7659
   -15.7436 -15.7434 -15.7372 -15.7370 -14.4310 -14.4310 -14.4081 -14.4081
    -9.6879  -9.6878  -9.6137  -9.6136  -9.5650  -9.5648  -9.5142  -9.5142
    -9.0936  -9.0935  -9.0056  -9.0054  -8.9796  -8.9794  -8.9436  -8.9436
    -8.8925  -8.8925  -8.8452  -8.8451  -8.3341  -8.3341  -8.1516  -8.1514
    -6.9930  -6.9929  -6.9100  -6.9100  -6.8767  -6.8766  -6.7915  -6.7914
    -6.6597  -6.6597  -6.5272  -6.5271  -6.0422  -6.0421  -5.9062  -5.9061
    -5.8227  -5.8227  -5.7694  -5.7693  -5.1133  -5.1132  -4.9053  -4.9053
    -3.9688  -3.9685  -3.8215  -3.8213  -3.7870  -3.7868  -3.7048  -3.7047
    -3.4541  -3.4540  -3.3173  -3.3172  -3.2598  -3.2597  -3.1625  -3.1623
    -3.0468  -3.0467  -2.9651  -2.9650  -2.5908  -2.5908  -2.4788  -2.4787
    -1.9047  -1.9044  -1.8549  -1.8547  -1.7650  -1.7648  -1.7062  -1.7059
    -1.3338  -1.3337  -1.2908  -1.2906  -1.2401  -1.2400  -1.1647  -1.1647
    -1.0302  -1.0299  -0.9681  -0.9678   0.1734   0.1736   0.3288   0.3291
     5.4275   5.4276   5.6031   5.6032   5.7196   5.7199   5.9990   5.9993
     6.1954   6.1954   6.4775   6.4776   6.7051   6.7053   6.8641   6.8643
     7.0292   7.0293   7.2525   7.2526   7.4491   7.4492

          k = 0.3333-0.3323-0.3828 ( 97914 PWs)   bands (ev):

   -18.0748 -18.0745 -18.0702 -18.0700 -15.7925 -15.7923 -15.7639 -15.7637
   -15.7465 -15.7463 -15.7308 -15.7306 -14.4310 -14.4310 -14.4088 -14.4088
    -9.6591  -9.6590  -9.6264  -9.6264  -9.5666  -9.5665  -9.5156  -9.5156
    -9.0914  -9.0913  -9.0283  -9.0281  -8.9741  -8.9740  -8.9365  -8.9364
    -8.8877  -8.8876  -8.8509  -8.8508  -8.3458  -8.3457  -8.1337  -8.1336
    -7.0310  -7.0309  -7.0150  -7.0149  -6.8298  -6.8298  -6.7242  -6.7242
    -6.6186  -6.6186  -6.5408  -6.5407  -6.0193  -6.0192  -5.9687  -5.9686
    -5.7752  -5.7752  -5.7691  -5.7690  -5.1842  -5.1842  -4.8738  -4.8737
    -3.9323  -3.9321  -3.8631  -3.8629  -3.7832  -3.7828  -3.6540  -3.6538
    -3.4087  -3.4085  -3.3435  -3.3434  -3.2935  -3.2934  -3.2112  -3.2111
    -3.0641  -3.0641  -2.9159  -2.9158  -2.5592  -2.5592  -2.4949  -2.4948
    -1.9270  -1.9267  -1.8612  -1.8610  -1.7365  -1.7363  -1.7150  -1.7149
    -1.3321  -1.3320  -1.2808  -1.2806  -1.2248  -1.2246  -1.1717  -1.1716
    -1.0392  -1.0390  -0.9737  -0.9735   0.1792   0.1793   0.3306   0.3308
     5.1865   5.1865   5.5060   5.5060   5.8850   5.8852   6.0096   6.0100
     6.2051   6.2052   6.7063   6.7063   6.8300   6.8302   6.9807   6.9810
     7.1547   7.1548   7.3071   7.3073   7.4671   7.4673

     highest occupied, lowest unoccupied level (ev):     0.4583    4.9894

!    total energy              =    -847.27438468 Ry
     Harris-Foulkes estimate   =    -847.27438468 Ry
     estimated scf accuracy    <          5.1E-09 Ry

     total all-electron energy =     -3251.976981 Ry

     The total energy is the sum of the following terms:

     one-electron contribution =    -487.52715368 Ry
     hartree contribution      =     318.39841661 Ry
     xc contribution           =    -214.31862452 Ry
     ewald contribution        =    -190.93309503 Ry
     Dispersion Correction     =      -0.42497175 Ry
     one-center paw contrib.   =    -272.46895630 Ry

     convergence has been achieved in  20 iterations

     Forces acting on atoms (cartesian axes, Ry/au):

     atom    1 type  2   force =     0.00003096    0.00056941   -0.00148521
     atom    2 type  2   force =    -0.00005318    0.00056784    0.00147508
     atom    3 type  2   force =    -0.00003096   -0.00056941    0.00148521
     atom    4 type  2   force =     0.00005318   -0.00056784   -0.00147508
     atom    5 type  1   force =     0.00059659   -0.00057808    0.00060411
     atom    6 type  1   force =    -0.00051171   -0.00059579   -0.00058348
     atom    7 type  1   force =    -0.00059659    0.00057808   -0.00060411
     atom    8 type  1   force =     0.00051171    0.00059579    0.00058348
     atom    9 type  3   force =    -0.00077584   -0.00008670   -0.00021833
     atom   10 type  3   force =     0.00075183   -0.00008563    0.00020918
     atom   11 type  3   force =     0.00077584    0.00008670    0.00021833
     atom   12 type  3   force =    -0.00075183    0.00008563   -0.00020918
     atom   13 type  1   force =     0.00038384   -0.00092931    0.00015242
     atom   14 type  1   force =    -0.00035284   -0.00091331   -0.00015560
     atom   15 type  1   force =    -0.00038384    0.00092931   -0.00015242
     atom   16 type  1   force =     0.00035284    0.00091331    0.00015560
     atom   17 type  3   force =     0.00013682   -0.00000812    0.00012036
     atom   18 type  3   force =    -0.00015499   -0.00001349   -0.00011747
     atom   19 type  3   force =    -0.00013682    0.00000812   -0.00012036
     atom   20 type  3   force =     0.00015499    0.00001349    0.00011747
     atom   21 type  3   force =    -0.00033290    0.00017840   -0.00003806
     atom   22 type  3   force =     0.00031170    0.00017966    0.00003186
     atom   23 type  3   force =     0.00033290   -0.00017840    0.00003806
     atom   24 type  3   force =    -0.00031170   -0.00017966   -0.00003186
     atom   25 type  1   force =    -0.00090500   -0.00010822    0.00095337
     atom   26 type  1   force =     0.00098392   -0.00011462   -0.00094119
     atom   27 type  1   force =     0.00090500    0.00010822   -0.00095337
     atom   28 type  1   force =    -0.00098392    0.00011462    0.00094119
     atom   29 type  3   force =     0.00036076    0.00053604    0.00007824
     atom   30 type  3   force =    -0.00037866    0.00053256   -0.00008711
     atom   31 type  3   force =    -0.00036076   -0.00053604   -0.00007824
     atom   32 type  3   force =     0.00037866   -0.00053256    0.00008711
     atom   33 type  3   force =     0.00024727   -0.00006970    0.00051040
     atom   34 type  3   force =    -0.00024659   -0.00007436   -0.00051819
     atom   35 type  3   force =    -0.00024727    0.00006970   -0.00051040
     atom   36 type  3   force =     0.00024659    0.00007436    0.00051819
     atom   37 type  1   force =     0.00051245    0.00078702    0.00038713
     atom   38 type  1   force =    -0.00042846    0.00081736   -0.00029652
     atom   39 type  1   force =    -0.00051245   -0.00078702   -0.00038713
     atom   40 type  1   force =     0.00042846   -0.00081736    0.00029652
     atom   41 type  3   force =     0.00007138   -0.00062821   -0.00095752
     atom   42 type  3   force =    -0.00008017   -0.00061970    0.00093234
     atom   43 type  3   force =    -0.00007138    0.00062821    0.00095752
     atom   44 type  3   force =     0.00008017    0.00061970   -0.00093234
     atom   45 type  1   force =    -0.00105551   -0.00016110   -0.00053622
     atom   46 type  1   force =     0.00097294   -0.00016702    0.00052920
     atom   47 type  1   force =     0.00105551    0.00016110    0.00053622
     atom   48 type  1   force =    -0.00097294    0.00016702   -0.00052920
     atom   49 type  3   force =     0.00042353   -0.00006515    0.00027574
     atom   50 type  3   force =    -0.00040944   -0.00008590   -0.00026888
     atom   51 type  3   force =    -0.00042353    0.00006515   -0.00027574
     atom   52 type  3   force =     0.00040944    0.00008590    0.00026888
     atom   53 type  3   force =    -0.00035923    0.00021091    0.00031304
     atom   54 type  3   force =     0.00037219    0.00021903   -0.00033239
     atom   55 type  3   force =     0.00035923   -0.00021091   -0.00031304
     atom   56 type  3   force =    -0.00037219   -0.00021903    0.00033239
     atom   57 type  1   force =     0.00074021    0.00068949   -0.00159100
     atom   58 type  1   force =    -0.00075776    0.00064498    0.00151434
     atom   59 type  1   force =    -0.00074021   -0.00068949    0.00159100
     atom   60 type  1   force =     0.00075776   -0.00064498   -0.00151434
     atom   61 type  3   force =     0.00006929    0.00021452    0.00049184
     atom   62 type  3   force =    -0.00006664    0.00023332   -0.00048767
     atom   63 type  3   force =    -0.00006929   -0.00021452   -0.00049184
     atom   64 type  3   force =     0.00006664   -0.00023332    0.00048767
     atom   65 type  3   force =    -0.00029502   -0.00030019    0.00079649
     atom   66 type  3   force =     0.00029211   -0.00030853   -0.00076658
     atom   67 type  3   force =     0.00029502    0.00030019   -0.00079649
     atom   68 type  3   force =    -0.00029211    0.00030853    0.00076658
     atom   69 type  1   force =     0.00030010    0.00062972   -0.00078709
     atom   70 type  1   force =    -0.00045174    0.00061944    0.00079953
     atom   71 type  1   force =    -0.00030010   -0.00062972    0.00078709
     atom   72 type  1   force =     0.00045174   -0.00061944   -0.00079953
     atom   73 type  3   force =    -0.00024891   -0.00037166    0.00025823
     atom   74 type  3   force =     0.00023731   -0.00036358   -0.00026080
     atom   75 type  3   force =     0.00024891    0.00037166   -0.00025823
     atom   76 type  3   force =    -0.00023731    0.00036358    0.00026080
     atom   77 type  1   force =    -0.00040913   -0.00063397    0.00055023
     atom   78 type  1   force =     0.00046712   -0.00064730   -0.00056434
     atom   79 type  1   force =     0.00040913    0.00063397   -0.00055023
     atom   80 type  1   force =    -0.00046712    0.00064730    0.00056434
     atom   81 type  3   force =     0.00038192   -0.00023800   -0.00025482
     atom   82 type  3   force =    -0.00038573   -0.00023418    0.00026358
     atom   83 type  3   force =    -0.00038192    0.00023800    0.00025482
     atom   84 type  3   force =     0.00038573    0.00023418   -0.00026358
     atom   85 type  3   force =     0.00036991    0.00091894   -0.00009072
     atom   86 type  3   force =    -0.00038787    0.00092615    0.00008809
     atom   87 type  3   force =    -0.00036991   -0.00091894    0.00009072
     atom   88 type  3   force =     0.00038787   -0.00092615   -0.00008809
     atom   89 type  1   force =     0.00073379   -0.00011083   -0.00033138
     atom   90 type  1   force =    -0.00067414   -0.00007582    0.00033408
     atom   91 type  1   force =    -0.00073379    0.00011083    0.00033138
     atom   92 type  1   force =     0.00067414    0.00007582   -0.00033408
     atom   93 type  3   force =     0.00014080    0.00023878    0.00011297
     atom   94 type  3   force =    -0.00015742    0.00024198   -0.00011818
     atom   95 type  3   force =    -0.00014080   -0.00023878   -0.00011297
     atom   96 type  3   force =     0.00015742   -0.00024198    0.00011818
     atom   97 type  3   force =     0.00007978   -0.00003084    0.00017017
     atom   98 type  3   force =    -0.00008905   -0.00003334   -0.00016855
     atom   99 type  3   force =    -0.00007978    0.00003084   -0.00017017
     atom  100 type  3   force =     0.00008905    0.00003334    0.00016855

     Total force =     0.009148     Total SCF correction =     0.000149


     Computing stress (Cartesian axis) and pressure

          total   stress  (Ry/bohr**3)                   (kbar)     P=   -7.38
  -0.00004964   0.00000009  -0.00000014         -7.30      0.01     -0.02
   0.00000009  -0.00005231   0.00000004          0.01     -7.70      0.01
  -0.00000014   0.00000004  -0.00004848         -0.02      0.01     -7.13


     Writing output data file scf.save
 
     init_run     :     33.93s CPU     35.62s WALL (       1 calls)
     electrons    :   1167.67s CPU   1224.88s WALL (       1 calls)
     forces       :     16.95s CPU     17.13s WALL (       1 calls)
     stress       :     60.20s CPU     60.52s WALL (       1 calls)

     Called by init_run:
     wfcinit      :     24.52s CPU     25.93s WALL (       1 calls)
     potinit      :      3.35s CPU      3.41s WALL (       1 calls)

     Called by electrons:
     c_bands      :   1044.31s CPU   1091.96s WALL (      20 calls)
     sum_band     :    109.26s CPU    117.04s WALL (      20 calls)
     v_of_rho     :      2.19s CPU      2.45s WALL (      21 calls)
     newd         :      5.32s CPU      6.65s WALL (      21 calls)
     PAW_pot      :      5.75s CPU      5.75s WALL (      21 calls)
     mix_rho      :      0.55s CPU      0.63s WALL (      20 calls)

     Called by c_bands:
     init_us_2    :      7.77s CPU      7.79s WALL (     344 calls)
     cegterg      :   1018.51s CPU   1066.11s WALL (     160 calls)

     Called by sum_band:
     sum_band:bec :      0.06s CPU      0.06s WALL (     160 calls)
     addusdens    :      5.62s CPU      6.88s WALL (      20 calls)

     Called by *egterg:
     h_psi        :    580.79s CPU    619.17s WALL (     712 calls)
     s_psi        :    122.02s CPU    122.04s WALL (     712 calls)
     g_psi        :      3.26s CPU      3.26s WALL (     544 calls)
     cdiaghg      :     43.06s CPU     43.22s WALL (     704 calls)

     Called by h_psi:
     h_psi:pot    :    576.49s CPU    614.80s WALL (     712 calls)
     h_psi:calbec :    120.33s CPU    120.57s WALL (     712 calls)
     vloc_psi     :    334.10s CPU    372.14s WALL (     712 calls)
     add_vuspsi   :    122.06s CPU    122.09s WALL (     712 calls)

     General routines
     calbec       :    170.56s CPU    170.89s WALL (     912 calls)
     fft          :      1.93s CPU      2.44s WALL (     297 calls)
     fftw         :    357.25s CPU    399.98s WALL (  149056 calls)
 
     Parallel routines
     fft_scatter  :     85.55s CPU    122.25s WALL (  149353 calls)
 
     PWSCF        : 21m26.37s CPU    22m58.44s WALL

 
   This run was terminated on:   7: 7:26   4Nov2017            

=------------------------------------------------------------------------------=
   JOB DONE.
=------------------------------------------------------------------------------=
