
     Program PWSCF v.6.1 (svn rev. 13369) starts on 21Dec2017 at  2: 2:34 

     This program is part of the open-source Quantum ESPRESSO suite
     for quantum simulation of materials; please cite
         "P. Giannozzi et al., J. Phys.:Condens. Matter 21 395502 (2009);
          URL http://www.quantum-espresso.org", 
     in publications or presentations arising from this work. More details at
     http://www.quantum-espresso.org/quote

     Parallel version (MPI), running on     8 processors
     R & G space division:  proc/nbgrp/npool/nimage =       8
     Waiting for input...
     Reading input from standard input

     Current dimensions of program PWSCF are:
     Max number of different atomic species (ntypx) = 10
     Max number of k-points (npk) =  40000
     Max angular momentum in pseudopotentials (lmaxx) =  3
               file C.pbe-n-kjpaw_psl.0.1.UPF: wavefunction(s)  2P renormalized
               file N.pbe-n-kjpaw_psl.0.1.UPF: wavefunction(s)  2P renormalized
               file H.pbe-kjpaw_psl.0.1.UPF: wavefunction(s)  1S renormalized
               file O.pbe-n-kjpaw_psl.0.1.UPF: wavefunction(s)  2P renormalized

     -------------------------------------
     Parameters for Dispersion Correction:
     -------------------------------------
       atom      VdW radius       C_6     

        C          2.744         60.710
        N          2.640         42.670
        H          1.892          4.857
        O          2.536         24.284

     Subspace diagonalization in iterative solution of the eigenvalue problem:
     a serial algorithm will be used

 
     Parallelization info
     --------------------
     sticks:   dense  smooth     PW     G-vecs:    dense   smooth      PW
     Min        1092    1092    282               168767   168767   22386
     Max        1094    1094    283               168774   168774   22395
     Sum        8743    8743   2263              1350165  1350165  179141
 


     bravais-lattice index     =            0
     lattice parameter (alat)  =      17.8182  a.u.
     unit-cell volume          =    9993.7417 (a.u.)^3
     number of atoms/cell      =          150
     number of atomic types    =            4
     number of electrons       =       516.00
     number of Kohn-Sham states=          309
     kinetic-energy cutoff     =     100.0000  Ry
     charge density cutoff     =     400.0000  Ry
     convergence threshold     =      1.0E-08
     mixing beta               =       0.5000
     number of iterations used =            8  plain     mixing
     Exchange-correlation      =  SLA  PW   PBX  PBC ( 1  4  3  4 0 0)

     celldm(1)=  17.818228  celldm(2)=   0.000000  celldm(3)=   0.000000
     celldm(4)=   0.000000  celldm(5)=   0.000000  celldm(6)=   0.000000

     crystal axes: (cart. coord. in units of alat)
               a(1) = (   1.000000   0.000000   0.000000 )  
               a(2) = (  -0.500000   0.866025   0.000000 )  
               a(3) = (   0.000000   0.000000   2.039877 )  

     reciprocal axes: (cart. coord. in units 2 pi/alat)
               b(1) = (  1.000000  0.577350  0.000000 )  
               b(2) = (  0.000000  1.154701  0.000000 )  
               b(3) = (  0.000000  0.000000  0.490226 )  


     PseudoPot. # 1 for  C read from file:
     /scratch/ahofstet/pseudo/C.pbe-n-kjpaw_psl.0.1.UPF
     MD5 check sum: 430fe95172b1e11ef3f8ed03bac87931
     Pseudo is Projector augmented-wave + core cor, Zval =  4.0
     Generated using "atomic" code by A. Dal Corso  v.5.0.99 svn rev. 10869
     Shape of augmentation charge: BESSEL
     Using radial grid of 1073 points,  4 beta functions with: 
                l(1) =   0
                l(2) =   0
                l(3) =   1
                l(4) =   1
     Q(r) pseudized with 0 coefficients 


     PseudoPot. # 2 for  N read from file:
     /scratch/ahofstet/pseudo/N.pbe-n-kjpaw_psl.0.1.UPF
     MD5 check sum: f73187c8b701007e77325f868c9291d7
     Pseudo is Projector augmented-wave + core cor, Zval =  5.0
     Generated using "atomic" code by A. Dal Corso  v.5.0.99 svn rev. 10869
     Shape of augmentation charge: PSQ
     Using radial grid of 1085 points,  4 beta functions with: 
                l(1) =   0
                l(2) =   0
                l(3) =   1
                l(4) =   1
     Q(r) pseudized with 0 coefficients 


     PseudoPot. # 3 for  H read from file:
     /scratch/ahofstet/pseudo/H.pbe-kjpaw_psl.0.1.UPF
     MD5 check sum: 94e484f906d9e9773b2f6e52662335b2
     Pseudo is Projector augmented-wave, Zval =  1.0
     Generated using "atomic" code by A. Dal Corso  v.5.0.99 svn rev. 10869
     Shape of augmentation charge: PSQ
     Using radial grid of  929 points,  2 beta functions with: 
                l(1) =   0
                l(2) =   0
     Q(r) pseudized with 0 coefficients 


     PseudoPot. # 4 for  O read from file:
     /scratch/ahofstet/pseudo/O.pbe-n-kjpaw_psl.0.1.UPF
     MD5 check sum: 3f94a2996a3169367d6eb21d9b593f20
     Pseudo is Projector augmented-wave + core cor, Zval =  6.0
     Generated using "atomic" code by A. Dal Corso  v.5.0.99 svn rev. 10869
     Shape of augmentation charge: BESSEL
     Using radial grid of 1095 points,  4 beta functions with: 
                l(1) =   0
                l(2) =   0
                l(3) =   1
                l(4) =   1
     Q(r) pseudized with 0 coefficients 


     atomic species   valence    mass     pseudopotential
        C              4.00    12.01070      C( 1.00)
        N              5.00    14.00670      N( 1.00)
        H              1.00     1.00794      H( 1.00)
        O              6.00    15.99940      O( 1.00)

      6 Sym. Ops. (no inversion) found ( 5 have fractional translation)



   Cartesian axes

     site n.     atom                  positions (alat units)
         1           O   tau(   1) = (   0.2891772   0.3589453   0.8570105  )
         2           O   tau(   2) = (   0.2108228   0.5070801   1.8769490  )
         3           O   tau(   3) = (   0.5445557   0.0709621   0.1770515  )
         4           O   tau(   4) = (   0.6662672   0.4361180   1.5369695  )
         5           O   tau(   5) = (  -0.1662672   0.4299074   0.5170310  )
         6           O   tau(   6) = (  -0.0445557   0.7950633   1.1969900  )
         7           O   tau(   7) = (   0.4905446   0.4832333   0.9018452  )
         8           O   tau(   8) = (   0.0094554   0.3827921   1.9217837  )
         9           O   tau(   9) = (   0.3362354   0.1832074   0.2218862  )
        10           O   tau(  10) = (   0.6732200   0.1995847   1.5818042  )
        11           O   tau(  11) = (  -0.1732200   0.6664407   0.5618657  )
        12           O   tau(  12) = (   0.1637646   0.6828180   1.2418247  )
        13           O   tau(  13) = (   0.1859217   0.4917656   0.5223297  )
        14           O   tau(  14) = (   0.3140783   0.3742598   1.5422682  )
        15           O   tau(  15) = (  -0.0188423   0.7811555   1.8822477  )
        16           O   tau(  16) = (  -0.1670793   0.4591297   1.2022887  )
        17           O   tau(  17) = (   0.6670793   0.4068957   0.1823502  )
        18           O   tau(  18) = (   0.5188423   0.0848699   0.8623092  )
        19           O   tau(  19) = (   0.9194562   0.1059429   0.6977863  )
        20           O   tau(  20) = (  -0.4194562   0.7600825   1.7177248  )
        21           O   tau(  21) = (   0.4485227   0.7433010   0.0178273  )
        22           O   tau(  22) = (   0.1320211   0.0167815   1.3777453  )
        23           O   tau(  23) = (   0.3679789   0.8492439   0.3578068  )
        24           O   tau(  24) = (   0.0514773   0.1227244   1.0377658  )
        25           O   tau(  25) = (   0.0360847   0.5423051   0.8828932  )
        26           O   tau(  26) = (   0.4639153   0.3237203   1.9028317  )
        27           O   tau(  27) = (   0.0123077   0.6261231   0.2029343  )
        28           O   tau(  28) = (  -0.0483924   0.5636226   1.5628522  )
        29           O   tau(  29) = (   0.5483924   0.3024028   0.5429138  )
        30           O   tau(  30) = (   0.4876923   0.2399023   1.2228727  )
        31           N   tau(  31) = (   0.3580036   0.5222682   0.6970128  )
        32           N   tau(  32) = (   0.1419964   0.3437572   1.7169512  )
        33           N   tau(  33) = (   0.3687006   0.0489061   0.0170538  )
        34           N   tau(  34) = (   0.7732957   0.2948511   1.3769718  )
        35           N   tau(  35) = (  -0.2732957   0.5711743   0.3570333  )
        36           N   tau(  36) = (   0.1312994   0.8171193   1.0369923  )
        37           N   tau(  37) = (   0.1321690   0.2309751   0.7034639  )
        38           N   tau(  38) = (   0.3678310   0.6350503   1.7234024  )
        39           N   tau(  39) = (   0.2338852   0.8649996   0.0235049  )
        40           N   tau(  40) = (  -0.3660542   0.6360761   1.3834229  )
        41           N   tau(  41) = (   0.8660542   0.2299493   0.3634844  )
        42           N   tau(  42) = (   0.2661148   0.0010259   1.0434434  )
        43           N   tau(  43) = (  -0.0608246   0.3291008   0.8045838  )
        44           N   tau(  44) = (   0.5608246   0.5369246   1.8245222  )
        45           N   tau(  45) = (   0.2454027   0.6487994   0.1246248  )
        46           N   tau(  46) = (  -0.1845781   0.7541507   1.4845428  )
        47           N   tau(  47) = (   0.6845781   0.1118747   0.4646043  )
        48           N   tau(  48) = (   0.2545973   0.2172260   1.1445633  )
        49           C   tau(  49) = (   0.3906918   0.4575600   0.8258199  )
        50           C   tau(  50) = (   0.1093082   0.4084654   1.8457584  )
        51           C   tau(  51) = (   0.4083956   0.1095690   0.1458609  )
        52           C   tau(  52) = (   0.7009127   0.2988964   1.5057789  )
        53           C   tau(  53) = (  -0.2009127   0.5671290   0.4858404  )
        54           C   tau(  54) = (   0.0916044   0.7564564   1.1657994  )
        55           C   tau(  55) = (   0.4487575   0.6279514   0.6310240  )
        56           C   tau(  56) = (   0.0512425   0.2380740   1.6509625  )
        57           C   tau(  57) = (   0.2317994   0.0746597   1.9909420  )
        58           C   tau(  58) = (   0.8194431   0.1634144   1.3109830  )
        59           C   tau(  59) = (  -0.3194431   0.7026110   0.2910445  )
        60           C   tau(  60) = (   0.2682006   0.7913657   0.9710035  )
        61           H   tau(  61) = (   0.4657404   0.7167095   0.7042021  )
        62           H   tau(  62) = (   0.0342596   0.1493159   1.7241406  )
        63           H   tau(  63) = (   0.1464412   0.0449883   0.0242431  )
        64           H   tau(  64) = (   0.8878184   0.1043276   1.3841611  )
        65           H   tau(  65) = (  -0.3878184   0.7616978   0.3642226  )
        66           H   tau(  66) = (   0.3535588   0.8210371   1.0441816  )
        67           H   tau(  67) = (   0.3950637   0.6672582   0.5356861  )
        68           H   tau(  68) = (   0.1049363   0.1987672   1.5556246  )
        69           H   tau(  69) = (   0.2246056   0.0085061   1.8956041  )
        70           H   tau(  70) = (   0.8803307   0.1902611   1.2156451  )
        71           H   tau(  71) = (  -0.3803307   0.6757643   0.1957066  )
        72           H   tau(  72) = (   0.2753944   0.8575193   0.8756656  )
        73           H   tau(  73) = (   0.5501837   0.5788534   0.6029004  )
        74           H   tau(  74) = (  -0.0501837   0.2871720   1.6228389  )
        75           H   tau(  75) = (   0.2236065   0.1870464   1.9628184  )
        76           H   tau(  76) = (   0.7262099   0.1001257   1.2828594  )
        77           H   tau(  77) = (  -0.2262099   0.7658997   0.2629209  )
        78           H   tau(  78) = (   0.2763935   0.6789791   0.9428799  )
        79           C   tau(  79) = (   0.2377397   0.4659509   0.6374790  )
        80           C   tau(  80) = (   0.2622603   0.4000745   1.6574175  )
        81           C   tau(  81) = (  -0.0223952   0.8389385   1.9973970  )
        82           C   tau(  82) = (  -0.2153445   0.4271613   1.3174380  )
        83           C   tau(  83) = (   0.7153445   0.4388641   0.2974995  )
        84           C   tau(  84) = (   0.5223952   0.0270869   0.9774585  )
        85           C   tau(  85) = (   0.1773867   0.3654941   0.7512532  )
        86           C   tau(  86) = (   0.3226133   0.5005313   1.7711917  )
        87           C   tau(  87) = (   0.0947795   0.8368997   0.0712942  )
        88           C   tau(  88) = (  -0.2721662   0.5296570   1.4312122  )
        89           C   tau(  89) = (   0.7721662   0.3363684   0.4112737  )
        90           C   tau(  90) = (   0.4052205   0.0291257   1.0912327  )
        91           C   tau(  91) = (   0.2224808   0.1347395   0.6233024  )
        92           C   tau(  92) = (   0.2775192   0.7312859   1.6432409  )
        93           C   tau(  93) = (   0.7720718   0.1253043   1.9832204  )
        94           C   tau(  94) = (   0.5054474   0.6059817   1.3032614  )
        95           C   tau(  95) = (  -0.0054474   0.2600437   0.2833229  )
        96           C   tau(  96) = (  -0.2720718   0.7407211   0.9632819  )
        97           H   tau(  97) = (   0.2506016   0.1808579   0.5198656  )
        98           H   tau(  98) = (   0.2493984   0.6851675   1.5398041  )
        99           H   tau(  99) = (   0.7180717   0.1265984   1.8797836  )
       100           H   tau( 100) = (   0.5313267   0.5585691   1.1998246  )
       101           H   tau( 101) = (  -0.0313267   0.3074563   0.1798861  )
       102           H   tau( 102) = (  -0.2180717   0.7394270   0.8598451  )
       103           H   tau( 103) = (   0.1647134   0.0353598   0.6073175  )
       104           H   tau( 104) = (   0.3352866   0.8306656   1.6272560  )
       105           H   tau( 105) = (   0.8870208   0.1249661   1.9672355  )
       106           H   tau( 106) = (   0.4482657   0.7056995   1.2872765  )
       107           H   tau( 107) = (   0.0517343   0.1603259   0.2673380  )
       108           H   tau( 108) = (  -0.3870208   0.7410593   0.9472970  )
       109           H   tau( 109) = (   0.3198102   0.1135720   0.6835684  )
       110           H   tau( 110) = (   0.1801898   0.7524534   1.7035069  )
       111           H   tau( 111) = (   0.7417386   0.2201777   0.0036094  )
       112           H   tau( 112) = (   0.4384512   0.5322756   1.3635274  )
       113           H   tau( 113) = (   0.0615488   0.3337498   0.3435889  )
       114           H   tau( 114) = (  -0.2417386   0.6458477   1.0235479  )
       115           C   tau( 115) = (  -0.0094288   0.2087530   0.7313662  )
       116           C   tau( 116) = (   0.5094288   0.6572724   1.7513046  )
       117           C   tau( 117) = (   0.3239290   0.7534833   0.0514072  )
       118           C   tau( 118) = (  -0.3145002   0.7698145   1.4113251  )
       119           C   tau( 119) = (   0.8145002   0.0962109   0.3913867  )
       120           C   tau( 120) = (   0.1760710   0.1125421   1.0713457  )
       121           C   tau( 121) = (   0.7948431   0.3426479   0.8573401  )
       122           C   tau( 122) = (  -0.2948431   0.5233775   1.8772786  )
       123           C   tau( 123) = (   0.3058367   0.5170303   0.1773811  )
       124           C   tau( 124) = (   0.3993203   0.0063472   1.5372991  )
       125           C   tau( 125) = (   0.1006797   0.8596782   0.5173606  )
       126           C   tau( 126) = (   0.1941633   0.3489951   1.1973196  )
       127           H   tau( 127) = (   0.7320091   0.2544100   0.8153291  )
       128           H   tau( 128) = (  -0.2320091   0.6116154   1.8352676  )
       129           H   tau( 129) = (   0.4136699   0.5067335   0.1353702  )
       130           H   tau( 130) = (   0.3543210   0.1048819   1.4952881  )
       131           H   tau( 131) = (   0.1456790   0.7611435   0.4753497  )
       132           H   tau( 132) = (   0.0863301   0.3592919   1.1553086  )
       133           H   tau( 133) = (  -0.2499486   0.4435109   0.8210491  )
       134           H   tau( 134) = (   0.7499486   0.4225145   1.8409876  )
       135           H   tau( 135) = (   0.2408826   0.4278081   0.1410901  )
       136           H   tau( 136) = (   0.0090660   0.8607318   1.5010081  )
       137           H   tau( 137) = (   0.4909340   0.0052936   0.4810696  )
       138           H   tau( 138) = (   0.2591174   0.4382173   1.1610286  )
       139           H   tau( 139) = (   0.7948242   0.3405181   0.9737618  )
       140           H   tau( 140) = (  -0.2948242   0.5255073   1.9937003  )
       141           H   tau( 141) = (   0.3076906   0.5180788   0.2938029  )
       142           H   tau( 142) = (   0.3974853   0.0074284   1.6537208  )
       143           H   tau( 143) = (   0.1025147   0.8585970   0.6337824  )
       144           H   tau( 144) = (   0.1923094   0.3479466   1.3137413  )
       145           C   tau( 145) = (   0.0421419   0.4282790   0.8224033  )
       146           C   tau( 146) = (   0.4578581   0.4377464   1.8423418  )
       147           C   tau( 147) = (   0.1080285   0.6883819   0.1424443  )
       148           C   tau( 148) = (  -0.1501704   0.6153899   1.5023623  )
       149           C   tau( 149) = (   0.6501704   0.2506355   0.4824238  )
       150           C   tau( 150) = (   0.3919715   0.1776435   1.1623828  )

     number of k points=     2
                       cart. coord. in units 2pi/alat
        k(    1) = (   0.0000000   0.0000000   0.0000000), wk =   0.5000000
        k(    2) = (   0.0000000  -0.5773503   0.0000000), wk =   1.5000000

     Dense  grid:  1350165 G-vectors     FFT dimensions: ( 120, 120, 240)

     Estimated max dynamical RAM per process >    1531.79MB

     Estimated total allocated dynamical RAM >   12254.36MB

     Check: negative/imaginary core charge=   -0.000002    0.000000

     Initial potential from superposition of free atoms

     starting charge  515.99731, renormalised to  516.00000
     Starting wfc are  438 randomized atomic wfcs
     Checking if some PAW data can be deallocated... 

     total cpu time spent up to now is       45.9 secs

     per-process dynamical memory:   740.3 Mb

     Self-consistent Calculation

     iteration #  1     ecut=   100.00 Ry     beta=0.50
     Davidson diagonalization with overlap
     ethr =  1.00E-02,  avg # of iterations =  4.0

     total cpu time spent up to now is      193.9 secs

     total energy              =   -2704.17455023 Ry
     Harris-Foulkes estimate   =   -2712.73411841 Ry
     estimated scf accuracy    <      15.88316854 Ry

     iteration #  2     ecut=   100.00 Ry     beta=0.50
     Davidson diagonalization with overlap
     ethr =  3.08E-03,  avg # of iterations =  3.0

     total cpu time spent up to now is      280.4 secs

     total energy              =   -2706.14623991 Ry
     Harris-Foulkes estimate   =   -2708.06669310 Ry
     estimated scf accuracy    <       3.90270908 Ry

     iteration #  3     ecut=   100.00 Ry     beta=0.50
     Davidson diagonalization with overlap
     ethr =  7.56E-04,  avg # of iterations =  6.0

     total cpu time spent up to now is      404.9 secs

     total energy              =   -2707.46229494 Ry
     Harris-Foulkes estimate   =   -2707.98094674 Ry
     estimated scf accuracy    <       1.29858970 Ry

     iteration #  4     ecut=   100.00 Ry     beta=0.50
     Davidson diagonalization with overlap
     ethr =  2.52E-04,  avg # of iterations =  2.0

     total cpu time spent up to now is      479.3 secs

     total energy              =   -2707.54559109 Ry
     Harris-Foulkes estimate   =   -2707.62229321 Ry
     estimated scf accuracy    <       0.17240100 Ry

     iteration #  5     ecut=   100.00 Ry     beta=0.50
     Davidson diagonalization with overlap
     ethr =  3.34E-05,  avg # of iterations =  8.0

     total cpu time spent up to now is      647.7 secs

     total energy              =   -2707.64447796 Ry
     Harris-Foulkes estimate   =   -2707.70110384 Ry
     estimated scf accuracy    <       0.15573806 Ry

     iteration #  6     ecut=   100.00 Ry     beta=0.50
     Davidson diagonalization with overlap
     ethr =  3.02E-05,  avg # of iterations =  1.5

     total cpu time spent up to now is      718.9 secs

     total energy              =   -2707.63173417 Ry
     Harris-Foulkes estimate   =   -2707.65167814 Ry
     estimated scf accuracy    <       0.04619189 Ry

     iteration #  7     ecut=   100.00 Ry     beta=0.50
     Davidson diagonalization with overlap
     ethr =  8.95E-06,  avg # of iterations = 13.5

     total cpu time spent up to now is      873.3 secs

     total energy              =   -2707.65596136 Ry
     Harris-Foulkes estimate   =   -2707.65650777 Ry
     estimated scf accuracy    <       0.00530513 Ry

     iteration #  8     ecut=   100.00 Ry     beta=0.50
     Davidson diagonalization with overlap
     ethr =  1.03E-06,  avg # of iterations =  2.0

     total cpu time spent up to now is      945.4 secs

     total energy              =   -2707.65412587 Ry
     Harris-Foulkes estimate   =   -2707.65625221 Ry
     estimated scf accuracy    <       0.00448403 Ry

     iteration #  9     ecut=   100.00 Ry     beta=0.50
     Davidson diagonalization with overlap
     ethr =  8.69E-07,  avg # of iterations =  4.0

     total cpu time spent up to now is     1035.4 secs

     total energy              =   -2707.65496074 Ry
     Harris-Foulkes estimate   =   -2707.65503268 Ry
     estimated scf accuracy    <       0.00018788 Ry

     iteration # 10     ecut=   100.00 Ry     beta=0.50
     Davidson diagonalization with overlap
     ethr =  3.64E-08,  avg # of iterations =  4.0

     total cpu time spent up to now is     1163.0 secs

     total energy              =   -2707.65502317 Ry
     Harris-Foulkes estimate   =   -2707.65506381 Ry
     estimated scf accuracy    <       0.00006669 Ry

     iteration # 11     ecut=   100.00 Ry     beta=0.50
     Davidson diagonalization with overlap
     ethr =  1.29E-08,  avg # of iterations =  5.0

     total cpu time spent up to now is     1274.6 secs

     total energy              =   -2707.65504144 Ry
     Harris-Foulkes estimate   =   -2707.65504741 Ry
     estimated scf accuracy    <       0.00001342 Ry

     iteration # 12     ecut=   100.00 Ry     beta=0.50
     Davidson diagonalization with overlap
     ethr =  2.60E-09,  avg # of iterations =  4.0

     total cpu time spent up to now is     1352.7 secs

     total energy              =   -2707.65504254 Ry
     Harris-Foulkes estimate   =   -2707.65504326 Ry
     estimated scf accuracy    <       0.00000147 Ry

     iteration # 13     ecut=   100.00 Ry     beta=0.50
     Davidson diagonalization with overlap
     ethr =  2.84E-10,  avg # of iterations =  4.0

     total cpu time spent up to now is     1514.1 secs

     total energy              =   -2707.65504431 Ry
     Harris-Foulkes estimate   =   -2707.65504499 Ry
     estimated scf accuracy    <       0.00000207 Ry

     iteration # 14     ecut=   100.00 Ry     beta=0.50
     Davidson diagonalization with overlap
     ethr =  2.84E-10,  avg # of iterations =  1.0

     total cpu time spent up to now is     1582.6 secs

     total energy              =   -2707.65504411 Ry
     Harris-Foulkes estimate   =   -2707.65504438 Ry
     estimated scf accuracy    <       0.00000076 Ry

     iteration # 15     ecut=   100.00 Ry     beta=0.50
     Davidson diagonalization with overlap
     ethr =  1.48E-10,  avg # of iterations =  3.0

     total cpu time spent up to now is     1689.3 secs

     total energy              =   -2707.65504437 Ry
     Harris-Foulkes estimate   =   -2707.65504437 Ry
     estimated scf accuracy    <       0.00000001 Ry

     iteration # 16     ecut=   100.00 Ry     beta=0.50
     Davidson diagonalization with overlap
     ethr =  2.76E-12,  avg # of iterations =  4.0

     total cpu time spent up to now is     1829.2 secs

     total energy              =   -2707.65504437 Ry
     Harris-Foulkes estimate   =   -2707.65504438 Ry
     estimated scf accuracy    <       0.00000003 Ry

     iteration # 17     ecut=   100.00 Ry     beta=0.50
     Davidson diagonalization with overlap
     ethr =  2.76E-12,  avg # of iterations =  4.0

     total cpu time spent up to now is     1955.8 secs

     End of self-consistent calculation

          k = 0.0000 0.0000 0.0000 (168691 PWs)   bands (ev):

   -22.1447 -22.1391 -22.1391 -22.1286 -22.1286 -22.1237 -20.6305 -20.6166
   -20.6166 -20.5885 -20.5885 -20.5748 -20.1256 -20.1256 -20.1252 -20.1232
   -20.1232 -20.1210 -19.8330 -19.8330 -19.8330 -19.8302 -19.8302 -19.8278
   -19.5971 -19.5948 -19.5948 -19.5920 -19.5920 -19.5913 -18.1956 -18.1871
   -18.1871 -18.1723 -18.1723 -18.1661 -17.5430 -17.5423 -17.5423 -17.5395
   -17.5395 -17.5374 -16.7557 -16.7461 -16.7461 -16.7293 -16.7293 -16.7223
   -12.7847 -12.7646 -12.7646 -12.7378 -12.7378 -12.7314 -12.0886 -12.0886
   -12.0807 -12.0807 -12.0795 -12.0635 -11.5910 -11.5777 -11.5777 -11.5559
   -11.5559 -11.5482 -10.5408 -10.5328 -10.5328 -10.5136 -10.5136 -10.5028
    -9.6812  -9.6639  -9.6639  -9.6457  -9.6457  -9.6454  -8.8971  -8.8971
    -8.8915  -8.8915  -8.8902  -8.8811  -8.5384  -8.5236  -8.5236  -8.5047
    -8.5047  -8.5035  -8.1627  -8.1438  -8.1438  -8.0973  -8.0973  -8.0708
    -7.1143  -7.1124  -7.1124  -7.0931  -7.0931  -7.0782  -6.2125  -6.1505
    -6.1505  -6.1393  -6.0939  -6.0939  -5.9673  -5.9095  -5.9095  -5.7589
    -5.7589  -5.7566  -5.4747  -5.4554  -5.4554  -5.3319  -5.3319  -5.2905
    -5.2905  -5.2295  -5.1867  -5.1867  -5.1800  -4.9723  -4.9119  -4.9090
    -4.9090  -4.8290  -4.7238  -4.7238  -4.6530  -4.6299  -4.6299  -4.5910
    -4.5910  -4.5420  -4.4589  -4.4526  -4.4201  -4.4201  -4.4092  -4.4092
    -4.3726  -4.3675  -4.3675  -4.3598  -4.3565  -4.3526  -4.3526  -4.3102
    -4.2145  -4.2145  -4.2138  -4.2138  -4.1171  -4.1171  -4.1000  -4.0125
    -4.0125  -3.9693  -3.7325  -3.7087  -3.7087  -3.6662  -3.6662  -3.6087
    -3.5824  -3.5750  -3.5750  -3.5521  -3.5521  -3.5108  -3.3147  -3.3147
    -3.2922  -3.2922  -3.2378  -3.1857  -3.1427  -3.1427  -3.1187  -3.1000
    -3.0675  -3.0675  -3.0511  -3.0086  -3.0086  -2.9959  -2.9959  -2.9877
    -2.8878  -2.8849  -2.8689  -2.8545  -2.8545  -2.8443  -2.8443  -2.8200
    -2.8200  -2.7937  -2.7871  -2.7871  -2.6923  -2.6923  -2.6865  -2.6865
    -2.6784  -2.6661  -1.4595  -1.4456  -1.4456  -1.4431  -1.4406  -1.4406
    -0.9986  -0.9531  -0.9531  -0.9467  -0.9396  -0.9396  -0.5658  -0.5658
    -0.5514  -0.5514  -0.5107  -0.4953  -0.4756  -0.4450  -0.4450  -0.3987
    -0.3987  -0.3913  -0.2888  -0.2732  -0.2538  -0.2538  -0.2388  -0.2388
    -0.1091  -0.1091  -0.0742  -0.0671  -0.0671   0.0067   0.2416   0.2502
     0.2502   0.2667   0.2667   0.2810   0.4241   0.4738   0.4844   0.4844
     0.5066   0.5066   4.4787   4.4787   4.4794   4.5556   4.5556   4.6665
     4.7524   4.7743   4.8034   4.8034   4.8235   4.8235   6.2163   6.2163
     6.2204   6.2204   6.2553   6.2737   6.3582   6.7183   6.7183   6.9947
     7.0943   7.0943   7.1387   7.1893   7.1893   7.8227   7.8227   7.9256
     7.9589   7.9589   8.1083   8.1600   8.1600   8.1712   8.1875   8.1875
     8.4022   8.4078   8.4078   8.5044   8.5544   8.5544   8.5864   8.5864
     8.6004   8.7937   8.7965   8.8500   8.8500

          k = 0.0000-0.5774 0.0000 (168730 PWs)   bands (ev):

   -22.1405 -22.1390 -22.1355 -22.1321 -22.1288 -22.1269 -20.6339 -20.6194
   -20.6181 -20.5896 -20.5878 -20.5737 -20.1252 -20.1249 -20.1244 -20.1239
   -20.1233 -20.1226 -19.8392 -19.8388 -19.8309 -19.8299 -19.8239 -19.8231
   -19.5972 -19.5954 -19.5948 -19.5914 -19.5890 -19.5875 -18.1987 -18.1898
   -18.1863 -18.1685 -18.1664 -18.1575 -17.5456 -17.5453 -17.5438 -17.5436
   -17.5396 -17.5396 -16.7520 -16.7464 -16.7450 -16.7331 -16.7315 -16.7251
   -12.7776 -12.7692 -12.7597 -12.7557 -12.7444 -12.7397 -12.1266 -12.1182
   -12.0975 -12.0773 -12.0699 -12.0582 -11.5560 -11.5534 -11.5463 -11.5448
   -11.5177 -11.5164 -10.5561 -10.5465 -10.5302 -10.5111 -10.4963 -10.4874
    -9.6817  -9.6783  -9.6720  -9.6717  -9.6560  -9.6526  -8.9164  -8.9111
    -8.8974  -8.8905  -8.8834  -8.8823  -8.5619  -8.5537  -8.5394  -8.5245
    -8.4888  -8.4828  -8.1454  -8.1396  -8.1302  -8.1163  -8.1071  -8.0999
    -7.1699  -7.1677  -7.1387  -7.1365  -7.1112  -7.1080  -6.1517  -6.1311
    -6.0951  -6.0560  -5.9843  -5.9640  -5.8918  -5.8844  -5.8001  -5.7928
    -5.7548  -5.7252  -5.4966  -5.4440  -5.4092  -5.3503  -5.2646  -5.2439
    -5.2375  -5.2331  -5.1840  -5.1064  -5.0964  -5.0679  -4.9252  -4.8856
    -4.8516  -4.7711  -4.7611  -4.7585  -4.7183  -4.6708  -4.6548  -4.6461
    -4.6194  -4.5983  -4.5527  -4.5511  -4.5207  -4.5173  -4.4726  -4.4695
    -4.4555  -4.4130  -4.3813  -4.3721  -4.3556  -4.3270  -4.2931  -4.2694
    -4.2247  -4.2116  -4.2013  -4.1491  -4.0935  -4.0855  -4.0005  -3.9883
    -3.9266  -3.9152  -3.8502  -3.8437  -3.7705  -3.7625  -3.7553  -3.7455
    -3.6103  -3.5961  -3.5738  -3.5522  -3.5176  -3.5068  -3.2897  -3.2845
    -3.2677  -3.2676  -3.2381  -3.2345  -3.1862  -3.1845  -3.1469  -3.0494
    -3.0482  -3.0475  -3.0150  -2.9760  -2.9671  -2.9632  -2.9441  -2.9329
    -2.9193  -2.8970  -2.8756  -2.8747  -2.8398  -2.8321  -2.8299  -2.7859
    -2.7854  -2.7823  -2.7760  -2.7679  -2.7259  -2.7096  -2.6813  -2.6806
    -2.6399  -2.6332  -1.5091  -1.5016  -1.4737  -1.4709  -1.4546  -1.4533
    -0.9902  -0.9800  -0.9513  -0.9414  -0.9253  -0.9210  -0.5958  -0.5870
    -0.5510  -0.5257  -0.5046  -0.4846  -0.4515  -0.4180  -0.3665  -0.3450
    -0.3151  -0.3146  -0.2873  -0.2842  -0.2723  -0.2672  -0.2132  -0.2125
    -0.1495  -0.1409  -0.0984  -0.0649  -0.0329  -0.0025   0.2275   0.2491
     0.2548   0.2702   0.2890   0.2937   0.4261   0.4272   0.4584   0.4687
     0.5092   0.5180   4.4228   4.4394   4.5160   4.5205   4.5500   4.5861
     4.7308   4.7417   4.7720   4.7753   4.8662   4.8784   6.1574   6.1658
     6.3079   6.3196   6.3822   6.3985   6.8784   6.9237   6.9761   7.0234
     7.0250   7.0470   7.1170   7.1653   7.2573   7.2955   7.3789   7.4662
     7.7160   7.8021   7.8405   7.8837   8.0038   8.0925   8.1368   8.2218
     8.2879   8.3415   8.3546   8.4100   8.5877   8.6284   8.7027   8.7155
     8.8096   8.8720   8.9097   8.9142   8.9861

     highest occupied, lowest unoccupied level (ev):     0.5180    4.4228

!    total energy              =   -2707.65504438 Ry
     Harris-Foulkes estimate   =   -2707.65504438 Ry
     estimated scf accuracy    <          8.4E-10 Ry

     total all-electron energy =    -10209.116871 Ry

     The total energy is the sum of the following terms:

     one-electron contribution =   -1670.14446095 Ry
     hartree contribution      =    1036.62470862 Ry
     xc contribution           =    -558.20543694 Ry
     ewald contribution        =    -761.58604562 Ry
     Dispersion Correction     =      -0.65799733 Ry
     one-center paw contrib.   =    -753.68581216 Ry

     convergence has been achieved in  17 iterations

     Forces acting on atoms (cartesian axes, Ry/au):

     atom    1 type  4   force =    -0.00050768   -0.00026401    0.00038402
     atom    2 type  4   force =     0.00050768    0.00026401    0.00038402
     atom    3 type  4   force =     0.00048248   -0.00030766    0.00038402
     atom    4 type  4   force =     0.00002520    0.00057167    0.00038402
     atom    5 type  4   force =    -0.00002520   -0.00057167    0.00038402
     atom    6 type  4   force =    -0.00048248    0.00030766    0.00038402
     atom    7 type  4   force =    -0.00088331    0.00024660   -0.00096614
     atom    8 type  4   force =     0.00088331   -0.00024660   -0.00096614
     atom    9 type  4   force =     0.00022809   -0.00088827   -0.00096614
     atom   10 type  4   force =     0.00065521    0.00064167   -0.00096614
     atom   11 type  4   force =    -0.00065521   -0.00064167   -0.00096614
     atom   12 type  4   force =    -0.00022809    0.00088827   -0.00096614
     atom   13 type  4   force =     0.00032841    0.00021184   -0.00015784
     atom   14 type  4   force =    -0.00032841   -0.00021184   -0.00015784
     atom   15 type  4   force =    -0.00034766    0.00017849   -0.00015784
     atom   16 type  4   force =     0.00001926   -0.00039033   -0.00015784
     atom   17 type  4   force =    -0.00001926    0.00039033   -0.00015784
     atom   18 type  4   force =     0.00034766   -0.00017849   -0.00015784
     atom   19 type  4   force =     0.00039616    0.00063129    0.00044489
     atom   20 type  4   force =    -0.00039616   -0.00063129    0.00044489
     atom   21 type  4   force =    -0.00074480    0.00002744    0.00044489
     atom   22 type  4   force =     0.00034863   -0.00065873    0.00044489
     atom   23 type  4   force =    -0.00034863    0.00065873    0.00044489
     atom   24 type  4   force =     0.00074480   -0.00002744    0.00044489
     atom   25 type  4   force =    -0.00004165   -0.00026519    0.00033171
     atom   26 type  4   force =     0.00004165    0.00026519    0.00033171
     atom   27 type  4   force =     0.00025048    0.00009652    0.00033171
     atom   28 type  4   force =    -0.00020883    0.00016867    0.00033171
     atom   29 type  4   force =     0.00020883   -0.00016867    0.00033171
     atom   30 type  4   force =    -0.00025048   -0.00009652    0.00033171
     atom   31 type  2   force =    -0.00053763    0.00004611   -0.00118268
     atom   32 type  2   force =     0.00053763   -0.00004611   -0.00118268
     atom   33 type  2   force =     0.00022888   -0.00048866   -0.00118268
     atom   34 type  2   force =     0.00030875    0.00044255   -0.00118268
     atom   35 type  2   force =    -0.00030875   -0.00044255   -0.00118268
     atom   36 type  2   force =    -0.00022888    0.00048866   -0.00118268
     atom   37 type  2   force =    -0.00044625   -0.00018855    0.00034294
     atom   38 type  2   force =     0.00044625    0.00018855    0.00034294
     atom   39 type  2   force =     0.00038642   -0.00029219    0.00034294
     atom   40 type  2   force =     0.00005983    0.00048074    0.00034294
     atom   41 type  2   force =    -0.00005983   -0.00048074    0.00034294
     atom   42 type  2   force =    -0.00038642    0.00029219    0.00034294
     atom   43 type  2   force =    -0.00032577    0.00012019    0.00076750
     atom   44 type  2   force =     0.00032577   -0.00012019    0.00076750
     atom   45 type  2   force =     0.00005880   -0.00034222    0.00076750
     atom   46 type  2   force =     0.00026697    0.00022204    0.00076750
     atom   47 type  2   force =    -0.00026697   -0.00022204    0.00076750
     atom   48 type  2   force =    -0.00005880    0.00034222    0.00076750
     atom   49 type  1   force =     0.00095074    0.00048137    0.00110582
     atom   50 type  1   force =    -0.00095074   -0.00048137    0.00110582
     atom   51 type  1   force =    -0.00089224    0.00058268    0.00110582
     atom   52 type  1   force =    -0.00005849   -0.00106405    0.00110582
     atom   53 type  1   force =     0.00005849    0.00106405    0.00110582
     atom   54 type  1   force =     0.00089224   -0.00058268    0.00110582
     atom   55 type  1   force =    -0.00051943   -0.00034774    0.00050654
     atom   56 type  1   force =     0.00051943    0.00034774    0.00050654
     atom   57 type  1   force =     0.00056086   -0.00027597    0.00050654
     atom   58 type  1   force =    -0.00004143    0.00062371    0.00050654
     atom   59 type  1   force =     0.00004143   -0.00062371    0.00050654
     atom   60 type  1   force =    -0.00056086    0.00027597    0.00050654
     atom   61 type  3   force =     0.00005367   -0.00064759   -0.00032235
     atom   62 type  3   force =    -0.00005367    0.00064759   -0.00032235
     atom   63 type  3   force =     0.00053400    0.00037028   -0.00032235
     atom   64 type  3   force =    -0.00058767    0.00027732   -0.00032235
     atom   65 type  3   force =     0.00058767   -0.00027732   -0.00032235
     atom   66 type  3   force =    -0.00053400   -0.00037028   -0.00032235
     atom   67 type  3   force =     0.00021921   -0.00079158    0.00019040
     atom   68 type  3   force =    -0.00021921    0.00079158    0.00019040
     atom   69 type  3   force =     0.00057592    0.00058563    0.00019040
     atom   70 type  3   force =    -0.00079514    0.00020595    0.00019040
     atom   71 type  3   force =     0.00079514   -0.00020595    0.00019040
     atom   72 type  3   force =    -0.00057592   -0.00058563    0.00019040
     atom   73 type  3   force =    -0.00001711   -0.00017591    0.00039286
     atom   74 type  3   force =     0.00001711    0.00017591    0.00039286
     atom   75 type  3   force =     0.00016090    0.00007314    0.00039286
     atom   76 type  3   force =    -0.00014379    0.00010277    0.00039286
     atom   77 type  3   force =     0.00014379   -0.00010277    0.00039286
     atom   78 type  3   force =    -0.00016090   -0.00007314    0.00039286
     atom   79 type  1   force =     0.00002119    0.00088816    0.00037087
     atom   80 type  1   force =    -0.00002119   -0.00088816    0.00037087
     atom   81 type  1   force =    -0.00077976   -0.00042573    0.00037087
     atom   82 type  1   force =     0.00075857   -0.00046243    0.00037087
     atom   83 type  1   force =    -0.00075857    0.00046243    0.00037087
     atom   84 type  1   force =     0.00077976    0.00042573    0.00037087
     atom   85 type  1   force =    -0.00044623    0.00080938   -0.00036042
     atom   86 type  1   force =     0.00044623   -0.00080938   -0.00036042
     atom   87 type  1   force =    -0.00047783   -0.00079113   -0.00036042
     atom   88 type  1   force =     0.00092406   -0.00001825   -0.00036042
     atom   89 type  1   force =    -0.00092406    0.00001825   -0.00036042
     atom   90 type  1   force =     0.00047783    0.00079113   -0.00036042
     atom   91 type  1   force =     0.00049606    0.00024875   -0.00022467
     atom   92 type  1   force =    -0.00049606   -0.00024875   -0.00022467
     atom   93 type  1   force =    -0.00046345    0.00030523   -0.00022467
     atom   94 type  1   force =    -0.00003261   -0.00055397   -0.00022467
     atom   95 type  1   force =     0.00003261    0.00055397   -0.00022467
     atom   96 type  1   force =     0.00046345   -0.00030523   -0.00022467
     atom   97 type  3   force =    -0.00031692   -0.00001844   -0.00022694
     atom   98 type  3   force =     0.00031692    0.00001844   -0.00022694
     atom   99 type  3   force =     0.00017443   -0.00026524   -0.00022694
     atom  100 type  3   force =     0.00014249    0.00028368   -0.00022694
     atom  101 type  3   force =    -0.00014249   -0.00028368   -0.00022694
     atom  102 type  3   force =    -0.00017443    0.00026524   -0.00022694
     atom  103 type  3   force =    -0.00038720    0.00022339    0.00024328
     atom  104 type  3   force =     0.00038720   -0.00022339    0.00024328
     atom  105 type  3   force =     0.00000014   -0.00044702    0.00024328
     atom  106 type  3   force =     0.00038706    0.00022363    0.00024328
     atom  107 type  3   force =    -0.00038706   -0.00022363    0.00024328
     atom  108 type  3   force =    -0.00000014    0.00044702    0.00024328
     atom  109 type  3   force =     0.00006550   -0.00024750    0.00000698
     atom  110 type  3   force =    -0.00006550    0.00024750    0.00000698
     atom  111 type  3   force =     0.00018159    0.00018047    0.00000698
     atom  112 type  3   force =    -0.00024709    0.00006703    0.00000698
     atom  113 type  3   force =     0.00024709   -0.00006703    0.00000698
     atom  114 type  3   force =    -0.00018159   -0.00018047    0.00000698
     atom  115 type  1   force =     0.00072712    0.00000061   -0.00037604
     atom  116 type  1   force =    -0.00072712   -0.00000061   -0.00037604
     atom  117 type  1   force =    -0.00036408    0.00062940   -0.00037604
     atom  118 type  1   force =    -0.00036303   -0.00063001   -0.00037604
     atom  119 type  1   force =     0.00036303    0.00063001   -0.00037604
     atom  120 type  1   force =     0.00036408   -0.00062940   -0.00037604
     atom  121 type  1   force =     0.00167727   -0.00071436   -0.00063488
     atom  122 type  1   force =    -0.00167727    0.00071436   -0.00063488
     atom  123 type  1   force =    -0.00021998    0.00180974   -0.00063488
     atom  124 type  1   force =    -0.00145729   -0.00109537   -0.00063488
     atom  125 type  1   force =     0.00145729    0.00109537   -0.00063488
     atom  126 type  1   force =     0.00021998   -0.00180974   -0.00063488
     atom  127 type  3   force =     0.00024885    0.00031037   -0.00013187
     atom  128 type  3   force =    -0.00024885   -0.00031037   -0.00013187
     atom  129 type  3   force =    -0.00039321    0.00006032   -0.00013187
     atom  130 type  3   force =     0.00014437   -0.00037069   -0.00013187
     atom  131 type  3   force =    -0.00014437    0.00037069   -0.00013187
     atom  132 type  3   force =     0.00039321   -0.00006032   -0.00013187
     atom  133 type  3   force =    -0.00034890   -0.00030142    0.00004287
     atom  134 type  3   force =     0.00034890    0.00030142    0.00004287
     atom  135 type  3   force =     0.00043549   -0.00015145    0.00004287
     atom  136 type  3   force =    -0.00008659    0.00045287    0.00004287
     atom  137 type  3   force =     0.00008659   -0.00045287    0.00004287
     atom  138 type  3   force =    -0.00043549    0.00015145    0.00004287
     atom  139 type  3   force =    -0.00002945    0.00048132   -0.00064369
     atom  140 type  3   force =     0.00002945   -0.00048132   -0.00064369
     atom  141 type  3   force =    -0.00040211   -0.00026616   -0.00064369
     atom  142 type  3   force =     0.00043156   -0.00021515   -0.00064369
     atom  143 type  3   force =    -0.00043156    0.00021515   -0.00064369
     atom  144 type  3   force =     0.00040211    0.00026616   -0.00064369
     atom  145 type  1   force =    -0.00015380    0.00019863    0.00009685
     atom  146 type  1   force =     0.00015380   -0.00019863    0.00009685
     atom  147 type  1   force =    -0.00009512   -0.00023251    0.00009685
     atom  148 type  1   force =     0.00024892    0.00003387    0.00009685
     atom  149 type  1   force =    -0.00024892   -0.00003387    0.00009685
     atom  150 type  1   force =     0.00009512    0.00023251    0.00009685

     Total force =     0.010619     Total SCF correction =     0.000050


     Computing stress (Cartesian axis) and pressure

          total   stress  (Ry/bohr**3)                   (kbar)     P=   -4.50
  -0.00003184   0.00000000   0.00000000         -4.68      0.00      0.00
   0.00000000  -0.00003184  -0.00000000          0.00     -4.68     -0.00
   0.00000000  -0.00000000  -0.00002810          0.00     -0.00     -4.13


     Writing output data file scf.save
 
     init_run     :     44.21s CPU     45.24s WALL (       1 calls)
     electrons    :   1867.31s CPU   1910.13s WALL (       1 calls)
     forces       :     23.73s CPU     24.14s WALL (       1 calls)
     stress       :    122.19s CPU    122.60s WALL (       1 calls)

     Called by init_run:
     wfcinit      :     37.89s CPU     38.69s WALL (       1 calls)
     potinit      :      2.21s CPU      2.25s WALL (       1 calls)

     Called by electrons:
     c_bands      :   1679.37s CPU   1712.58s WALL (      17 calls)
     sum_band     :    162.71s CPU    169.48s WALL (      17 calls)
     v_of_rho     :      4.25s CPU      4.55s WALL (      18 calls)
     newd         :      9.43s CPU     11.89s WALL (      18 calls)
     PAW_pot      :     10.66s CPU     10.67s WALL (      18 calls)
     mix_rho      :      0.94s CPU      1.09s WALL (      17 calls)

     Called by c_bands:
     init_us_2    :      4.73s CPU      4.79s WALL (      74 calls)
     cegterg      :   1655.37s CPU   1688.51s WALL (      34 calls)

     Called by sum_band:
     sum_band:bec :      0.06s CPU      0.06s WALL (      34 calls)
     addusdens    :      9.55s CPU     11.87s WALL (      17 calls)

     Called by *egterg:
     h_psi        :    834.47s CPU    858.99s WALL (     182 calls)
     s_psi        :    199.34s CPU    199.39s WALL (     182 calls)
     g_psi        :      2.73s CPU      2.73s WALL (     146 calls)
     cdiaghg      :    106.93s CPU    106.97s WALL (     180 calls)

     Called by h_psi:
     h_psi:pot    :    830.72s CPU    855.14s WALL (     182 calls)
     h_psi:calbec :    200.85s CPU    201.19s WALL (     182 calls)
     vloc_psi     :    431.40s CPU    455.43s WALL (     182 calls)
     add_vuspsi   :    198.48s CPU    198.51s WALL (     182 calls)

     General routines
     calbec       :    293.29s CPU    293.77s WALL (     226 calls)
     fft          :     12.44s CPU     12.95s WALL (     258 calls)
     fftw         :    456.29s CPU    484.35s WALL (   73468 calls)
 
     Parallel routines
     fft_scatter  :    168.91s CPU    197.37s WALL (   73726 calls)
 
     PWSCF        : 34m24.72s CPU    35m25.48s WALL

 
   This run was terminated on:   2:38: 0  21Dec2017            

=------------------------------------------------------------------------------=
   JOB DONE.
=------------------------------------------------------------------------------=
