
     Program PWSCF v.6.1 (svn rev. 13369) starts on  7Dec2017 at  7:16: 6 

     This program is part of the open-source Quantum ESPRESSO suite
     for quantum simulation of materials; please cite
         "P. Giannozzi et al., J. Phys.:Condens. Matter 21 395502 (2009);
          URL http://www.quantum-espresso.org", 
     in publications or presentations arising from this work. More details at
     http://www.quantum-espresso.org/quote

     Parallel version (MPI), running on     8 processors
     R & G space division:  proc/nbgrp/npool/nimage =       8
     Waiting for input...
     Reading input from standard input

     Current dimensions of program PWSCF are:
     Max number of different atomic species (ntypx) = 10
     Max number of k-points (npk) =  40000
     Max angular momentum in pseudopotentials (lmaxx) =  3
               file C.pbe-n-kjpaw_psl.0.1.UPF: wavefunction(s)  2P renormalized
               file N.pbe-n-kjpaw_psl.0.1.UPF: wavefunction(s)  2P renormalized
               file H.pbe-kjpaw_psl.0.1.UPF: wavefunction(s)  1S renormalized
               file O.pbe-n-kjpaw_psl.0.1.UPF: wavefunction(s)  2P renormalized

     -------------------------------------
     Parameters for Dispersion Correction:
     -------------------------------------
       atom      VdW radius       C_6     

        C          2.744         60.710
        N          2.640         42.670
        H          1.892          4.857
        O          2.536         24.284

     Subspace diagonalization in iterative solution of the eigenvalue problem:
     a serial algorithm will be used

 
     Parallelization info
     --------------------
     sticks:   dense  smooth     PW     G-vecs:    dense   smooth      PW
     Min        1795    1795    471               115719   115719   15541
     Max        1796    1796    472               115721   115721   15542
     Sum       14363   14363   3771               925761   925761  124331
 


     bravais-lattice index     =            0
     lattice parameter (alat)  =      23.4043  a.u.
     unit-cell volume          =    6852.0182 (a.u.)^3
     number of atoms/cell      =          104
     number of atomic types    =            4
     number of electrons       =       352.00
     number of Kohn-Sham states=          211
     kinetic-energy cutoff     =     100.0000  Ry
     charge density cutoff     =     400.0000  Ry
     convergence threshold     =      1.0E-08
     mixing beta               =       0.5000
     number of iterations used =            8  plain     mixing
     Exchange-correlation      =  SLA  PW   PBX  PBC ( 1  4  3  4 0 0)

     celldm(1)=  23.404258  celldm(2)=   0.000000  celldm(3)=   0.000000
     celldm(4)=   0.000000  celldm(5)=   0.000000  celldm(6)=   0.000000

     crystal axes: (cart. coord. in units of alat)
               a(1) = (   1.000000   0.000000   0.000000 )  
               a(2) = (   0.000000   0.822769   0.000000 )  
               a(3) = (  -0.078497   0.000000   0.649614 )  

     reciprocal axes: (cart. coord. in units 2 pi/alat)
               b(1) = (  1.000000  0.000000  0.120836 )  
               b(2) = (  0.000000  1.215407  0.000000 )  
               b(3) = (  0.000000  0.000000  1.539375 )  


     PseudoPot. # 1 for  C read from file:
     /scratch/ahofstet/pseudo/C.pbe-n-kjpaw_psl.0.1.UPF
     MD5 check sum: 430fe95172b1e11ef3f8ed03bac87931
     Pseudo is Projector augmented-wave + core cor, Zval =  4.0
     Generated using "atomic" code by A. Dal Corso  v.5.0.99 svn rev. 10869
     Shape of augmentation charge: BESSEL
     Using radial grid of 1073 points,  4 beta functions with: 
                l(1) =   0
                l(2) =   0
                l(3) =   1
                l(4) =   1
     Q(r) pseudized with 0 coefficients 


     PseudoPot. # 2 for  N read from file:
     /scratch/ahofstet/pseudo/N.pbe-n-kjpaw_psl.0.1.UPF
     MD5 check sum: f73187c8b701007e77325f868c9291d7
     Pseudo is Projector augmented-wave + core cor, Zval =  5.0
     Generated using "atomic" code by A. Dal Corso  v.5.0.99 svn rev. 10869
     Shape of augmentation charge: PSQ
     Using radial grid of 1085 points,  4 beta functions with: 
                l(1) =   0
                l(2) =   0
                l(3) =   1
                l(4) =   1
     Q(r) pseudized with 0 coefficients 


     PseudoPot. # 3 for  H read from file:
     /scratch/ahofstet/pseudo/H.pbe-kjpaw_psl.0.1.UPF
     MD5 check sum: 94e484f906d9e9773b2f6e52662335b2
     Pseudo is Projector augmented-wave, Zval =  1.0
     Generated using "atomic" code by A. Dal Corso  v.5.0.99 svn rev. 10869
     Shape of augmentation charge: PSQ
     Using radial grid of  929 points,  2 beta functions with: 
                l(1) =   0
                l(2) =   0
     Q(r) pseudized with 0 coefficients 


     PseudoPot. # 4 for  O read from file:
     /scratch/ahofstet/pseudo/O.pbe-n-kjpaw_psl.0.1.UPF
     MD5 check sum: 3f94a2996a3169367d6eb21d9b593f20
     Pseudo is Projector augmented-wave + core cor, Zval =  6.0
     Generated using "atomic" code by A. Dal Corso  v.5.0.99 svn rev. 10869
     Shape of augmentation charge: BESSEL
     Using radial grid of 1095 points,  4 beta functions with: 
                l(1) =   0
                l(2) =   0
                l(3) =   1
                l(4) =   1
     Q(r) pseudized with 0 coefficients 


     atomic species   valence    mass     pseudopotential
        C              4.00    12.01070      C( 1.00)
        N              5.00    14.00670      N( 1.00)
        H              1.00     1.00794      H( 1.00)
        O              6.00    15.99940      O( 1.00)

      2 Sym. Ops., with inversion, found



   Cartesian axes

     site n.     atom                  positions (alat units)
         1           N   tau(   1) = (   0.9004765   0.0318736   0.1775997  )
         2           N   tau(   2) = (   0.5602531   0.4432701   0.1473966  )
         3           N   tau(   3) = (   0.0210265   0.7908959   0.4720148  )
         4           N   tau(   4) = (   0.3612500   0.3794994   0.5022179  )
         5           C   tau(   5) = (   0.8971464   0.7775996   0.0890342  )
         6           C   tau(   6) = (   0.5636080   0.3662524   0.2359911  )
         7           C   tau(   7) = (   0.0243566   0.0451699   0.5605803  )
         8           C   tau(   8) = (   0.3578950   0.4565171   0.4136234  )
         9           C   tau(   9) = (  -0.0053209   0.0720901   0.2194501  )
        10           C   tau(  10) = (   0.4660654   0.4834572   0.1055057  )
        11           C   tau(  11) = (   0.9268240   0.7506794   0.4301644  )
        12           C   tau(  12) = (   0.4554376   0.3393123   0.5441088  )
        13           O   tau(  13) = (   0.0859397   0.0380356   0.2007192  )
        14           O   tau(  14) = (   0.3747884   0.4494120   0.1242296  )
        15           O   tau(  15) = (   0.8355633   0.7847339   0.4488953  )
        16           O   tau(  16) = (   0.5467147   0.3733574   0.5253849  )
        17           N   tau(  17) = (  -0.0312784   0.1589386   0.2878491  )
        18           N   tau(  18) = (   0.4920255   0.5702645   0.0370486  )
        19           N   tau(  19) = (   0.9527814   0.6638309   0.3617654  )
        20           N   tau(  20) = (   0.4294775   0.2525049   0.6125658  )
        21           C   tau(  21) = (   0.8607861   0.1796252   0.2866427  )
        22           C   tau(  22) = (   0.5999738   0.5909624   0.0382567  )
        23           C   tau(  23) = (   0.0607170   0.6431442   0.3629717  )
        24           C   tau(  24) = (   0.3215292   0.2318071   0.6113578  )
        25           O   tau(  25) = (   0.8094124   0.2453249   0.3398378  )
        26           O   tau(  26) = (   0.5728440   0.6566178   0.6346611  )
        27           O   tau(  27) = (   0.1120907   0.5774446   0.3097767  )
        28           O   tau(  28) = (   0.3486591   0.1661517   0.0149534  )
        29           C   tau(  29) = (   0.8115388   0.1015474   0.2024700  )
        30           C   tau(  30) = (   0.6491976   0.5129132   0.1224761  )
        31           C   tau(  31) = (   0.1099642   0.7212220   0.4471444  )
        32           C   tau(  32) = (   0.2723054   0.3098563   0.5271384  )
        33           C   tau(  33) = (   0.7654029   0.1607540   0.1006567  )
        34           C   tau(  34) = (   0.6953602   0.5721451   0.2242351  )
        35           C   tau(  35) = (   0.1561001   0.6620155   0.5489578  )
        36           C   tau(  36) = (   0.2261428   0.2506244   0.4253794  )
        37           O   tau(  37) = (   0.8236421   0.2078970   0.0358152  )
        38           O   tau(  38) = (   0.6371019   0.6193552   0.2890839  )
        39           O   tau(  39) = (   0.0978609   0.6148725   0.6137993  )
        40           O   tau(  40) = (   0.2844011   0.2034143   0.3605305  )
        41           N   tau(  41) = (   0.6570683   0.1460594   0.0991228  )
        42           N   tau(  42) = (   0.8036651   0.5574335   0.2258029  )
        43           N   tau(  43) = (   0.2644348   0.6767100   0.5504917  )
        44           N   tau(  44) = (   0.1178380   0.2653359   0.4238116  )
        45           C   tau(  45) = (   0.6295907   0.0819273   0.1841668  )
        46           C   tau(  46) = (   0.8311663   0.4932649   0.1407761  )
        47           C   tau(  47) = (   0.2919124   0.7408422   0.4654477  )
        48           C   tau(  48) = (   0.0903367   0.3295045   0.5088383  )
        49           O   tau(  49) = (   0.5405006   0.0516935   0.2139430  )
        50           O   tau(  50) = (   0.9202194   0.4630477   0.1110066  )
        51           O   tau(  51) = (   0.3810024   0.7710759   0.4356715  )
        52           O   tau(  52) = (   0.0012836   0.3597218   0.5386079  )
        53           O   tau(  53) = (   0.7197387   0.0482231   0.2445984  )
        54           O   tau(  54) = (   0.7409888   0.4595527   0.0803685  )
        55           O   tau(  55) = (   0.2017643   0.7745464   0.4050161  )
        56           O   tau(  56) = (   0.1805142   0.3632168   0.5692460  )
        57           N   tau(  57) = (   0.6084067   0.7895900   0.4341262  )
        58           N   tau(  58) = (   0.7738496   0.3782137   0.5403400  )
        59           N   tau(  59) = (   0.3130963   0.0331795   0.2154882  )
        60           N   tau(  60) = (   0.1476535   0.4445558   0.1092745  )
        61           C   tau(  61) = (   0.6004922   0.0786982   0.4764851  )
        62           C   tau(  62) = (   0.7817702   0.4901082   0.4980175  )
        63           C   tau(  63) = (   0.3210108   0.7440712   0.1731294  )
        64           C   tau(  64) = (   0.1397329   0.3326613   0.1515970  )
        65           H   tau(  65) = (   0.9677616   0.7246713   0.0953798  )
        66           H   tau(  66) = (   0.4929852   0.3133295   0.2296812  )
        67           H   tau(  67) = (  -0.0462585   0.0980982   0.5542347  )
        68           H   tau(  68) = (   0.4285178   0.5094400   0.4199333  )
        69           H   tau(  69) = (   0.8234976   0.7290378   0.0959041  )
        70           H   tau(  70) = (   0.6372485   0.3176797   0.2290964  )
        71           H   tau(  71) = (   0.0980055   0.0937317   0.5537104  )
        72           H   tau(  72) = (   0.2842545   0.5050898   0.4205181  )
        73           H   tau(  73) = (   0.8982725   0.8187673   0.0102768  )
        74           H   tau(  74) = (   0.5625201   0.4074426   0.3147340  )
        75           H   tau(  75) = (   0.0232306   0.0040022   0.6393376  )
        76           H   tau(  76) = (   0.3589829   0.4153269   0.3348805  )
        77           H   tau(  77) = (   0.0261039   0.1988144   0.3377920  )
        78           H   tau(  78) = (   0.3561777   0.6101094   0.6366835  )
        79           H   tau(  79) = (   0.8953991   0.6239551   0.3118225  )
        80           H   tau(  80) = (   0.5653254   0.2126601   0.0129310  )
        81           H   tau(  81) = (   0.5722103   0.7357646   0.4864491  )
        82           H   tau(  82) = (   0.8100590   0.3244100   0.4880016  )
        83           H   tau(  83) = (   0.3492928   0.0870049   0.1631654  )
        84           H   tau(  84) = (   0.1114441   0.4983595   0.1616128  )
        85           H   tau(  85) = (   0.5710018   0.7842528   0.3599083  )
        86           H   tau(  86) = (   0.8112365   0.3728480   0.6145685  )
        87           H   tau(  87) = (   0.3505013   0.0385166   0.2897062  )
        88           H   tau(  88) = (   0.1102666   0.4499215   0.0350460  )
        89           H   tau(  89) = (   0.6886593   0.7681347   0.4231874  )
        90           H   tau(  90) = (   0.6935979   0.3567516   0.5512479  )
        91           H   tau(  91) = (   0.2328438   0.0546348   0.2264271  )
        92           H   tau(  92) = (   0.2279051   0.4660179   0.0983665  )
        93           H   tau(  93) = (   0.6365458   0.0817314   0.5569605  )
        94           H   tau(  94) = (   0.7457442   0.4931589   0.4175299  )
        95           H   tau(  95) = (   0.2849573   0.7410381   0.0926540  )
        96           H   tau(  96) = (   0.1757589   0.3296106   0.2320845  )
        97           H   tau(  97) = (   0.6445560   0.1324290   0.4218878  )
        98           H   tau(  98) = (   0.7376830   0.5438174   0.5526182  )
        99           H   tau(  99) = (   0.2769471   0.6903405   0.2277267  )
       100           H   tau( 100) = (   0.1838200   0.2789521   0.0969963  )
       101           H   tau( 101) = (   0.5150933   0.1006202   0.4805499  )
       102           H   tau( 102) = (   0.8671681   0.5120393   0.4939870  )
       103           H   tau( 103) = (   0.4064097   0.7221493   0.1690645  )
       104           H   tau( 104) = (   0.0543349   0.3107302   0.1556275  )

     number of k points=     8
                       cart. coord. in units 2pi/alat
        k(    1) = (   0.0000000   0.0000000   0.0000000), wk =   0.1666667
        k(    2) = (   0.0000000   0.0000000   0.5131249), wk =   0.3333333
        k(    3) = (   0.0000000  -0.6077036   0.0000000), wk =   0.1666667
        k(    4) = (   0.0000000  -0.6077036   0.5131249), wk =   0.3333333
        k(    5) = (  -0.5000000   0.0000000  -0.0604181), wk =   0.1666667
        k(    6) = (  -0.5000000   0.0000000   0.4527067), wk =   0.3333333
        k(    7) = (  -0.5000000  -0.6077036  -0.0604181), wk =   0.1666667
        k(    8) = (  -0.5000000  -0.6077036   0.4527067), wk =   0.3333333

     Dense  grid:   925761 G-vectors     FFT dimensions: ( 150, 125, 100)

     Estimated max dynamical RAM per process >    1014.28MB

     Estimated total allocated dynamical RAM >    8114.28MB

     Check: negative/imaginary core charge=   -0.000002    0.000000

     Initial potential from superposition of free atoms

     starting charge  351.99831, renormalised to  352.00000
     Starting wfc are  296 randomized atomic wfcs
     Checking if some PAW data can be deallocated... 

     total cpu time spent up to now is       65.9 secs

     per-process dynamical memory:   682.7 Mb

     Self-consistent Calculation

     iteration #  1     ecut=   100.00 Ry     beta=0.50
     Davidson diagonalization with overlap
     ethr =  1.00E-02,  avg # of iterations =  4.2

     total cpu time spent up to now is      263.4 secs

     total energy              =   -1846.83460178 Ry
     Harris-Foulkes estimate   =   -1852.79941121 Ry
     estimated scf accuracy    <      11.00804766 Ry

     iteration #  2     ecut=   100.00 Ry     beta=0.50
     Davidson diagonalization with overlap
     ethr =  3.13E-03,  avg # of iterations =  3.0

     total cpu time spent up to now is      384.4 secs

     total energy              =   -1848.58093793 Ry
     Harris-Foulkes estimate   =   -1849.62353972 Ry
     estimated scf accuracy    <       2.14958838 Ry

     iteration #  3     ecut=   100.00 Ry     beta=0.50
     Davidson diagonalization with overlap
     ethr =  6.11E-04,  avg # of iterations =  7.9

     total cpu time spent up to now is      558.5 secs

     total energy              =   -1849.19545395 Ry
     Harris-Foulkes estimate   =   -1849.46611245 Ry
     estimated scf accuracy    <       0.67534919 Ry

     iteration #  4     ecut=   100.00 Ry     beta=0.50
     Davidson diagonalization with overlap
     ethr =  1.92E-04,  avg # of iterations =  2.0

     total cpu time spent up to now is      661.0 secs

     total energy              =   -1849.27942698 Ry
     Harris-Foulkes estimate   =   -1849.30288647 Ry
     estimated scf accuracy    <       0.07974509 Ry

     iteration #  5     ecut=   100.00 Ry     beta=0.50
     Davidson diagonalization with overlap
     ethr =  2.27E-05,  avg # of iterations =  7.8

     total cpu time spent up to now is      870.1 secs

     total energy              =   -1849.30545766 Ry
     Harris-Foulkes estimate   =   -1849.31805688 Ry
     estimated scf accuracy    <       0.03340911 Ry

     iteration #  6     ecut=   100.00 Ry     beta=0.50
     Davidson diagonalization with overlap
     ethr =  9.49E-06,  avg # of iterations =  2.0

     total cpu time spent up to now is      966.8 secs

     total energy              =   -1849.30396382 Ry
     Harris-Foulkes estimate   =   -1849.30771469 Ry
     estimated scf accuracy    <       0.00754494 Ry

     iteration #  7     ecut=   100.00 Ry     beta=0.50
     Davidson diagonalization with overlap
     ethr =  2.14E-06,  avg # of iterations =  8.4

     total cpu time spent up to now is     1171.5 secs

     total energy              =   -1849.30896535 Ry
     Harris-Foulkes estimate   =   -1849.30994685 Ry
     estimated scf accuracy    <       0.00328992 Ry

     iteration #  8     ecut=   100.00 Ry     beta=0.50
     Davidson diagonalization with overlap
     ethr =  9.35E-07,  avg # of iterations =  2.0

     total cpu time spent up to now is     1268.4 secs

     total energy              =   -1849.30834047 Ry
     Harris-Foulkes estimate   =   -1849.30907595 Ry
     estimated scf accuracy    <       0.00141846 Ry

     iteration #  9     ecut=   100.00 Ry     beta=0.50
     Davidson diagonalization with overlap
     ethr =  4.03E-07,  avg # of iterations =  4.0

     total cpu time spent up to now is     1413.9 secs

     total energy              =   -1849.30900221 Ry
     Harris-Foulkes estimate   =   -1849.30905743 Ry
     estimated scf accuracy    <       0.00027108 Ry

     iteration # 10     ecut=   100.00 Ry     beta=0.50
     Davidson diagonalization with overlap
     ethr =  7.70E-08,  avg # of iterations =  1.0

     total cpu time spent up to now is     1506.7 secs

     total energy              =   -1849.30891598 Ry
     Harris-Foulkes estimate   =   -1849.30901154 Ry
     estimated scf accuracy    <       0.00016890 Ry

     iteration # 11     ecut=   100.00 Ry     beta=0.50
     Davidson diagonalization with overlap
     ethr =  4.80E-08,  avg # of iterations =  3.6

     total cpu time spent up to now is     1642.1 secs

     total energy              =   -1849.30898048 Ry
     Harris-Foulkes estimate   =   -1849.30898584 Ry
     estimated scf accuracy    <       0.00002354 Ry

     iteration # 12     ecut=   100.00 Ry     beta=0.50
     Davidson diagonalization with overlap
     ethr =  6.69E-09,  avg # of iterations =  1.8

     total cpu time spent up to now is     1736.4 secs

     total energy              =   -1849.30897401 Ry
     Harris-Foulkes estimate   =   -1849.30898151 Ry
     estimated scf accuracy    <       0.00001318 Ry

     iteration # 13     ecut=   100.00 Ry     beta=0.50
     Davidson diagonalization with overlap
     ethr =  3.75E-09,  avg # of iterations =  3.8

     total cpu time spent up to now is     1876.5 secs

     total energy              =   -1849.30897931 Ry
     Harris-Foulkes estimate   =   -1849.30897955 Ry
     estimated scf accuracy    <       0.00000140 Ry

     iteration # 14     ecut=   100.00 Ry     beta=0.50
     Davidson diagonalization with overlap
     ethr =  3.98E-10,  avg # of iterations =  2.0

     total cpu time spent up to now is     1973.0 secs

     total energy              =   -1849.30897891 Ry
     Harris-Foulkes estimate   =   -1849.30897939 Ry
     estimated scf accuracy    <       0.00000093 Ry

     iteration # 15     ecut=   100.00 Ry     beta=0.50
     Davidson diagonalization with overlap
     ethr =  2.63E-10,  avg # of iterations =  3.0

     total cpu time spent up to now is     2104.9 secs

     total energy              =   -1849.30897917 Ry
     Harris-Foulkes estimate   =   -1849.30897917 Ry
     estimated scf accuracy    <       0.00000002 Ry

     iteration # 16     ecut=   100.00 Ry     beta=0.50
     Davidson diagonalization with overlap
     ethr =  6.50E-12,  avg # of iterations =  4.0

     total cpu time spent up to now is     2268.4 secs

     total energy              =   -1849.30897917 Ry
     Harris-Foulkes estimate   =   -1849.30897918 Ry
     estimated scf accuracy    <       0.00000001 Ry

     iteration # 17     ecut=   100.00 Ry     beta=0.50
     Davidson diagonalization with overlap
     ethr =  2.95E-12,  avg # of iterations =  4.5

     total cpu time spent up to now is     2404.9 secs

     End of self-consistent calculation

          k = 0.0000 0.0000 0.0000 (115697 PWs)   bands (ev):

   -21.6483 -21.6314 -21.6297 -21.6256 -20.6224 -20.6090 -20.5627 -20.5570
   -19.9410 -19.9356 -19.9333 -19.9230 -19.5177 -19.5084 -19.4993 -19.4955
   -19.1648 -19.1611 -19.1496 -19.1480 -18.1282 -18.1262 -18.1260 -18.1247
   -17.3900 -17.3841 -17.3813 -17.3783 -16.4974 -16.4442 -16.4405 -16.3902
   -16.0816 -16.0785 -16.0481 -16.0332 -12.2824 -12.2627 -12.2144 -12.1962
   -11.2623 -11.2078 -11.1431 -11.1363 -10.5979 -10.5827 -10.5612 -10.5545
    -9.3820  -9.3648  -9.3551  -9.3222  -8.6932  -8.6552  -8.6322  -8.6067
    -8.4201  -8.3779  -8.3533  -8.3280  -8.2500  -8.2464  -8.2320  -8.2199
    -7.4645  -7.3367  -7.3207  -7.1572  -7.0447  -7.0320  -7.0057  -6.9487
    -6.9116  -6.8489  -6.8141  -6.7772  -6.1882  -6.0675  -5.9220  -5.7576
    -5.6554  -5.5714  -5.2943  -5.2875  -5.2406  -5.2275  -5.1905  -5.1043
    -5.1015  -5.0272  -4.9829  -4.9565  -4.9042  -4.8409  -4.8367  -4.7832
    -4.7501  -4.7098  -4.5620  -4.5433  -4.4101  -4.3375  -4.3354  -4.3033
    -4.2738  -4.2673  -4.2142  -4.1732  -4.0593  -4.0538  -4.0425  -4.0259
    -3.9150  -3.8737  -3.8708  -3.8487  -3.4170  -3.3242  -3.3157  -3.2900
    -3.1984  -3.1926  -3.1460  -3.1345  -3.1163  -3.0842  -3.0352  -3.0141
    -2.9665  -2.9324  -2.9230  -2.9228  -2.8934  -2.8559  -2.8172  -2.7349
    -2.7163  -2.7024  -2.6869  -2.6276  -1.3405  -1.3350  -1.3235  -1.3096
    -1.1676  -1.1194  -1.0519  -0.9944  -0.7829  -0.7708  -0.7688  -0.7657
    -0.6725  -0.6676  -0.6576  -0.6090  -0.5993  -0.4707  -0.4424  -0.3734
    -0.1426  -0.1294  -0.0116  -0.0029   0.0248   0.0252   0.1173   0.1197
     0.1391   0.1984   0.2023   0.2210   0.6672   0.6788   0.7556   0.7906
     4.5160   4.5210   4.6232   4.6484   4.9423   4.9448   5.0060   5.0065
     6.1261   6.1443   6.3009   6.4622   6.5336   6.9809   7.1057   7.1472
     7.2482   7.2592   7.4849   7.5349   7.5426   7.8481   7.8619   8.0892
     8.1121   8.2736   8.3300   8.3483   8.4773   8.5758   8.6415   8.7743
     8.8710   8.8722   8.9017

          k = 0.0000 0.0000 0.5131 (115736 PWs)   bands (ev):

   -21.6449 -21.6373 -21.6270 -21.6254 -20.6178 -20.6110 -20.5626 -20.5597
   -19.9409 -19.9370 -19.9303 -19.9245 -19.5171 -19.5124 -19.4990 -19.4967
   -19.1603 -19.1582 -19.1516 -19.1506 -18.1287 -18.1283 -18.1236 -18.1231
   -17.3882 -17.3863 -17.3828 -17.3802 -16.4889 -16.4612 -16.4262 -16.3985
   -16.0726 -16.0640 -16.0545 -16.0426 -12.2627 -12.2497 -12.2254 -12.2195
   -11.2319 -11.1937 -11.1655 -11.1575 -10.5970 -10.5893 -10.5620 -10.5587
    -9.3670  -9.3574  -9.3559  -9.3328  -8.6773  -8.6726  -8.6483  -8.5938
    -8.3948  -8.3787  -8.3661  -8.3495  -8.2548  -8.2487  -8.2142  -8.2124
    -7.4413  -7.3775  -7.3218  -7.2226  -7.0386  -7.0284  -6.9899  -6.9680
    -6.8745  -6.8579  -6.8031  -6.7365  -6.1303  -5.9740  -5.9531  -5.8707
    -5.5539  -5.4907  -5.4121  -5.2961  -5.2947  -5.2267  -5.2169  -5.1066
    -5.0781  -5.0757  -5.0047  -4.9992  -4.9777  -4.8751  -4.7995  -4.7349
    -4.6625  -4.5891  -4.5823  -4.5223  -4.4086  -4.3623  -4.3372  -4.3074
    -4.2804  -4.2435  -4.1737  -4.1622  -4.1051  -4.0939  -4.0531  -4.0303
    -3.9148  -3.8768  -3.8725  -3.8517  -3.4280  -3.3854  -3.3519  -3.3284
    -3.2716  -3.1916  -3.1619  -3.1594  -3.1503  -3.1211  -3.0267  -2.9932
    -2.9893  -2.9881  -2.9019  -2.8962  -2.8480  -2.8227  -2.8199  -2.7417
    -2.6694  -2.6611  -2.5904  -2.5830  -1.3580  -1.3430  -1.3203  -1.3053
    -1.1316  -1.1164  -1.1135  -1.0306  -0.7954  -0.7941  -0.7366  -0.7142
    -0.6873  -0.6542  -0.6290  -0.6104  -0.5653  -0.4897  -0.4134  -0.4036
    -0.1421  -0.0913  -0.0654   0.0006   0.0210   0.0219   0.0747   0.0988
     0.1593   0.1809   0.2602   0.2664   0.6772   0.7247   0.7505   0.7971
     4.4936   4.5013   4.6534   4.6648   4.9424   4.9446   4.9965   4.9996
     6.1433   6.2747   6.3770   6.4474   6.5266   7.1188   7.1894   7.2335
     7.2681   7.2755   7.3762   7.4175   7.4790   7.6078   7.7630   7.8300
     8.0568   8.0854   8.1402   8.2594   8.4905   8.6142   8.6273   8.7230
     8.8223   8.9071   9.0942

          k = 0.0000-0.6077 0.0000 (115742 PWs)   bands (ev):

   -21.6414 -21.6400 -21.6276 -21.6261 -20.6164 -20.6158 -20.5599 -20.5590
   -19.9408 -19.9381 -19.9283 -19.9256 -19.5106 -19.5091 -19.5015 -19.5000
   -19.1630 -19.1628 -19.1489 -19.1487 -18.1276 -18.1271 -18.1255 -18.1249
   -17.3865 -17.3860 -17.3810 -17.3804 -16.4806 -16.4805 -16.4055 -16.4051
   -16.0807 -16.0804 -16.0405 -16.0402 -12.2751 -12.2748 -12.2034 -12.2030
   -11.2357 -11.2347 -11.1396 -11.1386 -10.5808 -10.5792 -10.5691 -10.5675
    -9.3778  -9.3777  -9.3346  -9.3346  -8.6778  -8.6774  -8.6160  -8.6159
    -8.3994  -8.3991  -8.3412  -8.3412  -8.2424  -8.2414  -8.2318  -8.2308
    -7.4295  -7.4287  -7.2167  -7.2160  -7.0522  -7.0511  -6.9633  -6.9618
    -6.8899  -6.8891  -6.7877  -6.7865  -6.1327  -6.1327  -5.8535  -5.8535
    -5.5303  -5.5297  -5.3542  -5.3539  -5.2121  -5.2121  -5.1224  -5.1223
    -5.0881  -5.0880  -4.9345  -4.9344  -4.9033  -4.9030  -4.8668  -4.8666
    -4.7353  -4.7349  -4.5388  -4.5388  -4.4553  -4.4545  -4.3258  -4.3256
    -4.2549  -4.2541  -4.1184  -4.1180  -4.0278  -4.0265  -4.0179  -4.0172
    -3.8993  -3.8982  -3.8570  -3.8559  -3.3928  -3.3915  -3.2927  -3.2914
    -3.1877  -3.1873  -3.1146  -3.1142  -3.0839  -3.0839  -3.0660  -3.0658
    -2.9708  -2.9702  -2.9192  -2.9181  -2.8472  -2.8468  -2.7774  -2.7764
    -2.7415  -2.7413  -2.6637  -2.6633  -1.3429  -1.3424  -1.3067  -1.3067
    -1.1568  -1.1565  -1.0181  -1.0172  -0.7811  -0.7810  -0.7682  -0.7673
    -0.6945  -0.6922  -0.6209  -0.6195  -0.5320  -0.5319  -0.3931  -0.3929
    -0.1498  -0.1493   0.0085   0.0089   0.0625   0.0627   0.0800   0.0801
     0.1621   0.1626   0.2169   0.2174   0.6726   0.6728   0.7774   0.7776
     4.5113   4.5116   4.6421   4.6424   4.9721   4.9731   4.9797   4.9807
     6.1869   6.1871   6.4514   6.4519   6.5726   6.5728   7.0834   7.0838
     7.2637   7.2638   7.4803   7.4811   7.5947   7.5948   8.0349   8.0358
     8.1837   8.1846   8.4504   8.4510   8.6594   8.6606   8.8002   8.8008
     8.9095   8.9102   9.0089

          k = 0.0000-0.6077 0.5131 (115696 PWs)   bands (ev):

   -21.6405 -21.6390 -21.6284 -21.6268 -20.6147 -20.6141 -20.5615 -20.5606
   -19.9408 -19.9376 -19.9288 -19.9256 -19.5111 -19.5083 -19.5044 -19.5016
   -19.1593 -19.1591 -19.1512 -19.1510 -18.1285 -18.1280 -18.1238 -18.1233
   -17.3862 -17.3858 -17.3828 -17.3824 -16.4785 -16.4782 -16.4094 -16.4089
   -16.0688 -16.0684 -16.0485 -16.0481 -12.2575 -12.2572 -12.2217 -12.2214
   -11.2130 -11.2119 -11.1624 -11.1615 -10.5810 -10.5793 -10.5740 -10.5723
    -9.3646  -9.3645  -9.3426  -9.3425  -8.6729  -8.6724  -8.6236  -8.6230
    -8.3890  -8.3888  -8.3551  -8.3549  -8.2417  -8.2405  -8.2259  -8.2247
    -7.4157  -7.4147  -7.2693  -7.2681  -7.0319  -7.0303  -6.9742  -6.9720
    -6.8677  -6.8661  -6.7744  -6.7725  -6.0543  -6.0541  -5.9104  -5.9102
    -5.5779  -5.5771  -5.3473  -5.3466  -5.2007  -5.2004  -5.1213  -5.1205
    -5.0910  -5.0906  -4.9936  -4.9930  -4.9124  -4.9115  -4.8608  -4.8605
    -4.6427  -4.6420  -4.5451  -4.5445  -4.4109  -4.4103  -4.3395  -4.3392
    -4.2358  -4.2354  -4.1510  -4.1507  -4.0567  -4.0550  -4.0184  -4.0178
    -3.8907  -3.8894  -3.8677  -3.8666  -3.4216  -3.4210  -3.3067  -3.3062
    -3.2268  -3.2262  -3.1773  -3.1766  -3.1034  -3.1026  -3.0484  -3.0480
    -2.9791  -2.9783  -2.9568  -2.9561  -2.8466  -2.8455  -2.8005  -2.7995
    -2.6199  -2.6193  -2.5899  -2.5894  -1.3449  -1.3429  -1.3112  -1.3090
    -1.1349  -1.1343  -1.0710  -1.0699  -0.7997  -0.7983  -0.7292  -0.7277
    -0.6795  -0.6780  -0.6172  -0.6156  -0.4987  -0.4979  -0.4316  -0.4309
    -0.1293  -0.1292  -0.0332  -0.0327   0.0621   0.0628   0.0794   0.0803
     0.1579   0.1590   0.2568   0.2571   0.6914   0.6917   0.7877   0.7882
     4.5028   4.5032   4.6520   4.6523   4.9605   4.9623   4.9838   4.9854
     6.2182   6.2186   6.4309   6.4316   6.7347   6.7350   7.1734   7.1737
     7.2855   7.2858   7.4290   7.4294   7.5034   7.5039   7.8330   7.8331
     7.9207   7.9211   8.3991   8.3996   8.6038   8.6050   8.6814   8.6819
     8.8987   8.8995   9.0404

          k =-0.5000 0.0000-0.0604 (115812 PWs)   bands (ev):

   -21.6412 -21.6402 -21.6273 -21.6262 -20.6157 -20.6151 -20.5615 -20.5606
   -19.9399 -19.9368 -19.9289 -19.9257 -19.5129 -19.5124 -19.4976 -19.4968
   -19.1639 -19.1595 -19.1503 -19.1454 -18.1322 -18.1319 -18.1299 -18.1297
   -17.3836 -17.3830 -17.3760 -17.3755 -16.4708 -16.4707 -16.4186 -16.4182
   -16.0654 -16.0642 -16.0538 -16.0526 -12.2726 -12.2723 -12.2092 -12.2088
   -11.2388 -11.2378 -11.1423 -11.1413 -10.5912 -10.5907 -10.5575 -10.5570
    -9.3598  -9.3597  -9.3435  -9.3435  -8.6520  -8.6514  -8.6221  -8.6221
    -8.3711  -8.3709  -8.3580  -8.3577  -8.2557  -8.2556  -8.2205  -8.2202
    -7.3367  -7.3363  -7.2391  -7.2382  -7.0906  -7.0892  -7.0134  -7.0130
    -6.8958  -6.8952  -6.8553  -6.8532  -6.0230  -6.0224  -5.9931  -5.9926
    -5.5084  -5.5078  -5.3471  -5.3469  -5.2373  -5.2372  -5.1502  -5.1496
    -5.1118  -5.1115  -4.9667  -4.9664  -4.8725  -4.8725  -4.7978  -4.7977
    -4.5597  -4.5595  -4.4804  -4.4803  -4.3819  -4.3819  -4.3639  -4.3633
    -4.2432  -4.2428  -4.1915  -4.1906  -4.0628  -4.0615  -4.0403  -4.0390
    -3.9437  -3.9414  -3.9131  -3.9110  -3.3797  -3.3784  -3.3009  -3.2995
    -3.1913  -3.1902  -3.1388  -3.1382  -3.0905  -3.0899  -3.0258  -3.0249
    -2.9791  -2.9790  -2.9188  -2.9181  -2.8682  -2.8673  -2.7578  -2.7573
    -2.7150  -2.7147  -2.6564  -2.6560  -1.3567  -1.3546  -1.3399  -1.3373
    -1.1077  -1.1065  -1.0591  -1.0577  -0.7838  -0.7824  -0.7577  -0.7563
    -0.6925  -0.6908  -0.6014  -0.5998  -0.4680  -0.4673  -0.4416  -0.4408
    -0.0913  -0.0910  -0.0657  -0.0656   0.0081   0.0086   0.1108   0.1114
     0.1660   0.1665   0.2212   0.2213   0.7085   0.7087   0.7402   0.7405
     4.5231   4.5235   4.6397   4.6401   4.9308   4.9316   5.0062   5.0072
     6.2598   6.2603   6.3820   6.3827   6.4659   6.4668   7.2822   7.2829
     7.3524   7.3526   7.4056   7.4060   7.6980   7.6981   8.0043   8.0044
     8.2908   8.2917   8.3675   8.3677   8.5325   8.5329   8.6453   8.6459
     8.6847   8.6848   9.0048

          k =-0.5000 0.0000 0.4527 (115733 PWs)   bands (ev):

   -21.6454 -21.6337 -21.6285 -21.6268 -20.6205 -20.6078 -20.5659 -20.5587
   -19.9404 -19.9370 -19.9289 -19.9248 -19.5144 -19.5140 -19.4988 -19.4965
   -19.1634 -19.1580 -19.1515 -19.1437 -18.1381 -18.1333 -18.1266 -18.1240
   -17.3843 -17.3822 -17.3799 -17.3754 -16.4989 -16.4502 -16.4359 -16.3878
   -16.0775 -16.0739 -16.0492 -16.0361 -12.2651 -12.2485 -12.2327 -12.2169
   -11.2257 -11.2084 -11.1820 -11.1449 -10.5948 -10.5913 -10.5636 -10.5576
    -9.3702  -9.3595  -9.3369  -9.3257  -8.6944  -8.6413  -8.6320  -8.5720
    -8.4160  -8.3744  -8.3535  -8.3192  -8.2659  -8.2506  -8.2360  -8.2052
    -7.3728  -7.3313  -7.3162  -7.2337  -7.0881  -7.0753  -6.9954  -6.9227
    -6.8994  -6.8684  -6.8551  -6.8033  -6.1848  -6.1134  -5.8943  -5.8793
    -5.5592  -5.5478  -5.3397  -5.3291  -5.2730  -5.2296  -5.1922  -5.1695
    -5.0764  -5.0608  -4.9675  -4.9020  -4.8838  -4.8690  -4.8000  -4.7980
    -4.5739  -4.5398  -4.5185  -4.4767  -4.3671  -4.3637  -4.3309  -4.2936
    -4.2874  -4.2788  -4.2361  -4.1478  -4.0840  -4.0833  -4.0452  -4.0329
    -3.9469  -3.9406  -3.9236  -3.8808  -3.4131  -3.3987  -3.3582  -3.3219
    -3.2927  -3.1855  -3.1627  -3.1505  -3.1332  -3.0985  -3.0382  -3.0174
    -2.9839  -2.9622  -2.9493  -2.9462  -2.8353  -2.8105  -2.7841  -2.7497
    -2.6808  -2.6412  -2.6106  -2.5682  -1.3748  -1.3592  -1.3318  -1.3249
    -1.1584  -1.1210  -1.0902  -1.0089  -0.8253  -0.7825  -0.7446  -0.7105
    -0.6819  -0.6609  -0.6113  -0.6081  -0.5384  -0.4641  -0.4426  -0.3227
    -0.1680  -0.1152  -0.0350  -0.0198   0.0118   0.0282   0.0624   0.1064
     0.1465   0.1580   0.2118   0.3099   0.6597   0.7337   0.7356   0.8246
     4.4983   4.5145   4.6349   4.6855   4.9272   4.9336   4.9719   5.0281
     6.1386   6.3276   6.4062   6.4908   6.6677   6.7580   7.0665   7.2231
     7.2368   7.3765   7.4090   7.4311   7.5200   7.6340   7.6774   7.9925
     8.0446   8.0998   8.2442   8.3168   8.4450   8.5618   8.5628   8.7158
     8.7802   8.8865   9.0134

          k =-0.5000-0.6077-0.0604 (115696 PWs)   bands (ev):

   -21.6391 -21.6376 -21.6300 -21.6283 -20.6157 -20.6151 -20.5615 -20.5606
   -19.9398 -19.9366 -19.9291 -19.9258 -19.5084 -19.5067 -19.5034 -19.5014
   -19.1637 -19.1592 -19.1505 -19.1455 -18.1319 -18.1314 -18.1305 -18.1299
   -17.3816 -17.3797 -17.3794 -17.3775 -16.4697 -16.4694 -16.4198 -16.4192
   -16.0634 -16.0615 -16.0567 -16.0548 -12.2737 -12.2733 -12.2085 -12.2081
   -11.2346 -11.2336 -11.1459 -11.1449 -10.5795 -10.5776 -10.5708 -10.5690
    -9.3612  -9.3610  -9.3424  -9.3421  -8.6387  -8.6378  -8.6351  -8.6345
    -8.3797  -8.3794  -8.3515  -8.3514  -8.2382  -8.2373  -8.2372  -8.2359
    -7.3240  -7.3230  -7.2725  -7.2714  -7.0950  -7.0936  -6.9738  -6.9719
    -6.9136  -6.9117  -6.8573  -6.8552  -6.0423  -6.0416  -5.9576  -5.9567
    -5.5304  -5.5300  -5.2946  -5.2936  -5.2441  -5.2430  -5.1756  -5.1752
    -5.0645  -5.0641  -4.9551  -4.9542  -4.9303  -4.9297  -4.8530  -4.8524
    -4.5431  -4.5419  -4.5411  -4.5405  -4.3715  -4.3707  -4.3089  -4.3084
    -4.2504  -4.2493  -4.2190  -4.2186  -4.0156  -4.0146  -4.0118  -4.0101
    -3.9331  -3.9307  -3.9220  -3.9201  -3.3634  -3.3620  -3.3224  -3.3214
    -3.1899  -3.1889  -3.1329  -3.1325  -3.0694  -3.0689  -3.0423  -3.0415
    -2.9545  -2.9540  -2.9538  -2.9525  -2.8504  -2.8490  -2.7811  -2.7799
    -2.7131  -2.7123  -2.6844  -2.6839  -1.3466  -1.3440  -1.3410  -1.3381
    -1.1061  -1.1049  -1.0550  -1.0535  -0.7881  -0.7871  -0.7665  -0.7650
    -0.7068  -0.7049  -0.5865  -0.5846  -0.4843  -0.4832  -0.4168  -0.4160
    -0.1347  -0.1339  -0.0317  -0.0314   0.0478   0.0482   0.0671   0.0680
     0.1764   0.1768   0.2199   0.2206   0.7139   0.7143   0.7368   0.7373
     4.5208   4.5212   4.6429   4.6433   4.9458   4.9475   4.9919   4.9937
     6.2994   6.2996   6.3386   6.3396   6.7649   6.7663   6.7695   6.7702
     7.3074   7.3088   7.3636   7.3648   7.9765   7.9774   7.9787   7.9797
     8.2049   8.2060   8.5389   8.5395   8.5773   8.5788   8.6344   8.6350
     8.8461   8.8470   8.9455

          k =-0.5000-0.6077 0.4527 (115704 PWs)   bands (ev):

   -21.6395 -21.6382 -21.6291 -21.6277 -20.6149 -20.6143 -20.5624 -20.5615
   -19.9404 -19.9371 -19.9285 -19.9251 -19.5094 -19.5078 -19.5043 -19.5024
   -19.1632 -19.1589 -19.1495 -19.1448 -18.1362 -18.1361 -18.1250 -18.1248
   -17.3834 -17.3824 -17.3784 -17.3775 -16.4833 -16.4832 -16.4033 -16.4030
   -16.0761 -16.0757 -16.0426 -16.0423 -12.2592 -12.2589 -12.2230 -12.2227
   -11.2179 -11.2169 -11.1634 -11.1626 -10.5806 -10.5790 -10.5745 -10.5729
    -9.3667  -9.3666  -9.3300  -9.3299  -8.6784  -8.6782  -8.5911  -8.5908
    -8.3968  -8.3966  -8.3350  -8.3348  -8.2525  -8.2514  -8.2291  -8.2278
    -7.3594  -7.3593  -7.2639  -7.2633  -7.0972  -7.0958  -6.9484  -6.9470
    -6.8777  -6.8755  -6.8343  -6.8330  -6.1491  -6.1491  -5.8870  -5.8868
    -5.5541  -5.5533  -5.4023  -5.4017  -5.1639  -5.1632  -5.1508  -5.1504
    -5.0470  -5.0469  -4.9494  -4.9491  -4.9321  -4.9313  -4.8577  -4.8571
    -4.5437  -4.5434  -4.4794  -4.4789  -4.3992  -4.3983  -4.3039  -4.3038
    -4.2716  -4.2712  -4.1860  -4.1857  -4.0493  -4.0487  -4.0313  -4.0306
    -3.9368  -3.9351  -3.8957  -3.8945  -3.4186  -3.4180  -3.3226  -3.3221
    -3.2242  -3.2235  -3.1453  -3.1448  -3.1024  -3.1017  -3.0434  -3.0429
    -3.0276  -3.0267  -2.9482  -2.9478  -2.8395  -2.8386  -2.8006  -2.7994
    -2.6175  -2.6171  -2.5916  -2.5912  -1.3648  -1.3621  -1.3277  -1.3249
    -1.1492  -1.1488  -1.0475  -1.0467  -0.8079  -0.8064  -0.7252  -0.7237
    -0.6758  -0.6740  -0.6103  -0.6086  -0.4958  -0.4955  -0.3882  -0.3881
    -0.1454  -0.1449  -0.0160  -0.0154   0.0431   0.0440   0.0764   0.0767
     0.1157   0.1160   0.2723   0.2724   0.6821   0.6824   0.8035   0.8040
     4.5029   4.5033   4.6619   4.6621   4.9454   4.9468   4.9871   4.9887
     6.2179   6.2180   6.4678   6.4684   6.8655   6.8663   6.9848   6.9857
     7.2042   7.2051   7.4334   7.4342   7.5290   7.5298   7.7858   7.7865
     8.1270   8.1278   8.4228   8.4235   8.5178   8.5182   8.6752   8.6757
     8.8286   8.8292   9.0336

     highest occupied, lowest unoccupied level (ev):     0.8246    4.4936

!    total energy              =   -1849.30897918 Ry
     Harris-Foulkes estimate   =   -1849.30897918 Ry
     estimated scf accuracy    <          1.8E-09 Ry

     total all-electron energy =     -6944.422312 Ry

     The total energy is the sum of the following terms:

     one-electron contribution =   -1122.02567697 Ry
     hartree contribution      =     699.62553784 Ry
     xc contribution           =    -380.34938751 Ry
     ewald contribution        =    -537.16031754 Ry
     Dispersion Correction     =      -0.45502508 Ry
     one-center paw contrib.   =    -508.94410991 Ry

     convergence has been achieved in  17 iterations

     Forces acting on atoms (cartesian axes, Ry/au):

     atom    1 type  2   force =     0.00104937    0.00156718    0.00054438
     atom    2 type  2   force =    -0.00098506    0.00155478   -0.00053642
     atom    3 type  2   force =    -0.00104937   -0.00156718   -0.00054438
     atom    4 type  2   force =     0.00098506   -0.00155478    0.00053642
     atom    5 type  1   force =    -0.00022006    0.00027498   -0.00138119
     atom    6 type  1   force =     0.00020014    0.00025797    0.00126194
     atom    7 type  1   force =     0.00022006   -0.00027498    0.00138119
     atom    8 type  1   force =    -0.00020014   -0.00025797   -0.00126194
     atom    9 type  1   force =    -0.00001667   -0.00042220   -0.00095839
     atom   10 type  1   force =    -0.00036509   -0.00046521    0.00087543
     atom   11 type  1   force =     0.00001667    0.00042220    0.00095839
     atom   12 type  1   force =     0.00036509    0.00046521   -0.00087543
     atom   13 type  4   force =     0.00000455    0.00083238    0.00057152
     atom   14 type  4   force =     0.00026394    0.00090995   -0.00063773
     atom   15 type  4   force =    -0.00000455   -0.00083238   -0.00057152
     atom   16 type  4   force =    -0.00026394   -0.00090995    0.00063773
     atom   17 type  2   force =     0.00000534    0.00024566    0.00004254
     atom   18 type  2   force =     0.00014653    0.00025615   -0.00003453
     atom   19 type  2   force =    -0.00000534   -0.00024566   -0.00004254
     atom   20 type  2   force =    -0.00014653   -0.00025615    0.00003453
     atom   21 type  1   force =    -0.00041822    0.00119896    0.00054155
     atom   22 type  1   force =    -0.00013285    0.00068068   -0.00018300
     atom   23 type  1   force =     0.00041822   -0.00119896   -0.00054155
     atom   24 type  1   force =     0.00013285   -0.00068068    0.00018300
     atom   25 type  4   force =    -0.00007610   -0.00084281    0.00018663
     atom   26 type  4   force =     0.00044544   -0.00038733   -0.00054425
     atom   27 type  4   force =     0.00007610    0.00084281   -0.00018663
     atom   28 type  4   force =    -0.00044544    0.00038733    0.00054425
     atom   29 type  1   force =     0.00000464    0.00024905   -0.00073803
     atom   30 type  1   force =     0.00014797    0.00024888    0.00074853
     atom   31 type  1   force =    -0.00000464   -0.00024905    0.00073803
     atom   32 type  1   force =    -0.00014797   -0.00024888   -0.00074853
     atom   33 type  1   force =    -0.00093018   -0.00005551    0.00139297
     atom   34 type  1   force =    -0.00028535    0.00074772   -0.00026532
     atom   35 type  1   force =     0.00093018    0.00005551   -0.00139297
     atom   36 type  1   force =     0.00028535   -0.00074772    0.00026532
     atom   37 type  4   force =     0.00012142    0.00031649   -0.00111861
     atom   38 type  4   force =     0.00074488   -0.00042040    0.00013207
     atom   39 type  4   force =    -0.00012142   -0.00031649    0.00111861
     atom   40 type  4   force =    -0.00074488    0.00042040   -0.00013207
     atom   41 type  2   force =     0.00071948    0.00117815    0.00061489
     atom   42 type  2   force =    -0.00035143    0.00102063   -0.00076651
     atom   43 type  2   force =    -0.00071948   -0.00117815   -0.00061489
     atom   44 type  2   force =     0.00035143   -0.00102063    0.00076651
     atom   45 type  1   force =    -0.00129697   -0.00010326    0.00062569
     atom   46 type  1   force =    -0.00000881    0.00034570   -0.00029546
     atom   47 type  1   force =     0.00129697    0.00010326   -0.00062569
     atom   48 type  1   force =     0.00000881   -0.00034570    0.00029546
     atom   49 type  4   force =     0.00061197   -0.00021249   -0.00090687
     atom   50 type  4   force =     0.00048910   -0.00059815    0.00056573
     atom   51 type  4   force =    -0.00061197    0.00021249    0.00090687
     atom   52 type  4   force =    -0.00048910    0.00059815   -0.00056573
     atom   53 type  4   force =     0.00038060   -0.00004578   -0.00027944
     atom   54 type  4   force =    -0.00030480   -0.00014975    0.00016001
     atom   55 type  4   force =    -0.00038060    0.00004578    0.00027944
     atom   56 type  4   force =     0.00030480    0.00014975   -0.00016001
     atom   57 type  2   force =    -0.00011315    0.00032141    0.00030052
     atom   58 type  2   force =     0.00023596    0.00033451   -0.00018326
     atom   59 type  2   force =     0.00011315   -0.00032141   -0.00030052
     atom   60 type  2   force =    -0.00023596   -0.00033451    0.00018326
     atom   61 type  1   force =     0.00021763   -0.00019520    0.00052338
     atom   62 type  1   force =    -0.00024325   -0.00019319   -0.00049186
     atom   63 type  1   force =    -0.00021763    0.00019520   -0.00052338
     atom   64 type  1   force =     0.00024325    0.00019319    0.00049186
     atom   65 type  3   force =    -0.00022323   -0.00055440   -0.00010707
     atom   66 type  3   force =     0.00022721   -0.00055532    0.00012310
     atom   67 type  3   force =     0.00022323    0.00055440    0.00010707
     atom   68 type  3   force =    -0.00022721    0.00055532   -0.00012310
     atom   69 type  3   force =     0.00014289    0.00005626    0.00006238
     atom   70 type  3   force =    -0.00014964    0.00005627   -0.00005048
     atom   71 type  3   force =    -0.00014289   -0.00005626   -0.00006238
     atom   72 type  3   force =     0.00014964   -0.00005627    0.00005048
     atom   73 type  3   force =    -0.00035207   -0.00008683    0.00085467
     atom   74 type  3   force =     0.00035379   -0.00007973   -0.00085595
     atom   75 type  3   force =     0.00035207    0.00008683   -0.00085467
     atom   76 type  3   force =    -0.00035379    0.00007973    0.00085595
     atom   77 type  3   force =    -0.00010744    0.00033268    0.00053770
     atom   78 type  3   force =     0.00009423    0.00033323   -0.00053797
     atom   79 type  3   force =     0.00010744   -0.00033268   -0.00053770
     atom   80 type  3   force =    -0.00009423   -0.00033323    0.00053797
     atom   81 type  3   force =    -0.00042968    0.00046380    0.00043991
     atom   82 type  3   force =     0.00042391    0.00044331   -0.00047178
     atom   83 type  3   force =     0.00042968   -0.00046380   -0.00043991
     atom   84 type  3   force =    -0.00042391   -0.00044331    0.00047178
     atom   85 type  3   force =     0.00047451    0.00030391   -0.00028943
     atom   86 type  3   force =    -0.00052609    0.00030110    0.00020001
     atom   87 type  3   force =    -0.00047451   -0.00030391    0.00028943
     atom   88 type  3   force =     0.00052609   -0.00030110   -0.00020001
     atom   89 type  3   force =     0.00059156    0.00006120    0.00086632
     atom   90 type  3   force =    -0.00067796    0.00005762   -0.00087783
     atom   91 type  3   force =    -0.00059156   -0.00006120   -0.00086632
     atom   92 type  3   force =     0.00067796   -0.00005762    0.00087783
     atom   93 type  3   force =    -0.00004244    0.00022926   -0.00072219
     atom   94 type  3   force =     0.00003794    0.00023412    0.00074336
     atom   95 type  3   force =     0.00004244   -0.00022926    0.00072219
     atom   96 type  3   force =    -0.00003794   -0.00023412   -0.00074336
     atom   97 type  3   force =    -0.00045567   -0.00009193    0.00008163
     atom   98 type  3   force =     0.00045107   -0.00009184   -0.00009166
     atom   99 type  3   force =     0.00045567    0.00009193   -0.00008163
     atom  100 type  3   force =    -0.00045107    0.00009184    0.00009166
     atom  101 type  3   force =    -0.00021353    0.00042879   -0.00032403
     atom  102 type  3   force =     0.00021894    0.00042982    0.00031841
     atom  103 type  3   force =     0.00021353   -0.00042879    0.00032403
     atom  104 type  3   force =    -0.00021894   -0.00042982   -0.00031841

     Total force =     0.009653     Total SCF correction =     0.000086


     Computing stress (Cartesian axis) and pressure

          total   stress  (Ry/bohr**3)                   (kbar)     P=   -4.52
  -0.00002040   0.00000017  -0.00000521         -3.00      0.03     -0.77
   0.00000017  -0.00002933  -0.00000017          0.03     -4.32     -0.02
  -0.00000521  -0.00000017  -0.00004248         -0.77     -0.02     -6.25


     Writing output data file scf.save
 
     init_run     :     63.00s CPU     65.20s WALL (       1 calls)
     electrons    :   2256.35s CPU   2339.17s WALL (       1 calls)
     forces       :     31.01s CPU     31.24s WALL (       1 calls)
     stress       :    138.55s CPU    138.93s WALL (       1 calls)

     Called by init_run:
     wfcinit      :     51.38s CPU     53.43s WALL (       1 calls)
     potinit      :      4.06s CPU      4.09s WALL (       1 calls)

     Called by electrons:
     c_bands      :   2037.15s CPU   2108.53s WALL (      17 calls)
     sum_band     :    202.95s CPU    212.74s WALL (      17 calls)
     v_of_rho     :      2.39s CPU      2.62s WALL (      18 calls)
     newd         :      6.08s CPU      7.47s WALL (      18 calls)
     PAW_pot      :      7.27s CPU      7.28s WALL (      18 calls)
     mix_rho      :      0.57s CPU      0.63s WALL (      17 calls)

     Called by c_bands:
     init_us_2    :     10.33s CPU     10.40s WALL (     296 calls)
     cegterg      :   1996.81s CPU   2067.90s WALL (     136 calls)

     Called by sum_band:
     sum_band:bec :      0.12s CPU      0.12s WALL (     136 calls)
     addusdens    :      6.15s CPU      7.36s WALL (      17 calls)

     Called by *egterg:
     h_psi        :   1046.24s CPU   1101.78s WALL (     663 calls)
     s_psi        :    250.97s CPU    251.06s WALL (     663 calls)
     g_psi        :      4.73s CPU      4.73s WALL (     519 calls)
     cdiaghg      :    132.24s CPU    132.28s WALL (     655 calls)

     Called by h_psi:
     h_psi:pot    :   1039.22s CPU   1094.60s WALL (     663 calls)
     h_psi:calbec :    243.09s CPU    243.63s WALL (     663 calls)
     vloc_psi     :    544.36s CPU    599.08s WALL (     663 calls)
     add_vuspsi   :    251.77s CPU    251.88s WALL (     663 calls)

     General routines
     calbec       :    353.62s CPU    354.34s WALL (     839 calls)
     fft          :      1.60s CPU      1.97s WALL (     258 calls)
     fftw         :    579.13s CPU    640.33s WALL (  188516 calls)
 
     Parallel routines
     fft_scatter  :    110.56s CPU    165.87s WALL (  188774 calls)
 
     PWSCF        : 41m42.61s CPU    43m53.99s WALL

 
   This run was terminated on:   8: 0: 0   7Dec2017            

=------------------------------------------------------------------------------=
   JOB DONE.
=------------------------------------------------------------------------------=
