
     Program PWSCF v.6.1 (svn rev. 13369) starts on  7Dec2017 at  8:32:15 

     This program is part of the open-source Quantum ESPRESSO suite
     for quantum simulation of materials; please cite
         "P. Giannozzi et al., J. Phys.:Condens. Matter 21 395502 (2009);
          URL http://www.quantum-espresso.org", 
     in publications or presentations arising from this work. More details at
     http://www.quantum-espresso.org/quote

     Parallel version (MPI), running on     8 processors
     R & G space division:  proc/nbgrp/npool/nimage =       8
     Waiting for input...
     Reading input from standard input

     Current dimensions of program PWSCF are:
     Max number of different atomic species (ntypx) = 10
     Max number of k-points (npk) =  40000
     Max angular momentum in pseudopotentials (lmaxx) =  3
               file C.pbe-n-kjpaw_psl.0.1.UPF: wavefunction(s)  2P renormalized
               file N.pbe-n-kjpaw_psl.0.1.UPF: wavefunction(s)  2P renormalized
               file H.pbe-kjpaw_psl.0.1.UPF: wavefunction(s)  1S renormalized
               file O.pbe-n-kjpaw_psl.0.1.UPF: wavefunction(s)  2P renormalized

     -------------------------------------
     Parameters for Dispersion Correction:
     -------------------------------------
       atom      VdW radius       C_6     

        C          2.744         60.710
        N          2.640         42.670
        H          1.892          4.857
        O          2.536         24.284

     Subspace diagonalization in iterative solution of the eigenvalue problem:
     a serial algorithm will be used

 
     Parallelization info
     --------------------
     sticks:   dense  smooth     PW     G-vecs:    dense   smooth      PW
     Min        2388    2388    624               168554   168554   22570
     Max        2389    2389    625               168556   168556   22572
     Sum       19111   19111   4993              1348441  1348441  180569
 


     bravais-lattice index     =            0
     lattice parameter (alat)  =      12.7462  a.u.
     unit-cell volume          =    9981.2704 (a.u.)^3
     number of atoms/cell      =          152
     number of atomic types    =            4
     number of electrons       =       488.00
     number of Kohn-Sham states=          292
     kinetic-energy cutoff     =     100.0000  Ry
     charge density cutoff     =     400.0000  Ry
     convergence threshold     =      1.0E-08
     mixing beta               =       0.5000
     number of iterations used =            8  plain     mixing
     Exchange-correlation      =  SLA  PW   PBX  PBC ( 1  4  3  4 0 0)

     celldm(1)=  12.746203  celldm(2)=   0.000000  celldm(3)=   0.000000
     celldm(4)=   0.000000  celldm(5)=   0.000000  celldm(6)=   0.000000

     crystal axes: (cart. coord. in units of alat)
               a(1) = (   1.000000   0.000000   0.000000 )  
               a(2) = (   0.000000   3.693847   0.000000 )  
               a(3) = (  -0.206670   0.000000   1.304861 )  

     reciprocal axes: (cart. coord. in units 2 pi/alat)
               b(1) = (  1.000000  0.000000  0.158384 )  
               b(2) = (  0.000000  0.270720  0.000000 )  
               b(3) = (  0.000000  0.000000  0.766365 )  


     PseudoPot. # 1 for  C read from file:
     /scratch/ahofstet/pseudo/C.pbe-n-kjpaw_psl.0.1.UPF
     MD5 check sum: 430fe95172b1e11ef3f8ed03bac87931
     Pseudo is Projector augmented-wave + core cor, Zval =  4.0
     Generated using "atomic" code by A. Dal Corso  v.5.0.99 svn rev. 10869
     Shape of augmentation charge: BESSEL
     Using radial grid of 1073 points,  4 beta functions with: 
                l(1) =   0
                l(2) =   0
                l(3) =   1
                l(4) =   1
     Q(r) pseudized with 0 coefficients 


     PseudoPot. # 2 for  N read from file:
     /scratch/ahofstet/pseudo/N.pbe-n-kjpaw_psl.0.1.UPF
     MD5 check sum: f73187c8b701007e77325f868c9291d7
     Pseudo is Projector augmented-wave + core cor, Zval =  5.0
     Generated using "atomic" code by A. Dal Corso  v.5.0.99 svn rev. 10869
     Shape of augmentation charge: PSQ
     Using radial grid of 1085 points,  4 beta functions with: 
                l(1) =   0
                l(2) =   0
                l(3) =   1
                l(4) =   1
     Q(r) pseudized with 0 coefficients 


     PseudoPot. # 3 for  H read from file:
     /scratch/ahofstet/pseudo/H.pbe-kjpaw_psl.0.1.UPF
     MD5 check sum: 94e484f906d9e9773b2f6e52662335b2
     Pseudo is Projector augmented-wave, Zval =  1.0
     Generated using "atomic" code by A. Dal Corso  v.5.0.99 svn rev. 10869
     Shape of augmentation charge: PSQ
     Using radial grid of  929 points,  2 beta functions with: 
                l(1) =   0
                l(2) =   0
     Q(r) pseudized with 0 coefficients 


     PseudoPot. # 4 for  O read from file:
     /scratch/ahofstet/pseudo/O.pbe-n-kjpaw_psl.0.1.UPF
     MD5 check sum: 3f94a2996a3169367d6eb21d9b593f20
     Pseudo is Projector augmented-wave + core cor, Zval =  6.0
     Generated using "atomic" code by A. Dal Corso  v.5.0.99 svn rev. 10869
     Shape of augmentation charge: BESSEL
     Using radial grid of 1095 points,  4 beta functions with: 
                l(1) =   0
                l(2) =   0
                l(3) =   1
                l(4) =   1
     Q(r) pseudized with 0 coefficients 


     atomic species   valence    mass     pseudopotential
        C              4.00    12.01070      C( 1.00)
        N              5.00    14.00670      N( 1.00)
        H              1.00     1.00794      H( 1.00)
        O              6.00    15.99940      O( 1.00)

      2 Sym. Ops., with inversion, found
          (note:  2 additional sym.ops. were found but ignored
           their fractional translations are incommensurate with FFT grid)


   Cartesian axes

     site n.     atom                  positions (alat units)
         1           C   tau(   1) = (   0.1365609   1.3580872   0.0881200  )
         2           C   tau(   2) = (   0.2601042   3.2050109   0.5643108  )
         3           C   tau(   3) = (   0.6567693   2.3357601   1.2167415  )
         4           C   tau(   4) = (   0.5332260   0.4888364   0.7405507  )
         5           C   tau(   5) = (   0.3474277   1.3665775   0.0154935  )
         6           C   tau(   6) = (   0.0492374   3.2135011   0.6369372  )
         7           C   tau(   7) = (   0.4459025   2.3272698   1.2893680  )
         8           C   tau(   8) = (   0.7440929   0.4803462   0.6679243  )
         9           C   tau(   9) = (   0.0873133   1.1767828   1.1916435  )
        10           C   tau(  10) = (   0.1026820   3.0237064   0.7656488  )
        11           C   tau(  11) = (   0.7060169   2.5170645   0.1132180  )
        12           C   tau(  12) = (   0.6906482   0.6701409   0.5392127  )
        13           C   tau(  13) = (   0.1134728   1.1471407   0.0318177  )
        14           C   tau(  14) = (   0.2831923   2.9940644   0.6206130  )
        15           C   tau(  15) = (   0.6798574   2.5467066   1.2730438  )
        16           C   tau(  16) = (   0.5101379   0.6997829   0.6842485  )
        17           C   tau(  17) = (   0.2150574   1.0026027   0.1891319  )
        18           C   tau(  18) = (   0.1816077   2.8495264   0.4632988  )
        19           C   tau(  19) = (   0.5782729   2.6912446   1.1157296  )
        20           C   tau(  20) = (   0.6117225   0.8443209   0.8415627  )
        21           C   tau(  21) = (   0.4383253   1.0584504   0.1666259  )
        22           C   tau(  22) = (  -0.0416602   2.9053740   0.4858049  )
        23           C   tau(  23) = (   0.3550050   2.6353969   1.1382356  )
        24           C   tau(  24) = (   0.8349904   0.7884733   0.8190566  )
        25           C   tau(  25) = (   0.4832419   1.2795308   0.1798909  )
        26           C   tau(  26) = (   0.9134232   3.1264544   0.4725398  )
        27           C   tau(  27) = (   0.3100884   2.4143165   1.1249706  )
        28           C   tau(  28) = (  -0.1200930   0.5673929   0.8323217  )
        29           C   tau(  29) = (   0.2363696   1.0080338   1.2479873  )
        30           C   tau(  30) = (  -0.0463743   2.8549575   0.7093050  )
        31           C   tau(  31) = (   0.5569606   2.6858135   0.0568742  )
        32           C   tau(  32) = (   0.8397045   0.8388898   0.5955565  )
        33           C   tau(  33) = (   0.1343699   0.8093173   1.2423074  )
        34           C   tau(  34) = (   0.0556255   2.6562409   0.7149848  )
        35           C   tau(  35) = (   0.6589604   2.8845300   0.0625541  )
        36           C   tau(  36) = (   0.7377047   1.0376064   0.5898767  )
        37           C   tau(  37) = (   0.2078599   0.8038939   0.0858965  )
        38           C   tau(  38) = (   0.1888052   2.6508176   0.5665343  )
        39           C   tau(  39) = (   0.5854703   2.8899533   1.2189650  )
        40           C   tau(  40) = (   0.6045250   1.0430297   0.7383272  )
        41           C   tau(  41) = (  -0.0368872   1.8029892   0.2860370  )
        42           C   tau(  42) = (   0.4335523   3.6499129   0.3663938  )
        43           C   tau(  43) = (   0.8302174   1.8908580   1.0188245  )
        44           C   tau(  44) = (   0.3597780   0.0439344   0.9384677  )
        45           C   tau(  45) = (   0.7795126   1.7463535   0.3748986  )
        46           C   tau(  46) = (   0.6171526   3.5932771   0.2775321  )
        47           C   tau(  47) = (   0.0138177   1.9474938   0.9299629  )
        48           C   tau(  48) = (   0.1761777   0.1005702   1.0273294  )
        49           C   tau(  49) = (   0.6687411   1.8780117   0.4830478  )
        50           C   tau(  50) = (   0.7279240   0.0310881   0.1693830  )
        51           C   tau(  51) = (   0.1245891   1.8158356   0.8218137  )
        52           C   tau(  52) = (   0.0654062   3.6627592   1.1354785  )
        53           C   tau(  53) = (   0.7341965   2.0753237   0.5059942  )
        54           C   tau(  54) = (   0.6624687   0.2284000   0.1464365  )
        55           C   tau(  55) = (   0.0591338   1.6185236   0.7988673  )
        56           C   tau(  56) = (   0.1308616   3.4654473   1.1584250  )
        57           C   tau(  57) = (   0.9123527   2.1375186   0.4244309  )
        58           C   tau(  58) = (   0.4843124   0.2905949   0.2279999  )
        59           C   tau(  59) = (  -0.1190225   1.5563287   0.8804306  )
        60           C   tau(  60) = (   0.3090178   3.4032524   1.0768616  )
        61           C   tau(  61) = (   0.0265041   2.0047189   0.3141422  )
        62           C   tau(  62) = (   0.3701610   0.1577953   0.3382886  )
        63           C   tau(  63) = (   0.7668262   1.6891283   0.9907193  )
        64           C   tau(  64) = (   0.4231692   3.5360520   0.9665729  )
        65           N   tau(  65) = (   0.0059394   1.4781438   0.1580199  )
        66           N   tau(  66) = (   0.3907257   3.3250674   0.4944109  )
        67           N   tau(  67) = (   0.7873909   2.2157035   1.1468416  )
        68           N   tau(  68) = (   0.4026045   0.3687799   0.8104506  )
        69           N   tau(  69) = (   0.0713266   1.6697360   0.1840410  )
        70           N   tau(  70) = (   0.3253385   3.5166597   0.4683898  )
        71           N   tau(  71) = (   0.7220037   2.0241112   1.1208205  )
        72           N   tau(  72) = (   0.4679917   0.1771876   0.8364717  )
        73           N   tau(  73) = (   0.2093021   2.0806136   0.2310885  )
        74           N   tau(  74) = (   0.1873630   0.2336899   0.4213423  )
        75           N   tau(  75) = (   0.5840282   1.6132337   1.0737730  )
        76           N   tau(  76) = (   0.6059672   3.4601574   0.8835192  )
        77           N   tau(  77) = (   0.6125714   2.2166564   0.6120901  )
        78           N   tau(  78) = (   0.7840937   0.3697328   0.0403407  )
        79           N   tau(  79) = (   0.1807588   1.4771908   0.6927714  )
        80           N   tau(  80) = (   0.0092366   3.3241145   1.2645208  )
        81           O   tau(  81) = (   0.3126969   1.9672331   0.1251952  )
        82           O   tau(  82) = (   0.0839682   0.1203095   0.5272356  )
        83           O   tau(  83) = (   0.4806333   1.7266142   1.1796663  )
        84           O   tau(  84) = (   0.7093621   3.5735378   0.7776259  )
        85           O   tau(  85) = (   0.2576297   2.2539537   0.2660203  )
        86           O   tau(  86) = (   0.1390355   0.4070300   0.3864105  )
        87           O   tau(  87) = (   0.5357006   1.4398936   1.0388412  )
        88           O   tau(  88) = (   0.6542948   3.2868173   0.9184510  )
        89           O   tau(  89) = (   0.6699898   2.3909265   0.6244748  )
        90           O   tau(  90) = (   0.7266753   0.5440029   0.0279559  )
        91           O   tau(  91) = (   0.1233405   1.3029208   0.6803866  )
        92           O   tau(  92) = (   0.0666549   3.1498444   1.2769056  )
        93           O   tau(  93) = (   0.4532418   2.1565152   0.6845685  )
        94           O   tau(  94) = (   0.7367536   0.3095915   1.2727237  )
        95           O   tau(  95) = (   0.3400885   1.5373321   0.6202930  )
        96           O   tau(  96) = (   0.0565766   3.3842558   0.0321378  )
        97           H   tau(  97) = (   0.1980089   1.5017213   1.2506918  )
        98           H   tau(  98) = (  -0.0080135   3.3486449   0.7066005  )
        99           H   tau(  99) = (   0.5953214   2.1921260   0.0541697  )
       100           H   tau( 100) = (   0.8013438   0.3452024   0.5982610  )
       101           H   tau( 101) = (   0.0542464   1.2010517   1.0348072  )
       102           H   tau( 102) = (   0.1357490   3.0479754   0.9224851  )
       103           H   tau( 103) = (   0.7390838   2.4927956   0.2700543  )
       104           H   tau( 104) = (   0.6575813   0.6458719   0.3823764  )
       105           H   tau( 105) = (   0.7615233   1.0953141   1.2867411  )
       106           H   tau( 106) = (   0.4284720   2.9422378   0.6705511  )
       107           H   tau( 107) = (   0.0318069   2.5985331   0.0181204  )
       108           H   tau( 108) = (   0.3648582   0.7516095   0.6343104  )
       109           H   tau( 109) = (   0.1506651   1.0151499   0.3374943  )
       110           H   tau( 110) = (   0.2460000   2.8620736   0.3149364  )
       111           H   tau( 111) = (   0.6426651   2.6786974   0.9673672  )
       112           H   tau( 112) = (   0.5473302   0.8317737   0.9899251  )
       113           H   tau( 113) = (   0.5327597   0.9635744   0.2587741  )
       114           H   tau( 114) = (   0.8639054   2.8104980   0.3936567  )
       115           H   tau( 115) = (   0.2605706   2.7302729   1.0460874  )
       116           H   tau( 116) = (  -0.0705752   0.8833493   0.9112048  )
       117           H   tau( 117) = (   0.6399921   1.3088833   0.1433569  )
       118           H   tau( 118) = (   0.7566730   3.1558069   0.5090738  )
       119           H   tau( 119) = (   0.1533381   2.3849640   1.1615046  )
       120           H   tau( 120) = (   0.0366572   0.5380404   0.7957877  )
       121           H   tau( 121) = (   0.4510999   1.3440094   0.3260389  )
       122           H   tau( 122) = (   0.9455652   3.1909331   0.3263918  )
       123           H   tau( 123) = (   0.3422303   2.3498378   0.9788225  )
       124           H   tau( 124) = (  -0.1522350   0.5029142   0.9784697  )
       125           H   tau( 125) = (   0.3798309   1.0209371   1.1734279  )
       126           H   tau( 126) = (   0.8101645   2.8678607   0.7838644  )
       127           H   tau( 127) = (   0.4134993   2.6729102   0.1314336  )
       128           H   tau( 128) = (  -0.0168342   0.8259866   0.5209971  )
       129           H   tau( 129) = (   0.1581997   0.6961248   1.1299410  )
       130           H   tau( 130) = (   0.0317957   2.5430485   0.8273513  )
       131           H   tau( 131) = (   0.6351305   2.9977225   0.1749205  )
       132           H   tau( 132) = (   0.7615346   1.1507988   0.4775102  )
       133           H   tau( 133) = (   0.0978886   0.6891812   0.1136572  )
       134           H   tau( 134) = (   0.2987765   2.5361049   0.5387736  )
       135           H   tau( 135) = (   0.6954416   3.0046661   1.1912043  )
       136           H   tau( 136) = (   0.4945537   1.1577424   0.7660879  )
       137           H   tau( 137) = (   0.7296776   1.5944832   0.3542908  )
       138           H   tau( 138) = (   0.6669875   3.4414069   0.2981400  )
       139           H   tau( 139) = (   0.0636527   2.0993641   0.9505707  )
       140           H   tau( 140) = (   0.1263427   0.2524404   1.0067215  )
       141           H   tau( 141) = (   0.5298770   1.8303861   0.5495886  )
       142           H   tau( 142) = (   0.8667881   3.6773097   0.1028421  )
       143           H   tau( 143) = (   0.2634532   1.8634612   0.7552728  )
       144           H   tau( 144) = (  -0.0734579   0.0165376   1.2020194  )
       145           H   tau( 145) = (  -0.0355680   2.2887677   0.4456154  )
       146           H   tau( 146) = (   0.4322331   0.4418440   0.2068154  )
       147           H   tau( 147) = (   0.8288982   1.4050796   0.8592461  )
       148           H   tau( 148) = (   0.3610972   3.2520033   1.0980461  )
       149           H   tau( 149) = (   0.2051745   1.7186380   0.1289146  )
       150           H   tau( 150) = (   0.1914906   3.5655617   0.5235162  )
       151           H   tau( 151) = (   0.5881557   1.9752092   1.1759469  )
       152           H   tau( 152) = (   0.6018396   0.1282856   0.7813453  )

     number of k points=     4
                       cart. coord. in units 2pi/alat
        k(    1) = (   0.0000000   0.0000000   0.0000000), wk =   0.3333333
        k(    2) = (   0.0000000   0.0000000  -0.3831824), wk =   0.3333333
        k(    3) = (   0.3333333   0.0000000   0.0527948), wk =   0.6666667
        k(    4) = (   0.3333333   0.0000000  -0.3303876), wk =   0.6666667

     Dense  grid:  1348441 G-vectors     FFT dimensions: (  81, 300, 108)

     Estimated max dynamical RAM per process >    1647.42MB

     Estimated total allocated dynamical RAM >   13179.35MB

     Check: negative/imaginary core charge=   -0.000002    0.000000

     Initial potential from superposition of free atoms

     starting charge  487.99666, renormalised to  488.00000
     Starting wfc are  440 randomized atomic wfcs
     Checking if some PAW data can be deallocated... 

     total cpu time spent up to now is       92.2 secs

     per-process dynamical memory:   920.9 Mb

     Self-consistent Calculation

     iteration #  1     ecut=   100.00 Ry     beta=0.50
     Davidson diagonalization with overlap
     ethr =  1.00E-02,  avg # of iterations =  3.5

     total cpu time spent up to now is      345.1 secs

     total energy              =   -2359.34726205 Ry
     Harris-Foulkes estimate   =   -2367.89626798 Ry
     estimated scf accuracy    <      15.93670071 Ry

     iteration #  2     ecut=   100.00 Ry     beta=0.50
     Davidson diagonalization with overlap
     ethr =  3.27E-03,  avg # of iterations =  5.5

     total cpu time spent up to now is      489.8 secs

     total energy              =   -2360.58252726 Ry
     Harris-Foulkes estimate   =   -2361.92389676 Ry
     estimated scf accuracy    <       2.69518065 Ry

     iteration #  3     ecut=   100.00 Ry     beta=0.50
     Davidson diagonalization with overlap
     ethr =  5.52E-04,  avg # of iterations =  6.0

     total cpu time spent up to now is      787.6 secs

     total energy              =   -2362.10714475 Ry
     Harris-Foulkes estimate   =   -2363.04000105 Ry
     estimated scf accuracy    <       2.38801278 Ry

     iteration #  4     ecut=   100.00 Ry     beta=0.50
     Davidson diagonalization with overlap
     ethr =  4.89E-04,  avg # of iterations =  2.0

     total cpu time spent up to now is      910.9 secs

     total energy              =   -2362.14828598 Ry
     Harris-Foulkes estimate   =   -2362.39186246 Ry
     estimated scf accuracy    <       0.53850763 Ry

     iteration #  5     ecut=   100.00 Ry     beta=0.50
     Davidson diagonalization with overlap
     ethr =  1.10E-04,  avg # of iterations =  8.2

     total cpu time spent up to now is     1162.2 secs

     total energy              =   -2362.40612049 Ry
     Harris-Foulkes estimate   =   -2362.49762704 Ry
     estimated scf accuracy    <       0.31591116 Ry

     iteration #  6     ecut=   100.00 Ry     beta=0.50
     Davidson diagonalization with overlap
     ethr =  6.47E-05,  avg # of iterations =  2.0

     total cpu time spent up to now is     1288.2 secs

     total energy              =   -2362.41378577 Ry
     Harris-Foulkes estimate   =   -2362.45307222 Ry
     estimated scf accuracy    <       0.09426436 Ry

     iteration #  7     ecut=   100.00 Ry     beta=0.50
     Davidson diagonalization with overlap
     c_bands:  1 eigenvalues not converged
     ethr =  1.93E-05,  avg # of iterations = 11.5

     total cpu time spent up to now is     1474.7 secs

     total energy              =   -2362.42920084 Ry
     Harris-Foulkes estimate   =   -2362.43299179 Ry
     estimated scf accuracy    <       0.00879328 Ry

     iteration #  8     ecut=   100.00 Ry     beta=0.50
     Davidson diagonalization with overlap
     ethr =  1.80E-06,  avg # of iterations = 12.0

     total cpu time spent up to now is     1783.2 secs

     total energy              =   -2362.43430231 Ry
     Harris-Foulkes estimate   =   -2362.43476358 Ry
     estimated scf accuracy    <       0.00186060 Ry

     iteration #  9     ecut=   100.00 Ry     beta=0.50
     Davidson diagonalization with overlap
     ethr =  3.81E-07,  avg # of iterations =  2.0

     total cpu time spent up to now is     1909.2 secs

     total energy              =   -2362.43423208 Ry
     Harris-Foulkes estimate   =   -2362.43451579 Ry
     estimated scf accuracy    <       0.00064247 Ry

     iteration # 10     ecut=   100.00 Ry     beta=0.50
     Davidson diagonalization with overlap
     ethr =  1.32E-07,  avg # of iterations =  4.2

     total cpu time spent up to now is     2111.1 secs

     total energy              =   -2362.43439492 Ry
     Harris-Foulkes estimate   =   -2362.43448475 Ry
     estimated scf accuracy    <       0.00021760 Ry

     iteration # 11     ecut=   100.00 Ry     beta=0.50
     Davidson diagonalization with overlap
     ethr =  4.46E-08,  avg # of iterations =  2.0

     total cpu time spent up to now is     2240.3 secs

     total energy              =   -2362.43442687 Ry
     Harris-Foulkes estimate   =   -2362.43443889 Ry
     estimated scf accuracy    <       0.00003429 Ry

     iteration # 12     ecut=   100.00 Ry     beta=0.50
     Davidson diagonalization with overlap
     ethr =  7.03E-09,  avg # of iterations =  4.0

     total cpu time spent up to now is     2469.0 secs

     total energy              =   -2362.43444323 Ry
     Harris-Foulkes estimate   =   -2362.43444936 Ry
     estimated scf accuracy    <       0.00001712 Ry

     iteration # 13     ecut=   100.00 Ry     beta=0.50
     Davidson diagonalization with overlap
     ethr =  3.51E-09,  avg # of iterations =  1.2

     total cpu time spent up to now is     2587.3 secs

     total energy              =   -2362.43444363 Ry
     Harris-Foulkes estimate   =   -2362.43444490 Ry
     estimated scf accuracy    <       0.00000304 Ry

     iteration # 14     ecut=   100.00 Ry     beta=0.50
     Davidson diagonalization with overlap
     ethr =  6.23E-10,  avg # of iterations =  4.0

     total cpu time spent up to now is     2826.4 secs

     total energy              =   -2362.43444588 Ry
     Harris-Foulkes estimate   =   -2362.43444623 Ry
     estimated scf accuracy    <       0.00000163 Ry

     iteration # 15     ecut=   100.00 Ry     beta=0.50
     Davidson diagonalization with overlap
     ethr =  3.34E-10,  avg # of iterations =  1.5

     total cpu time spent up to now is     2946.0 secs

     total energy              =   -2362.43444574 Ry
     Harris-Foulkes estimate   =   -2362.43444598 Ry
     estimated scf accuracy    <       0.00000090 Ry

     iteration # 16     ecut=   100.00 Ry     beta=0.50
     Davidson diagonalization with overlap
     ethr =  1.85E-10,  avg # of iterations =  3.0

     total cpu time spent up to now is     3071.1 secs

     total energy              =   -2362.43444570 Ry
     Harris-Foulkes estimate   =   -2362.43444582 Ry
     estimated scf accuracy    <       0.00000030 Ry

     iteration # 17     ecut=   100.00 Ry     beta=0.50
     Davidson diagonalization with overlap
     ethr =  6.18E-11,  avg # of iterations =  4.0

     total cpu time spent up to now is     3300.5 secs

     total energy              =   -2362.43444586 Ry
     Harris-Foulkes estimate   =   -2362.43444588 Ry
     estimated scf accuracy    <       0.00000008 Ry

     iteration # 18     ecut=   100.00 Ry     beta=0.50
     Davidson diagonalization with overlap
     ethr =  1.66E-11,  avg # of iterations =  1.0

     total cpu time spent up to now is     3419.0 secs

     total energy              =   -2362.43444585 Ry
     Harris-Foulkes estimate   =   -2362.43444586 Ry
     estimated scf accuracy    <       0.00000004 Ry

     iteration # 19     ecut=   100.00 Ry     beta=0.50
     Davidson diagonalization with overlap
     ethr =  7.28E-12,  avg # of iterations =  4.0

     total cpu time spent up to now is     3599.7 secs

     End of self-consistent calculation

          k = 0.0000 0.0000 0.0000 (168459 PWs)   bands (ev):

   -24.1051 -24.1051 -24.1021 -24.1021 -23.9049 -23.9049 -23.9042 -23.9042
   -19.6933 -19.6933 -19.6692 -19.6692 -19.4439 -19.4439 -19.4408 -19.4408
   -19.2192 -19.2192 -19.2115 -19.2115 -16.3535 -16.3474 -16.3419 -16.3359
   -15.8808 -15.8712 -15.8561 -15.8447 -14.8617 -14.8509 -14.8379 -14.8333
   -13.9413 -13.9322 -13.9322 -13.9318 -13.3545 -13.3514 -13.3501 -13.3434
   -12.8277 -12.8265 -12.8200 -12.8195 -11.8661 -11.8605 -11.8226 -11.8201
   -11.1987 -11.1939 -11.1604 -11.1577 -10.9386 -10.9281 -10.7696 -10.7677
   -10.4122 -10.3972 -10.3807 -10.3735 -10.1415 -10.1370 -10.1336 -10.1265
    -9.3881  -9.3718  -9.3543  -9.3495  -8.3656  -8.3307  -8.3079  -8.2992
    -8.2188  -8.1967  -8.1935  -8.1927  -7.8968  -7.8636  -7.8576  -7.8249
    -7.4103  -7.4007  -7.2261  -7.2212  -7.1969  -7.1941  -7.1694  -7.1674
    -6.8508  -6.8328  -6.8231  -6.8097  -6.7553  -6.7263  -6.6897  -6.6571
    -6.6515  -6.6356  -6.5715  -6.5647  -6.4403  -6.4115  -6.3907  -6.3629
    -6.2772  -6.2621  -6.2540  -6.2441  -6.2302  -6.2100  -6.1621  -6.1173
    -6.0535  -5.9648  -5.8639  -5.8627  -5.8149  -5.7681  -5.7280  -5.6966
    -5.6691  -5.6549  -5.6195  -5.6153  -5.5580  -5.5228  -5.3911  -5.3863
    -4.8934  -4.8722  -4.8124  -4.7936  -4.7396  -4.6604  -4.6474  -4.5746
    -4.4586  -4.4564  -4.4444  -4.4290  -4.3736  -4.3634  -4.2275  -4.2113
    -3.8974  -3.8887  -3.8258  -3.8202  -3.5973  -3.5738  -3.5272  -3.5185
    -3.0038  -2.9974  -2.9052  -2.8566  -2.8181  -2.7851  -2.7466  -2.7194
    -2.7010  -2.6662  -2.6390  -2.6290  -2.5480  -2.4894  -2.4657  -2.4614
    -2.3637  -2.3620  -2.2535  -2.2472  -2.1633  -2.1570  -2.0145  -1.8439
    -1.7889  -1.6876  -1.6814  -1.6640  -1.6307  -1.6019  -1.5513  -1.5374
    -1.5037  -1.4660  -1.4415  -1.4131  -1.1598  -1.1188  -1.1135  -1.1037
    -1.0909  -1.0707  -1.0273  -1.0165  -0.9777  -0.9637  -0.9519  -0.9494
    -0.9435  -0.8777  -0.8754  -0.8232  -0.8103  -0.7901  -0.7842  -0.7318
    -0.6316  -0.6016  -0.5233  -0.5040  -0.5007  -0.4972  -0.4929  -0.4727
    -0.4546  -0.4333  -0.4232  -0.4030  -0.3528  -0.3445  -0.2934  -0.2881
    -0.1984  -0.1092  -0.0716  -0.0464   0.0143   0.0197   0.0482   0.0677
     0.1474   0.1949   0.2111   0.2331   0.9293   0.9771   1.0744   1.0969
     1.3487   1.3597   1.4201   1.4274   3.0339   3.0432   3.1264   3.1310
     3.3321   3.3342   3.4348   3.4464   5.0101   5.0293   5.0389   5.0415
     5.5599   5.5742   5.5993   5.6330   6.0095   6.0442   6.0653   6.0742
     6.1287   6.1882   6.2139   6.2302   6.8068   6.9071   7.0353   7.2547
     7.6408   7.6968   7.7607   7.7999   7.8789   7.9668   8.0903   8.1034
     8.2431   8.3025   8.3261   8.4005   8.4201   8.4359   8.4657   8.4741
     8.6427   8.7471   8.7557   8.7592

          k = 0.0000 0.0000-0.3832 (168596 PWs)   bands (ev):

   -24.1049 -24.1049 -24.1022 -24.1022 -23.9049 -23.9049 -23.9042 -23.9042
   -19.6934 -19.6934 -19.6691 -19.6691 -19.4440 -19.4440 -19.4408 -19.4408
   -19.2189 -19.2189 -19.2117 -19.2117 -16.3543 -16.3543 -16.3363 -16.3363
   -15.8815 -15.8814 -15.8435 -15.8435 -14.8557 -14.8557 -14.8361 -14.8361
   -13.9400 -13.9400 -13.9292 -13.9292 -13.3565 -13.3565 -13.3434 -13.3434
   -12.8271 -12.8271 -12.8188 -12.8188 -11.8502 -11.8501 -11.8343 -11.8342
   -11.2059 -11.2059 -11.1537 -11.1537 -10.8521 -10.8521 -10.8479 -10.8479
   -10.4264 -10.4264 -10.3571 -10.3571 -10.1384 -10.1384 -10.1312 -10.1312
    -9.3716  -9.3716  -9.3623  -9.3623  -8.3561  -8.3561  -8.3083  -8.3083
    -8.1989  -8.1989  -8.1863  -8.1863  -7.8667  -7.8667  -7.8472  -7.8472
    -7.3147  -7.3147  -7.3102  -7.3102  -7.2156  -7.2156  -7.1646  -7.1646
    -6.8075  -6.8075  -6.7870  -6.7870  -6.7677  -6.7677  -6.7063  -6.7063
    -6.6629  -6.6629  -6.5626  -6.5626  -6.4204  -6.4204  -6.3780  -6.3780
    -6.2706  -6.2706  -6.2472  -6.2472  -6.2111  -6.2111  -6.0928  -6.0928
    -5.9203  -5.9203  -5.8749  -5.8749  -5.7707  -5.7707  -5.7494  -5.7494
    -5.7357  -5.7357  -5.6800  -5.6800  -5.4752  -5.4752  -5.4624  -5.4624
    -4.8598  -4.8598  -4.8081  -4.8080  -4.6928  -4.6928  -4.6406  -4.6406
    -4.4682  -4.4682  -4.4114  -4.4114  -4.3477  -4.3477  -4.2640  -4.2640
    -3.8704  -3.8704  -3.8362  -3.8362  -3.5729  -3.5729  -3.5342  -3.5342
    -3.1083  -3.1083  -2.8440  -2.8440  -2.7933  -2.7933  -2.7433  -2.7433
    -2.6407  -2.6407  -2.5827  -2.5827  -2.5385  -2.5385  -2.4497  -2.4497
    -2.3100  -2.3100  -2.2613  -2.2613  -1.9478  -1.9478  -1.9107  -1.9107
    -1.8744  -1.8744  -1.7492  -1.7492  -1.5910  -1.5910  -1.5649  -1.5648
    -1.4972  -1.4972  -1.4307  -1.4307  -1.1578  -1.1578  -1.1264  -1.1264
    -1.1077  -1.1077  -1.0165  -1.0165  -0.9182  -0.9182  -0.8956  -0.8956
    -0.8431  -0.8431  -0.8310  -0.8310  -0.8114  -0.8114  -0.7785  -0.7785
    -0.5896  -0.5896  -0.5749  -0.5749  -0.5405  -0.5405  -0.5302  -0.5302
    -0.5062  -0.5062  -0.4208  -0.4208  -0.3056  -0.3056  -0.2303  -0.2303
    -0.1566  -0.1566  -0.0436  -0.0436   0.0153   0.0153   0.0517   0.0517
     0.1653   0.1653   0.2375   0.2375   0.9706   0.9706   1.0227   1.0227
     1.3365   1.3365   1.4138   1.4138   2.9982   2.9982   3.1355   3.1355
     3.3935   3.3935   3.3945   3.3945   4.8764   4.8764   5.1643   5.1643
     5.4529   5.4529   5.7247   5.7247   6.0870   6.0870   6.1326   6.1326
     6.1606   6.1606   6.1827   6.1827   7.1753   7.1753   7.3916   7.3916
     7.4796   7.4796   7.6059   7.6059   7.8828   7.8828   7.9890   7.9890
     8.1393   8.1393   8.3598   8.3598   8.4619   8.4620   8.5182   8.5182
     8.6555   8.6555   8.7696   8.7696

          k = 0.3333 0.0000 0.0528 (168605 PWs)   bands (ev):

   -24.1040 -24.1040 -24.1024 -24.1024 -23.9052 -23.9052 -23.9046 -23.9046
   -19.6905 -19.6905 -19.6720 -19.6720 -19.4439 -19.4439 -19.4406 -19.4405
   -19.2196 -19.2196 -19.2112 -19.2112 -16.3493 -16.3444 -16.3440 -16.3382
   -15.8865 -15.8819 -15.8502 -15.8442 -14.8622 -14.8569 -14.8368 -14.8342
   -13.9317 -13.9315 -13.9216 -13.9176 -13.3629 -13.3572 -13.3338 -13.3328
   -12.8517 -12.8512 -12.8176 -12.8174 -11.8704 -11.8551 -11.8472 -11.8371
   -11.1966 -11.1957 -11.1658 -11.1647 -10.8988 -10.8902 -10.8116 -10.8103
   -10.4288 -10.4168 -10.3588 -10.3467 -10.1477 -10.1441 -10.1434 -10.1390
    -9.3805  -9.3726  -9.3427  -9.3408  -8.3710  -8.3536  -8.3064  -8.2915
    -8.1931  -8.1821  -8.1682  -8.1550  -7.8674  -7.8605  -7.8392  -7.8209
    -7.3227  -7.3208  -7.2908  -7.2713  -7.2069  -7.1919  -7.1482  -7.1418
    -6.8416  -6.8227  -6.8135  -6.8096  -6.8007  -6.7608  -6.7243  -6.7115
    -6.6779  -6.6598  -6.6085  -6.6002  -6.3836  -6.3552  -6.3464  -6.3374
    -6.2572  -6.2485  -6.2274  -6.2235  -6.2015  -6.1814  -6.1190  -6.1147
    -6.0245  -5.9927  -5.8834  -5.8336  -5.7792  -5.7592  -5.7195  -5.6887
    -5.6606  -5.6450  -5.6022  -5.5927  -5.5482  -5.5458  -5.4647  -5.4559
    -4.9153  -4.8874  -4.8640  -4.7900  -4.7223  -4.6624  -4.6426  -4.6297
    -4.4496  -4.4461  -4.3888  -4.3885  -4.3737  -4.3627  -4.2032  -4.1992
    -3.8908  -3.8827  -3.8539  -3.8522  -3.5369  -3.5169  -3.4920  -3.4807
    -3.0012  -2.9877  -2.9627  -2.9365  -2.9280  -2.8934  -2.7425  -2.7204
    -2.7114  -2.6875  -2.6273  -2.6182  -2.5268  -2.5202  -2.4747  -2.4597
    -2.3950  -2.3461  -2.3405  -2.2921  -2.0710  -2.0547  -1.9583  -1.8636
    -1.8556  -1.8336  -1.7218  -1.7004  -1.6825  -1.6335  -1.6329  -1.6217
    -1.4971  -1.4504  -1.4386  -1.4140  -1.1410  -1.1368  -1.1340  -1.1310
    -1.1151  -1.1046  -1.0499  -1.0216  -1.0148  -0.9741  -0.9527  -0.9295
    -0.9242  -0.8826  -0.8671  -0.8486  -0.8183  -0.8019  -0.7927  -0.7832
    -0.6063  -0.5930  -0.5663  -0.5582  -0.5371  -0.5321  -0.5146  -0.5122
    -0.4923  -0.4882  -0.4612  -0.3698  -0.3348  -0.3147  -0.2915  -0.2869
    -0.2220  -0.1879  -0.0876  -0.0732   0.0224   0.0327   0.0521   0.0658
     0.3628   0.3819   0.4607   0.4706   0.9511   0.9760   1.0793   1.0923
     1.3591   1.3791   1.4001   1.4063   3.0409   3.0414   3.1137   3.1142
     3.3394   3.3449   3.4402   3.4426   4.9811   4.9928   5.0698   5.0737
     5.5778   5.5850   5.6046   5.6172   6.0500   6.0540   6.1285   6.1428
     6.1700   6.2062   6.2161   6.2703   7.1340   7.1567   7.3383   7.4428
     7.5350   7.5634   7.7399   7.8312   7.8679   7.9011   7.9399   8.0288
     8.1167   8.1559   8.2311   8.2587   8.3273   8.3337   8.4516   8.5088
     8.5549   8.6475   8.6559   8.7234

          k = 0.3333 0.0000-0.3304 (168500 PWs)   bands (ev):

   -24.1040 -24.1040 -24.1024 -24.1024 -23.9052 -23.9052 -23.9046 -23.9046
   -19.6904 -19.6904 -19.6722 -19.6721 -19.4440 -19.4440 -19.4405 -19.4405
   -19.2189 -19.2189 -19.2118 -19.2118 -16.3609 -16.3562 -16.3332 -16.3288
   -15.8819 -15.8782 -15.8522 -15.8470 -14.8564 -14.8540 -14.8422 -14.8370
   -13.9326 -13.9324 -13.9192 -13.9174 -13.3588 -13.3549 -13.3382 -13.3352
   -12.8603 -12.8508 -12.8135 -12.8125 -11.8688 -11.8593 -11.8471 -11.8455
   -11.1884 -11.1881 -11.1749 -11.1736 -10.8614 -10.8500 -10.8492 -10.8421
   -10.4161 -10.4066 -10.3663 -10.3596 -10.1511 -10.1474 -10.1386 -10.1352
    -9.3684  -9.3650  -9.3532  -9.3505  -8.3603  -8.3508  -8.3172  -8.2838
    -8.2199  -8.1934  -8.1511  -8.1252  -7.8671  -7.8549  -7.8411  -7.8228
    -7.3694  -7.3643  -7.2507  -7.2106  -7.2052  -7.1870  -7.1680  -7.1527
    -6.8583  -6.8279  -6.8130  -6.8065  -6.7482  -6.7443  -6.7097  -6.7064
    -6.6793  -6.6724  -6.6309  -6.6227  -6.3963  -6.3840  -6.3583  -6.3369
    -6.2673  -6.2668  -6.2381  -6.2343  -6.2127  -6.2008  -6.1004  -6.0907
    -5.9293  -5.9289  -5.8931  -5.8333  -5.8010  -5.7723  -5.7301  -5.7072
    -5.6961  -5.6781  -5.6749  -5.6224  -5.5289  -5.5125  -5.4098  -5.3963
    -4.9672  -4.9067  -4.8497  -4.7787  -4.7080  -4.6635  -4.6312  -4.6092
    -4.4410  -4.4240  -4.4020  -4.4013  -4.3350  -4.3317  -4.2636  -4.2451
    -3.8957  -3.8952  -3.8385  -3.8326  -3.5470  -3.5301  -3.5049  -3.4736
    -3.1002  -3.0472  -3.0416  -2.9407  -2.8546  -2.8208  -2.7764  -2.7619
    -2.6430  -2.6230  -2.6063  -2.5799  -2.5385  -2.5097  -2.5004  -2.4629
    -2.4047  -2.3485  -2.3214  -2.2545  -2.1350  -2.1137  -1.9378  -1.8410
    -1.8229  -1.7743  -1.7475  -1.6890  -1.6434  -1.6298  -1.6189  -1.6036
    -1.5239  -1.4814  -1.4406  -1.4014  -1.1939  -1.1634  -1.1438  -1.1210
    -1.1068  -1.0660  -1.0391  -0.9757  -0.9541  -0.9538  -0.9096  -0.8967
    -0.8918  -0.8844  -0.8742  -0.8621  -0.8406  -0.8395  -0.8135  -0.7956
    -0.6134  -0.6010  -0.5905  -0.5759  -0.5553  -0.5545  -0.5173  -0.5163
    -0.4885  -0.4809  -0.4398  -0.4116  -0.3484  -0.3092  -0.2461  -0.2401
    -0.2117  -0.1953  -0.1178  -0.0579   0.0284   0.0316   0.0647   0.0660
     0.3741   0.3776   0.4587   0.4711   0.9864   0.9951   1.0101   1.0447
     1.3183   1.3839   1.3915   1.4331   2.9944   3.0008   3.0960   3.0983
     3.3901   3.3932   3.4364   3.4442   4.8677   4.8762   5.1817   5.1829
     5.4640   5.4824   5.7165   5.7217   6.0709   6.0801   6.1156   6.1616
     6.1626   6.1665   6.1997   6.2495   7.1476   7.2007   7.4292   7.4846
     7.5641   7.6235   7.6602   7.7166   7.8461   7.9433   8.0123   8.0217
     8.0802   8.1184   8.1823   8.2695   8.2706   8.3342   8.4261   8.4846
     8.5447   8.6467   8.6844   8.7190

     highest occupied, lowest unoccupied level (ev):     1.4331    2.9944

!    total energy              =   -2362.43444586 Ry
     Harris-Foulkes estimate   =   -2362.43444586 Ry
     estimated scf accuracy    <          2.8E-09 Ry

     total all-electron energy =     -9101.667790 Ry

     The total energy is the sum of the following terms:

     one-electron contribution =   -1386.76148420 Ry
     hartree contribution      =     882.32612004 Ry
     xc contribution           =    -509.08734870 Ry
     ewald contribution        =    -637.58552606 Ry
     Dispersion Correction     =      -0.70781566 Ry
     one-center paw contrib.   =    -710.61839127 Ry

     convergence has been achieved in  19 iterations

     Forces acting on atoms (cartesian axes, Ry/au):

     atom    1 type  1   force =     0.00213266    0.00228502   -0.00278401
     atom    2 type  1   force =    -0.00211797    0.00228519    0.00278600
     atom    3 type  1   force =    -0.00213266   -0.00228502    0.00278401
     atom    4 type  1   force =     0.00211797   -0.00228519   -0.00278600
     atom    5 type  1   force =    -0.00455897    0.00184883   -0.00245417
     atom    6 type  1   force =     0.00457363    0.00184840    0.00245767
     atom    7 type  1   force =     0.00455897   -0.00184883    0.00245417
     atom    8 type  1   force =    -0.00457363   -0.00184840   -0.00245767
     atom    9 type  1   force =     0.00169913   -0.00124821   -0.00088484
     atom   10 type  1   force =    -0.00168702   -0.00124870    0.00088704
     atom   11 type  1   force =    -0.00169913    0.00124821    0.00088484
     atom   12 type  1   force =     0.00168702    0.00124870   -0.00088704
     atom   13 type  1   force =     0.00372392   -0.00047073    0.00140836
     atom   14 type  1   force =    -0.00374269   -0.00047120   -0.00141226
     atom   15 type  1   force =    -0.00372392    0.00047073   -0.00140836
     atom   16 type  1   force =     0.00374269    0.00047120    0.00141226
     atom   17 type  1   force =     0.00118143   -0.00104681   -0.00036391
     atom   18 type  1   force =    -0.00120372   -0.00104698    0.00036037
     atom   19 type  1   force =    -0.00118143    0.00104681    0.00036391
     atom   20 type  1   force =     0.00120372    0.00104698   -0.00036037
     atom   21 type  1   force =    -0.00113336    0.00041091    0.00149524
     atom   22 type  1   force =     0.00111252    0.00041088   -0.00149908
     atom   23 type  1   force =     0.00113336   -0.00041091   -0.00149524
     atom   24 type  1   force =    -0.00111252   -0.00041088    0.00149908
     atom   25 type  1   force =     0.00185818   -0.00026776    0.00140216
     atom   26 type  1   force =    -0.00184521   -0.00026791   -0.00139989
     atom   27 type  1   force =    -0.00185818    0.00026776   -0.00140216
     atom   28 type  1   force =     0.00184521    0.00026791    0.00139989
     atom   29 type  1   force =    -0.00260893    0.00182660   -0.00043542
     atom   30 type  1   force =     0.00262299    0.00182731    0.00043788
     atom   31 type  1   force =     0.00260893   -0.00182660    0.00043542
     atom   32 type  1   force =    -0.00262299   -0.00182731   -0.00043788
     atom   33 type  1   force =     0.00022538   -0.00075603   -0.00098474
     atom   34 type  1   force =    -0.00023787   -0.00075626    0.00098322
     atom   35 type  1   force =    -0.00022538    0.00075603    0.00098474
     atom   36 type  1   force =     0.00023787    0.00075626   -0.00098322
     atom   37 type  1   force =     0.00037034   -0.00072411    0.00039393
     atom   38 type  1   force =    -0.00038089   -0.00072474   -0.00039532
     atom   39 type  1   force =    -0.00037034    0.00072411   -0.00039393
     atom   40 type  1   force =     0.00038089    0.00072474    0.00039532
     atom   41 type  1   force =    -0.00083331   -0.00161802   -0.00004867
     atom   42 type  1   force =     0.00081376   -0.00161777    0.00004607
     atom   43 type  1   force =     0.00083331    0.00161802    0.00004867
     atom   44 type  1   force =    -0.00081376    0.00161777   -0.00004607
     atom   45 type  1   force =     0.00216960   -0.00021670    0.00008493
     atom   46 type  1   force =    -0.00218119   -0.00021641   -0.00008626
     atom   47 type  1   force =    -0.00216960    0.00021670   -0.00008493
     atom   48 type  1   force =     0.00218119    0.00021641    0.00008626
     atom   49 type  1   force =    -0.00133615   -0.00040454   -0.00350873
     atom   50 type  1   force =     0.00134700   -0.00040467    0.00351070
     atom   51 type  1   force =     0.00133615    0.00040454    0.00350873
     atom   52 type  1   force =    -0.00134700    0.00040467   -0.00351070
     atom   53 type  1   force =     0.00357189    0.00086239   -0.00227132
     atom   54 type  1   force =    -0.00358266    0.00086211    0.00226816
     atom   55 type  1   force =    -0.00357189   -0.00086239    0.00227132
     atom   56 type  1   force =     0.00358266   -0.00086211   -0.00226816
     atom   57 type  1   force =    -0.00153122   -0.00136986   -0.00154245
     atom   58 type  1   force =     0.00153983   -0.00137053    0.00154500
     atom   59 type  1   force =     0.00153122    0.00136986    0.00154245
     atom   60 type  1   force =    -0.00153983    0.00137053   -0.00154500
     atom   61 type  1   force =     0.00081107    0.00184367    0.00102538
     atom   62 type  1   force =    -0.00079419    0.00184264   -0.00102107
     atom   63 type  1   force =    -0.00081107   -0.00184367   -0.00102538
     atom   64 type  1   force =     0.00079419   -0.00184264    0.00102107
     atom   65 type  2   force =    -0.00116862    0.00335450    0.00594690
     atom   66 type  2   force =     0.00117007    0.00335489   -0.00594742
     atom   67 type  2   force =     0.00116862   -0.00335450   -0.00594690
     atom   68 type  2   force =    -0.00117007   -0.00335489    0.00594742
     atom   69 type  2   force =     0.00172536    0.00080454   -0.00131329
     atom   70 type  2   force =    -0.00172551    0.00080490    0.00131334
     atom   71 type  2   force =    -0.00172536   -0.00080454    0.00131329
     atom   72 type  2   force =     0.00172551   -0.00080490   -0.00131334
     atom   73 type  2   force =    -0.00258870    0.00177765    0.00319310
     atom   74 type  2   force =     0.00258794    0.00177789   -0.00319314
     atom   75 type  2   force =     0.00258870   -0.00177765   -0.00319310
     atom   76 type  2   force =    -0.00258794   -0.00177789    0.00319314
     atom   77 type  2   force =    -0.00326826    0.00121022    0.00161362
     atom   78 type  2   force =     0.00326792    0.00121072   -0.00161329
     atom   79 type  2   force =     0.00326826   -0.00121022   -0.00161362
     atom   80 type  2   force =    -0.00326792   -0.00121072    0.00161329
     atom   81 type  4   force =     0.00150118   -0.00042976    0.00215784
     atom   82 type  4   force =    -0.00150494   -0.00043004   -0.00215787
     atom   83 type  4   force =    -0.00150118    0.00042976   -0.00215784
     atom   84 type  4   force =     0.00150494    0.00043004    0.00215787
     atom   85 type  4   force =     0.00126142   -0.00075946   -0.00224316
     atom   86 type  4   force =    -0.00125945   -0.00075906    0.00224366
     atom   87 type  4   force =    -0.00126142    0.00075946    0.00224316
     atom   88 type  4   force =     0.00125945    0.00075906   -0.00224366
     atom   89 type  4   force =    -0.00090351    0.00035476    0.00040616
     atom   90 type  4   force =     0.00090750    0.00035410   -0.00040603
     atom   91 type  4   force =     0.00090351   -0.00035476   -0.00040616
     atom   92 type  4   force =    -0.00090750   -0.00035410    0.00040603
     atom   93 type  4   force =     0.00226617   -0.00117165    0.00090824
     atom   94 type  4   force =    -0.00226817   -0.00117180   -0.00090789
     atom   95 type  4   force =    -0.00226617    0.00117165   -0.00090824
     atom   96 type  4   force =     0.00226817    0.00117180    0.00090789
     atom   97 type  3   force =     0.00063986   -0.00041349   -0.00022819
     atom   98 type  3   force =    -0.00063996   -0.00041333    0.00022836
     atom   99 type  3   force =    -0.00063986    0.00041349    0.00022819
     atom  100 type  3   force =     0.00063996    0.00041333   -0.00022836
     atom  101 type  3   force =    -0.00029184   -0.00038028   -0.00033536
     atom  102 type  3   force =     0.00029191   -0.00038053    0.00033491
     atom  103 type  3   force =     0.00029184    0.00038028    0.00033536
     atom  104 type  3   force =    -0.00029191    0.00038053   -0.00033491
     atom  105 type  3   force =    -0.00148411   -0.00326871   -0.00120996
     atom  106 type  3   force =     0.00148238   -0.00326805    0.00120962
     atom  107 type  3   force =     0.00148411    0.00326871    0.00120996
     atom  108 type  3   force =    -0.00148238    0.00326805   -0.00120962
     atom  109 type  3   force =    -0.00049424   -0.00012873    0.00074929
     atom  110 type  3   force =     0.00049433   -0.00012871   -0.00074930
     atom  111 type  3   force =     0.00049424    0.00012873   -0.00074929
     atom  112 type  3   force =    -0.00049433    0.00012871    0.00074930
     atom  113 type  3   force =     0.00005903   -0.00003148   -0.00012151
     atom  114 type  3   force =    -0.00005949   -0.00003185    0.00012124
     atom  115 type  3   force =    -0.00005903    0.00003148    0.00012151
     atom  116 type  3   force =     0.00005949    0.00003185   -0.00012124
     atom  117 type  3   force =    -0.00351344   -0.00107361   -0.00012630
     atom  118 type  3   force =     0.00351415   -0.00107374    0.00012619
     atom  119 type  3   force =     0.00351344    0.00107361    0.00012630
     atom  120 type  3   force =    -0.00351415    0.00107374   -0.00012619
     atom  121 type  3   force =     0.00009755   -0.00045394    0.00080030
     atom  122 type  3   force =    -0.00009725   -0.00045380   -0.00080034
     atom  123 type  3   force =    -0.00009755    0.00045394   -0.00080030
     atom  124 type  3   force =     0.00009725    0.00045380    0.00080034
     atom  125 type  3   force =     0.00179419    0.00110033   -0.00027780
     atom  126 type  3   force =    -0.00179421    0.00110043    0.00027774
     atom  127 type  3   force =    -0.00179419   -0.00110033    0.00027780
     atom  128 type  3   force =     0.00179421   -0.00110043   -0.00027774
     atom  129 type  3   force =     0.00056545   -0.00027136   -0.00070743
     atom  130 type  3   force =    -0.00056558   -0.00027139    0.00070738
     atom  131 type  3   force =    -0.00056545    0.00027136    0.00070743
     atom  132 type  3   force =     0.00056558    0.00027139   -0.00070738
     atom  133 type  3   force =    -0.00037015   -0.00041081    0.00030322
     atom  134 type  3   force =     0.00037012   -0.00041068   -0.00030309
     atom  135 type  3   force =     0.00037015    0.00041081   -0.00030322
     atom  136 type  3   force =    -0.00037012    0.00041068    0.00030309
     atom  137 type  3   force =     0.00044274    0.00008575    0.00038907
     atom  138 type  3   force =    -0.00044260    0.00008575   -0.00038889
     atom  139 type  3   force =    -0.00044274   -0.00008575   -0.00038907
     atom  140 type  3   force =     0.00044260   -0.00008575    0.00038889
     atom  141 type  3   force =    -0.00035987    0.00004769   -0.00034038
     atom  142 type  3   force =     0.00035990    0.00004736    0.00034005
     atom  143 type  3   force =     0.00035987   -0.00004769    0.00034038
     atom  144 type  3   force =    -0.00035990   -0.00004736   -0.00034005
     atom  145 type  3   force =     0.00010103    0.00081498   -0.00020877
     atom  146 type  3   force =    -0.00010103    0.00081545    0.00020874
     atom  147 type  3   force =    -0.00010103   -0.00081498    0.00020877
     atom  148 type  3   force =     0.00010103   -0.00081545   -0.00020874
     atom  149 type  3   force =    -0.00135566   -0.00069207    0.00063413
     atom  150 type  3   force =     0.00135553   -0.00069228   -0.00063420
     atom  151 type  3   force =     0.00135566    0.00069207   -0.00063413
     atom  152 type  3   force =    -0.00135553    0.00069228    0.00063420

     Total force =     0.034511     Total SCF correction =     0.000110


     Computing stress (Cartesian axis) and pressure

          total   stress  (Ry/bohr**3)                   (kbar)     P=   -4.42
  -0.00004145   0.00000000  -0.00000282         -6.10      0.00     -0.41
   0.00000000  -0.00001870   0.00000000          0.00     -2.75      0.00
  -0.00000282   0.00000000  -0.00003005         -0.41      0.00     -4.42


     Writing output data file scf.save
 
     init_run     :     89.02s CPU     91.52s WALL (       1 calls)
     electrons    :   3402.50s CPU   3507.74s WALL (       1 calls)
     forces       :     47.27s CPU     47.68s WALL (       1 calls)
     stress       :    211.58s CPU    212.07s WALL (       1 calls)

     Called by init_run:
     wfcinit      :     71.96s CPU     74.20s WALL (       1 calls)
     potinit      :      6.04s CPU      6.07s WALL (       1 calls)

     Called by electrons:
     c_bands      :   3089.41s CPU   3176.37s WALL (      19 calls)
     sum_band     :    285.21s CPU    300.24s WALL (      19 calls)
     v_of_rho     :      3.71s CPU      4.13s WALL (      20 calls)
     newd         :     11.86s CPU     14.75s WALL (      20 calls)
     PAW_pot      :     11.48s CPU     11.48s WALL (      20 calls)
     mix_rho      :      1.07s CPU      1.12s WALL (      19 calls)

     Called by c_bands:
     init_us_2    :     10.56s CPU     10.63s WALL (     164 calls)
     cegterg      :   3039.41s CPU   3126.25s WALL (      76 calls)

     Called by sum_band:
     sum_band:bec :      0.13s CPU      0.13s WALL (      76 calls)
     addusdens    :     11.98s CPU     14.63s WALL (      19 calls)

     Called by *egterg:
     h_psi        :   1467.60s CPU   1536.60s WALL (     407 calls)
     s_psi        :    405.02s CPU    405.04s WALL (     407 calls)
     g_psi        :      5.41s CPU      5.41s WALL (     327 calls)
     cdiaghg      :    201.94s CPU    201.95s WALL (     403 calls)

     Called by h_psi:
     h_psi:pot    :   1459.89s CPU   1528.72s WALL (     407 calls)
     h_psi:calbec :    405.98s CPU    406.40s WALL (     407 calls)
     vloc_psi     :    648.59s CPU    716.93s WALL (     407 calls)
     add_vuspsi   :    405.31s CPU    405.39s WALL (     407 calls)

     General routines
     calbec       :    589.17s CPU    589.76s WALL (     503 calls)
     fft          :      5.48s CPU      6.17s WALL (     284 calls)
     fftw         :    705.12s CPU    785.37s WALL (  149282 calls)
 
     Parallel routines
     fft_scatter  :    152.48s CPU    232.91s WALL (  149566 calls)
 
     PWSCF        :     1h 2m CPU        1h 5m WALL

 
   This run was terminated on:   9:37:23   7Dec2017            

=------------------------------------------------------------------------------=
   JOB DONE.
=------------------------------------------------------------------------------=
