
     Program PWSCF v.6.1 (svn rev. 13369) starts on 13Dec2017 at  4: 4:46 

     This program is part of the open-source Quantum ESPRESSO suite
     for quantum simulation of materials; please cite
         "P. Giannozzi et al., J. Phys.:Condens. Matter 21 395502 (2009);
          URL http://www.quantum-espresso.org", 
     in publications or presentations arising from this work. More details at
     http://www.quantum-espresso.org/quote

     Parallel version (MPI), running on     8 processors
     R & G space division:  proc/nbgrp/npool/nimage =       8
     Waiting for input...
     Reading input from standard input

     Current dimensions of program PWSCF are:
     Max number of different atomic species (ntypx) = 10
     Max number of k-points (npk) =  40000
     Max angular momentum in pseudopotentials (lmaxx) =  3
               file C.pbe-n-kjpaw_psl.0.1.UPF: wavefunction(s)  2P renormalized
               file N.pbe-n-kjpaw_psl.0.1.UPF: wavefunction(s)  2P renormalized
               file H.pbe-kjpaw_psl.0.1.UPF: wavefunction(s)  1S renormalized
               file O.pbe-n-kjpaw_psl.0.1.UPF: wavefunction(s)  2P renormalized

     -------------------------------------
     Parameters for Dispersion Correction:
     -------------------------------------
       atom      VdW radius       C_6     

        C          2.744         60.710
        N          2.640         42.670
        H          1.892          4.857
        O          2.536         24.284

     Subspace diagonalization in iterative solution of the eigenvalue problem:
     a serial algorithm will be used

 
     Parallelization info
     --------------------
     sticks:   dense  smooth     PW     G-vecs:    dense   smooth      PW
     Min         979     979    260                91414    91414   12521
     Max         980     980    261                91417    91417   12524
     Sum        7839    7839   2081               731329   731329  100179
 


     bravais-lattice index     =            0
     lattice parameter (alat)  =      19.0012  a.u.
     unit-cell volume          =    5413.0899 (a.u.)^3
     number of atoms/cell      =           88
     number of atomic types    =            4
     number of electrons       =       224.00
     number of Kohn-Sham states=          134
     kinetic-energy cutoff     =     100.0000  Ry
     charge density cutoff     =     400.0000  Ry
     convergence threshold     =      1.0E-08
     mixing beta               =       0.5000
     number of iterations used =            8  plain     mixing
     Exchange-correlation      =  SLA  PW   PBX  PBC ( 1  4  3  4 0 0)

     celldm(1)=  19.001196  celldm(2)=   0.000000  celldm(3)=   0.000000
     celldm(4)=   0.000000  celldm(5)=   0.000000  celldm(6)=   0.000000

     crystal axes: (cart. coord. in units of alat)
               a(1) = (   1.000000   0.000000   0.000000 )  
               a(2) = (   0.000000   0.680358   0.000000 )  
               a(3) = (  -0.428844   0.000000   1.159751 )  

     reciprocal axes: (cart. coord. in units 2 pi/alat)
               b(1) = (  1.000000  0.000000  0.369772 )  
               b(2) = (  0.000000  1.469814  0.000000 )  
               b(3) = (  0.000000  0.000000  0.862254 )  


     PseudoPot. # 1 for  C read from file:
     /scratch/ahofstet/pseudo/C.pbe-n-kjpaw_psl.0.1.UPF
     MD5 check sum: 430fe95172b1e11ef3f8ed03bac87931
     Pseudo is Projector augmented-wave + core cor, Zval =  4.0
     Generated using "atomic" code by A. Dal Corso  v.5.0.99 svn rev. 10869
     Shape of augmentation charge: BESSEL
     Using radial grid of 1073 points,  4 beta functions with: 
                l(1) =   0
                l(2) =   0
                l(3) =   1
                l(4) =   1
     Q(r) pseudized with 0 coefficients 


     PseudoPot. # 2 for  N read from file:
     /scratch/ahofstet/pseudo/N.pbe-n-kjpaw_psl.0.1.UPF
     MD5 check sum: f73187c8b701007e77325f868c9291d7
     Pseudo is Projector augmented-wave + core cor, Zval =  5.0
     Generated using "atomic" code by A. Dal Corso  v.5.0.99 svn rev. 10869
     Shape of augmentation charge: PSQ
     Using radial grid of 1085 points,  4 beta functions with: 
                l(1) =   0
                l(2) =   0
                l(3) =   1
                l(4) =   1
     Q(r) pseudized with 0 coefficients 


     PseudoPot. # 3 for  H read from file:
     /scratch/ahofstet/pseudo/H.pbe-kjpaw_psl.0.1.UPF
     MD5 check sum: 94e484f906d9e9773b2f6e52662335b2
     Pseudo is Projector augmented-wave, Zval =  1.0
     Generated using "atomic" code by A. Dal Corso  v.5.0.99 svn rev. 10869
     Shape of augmentation charge: PSQ
     Using radial grid of  929 points,  2 beta functions with: 
                l(1) =   0
                l(2) =   0
     Q(r) pseudized with 0 coefficients 


     PseudoPot. # 4 for  O read from file:
     /scratch/ahofstet/pseudo/O.pbe-n-kjpaw_psl.0.1.UPF
     MD5 check sum: 3f94a2996a3169367d6eb21d9b593f20
     Pseudo is Projector augmented-wave + core cor, Zval =  6.0
     Generated using "atomic" code by A. Dal Corso  v.5.0.99 svn rev. 10869
     Shape of augmentation charge: BESSEL
     Using radial grid of 1095 points,  4 beta functions with: 
                l(1) =   0
                l(2) =   0
                l(3) =   1
                l(4) =   1
     Q(r) pseudized with 0 coefficients 


     atomic species   valence    mass     pseudopotential
        C              4.00    12.01070      C( 1.00)
        N              5.00    14.00670      N( 1.00)
        H              1.00     1.00794      H( 1.00)
        O              6.00    15.99940      O( 1.00)

      2 Sym. Ops., with inversion, found
          (note:  2 additional sym.ops. were found but ignored
           their fractional translations are incommensurate with FFT grid)


   Cartesian axes

     site n.     atom                  positions (alat units)
         1           O   tau(   1) = (   0.4587302   0.2200485   0.4125599  )
         2           O   tau(   2) = (   0.8268478   0.5602275   0.1673158  )
         3           O   tau(   3) = (   0.1124259   0.4603095   0.7471915  )
         4           O   tau(   4) = (  -0.2556918   0.1201305   0.9924356  )
         5           H   tau(   5) = (   0.4778556   0.2135481   0.3093302  )
         6           H   tau(   6) = (   0.8077224   0.5537272   0.2705455  )
         7           H   tau(   7) = (   0.0933004   0.4668099   0.8504212  )
         8           H   tau(   8) = (  -0.2365664   0.1266309   0.8892058  )
         9           O   tau(   9) = (   0.7897143   0.5540041   0.4150956  )
        10           O   tau(  10) = (   0.4958637   0.2138251   0.1647800  )
        11           O   tau(  11) = (  -0.2185583   0.1263539   0.7446557  )
        12           O   tau(  12) = (   0.0752923   0.4665329   0.9949713  )
        13           C   tau(  13) = (   0.5305185   0.3129906   0.4702928  )
        14           C   tau(  14) = (   0.7550595   0.6531696   0.1095829  )
        15           C   tau(  15) = (   0.0406375   0.3673674   0.6894586  )
        16           C   tau(  16) = (  -0.1839035   0.0271884   1.0501684  )
        17           C   tau(  17) = (   0.6205796   0.3919949   0.4025629  )
        18           C   tau(  18) = (   0.6649984   0.0518159   0.1773127  )
        19           C   tau(  19) = (  -0.0494236   0.2883631   0.7571884  )
        20           C   tau(  20) = (  -0.0938424   0.6285421   0.9824386  )
        21           H   tau(  21) = (   0.6350532   0.3785864   0.2959748  )
        22           H   tau(  22) = (   0.6505249   0.0384074   0.2839009  )
        23           H   tau(  23) = (  -0.0638971   0.3017717   0.8637766  )
        24           H   tau(  24) = (  -0.0793688   0.6419507   0.8758505  )
        25           C   tau(  25) = (   0.6980465   0.4877893   0.4714409  )
        26           C   tau(  26) = (   0.5875315   0.1476103   0.1084348  )
        27           C   tau(  27) = (  -0.1268905   0.1925687   0.6883104  )
        28           C   tau(  28) = (  -0.0163755   0.5327477   1.0513166  )
        29           C   tau(  29) = (   0.6746966   0.5108537   0.6179410  )
        30           C   tau(  30) = (   0.1820374   0.1706747   1.1216860  )
        31           C   tau(  31) = (  -0.1035406   0.1695043   0.5418104  )
        32           C   tau(  32) = (   0.3891186   0.5096833   0.0380653  )
        33           H   tau(  33) = (   0.6950385   0.6159028   0.6403693  )
        34           H   tau(  34) = (   0.1616955   0.2757238   1.0992577  )
        35           H   tau(  35) = (  -0.1238825   0.0644552   0.5193820  )
        36           H   tau(  36) = (   0.4094605   0.4046342   0.0604936  )
        37           H   tau(  37) = (   0.7513853   0.4528059   0.6714239  )
        38           H   tau(  38) = (   0.1053487   0.1126269   1.0682031  )
        39           H   tau(  39) = (  -0.1802293   0.2275522   0.4883275  )
        40           H   tau(  40) = (   0.4658073   0.5677312   0.0915482  )
        41           C   tau(  41) = (   0.5364888   0.4680118   0.6679561  )
        42           C   tau(  42) = (   0.3202452   0.1278328   1.0716709  )
        43           C   tau(  43) = (   0.0346672   0.2123463   0.4917953  )
        44           C   tau(  44) = (   0.2509108   0.5525253   0.0880804  )
        45           C   tau(  45) = (   0.5116073   0.3259106   0.6175883  )
        46           C   tau(  46) = (   0.3451267  -0.0142685   1.1220388  )
        47           C   tau(  47) = (   0.0595487   0.3544475   0.5421631  )
        48           C   tau(  48) = (   0.2260293   0.6946265   0.0377126  )
        49           H   tau(  49) = (   0.5829129   0.2576626   0.6658877  )
        50           H   tau(  50) = (   0.2738211   0.5978416   1.0737393  )
        51           H   tau(  51) = (  -0.0117569   0.4226954   0.4938637  )
        52           H   tau(  52) = (   0.2973349   0.0825164   0.0860120  )
        53           H   tau(  53) = (   0.4112631   0.2908940   0.6438373  )
        54           H   tau(  54) = (   0.4454709   0.6310731   1.0957897  )
        55           H   tau(  55) = (   0.1598929   0.3894640   0.5159141  )
        56           H   tau(  56) = (   0.1256851   0.0492850   0.0639616  )
        57           C   tau(  57) = (   0.5353580   0.4694204   0.8204160  )
        58           C   tau(  58) = (   0.3213760   0.1292414   0.9192111  )
        59           C   tau(  59) = (   0.0357980   0.2109376   0.3393354  )
        60           C   tau(  60) = (   0.2497800   0.5511166   0.2405403  )
        61           H   tau(  61) = (   0.6094257   0.4000193   0.8613197  )
        62           H   tau(  62) = (   0.2473083   0.0598403   0.8783073  )
        63           H   tau(  63) = (  -0.0382697   0.2803387   0.2984316  )
        64           H   tau(  64) = (   0.3238477   0.6205178   0.2814441  )
        65           H   tau(  65) = (   0.4366987   0.4410104   0.8585436  )
        66           H   tau(  66) = (   0.4200353   0.1008314   0.8810835  )
        67           H   tau(  67) = (   0.1344573   0.2393476   0.3012078  )
        68           H   tau(  68) = (   0.1511207   0.5795267   0.2786679  )
        69           H   tau(  69) = (   0.5586864   0.5697856   0.8573403  )
        70           H   tau(  70) = (   0.2980476   0.2296065   0.8822868  )
        71           H   tau(  71) = (   0.0124696   0.1105725   0.3024111  )
        72           H   tau(  72) = (   0.2731084   0.4507515   0.2774646  )
        73           C   tau(  73) = (   0.4277086   0.5627516   0.6168225  )
        74           C   tau(  74) = (   0.4290254   0.2225726   1.1228045  )
        75           C   tau(  75) = (   0.1434474   0.1176064   0.5429289  )
        76           C   tau(  76) = (   0.1421306   0.4577854   0.0369468  )
        77           H   tau(  77) = (   0.4424380   0.6631820   0.6566284  )
        78           H   tau(  78) = (   0.4142960   0.3230030   1.0829987  )
        79           H   tau(  79) = (   0.1287180   0.0171760   0.5031230  )
        80           H   tau(  80) = (   0.1568600   0.3573550   0.0767527  )
        81           H   tau(  81) = (   0.3291825   0.5282043   0.6492448  )
        82           H   tau(  82) = (   0.5275515   0.1880253   1.0903823  )
        83           H   tau(  83) = (   0.2419735   0.1521537   0.5105066  )
        84           H   tau(  84) = (   0.0436045   0.4923327   0.0693691  )
        85           H   tau(  85) = (   0.4279851   0.5696329   0.5077613  )
        86           H   tau(  86) = (   0.8575929   0.2294539   0.0721144  )
        87           H   tau(  87) = (   0.1431709   0.1107252   0.6519901  )
        88           H   tau(  88) = (  -0.2864369   0.4509042   1.0876370  )

     number of k points=     8
                       cart. coord. in units 2pi/alat
        k(    1) = (   0.0000000   0.0000000   0.0000000), wk =   0.1666667
        k(    2) = (   0.0000000   0.0000000  -0.4311269), wk =   0.1666667
        k(    3) = (   0.0000000   0.4899381   0.0000000), wk =   0.3333333
        k(    4) = (   0.0000000   0.4899381  -0.4311269), wk =   0.3333333
        k(    5) = (  -0.5000000   0.0000000  -0.1848862), wk =   0.1666667
        k(    6) = (  -0.5000000   0.0000000  -0.6160131), wk =   0.1666667
        k(    7) = (  -0.5000000   0.4899381  -0.1848862), wk =   0.3333333
        k(    8) = (  -0.5000000   0.4899381  -0.6160131), wk =   0.3333333

     Dense  grid:   731329 G-vectors     FFT dimensions: ( 125,  90, 150)

     Estimated max dynamical RAM per process >     534.79MB

     Estimated total allocated dynamical RAM >    4278.30MB

     Check: negative/imaginary core charge=   -0.000002    0.000000

     Initial potential from superposition of free atoms

     starting charge  223.99820, renormalised to  224.00000
     Starting wfc are  208 randomized atomic wfcs
     Checking if some PAW data can be deallocated... 

     total cpu time spent up to now is       34.8 secs

     per-process dynamical memory:   390.7 Mb

     Self-consistent Calculation

     iteration #  1     ecut=   100.00 Ry     beta=0.50
     Davidson diagonalization with overlap
     ethr =  1.00E-02,  avg # of iterations =  4.2

     total cpu time spent up to now is      124.0 secs

     total energy              =    -978.93592052 Ry
     Harris-Foulkes estimate   =    -983.99638170 Ry
     estimated scf accuracy    <       9.50920426 Ry

     iteration #  2     ecut=   100.00 Ry     beta=0.50
     Davidson diagonalization with overlap
     ethr =  4.25E-03,  avg # of iterations =  2.0

     total cpu time spent up to now is      166.8 secs

     total energy              =    -979.35588235 Ry
     Harris-Foulkes estimate   =    -979.88608952 Ry
     estimated scf accuracy    <       1.07103536 Ry

     iteration #  3     ecut=   100.00 Ry     beta=0.50
     Davidson diagonalization with overlap
     ethr =  4.78E-04,  avg # of iterations =  5.0

     total cpu time spent up to now is      259.7 secs

     total energy              =    -980.64052401 Ry
     Harris-Foulkes estimate   =    -981.30820950 Ry
     estimated scf accuracy    <       2.18062138 Ry

     iteration #  4     ecut=   100.00 Ry     beta=0.50
     Davidson diagonalization with overlap
     ethr =  4.78E-04,  avg # of iterations =  1.0

     total cpu time spent up to now is      298.9 secs

     total energy              =    -980.00948801 Ry
     Harris-Foulkes estimate   =    -980.70524596 Ry
     estimated scf accuracy    <       0.94447847 Ry

     iteration #  5     ecut=   100.00 Ry     beta=0.50
     Davidson diagonalization with overlap
     ethr =  4.22E-04,  avg # of iterations =  4.1

     total cpu time spent up to now is      387.3 secs

     total energy              =    -980.68183668 Ry
     Harris-Foulkes estimate   =    -981.28044520 Ry
     estimated scf accuracy    <       2.00113424 Ry

     iteration #  6     ecut=   100.00 Ry     beta=0.50
     Davidson diagonalization with overlap
     ethr =  4.22E-04,  avg # of iterations =  1.0

     total cpu time spent up to now is      426.7 secs

     total energy              =    -980.35227706 Ry
     Harris-Foulkes estimate   =    -980.72746166 Ry
     estimated scf accuracy    <       0.93025776 Ry

     iteration #  7     ecut=   100.00 Ry     beta=0.50
     Davidson diagonalization with overlap
     ethr =  4.15E-04,  avg # of iterations =  3.2

     total cpu time spent up to now is      487.3 secs

     total energy              =    -980.64782201 Ry
     Harris-Foulkes estimate   =    -980.64869822 Ry
     estimated scf accuracy    <       0.00541753 Ry

     iteration #  8     ecut=   100.00 Ry     beta=0.50
     Davidson diagonalization with overlap
     c_bands:  1 eigenvalues not converged
     c_bands:  2 eigenvalues not converged
     c_bands:  4 eigenvalues not converged
     c_bands:  1 eigenvalues not converged
     ethr =  2.42E-06,  avg # of iterations = 15.2

     total cpu time spent up to now is      591.9 secs

     total energy              =    -980.65123093 Ry
     Harris-Foulkes estimate   =    -980.65358880 Ry
     estimated scf accuracy    <       0.00495919 Ry

     iteration #  9     ecut=   100.00 Ry     beta=0.50
     Davidson diagonalization with overlap
     ethr =  2.21E-06,  avg # of iterations =  9.8

     total cpu time spent up to now is      641.4 secs

     total energy              =    -980.65139394 Ry
     Harris-Foulkes estimate   =    -980.65162061 Ry
     estimated scf accuracy    <       0.00059400 Ry

     iteration # 10     ecut=   100.00 Ry     beta=0.50
     Davidson diagonalization with overlap
     ethr =  2.65E-07,  avg # of iterations =  4.2

     total cpu time spent up to now is      725.7 secs

     total energy              =    -980.65221888 Ry
     Harris-Foulkes estimate   =    -980.65233336 Ry
     estimated scf accuracy    <       0.00052999 Ry

     iteration # 11     ecut=   100.00 Ry     beta=0.50
     Davidson diagonalization with overlap
     ethr =  2.37E-07,  avg # of iterations =  1.0

     total cpu time spent up to now is      765.1 secs

     total energy              =    -980.65205213 Ry
     Harris-Foulkes estimate   =    -980.65222400 Ry
     estimated scf accuracy    <       0.00032173 Ry

     iteration # 12     ecut=   100.00 Ry     beta=0.50
     Davidson diagonalization with overlap
     ethr =  1.44E-07,  avg # of iterations =  4.4

     total cpu time spent up to now is      831.1 secs

     total energy              =    -980.65217177 Ry
     Harris-Foulkes estimate   =    -980.65218386 Ry
     estimated scf accuracy    <       0.00003783 Ry

     iteration # 13     ecut=   100.00 Ry     beta=0.50
     Davidson diagonalization with overlap
     ethr =  1.69E-08,  avg # of iterations =  1.0

     total cpu time spent up to now is      870.6 secs

     total energy              =    -980.65216373 Ry
     Harris-Foulkes estimate   =    -980.65217294 Ry
     estimated scf accuracy    <       0.00001687 Ry

     iteration # 14     ecut=   100.00 Ry     beta=0.50
     Davidson diagonalization with overlap
     ethr =  7.53E-09,  avg # of iterations =  4.0

     total cpu time spent up to now is      941.9 secs

     total energy              =    -980.65217371 Ry
     Harris-Foulkes estimate   =    -980.65217449 Ry
     estimated scf accuracy    <       0.00000448 Ry

     iteration # 15     ecut=   100.00 Ry     beta=0.50
     Davidson diagonalization with overlap
     ethr =  2.00E-09,  avg # of iterations =  1.0

     total cpu time spent up to now is      981.3 secs

     total energy              =    -980.65217225 Ry
     Harris-Foulkes estimate   =    -980.65217377 Ry
     estimated scf accuracy    <       0.00000315 Ry

     iteration # 16     ecut=   100.00 Ry     beta=0.50
     Davidson diagonalization with overlap
     ethr =  1.40E-09,  avg # of iterations =  4.0

     total cpu time spent up to now is     1037.0 secs

     total energy              =    -980.65217307 Ry
     Harris-Foulkes estimate   =    -980.65217309 Ry
     estimated scf accuracy    <       0.00000006 Ry

     iteration # 17     ecut=   100.00 Ry     beta=0.50
     Davidson diagonalization with overlap
     ethr =  2.51E-11,  avg # of iterations =  4.0

     total cpu time spent up to now is     1113.0 secs

     total energy              =    -980.65217311 Ry
     Harris-Foulkes estimate   =    -980.65217311 Ry
     estimated scf accuracy    <       0.00000001 Ry

     iteration # 18     ecut=   100.00 Ry     beta=0.50
     Davidson diagonalization with overlap
     ethr =  5.34E-12,  avg # of iterations =  1.0

     total cpu time spent up to now is     1152.3 secs

     End of self-consistent calculation

          k = 0.0000 0.0000 0.0000 ( 91455 PWs)   bands (ev):

   -21.1131 -21.1089 -21.0796 -21.0791 -20.1213 -20.1017 -20.0785 -20.0657
   -15.5008 -15.4795 -15.4246 -15.4139 -13.5876 -13.5704 -13.5175 -13.5034
   -12.5736 -12.5570 -12.3397 -12.3189 -11.5021 -11.4836 -11.3884 -11.3831
   -11.1520 -11.0704 -11.0680 -11.0187  -9.5086  -9.4958  -9.4802  -9.4584
    -8.8172  -8.7045  -8.2323  -8.1910  -7.6378  -7.6130  -7.5662  -7.3047
    -6.8663  -6.8316  -6.8042  -6.7465  -6.3611  -6.2179  -6.1540  -6.1444
    -5.9760  -5.7454  -5.7310  -5.5918  -5.5636  -5.4484  -5.2893  -5.2024
    -5.0782  -5.0749  -4.9647  -4.9561  -4.9309  -4.8855  -4.7375  -4.6771
    -4.2551  -4.2244  -4.1997  -4.1382  -4.0323  -4.0003  -3.9532  -3.9515
    -3.7244  -3.6614  -3.6590  -3.6481  -3.5708  -3.4895  -3.4428  -3.4057
    -3.3961  -3.3003  -3.2483  -3.2265  -3.0568  -2.9752  -2.8470  -2.7674
    -2.7523  -2.6870  -2.6820  -2.6694  -2.4029  -2.3502  -2.2743  -2.1957
    -2.1056  -2.0676  -2.0309  -2.0109  -1.9527  -1.8243  -1.8151  -1.7872
    -0.5654  -0.4585  -0.4429  -0.4318  -0.3026  -0.2993  -0.1910  -0.1909
     3.2575   3.3140   3.4382   3.4827   5.1082   5.3692   5.8973   5.9038
     5.9804   6.1111   6.1554   6.3164   6.6014   6.6593   6.8191   6.9316
     7.0147   7.2066   7.3832   7.4149   7.4943   7.5402

          k = 0.0000 0.0000-0.4311 ( 91440 PWs)   bands (ev):

   -21.1110 -21.1110 -21.0793 -21.0793 -20.1130 -20.1130 -20.0705 -20.0705
   -15.4803 -15.4803 -15.4300 -15.4300 -13.5582 -13.5582 -13.5299 -13.5299
   -12.5651 -12.5651 -12.3306 -12.3306 -11.4687 -11.4687 -11.4145 -11.4145
   -11.1121 -11.1121 -11.0412 -11.0412  -9.4790  -9.4790  -9.4742  -9.4742
    -8.7301  -8.7301  -8.3131  -8.3131  -7.6640  -7.6640  -7.3293  -7.3293
    -6.8624  -6.8624  -6.7581  -6.7581  -6.2826  -6.2826  -6.1943  -6.1943
    -5.8750  -5.8750  -5.5969  -5.5969  -5.4592  -5.4592  -5.2573  -5.2573
    -5.0820  -5.0820  -5.0359  -5.0359  -4.8918  -4.8917  -4.6876  -4.6876
    -4.3088  -4.3088  -4.1849  -4.1849  -3.9754  -3.9754  -3.8515  -3.8515
    -3.7596  -3.7596  -3.6843  -3.6843  -3.6561  -3.6561  -3.3894  -3.3894
    -3.3114  -3.3114  -3.2045  -3.2045  -2.9487  -2.9487  -2.8238  -2.8238
    -2.7624  -2.7624  -2.6891  -2.6891  -2.3614  -2.3614  -2.1687  -2.1687
    -2.0550  -2.0550  -1.9941  -1.9941  -1.9026  -1.9026  -1.8482  -1.8482
    -0.5252  -0.5251  -0.4634  -0.4634  -0.2882  -0.2882  -0.2009  -0.2009
     3.2824   3.2824   3.4619   3.4619   5.3012   5.3012   5.7529   5.7529
     6.2294   6.2294   6.2984   6.2984   6.3793   6.3793   6.8883   6.8883
     7.1187   7.1187   7.3947   7.3947   7.7035   7.7035

          k = 0.0000 0.4899 0.0000 ( 91379 PWs)   bands (ev):

   -21.1048 -21.1015 -21.0881 -21.0865 -20.1078 -20.0951 -20.0855 -20.0780
   -15.4863 -15.4578 -15.4494 -15.4238 -13.5655 -13.5583 -13.5391 -13.5166
   -12.5357 -12.4866 -12.4196 -12.3693 -11.5047 -11.4578 -11.4439 -11.3898
   -11.1267 -11.0945 -11.0500 -11.0294  -9.5179  -9.5061  -9.4513  -9.4443
    -8.6839  -8.6506  -8.4177  -8.3730  -7.5573  -7.4910  -7.4739  -7.3857
    -6.8553  -6.8509  -6.7478  -6.7246  -6.3364  -6.2214  -6.1632  -6.1258
    -5.8651  -5.7265  -5.6964  -5.6571  -5.5063  -5.3682  -5.3420  -5.2493
    -5.1173  -5.1093  -5.0258  -4.9596  -4.8587  -4.8429  -4.8117  -4.7506
    -4.2678  -4.2072  -4.1864  -4.1446  -3.9730  -3.9556  -3.9203  -3.8801
    -3.7993  -3.7193  -3.6405  -3.5995  -3.5587  -3.5510  -3.4947  -3.4876
    -3.3245  -3.3072  -3.2757  -3.1813  -3.0473  -2.9398  -2.9265  -2.8023
    -2.7919  -2.7666  -2.6880  -2.6182  -2.4138  -2.3365  -2.1712  -2.1288
    -2.1152  -2.0960  -2.0743  -1.9871  -1.9532  -1.9473  -1.8701  -1.8002
    -0.5418  -0.4948  -0.4215  -0.4211  -0.2955  -0.2826  -0.2635  -0.2094
     3.2363   3.2684   3.4251   3.4424   5.3876   5.4447   5.8696   6.0627
     6.2025   6.2245   6.3357   6.3369   6.5864   6.6522   6.8404   6.8574
     6.9989   7.0601   7.3307   7.4414   7.4435   7.5652

          k = 0.0000 0.4899-0.4311 ( 91406 PWs)   bands (ev):

   -21.1032 -21.1032 -21.0873 -21.0873 -20.1026 -20.1026 -20.0806 -20.0806
   -15.4722 -15.4722 -15.4365 -15.4365 -13.5547 -13.5547 -13.5359 -13.5359
   -12.5158 -12.5157 -12.3904 -12.3904 -11.4837 -11.4837 -11.4088 -11.4088
   -11.0959 -11.0959 -11.0544 -11.0544  -9.5258  -9.5258  -9.4584  -9.4584
    -8.6322  -8.6322  -8.4124  -8.4124  -7.5634  -7.5634  -7.3736  -7.3736
    -6.8296  -6.8296  -6.7550  -6.7550  -6.2399  -6.2399  -6.1785  -6.1785
    -5.8494  -5.8494  -5.7002  -5.7002  -5.4017  -5.4017  -5.2957  -5.2957
    -5.0814  -5.0814  -5.0054  -5.0054  -4.8883  -4.8883  -4.7839  -4.7839
    -4.2319  -4.2319  -4.1426  -4.1426  -3.9451  -3.9451  -3.8874  -3.8874
    -3.7678  -3.7678  -3.6450  -3.6449  -3.5858  -3.5858  -3.4619  -3.4619
    -3.3281  -3.3281  -3.2093  -3.2093  -2.9574  -2.9574  -2.8638  -2.8638
    -2.7470  -2.7470  -2.6909  -2.6909  -2.3478  -2.3478  -2.1930  -2.1930
    -2.1505  -2.1505  -2.0169  -2.0169  -1.9153  -1.9153  -1.8530  -1.8530
    -0.5192  -0.5192  -0.4228  -0.4228  -0.2958  -0.2957  -0.2260  -0.2260
     3.2538   3.2538   3.4322   3.4322   5.4609   5.4609   5.9256   5.9256
     6.1595   6.1595   6.4583   6.4583   6.6156   6.6156   6.7128   6.7129
     7.0189   7.0189   7.3078   7.3079   7.5504   7.5504

          k =-0.5000 0.0000-0.1849 ( 91442 PWs)   bands (ev):

   -21.1110 -21.1110 -21.0793 -21.0793 -20.1131 -20.1131 -20.0705 -20.0705
   -15.4908 -15.4908 -15.4188 -15.4188 -13.5800 -13.5800 -13.5088 -13.5088
   -12.5651 -12.5651 -12.3294 -12.3294 -11.4954 -11.4954 -11.3851 -11.3851
   -11.1056 -11.1056 -11.0480 -11.0480  -9.5033  -9.5033  -9.4706  -9.4706
    -8.7648  -8.7648  -8.2110  -8.2110  -7.6270  -7.6270  -7.4260  -7.4260
    -6.8264  -6.8264  -6.7898  -6.7898  -6.2979  -6.2979  -6.1341  -6.1341
    -5.9468  -5.9468  -5.6528  -5.6528  -5.5117  -5.5117  -5.1827  -5.1827
    -5.0449  -5.0448  -5.0135  -5.0135  -4.8815  -4.8815  -4.7020  -4.7020
    -4.2560  -4.2560  -4.1642  -4.1642  -3.9906  -3.9906  -3.8624  -3.8624
    -3.8349  -3.8349  -3.6263  -3.6263  -3.4732  -3.4732  -3.4591  -3.4591
    -3.3446  -3.3446  -3.2583  -3.2583  -3.0087  -3.0087  -2.8523  -2.8523
    -2.7128  -2.7128  -2.6413  -2.6413  -2.3389  -2.3389  -2.1619  -2.1619
    -2.1102  -2.1102  -2.0344  -2.0344  -1.9526  -1.9526  -1.8504  -1.8504
    -0.4999  -0.4999  -0.4197  -0.4197  -0.2954  -0.2954  -0.1962  -0.1962
     3.2944   3.2944   3.4555   3.4555   5.2891   5.2891   5.7796   5.7796
     6.2461   6.2461   6.3035   6.3035   6.6275   6.6275   6.7605   6.7605
     6.8707   6.8707   7.4968   7.4968   7.6640   7.6640

          k =-0.5000 0.0000-0.6160 ( 91386 PWs)   bands (ev):

   -21.1123 -21.1097 -21.0803 -21.0783 -20.1212 -20.1018 -20.0784 -20.0657
   -15.4881 -15.4700 -15.4350 -15.4278 -13.5654 -13.5457 -13.5412 -13.5226
   -12.5664 -12.5639 -12.3314 -12.3298 -11.4835 -11.4524 -11.4141 -11.4120
   -11.1456 -11.0792 -11.0611 -11.0259  -9.4962  -9.4856  -9.4721  -9.4511
    -8.7458  -8.7215  -8.3701  -8.2557  -7.6867  -7.6289  -7.3719  -7.2767
    -6.8584  -6.7974  -6.7933  -6.7827  -6.3058  -6.2520  -6.1998  -6.1977
    -5.9706  -5.8454  -5.6933  -5.6074  -5.4671  -5.3936  -5.3477  -5.2376
    -5.0563  -5.0430  -5.0323  -4.9798  -4.8905  -4.8128  -4.6841  -4.6694
    -4.2939  -4.2813  -4.2180  -4.1319  -3.9493  -3.9341  -3.9260  -3.8922
    -3.8160  -3.8078  -3.6764  -3.6537  -3.5679  -3.5391  -3.4618  -3.3415
    -3.3256  -3.2983  -3.2797  -3.2435  -3.0745  -2.9943  -2.9466  -2.9042
    -2.7403  -2.7114  -2.6730  -2.5312  -2.3224  -2.2176  -2.1287  -2.1249
    -2.1035  -2.0638  -2.0440  -2.0180  -2.0135  -1.9612  -1.9020  -1.7654
    -0.5659  -0.4836  -0.4444  -0.4201  -0.3041  -0.2996  -0.1917  -0.1909
     3.2780   3.3190   3.4358   3.4663   5.2484   5.4795   5.4877   6.0691
     6.1612   6.1956   6.3005   6.3153   6.5101   6.5540   6.7719   6.7830
     6.9288   7.0395   7.3092   7.4855   7.5450   7.5490

          k =-0.5000 0.4899-0.1849 ( 91406 PWs)   bands (ev):

   -21.1032 -21.1032 -21.0873 -21.0873 -20.1026 -20.1026 -20.0806 -20.0806
   -15.4773 -15.4773 -15.4315 -15.4315 -13.5678 -13.5678 -13.5213 -13.5213
   -12.5132 -12.5132 -12.3925 -12.3925 -11.4783 -11.4783 -11.4236 -11.4236
   -11.0962 -11.0962 -11.0515 -11.0515  -9.5006  -9.5006  -9.4609  -9.4609
    -8.6645  -8.6645  -8.3918  -8.3918  -7.5276  -7.5276  -7.4349  -7.4349
    -6.8399  -6.8399  -6.7586  -6.7586  -6.2523  -6.2523  -6.1559  -6.1559
    -5.8579  -5.8579  -5.6743  -5.6743  -5.4183  -5.4183  -5.2569  -5.2569
    -5.0462  -5.0461  -5.0183  -5.0183  -4.8638  -4.8638  -4.7716  -4.7716
    -4.2453  -4.2453  -4.1672  -4.1672  -4.0045  -4.0045  -3.9201  -3.9201
    -3.7273  -3.7273  -3.6469  -3.6469  -3.5127  -3.5127  -3.4520  -3.4520
    -3.3680  -3.3680  -3.2885  -3.2885  -2.9560  -2.9560  -2.8046  -2.8046
    -2.7742  -2.7742  -2.6521  -2.6521  -2.4309  -2.4309  -2.1545  -2.1545
    -2.1044  -2.1044  -2.0337  -2.0337  -1.9256  -1.9256  -1.8608  -1.8608
    -0.5028  -0.5028  -0.4317  -0.4317  -0.2938  -0.2938  -0.2188  -0.2188
     3.2588   3.2588   3.4268   3.4269   5.3892   5.3892   6.0019   6.0019
     6.1434   6.1434   6.5368   6.5368   6.6629   6.6629   6.8192   6.8192
     7.0189   7.0189   7.2271   7.2271   7.4283   7.4283

          k =-0.5000 0.4899-0.6160 ( 91418 PWs)   bands (ev):

   -21.1042 -21.1021 -21.0883 -21.0864 -20.1077 -20.0952 -20.0855 -20.0780
   -15.4817 -15.4566 -15.4511 -15.4284 -13.5664 -13.5563 -13.5349 -13.5224
   -12.5264 -12.4955 -12.4121 -12.3786 -11.4744 -11.4465 -11.4389 -11.4261
   -11.1262 -11.1015 -11.0427 -11.0302  -9.5397  -9.5081  -9.4755  -9.4435
    -8.6855  -8.5713  -8.4239  -8.4049  -7.5756  -7.5361  -7.4159  -7.3545
    -6.8591  -6.8500  -6.7453  -6.7211  -6.2932  -6.2026  -6.1690  -6.1681
    -5.9597  -5.8273  -5.6709  -5.6153  -5.5550  -5.3497  -5.2785  -5.2312
    -5.1249  -5.1039  -4.9704  -4.9282  -4.9059  -4.8390  -4.8163  -4.7047
    -4.2355  -4.2210  -4.2001  -4.1346  -3.9997  -3.9910  -3.8992  -3.8891
    -3.7449  -3.6961  -3.6911  -3.6551  -3.5502  -3.4737  -3.4716  -3.4020
    -3.3922  -3.3313  -3.3127  -3.2932  -2.9501  -2.9166  -2.9102  -2.8794
    -2.7725  -2.7316  -2.6711  -2.6092  -2.4602  -2.3631  -2.2050  -2.1765
    -2.1640  -2.1449  -2.0600  -1.9698  -1.9451  -1.8549  -1.8331  -1.8320
    -0.5277  -0.4985  -0.4350  -0.4084  -0.2918  -0.2683  -0.2552  -0.2028
     3.2471   3.2708   3.4224   3.4328   5.3609   5.4953   5.7602   6.0657
     6.2349   6.2674   6.3201   6.5382   6.6211   6.6277   6.7356   6.8793
     6.8866   7.2240   7.2359   7.4058   7.4140   7.5450

     highest occupied, lowest unoccupied level (ev):    -0.1909    3.2363

!    total energy              =    -980.65217311 Ry
     Harris-Foulkes estimate   =    -980.65217311 Ry
     estimated scf accuracy    <          3.4E-09 Ry

     total all-electron energy =     -3699.878350 Ry

     The total energy is the sum of the following terms:

     one-electron contribution =    -608.19532650 Ry
     hartree contribution      =     383.01558988 Ry
     xc contribution           =    -226.45496078 Ry
     ewald contribution        =    -239.69249054 Ry
     Dispersion Correction     =      -0.36269609 Ry
     one-center paw contrib.   =    -288.96228907 Ry

     convergence has been achieved in  18 iterations

     Forces acting on atoms (cartesian axes, Ry/au):

     atom    1 type  4   force =     0.00181643    0.00088226    0.00018145
     atom    2 type  4   force =    -0.00181434    0.00088540   -0.00018144
     atom    3 type  4   force =    -0.00181643   -0.00088226   -0.00018145
     atom    4 type  4   force =     0.00181434   -0.00088540    0.00018144
     atom    5 type  3   force =     0.00003903   -0.00056148    0.00005950
     atom    6 type  3   force =    -0.00003872   -0.00056133   -0.00005989
     atom    7 type  3   force =    -0.00003903    0.00056148   -0.00005950
     atom    8 type  3   force =     0.00003872    0.00056133    0.00005989
     atom    9 type  4   force =    -0.00092106   -0.00030421    0.00039004
     atom   10 type  4   force =     0.00092341   -0.00030598   -0.00039012
     atom   11 type  4   force =     0.00092106    0.00030421   -0.00039004
     atom   12 type  4   force =    -0.00092341    0.00030598    0.00039012
     atom   13 type  1   force =     0.00017095    0.00001046   -0.00169352
     atom   14 type  1   force =    -0.00016799    0.00000741    0.00169405
     atom   15 type  1   force =    -0.00017095   -0.00001046    0.00169352
     atom   16 type  1   force =     0.00016799   -0.00000741   -0.00169405
     atom   17 type  1   force =    -0.00004192    0.00024988    0.00046884
     atom   18 type  1   force =     0.00004264    0.00024824   -0.00047127
     atom   19 type  1   force =     0.00004192   -0.00024988   -0.00046884
     atom   20 type  1   force =    -0.00004264   -0.00024824    0.00047127
     atom   21 type  3   force =     0.00053587    0.00001476   -0.00041347
     atom   22 type  3   force =    -0.00053505    0.00001414    0.00041377
     atom   23 type  3   force =    -0.00053587   -0.00001476    0.00041347
     atom   24 type  3   force =     0.00053505   -0.00001414   -0.00041377
     atom   25 type  1   force =    -0.00000479   -0.00017646   -0.00041752
     atom   26 type  1   force =     0.00000391   -0.00017905    0.00041480
     atom   27 type  1   force =     0.00000479    0.00017646    0.00041752
     atom   28 type  1   force =    -0.00000391    0.00017905   -0.00041480
     atom   29 type  1   force =     0.00034490   -0.00144079   -0.00034862
     atom   30 type  1   force =    -0.00033795   -0.00144190    0.00035016
     atom   31 type  1   force =    -0.00034490    0.00144079    0.00034862
     atom   32 type  1   force =     0.00033795    0.00144190   -0.00035016
     atom   33 type  3   force =    -0.00016926    0.00065137    0.00054039
     atom   34 type  3   force =     0.00016958    0.00065121   -0.00054022
     atom   35 type  3   force =     0.00016926   -0.00065137   -0.00054039
     atom   36 type  3   force =    -0.00016958   -0.00065121    0.00054022
     atom   37 type  3   force =     0.00067211   -0.00011937   -0.00017915
     atom   38 type  3   force =    -0.00067190   -0.00011920    0.00017929
     atom   39 type  3   force =    -0.00067211    0.00011937    0.00017915
     atom   40 type  3   force =     0.00067190    0.00011920   -0.00017929
     atom   41 type  1   force =     0.00027636    0.00459350    0.00198962
     atom   42 type  1   force =    -0.00027053    0.00459259   -0.00198742
     atom   43 type  1   force =    -0.00027636   -0.00459350   -0.00198962
     atom   44 type  1   force =     0.00027053   -0.00459259    0.00198742
     atom   45 type  1   force =    -0.00473072   -0.00322482   -0.00090698
     atom   46 type  1   force =     0.00473220   -0.00322384    0.00091058
     atom   47 type  1   force =     0.00473072    0.00322482    0.00090698
     atom   48 type  1   force =    -0.00473220    0.00322384   -0.00091058
     atom   49 type  3   force =    -0.00023331   -0.00174047    0.00044782
     atom   50 type  3   force =     0.00023395   -0.00174029   -0.00044749
     atom   51 type  3   force =     0.00023331    0.00174047   -0.00044782
     atom   52 type  3   force =    -0.00023395    0.00174029    0.00044749
     atom   53 type  3   force =     0.00018051    0.00094887   -0.00006996
     atom   54 type  3   force =    -0.00018013    0.00094922    0.00007066
     atom   55 type  3   force =    -0.00018051   -0.00094887    0.00006996
     atom   56 type  3   force =     0.00018013   -0.00094922   -0.00007066
     atom   57 type  1   force =    -0.00019104   -0.00052209   -0.00078612
     atom   58 type  1   force =     0.00019987   -0.00052304    0.00078968
     atom   59 type  1   force =     0.00019104    0.00052209    0.00078612
     atom   60 type  1   force =    -0.00019987    0.00052304   -0.00078968
     atom   61 type  3   force =    -0.00003620   -0.00076037   -0.00014383
     atom   62 type  3   force =     0.00003676   -0.00076035    0.00014391
     atom   63 type  3   force =     0.00003620    0.00076037    0.00014383
     atom   64 type  3   force =    -0.00003676    0.00076035   -0.00014391
     atom   65 type  3   force =     0.00121789    0.00033703   -0.00033456
     atom   66 type  3   force =    -0.00121826    0.00033720    0.00033477
     atom   67 type  3   force =    -0.00121789   -0.00033703    0.00033456
     atom   68 type  3   force =     0.00121826   -0.00033720   -0.00033477
     atom   69 type  3   force =    -0.00048576   -0.00030520   -0.00006799
     atom   70 type  3   force =     0.00048655   -0.00030523    0.00006813
     atom   71 type  3   force =     0.00048576    0.00030520    0.00006799
     atom   72 type  3   force =    -0.00048655    0.00030523   -0.00006813
     atom   73 type  1   force =     0.00138599   -0.00452251   -0.00125292
     atom   74 type  1   force =    -0.00137972   -0.00452506    0.00125319
     atom   75 type  1   force =    -0.00138599    0.00452251    0.00125292
     atom   76 type  1   force =     0.00137972    0.00452506   -0.00125319
     atom   77 type  3   force =     0.00250998    0.00339535    0.00113296
     atom   78 type  3   force =    -0.00250931    0.00339511   -0.00113269
     atom   79 type  3   force =    -0.00250998   -0.00339535   -0.00113296
     atom   80 type  3   force =     0.00250931   -0.00339511    0.00113269
     atom   81 type  3   force =     0.00012098    0.00029997    0.00000204
     atom   82 type  3   force =    -0.00012104    0.00029974   -0.00000170
     atom   83 type  3   force =    -0.00012098   -0.00029997   -0.00000204
     atom   84 type  3   force =     0.00012104   -0.00029974    0.00000170
     atom   85 type  3   force =    -0.00008445   -0.00038562   -0.00061076
     atom   86 type  3   force =     0.00008496   -0.00038592    0.00061073
     atom   87 type  3   force =     0.00008445    0.00038562    0.00061076
     atom   88 type  3   force =    -0.00008496    0.00038592   -0.00061073

     Total force =     0.022195     Total SCF correction =     0.000085


     Computing stress (Cartesian axis) and pressure

          total   stress  (Ry/bohr**3)                   (kbar)     P=   -4.29
  -0.00003909   0.00000000   0.00000256         -5.75      0.00      0.38
   0.00000000  -0.00001665   0.00000000          0.00     -2.45      0.00
   0.00000256   0.00000000  -0.00003174          0.38      0.00     -4.67


     Writing output data file scf.save
 
     init_run     :     32.89s CPU     34.13s WALL (       1 calls)
     electrons    :   1077.27s CPU   1117.60s WALL (       1 calls)
     forces       :     16.13s CPU     16.28s WALL (       1 calls)
     stress       :     55.52s CPU     55.75s WALL (       1 calls)

     Called by init_run:
     wfcinit      :     23.67s CPU     24.79s WALL (       1 calls)
     potinit      :      3.20s CPU      3.22s WALL (       1 calls)

     Called by electrons:
     c_bands      :    962.75s CPU    997.64s WALL (      18 calls)
     sum_band     :    101.79s CPU    106.02s WALL (      18 calls)
     v_of_rho     :      2.19s CPU      2.34s WALL (      19 calls)
     newd         :      4.56s CPU      5.58s WALL (      19 calls)
     PAW_pot      :      5.33s CPU      5.33s WALL (      19 calls)
     mix_rho      :      0.49s CPU      0.54s WALL (      18 calls)

     Called by c_bands:
     init_us_2    :      5.76s CPU      5.79s WALL (     312 calls)
     cegterg      :    940.25s CPU    975.08s WALL (     144 calls)

     Called by sum_band:
     sum_band:bec :      0.05s CPU      0.05s WALL (     144 calls)
     addusdens    :      4.69s CPU      5.67s WALL (      18 calls)

     Called by *egterg:
     h_psi        :    545.58s CPU    572.42s WALL (     714 calls)
     s_psi        :     97.45s CPU     97.46s WALL (     714 calls)
     g_psi        :      2.75s CPU      2.75s WALL (     562 calls)
     cdiaghg      :     33.35s CPU     33.46s WALL (     706 calls)

     Called by h_psi:
     h_psi:pot    :    542.06s CPU    568.83s WALL (     714 calls)
     h_psi:calbec :    103.39s CPU    103.64s WALL (     714 calls)
     vloc_psi     :    341.41s CPU    367.90s WALL (     714 calls)
     add_vuspsi   :     97.26s CPU     97.28s WALL (     714 calls)

     General routines
     calbec       :    148.95s CPU    149.32s WALL (     898 calls)
     fft          :      2.80s CPU      3.07s WALL (     271 calls)
     fftw         :    367.13s CPU    396.35s WALL (  137422 calls)
 
     Parallel routines
     fft_scatter  :     99.10s CPU    124.59s WALL (  137693 calls)
 
     PWSCF        : 19m48.74s CPU    21m 2.40s WALL

 
   This run was terminated on:   4:25:49  13Dec2017            

=------------------------------------------------------------------------------=
   JOB DONE.
=------------------------------------------------------------------------------=
