
     Program PWSCF v.6.1 (svn rev. 13369) starts on  4Nov2017 at  6:25:36 

     This program is part of the open-source Quantum ESPRESSO suite
     for quantum simulation of materials; please cite
         "P. Giannozzi et al., J. Phys.:Condens. Matter 21 395502 (2009);
          URL http://www.quantum-espresso.org", 
     in publications or presentations arising from this work. More details at
     http://www.quantum-espresso.org/quote

     Parallel version (MPI), running on     8 processors
     R & G space division:  proc/nbgrp/npool/nimage =       8
     Waiting for input...
     Reading input from standard input

     Current dimensions of program PWSCF are:
     Max number of different atomic species (ntypx) = 10
     Max number of k-points (npk) =  40000
     Max angular momentum in pseudopotentials (lmaxx) =  3
               file C.pbe-n-kjpaw_psl.0.1.UPF: wavefunction(s)  2P renormalized
               file N.pbe-n-kjpaw_psl.0.1.UPF: wavefunction(s)  2P renormalized
               file H.pbe-kjpaw_psl.0.1.UPF: wavefunction(s)  1S renormalized
               file O.pbe-n-kjpaw_psl.0.1.UPF: wavefunction(s)  2P renormalized

     -------------------------------------
     Parameters for Dispersion Correction:
     -------------------------------------
       atom      VdW radius       C_6     

        C          2.744         60.710
        N          2.640         42.670
        H          1.892          4.857
        O          2.536         24.284

     Subspace diagonalization in iterative solution of the eigenvalue problem:
     a serial algorithm will be used

 
     Parallelization info
     --------------------
     sticks:   dense  smooth     PW     G-vecs:    dense   smooth      PW
     Min        1632    1632    430                89306    89306   12105
     Max        1636    1636    432                89307    89307   12106
     Sum       13063   13063   3445               714449   714449   96847
 


     bravais-lattice index     =            0
     lattice parameter (alat)  =      23.1170  a.u.
     unit-cell volume          =    5289.3770 (a.u.)^3
     number of atoms/cell      =           80
     number of atomic types    =            4
     number of electrons       =       280.00
     number of Kohn-Sham states=          168
     kinetic-energy cutoff     =     100.0000  Ry
     charge density cutoff     =     400.0000  Ry
     convergence threshold     =      1.0E-08
     mixing beta               =       0.5000
     number of iterations used =            8  plain     mixing
     Exchange-correlation      =  SLA  PW   PBX  PBC ( 1  4  3  4 0 0)

     celldm(1)=  23.117020  celldm(2)=   0.000000  celldm(3)=   0.000000
     celldm(4)=   0.000000  celldm(5)=   0.000000  celldm(6)=   0.000000

     crystal axes: (cart. coord. in units of alat)
               a(1) = (   1.000000   0.000000   0.000000 )  
               a(2) = (   0.000000   0.768332   0.000000 )  
               a(3) = (   0.000000   0.000000   0.557263 )  

     reciprocal axes: (cart. coord. in units 2 pi/alat)
               b(1) = (  1.000000  0.000000  0.000000 )  
               b(2) = (  0.000000  1.301521  0.000000 )  
               b(3) = (  0.000000  0.000000  1.794484 )  


     PseudoPot. # 1 for  C read from file:
     /scratch/ahofstet/pseudo/C.pbe-n-kjpaw_psl.0.1.UPF
     MD5 check sum: 430fe95172b1e11ef3f8ed03bac87931
     Pseudo is Projector augmented-wave + core cor, Zval =  4.0
     Generated using "atomic" code by A. Dal Corso  v.5.0.99 svn rev. 10869
     Shape of augmentation charge: BESSEL
     Using radial grid of 1073 points,  4 beta functions with: 
                l(1) =   0
                l(2) =   0
                l(3) =   1
                l(4) =   1
     Q(r) pseudized with 0 coefficients 


     PseudoPot. # 2 for  N read from file:
     /scratch/ahofstet/pseudo/N.pbe-n-kjpaw_psl.0.1.UPF
     MD5 check sum: f73187c8b701007e77325f868c9291d7
     Pseudo is Projector augmented-wave + core cor, Zval =  5.0
     Generated using "atomic" code by A. Dal Corso  v.5.0.99 svn rev. 10869
     Shape of augmentation charge: PSQ
     Using radial grid of 1085 points,  4 beta functions with: 
                l(1) =   0
                l(2) =   0
                l(3) =   1
                l(4) =   1
     Q(r) pseudized with 0 coefficients 


     PseudoPot. # 3 for  H read from file:
     /scratch/ahofstet/pseudo/H.pbe-kjpaw_psl.0.1.UPF
     MD5 check sum: 94e484f906d9e9773b2f6e52662335b2
     Pseudo is Projector augmented-wave, Zval =  1.0
     Generated using "atomic" code by A. Dal Corso  v.5.0.99 svn rev. 10869
     Shape of augmentation charge: PSQ
     Using radial grid of  929 points,  2 beta functions with: 
                l(1) =   0
                l(2) =   0
     Q(r) pseudized with 0 coefficients 


     PseudoPot. # 4 for  O read from file:
     /scratch/ahofstet/pseudo/O.pbe-n-kjpaw_psl.0.1.UPF
     MD5 check sum: 3f94a2996a3169367d6eb21d9b593f20
     Pseudo is Projector augmented-wave + core cor, Zval =  6.0
     Generated using "atomic" code by A. Dal Corso  v.5.0.99 svn rev. 10869
     Shape of augmentation charge: BESSEL
     Using radial grid of 1095 points,  4 beta functions with: 
                l(1) =   0
                l(2) =   0
                l(3) =   1
                l(4) =   1
     Q(r) pseudized with 0 coefficients 


     atomic species   valence    mass     pseudopotential
        C              4.00    12.01070      C( 1.00)
        N              5.00    14.00670      N( 1.00)
        H              1.00     1.00794      H( 1.00)
        O              6.00    15.99940      O( 1.00)

      4 Sym. Ops. (no inversion) found ( 3 have fractional translation)



   Cartesian axes

     site n.     atom                  positions (alat units)
         1           C   tau(   1) = (   0.2555088   0.3134980   0.0773193  )
         2           C   tau(   2) = (   0.7555088   0.0706678   0.4799439  )
         3           C   tau(   3) = (   0.7444912   0.6976638   0.2013123  )
         4           C   tau(   4) = (   0.2444912   0.4548336   0.3559508  )
         5           C   tau(   5) = (   0.3683989   0.3300106   0.0674820  )
         6           C   tau(   6) = (   0.8683989   0.0541552   0.4897811  )
         7           C   tau(   7) = (   0.6316011   0.7141763   0.2111496  )
         8           C   tau(   8) = (   0.1316011   0.4383210   0.3461136  )
         9           C   tau(   9) = (   0.4368271   0.2395397   0.0633278  )
        10           C   tau(  10) = (   0.9368271   0.1446261   0.4939354  )
        11           C   tau(  11) = (   0.5631729   0.6237055   0.2153038  )
        12           C   tau(  12) = (   0.0631729   0.5287919   0.3419593  )
        13           C   tau(  13) = (   0.3902085   0.1359776   0.0699989  )
        14           C   tau(  14) = (   0.8902085   0.2481881   0.4872643  )
        15           C   tau(  15) = (   0.6097915   0.5201434   0.2086327  )
        16           C   tau(  16) = (   0.1097915   0.6323539   0.3486305  )
        17           C   tau(  17) = (   0.2764698   0.1269287   0.0802941  )
        18           C   tau(  18) = (   0.7764698   0.2572371   0.4769690  )
        19           C   tau(  19) = (   0.7235302   0.5110945   0.1983375  )
        20           C   tau(  20) = (   0.2235302   0.6414029   0.3589257  )
        21           C   tau(  21) = (   0.1836321   0.4135921   0.0798404  )
        22           C   tau(  22) = (   0.6836321   0.7389053   0.4774227  )
        23           C   tau(  23) = (   0.8163679   0.0294263   0.1987912  )
        24           C   tau(  24) = (   0.3163679   0.3547395   0.3584720  )
        25           C   tau(  25) = (   0.2232632   0.0159367   0.0848231  )
        26           C   tau(  26) = (   0.7232632   0.3682291   0.4724400  )
        27           C   tau(  27) = (   0.7767368   0.4001024   0.1938084  )
        28           C   tau(  28) = (   0.2767368   0.7523949   0.3634547  )
        29           H   tau(  29) = (   0.3998680   0.4131225   0.0611363  )
        30           H   tau(  30) = (   0.8998680   0.7393748   0.4961268  )
        31           H   tau(  31) = (   0.6001320   0.0289567   0.2174953  )
        32           H   tau(  32) = (   0.1001320   0.3552090   0.3397679  )
        33           H   tau(  33) = (   0.5247328   0.2496810   0.0532727  )
        34           H   tau(  34) = (   0.0247328   0.1344847   0.5039904  )
        35           H   tau(  35) = (   0.4752672   0.6338468   0.2253588  )
        36           H   tau(  36) = (   0.9752672   0.5186505   0.3319043  )
        37           H   tau(  37) = (   0.4406077   0.0629601   0.0652544  )
        38           H   tau(  38) = (   0.9406077   0.3212057   0.4920087  )
        39           H   tau(  39) = (   0.5593923   0.4471259   0.2133771  )
        40           H   tau(  40) = (   0.0593923   0.7053714   0.3438860  )
        41           H   tau(  41) = (   0.0367847   0.4738327   0.0753812  )
        42           H   tau(  42) = (   0.5367847   0.6786646   0.4818820  )
        43           H   tau(  43) = (   0.9632153   0.0896669   0.2032504  )
        44           H   tau(  44) = (   0.4632153   0.2944988   0.3540127  )
        45           H   tau(  45) = (   0.2613286   0.6307419   0.0919895  )
        46           H   tau(  46) = (   0.7613286   0.5217555   0.4652737  )
        47           H   tau(  47) = (   0.7386714   0.2465761   0.1866421  )
        48           H   tau(  48) = (   0.2386714   0.1375897   0.3706211  )
        49           H   tau(  49) = (   0.0354090   0.6399150   0.0867695  )
        50           H   tau(  50) = (   0.5354090   0.5125823   0.4704936  )
        51           H   tau(  51) = (   0.9645910   0.2557493   0.1918620  )
        52           H   tau(  52) = (   0.4645910   0.1284165   0.3654011  )
        53           H   tau(  53) = (   0.9233607   0.5862293   0.1277966  )
        54           H   tau(  54) = (   0.4233607   0.5662681   0.4294666  )
        55           H   tau(  55) = (   0.0766393   0.2020635   0.1508350  )
        56           H   tau(  56) = (   0.5766393   0.1821023   0.4064281  )
        57           N   tau(  57) = (   0.2096834   0.2140931   0.0837331  )
        58           N   tau(  58) = (   0.7096834   0.1700727   0.4735300  )
        59           N   tau(  59) = (   0.7903166   0.5982589   0.1948984  )
        60           N   tau(  60) = (   0.2903166   0.5542384   0.3623647  )
        61           O   tau(  61) = (   0.2259633   0.5047068   0.0896297  )
        62           O   tau(  62) = (   0.7259633   0.6477906   0.4676335  )
        63           O   tau(  63) = (   0.7740367   0.1205410   0.1890019  )
        64           O   tau(  64) = (   0.2740367   0.2636248   0.3682612  )
        65           O   tau(  65) = (   0.0787057   0.3964732   0.0705074  )
        66           O   tau(  66) = (   0.5787057   0.7560242   0.4867557  )
        67           O   tau(  67) = (   0.9212943   0.0123074   0.2081242  )
        68           O   tau(  68) = (   0.4212943   0.3718584   0.3491390  )
        69           O   tau(  69) = (   0.1240866   0.0018958   0.0797760  )
        70           O   tau(  70) = (   0.6240866   0.3822700   0.4774871  )
        71           O   tau(  71) = (   0.8759134   0.3860615   0.1988556  )
        72           O   tau(  72) = (   0.3759134   0.7664358   0.3584076  )
        73           O   tau(  73) = (   0.2969241   0.7047028   0.0934366  )
        74           O   tau(  74) = (   0.7969241   0.4477946   0.4638265  )
        75           O   tau(  75) = (   0.7030759   0.3205370   0.1851949  )
        76           O   tau(  76) = (   0.2030759   0.0636288   0.3720682  )
        77           O   tau(  77) = (   0.9847742   0.5785551   0.0744696  )
        78           O   tau(  78) = (   0.4847742   0.5739422   0.4827936  )
        79           O   tau(  79) = (   0.0152258   0.1943894   0.2041620  )
        80           O   tau(  80) = (   0.5152258   0.1897764   0.3531011  )

     number of k points=     8
                       cart. coord. in units 2pi/alat
        k(    1) = (   0.0000000   0.0000000   0.0000000), wk =   0.1666667
        k(    2) = (   0.0000000   0.0000000   0.5981615), wk =   0.3333333
        k(    3) = (   0.0000000  -0.6507607   0.0000000), wk =   0.1666667
        k(    4) = (   0.0000000  -0.6507607   0.5981615), wk =   0.3333333
        k(    5) = (  -0.5000000   0.0000000   0.0000000), wk =   0.1666667
        k(    6) = (  -0.5000000   0.0000000   0.5981615), wk =   0.3333333
        k(    7) = (  -0.5000000  -0.6507607   0.0000000), wk =   0.1666667
        k(    8) = (  -0.5000000  -0.6507607   0.5981615), wk =   0.3333333

     Dense  grid:   714449 G-vectors     FFT dimensions: ( 150, 120,  90)

     Estimated max dynamical RAM per process >     636.65MB

     Estimated total allocated dynamical RAM >    5093.24MB

     Check: negative/imaginary core charge=   -0.000003    0.000000

     Initial potential from superposition of free atoms

     starting charge  279.99851, renormalised to  280.00000
     Starting wfc are  236 randomized atomic wfcs
     Checking if some PAW data can be deallocated... 

     total cpu time spent up to now is       33.4 secs

     per-process dynamical memory:   444.3 Mb

     Self-consistent Calculation

     iteration #  1     ecut=   100.00 Ry     beta=0.50
     Davidson diagonalization with overlap
     ethr =  1.00E-02,  avg # of iterations =  3.1

     total cpu time spent up to now is      135.4 secs

     total energy              =   -1494.27056995 Ry
     Harris-Foulkes estimate   =   -1498.90622899 Ry
     estimated scf accuracy    <       8.35132477 Ry

     iteration #  2     ecut=   100.00 Ry     beta=0.50
     Davidson diagonalization with overlap
     ethr =  2.98E-03,  avg # of iterations =  3.0

     total cpu time spent up to now is      199.1 secs

     total energy              =   -1495.64404378 Ry
     Harris-Foulkes estimate   =   -1496.26181623 Ry
     estimated scf accuracy    <       1.31109328 Ry

     iteration #  3     ecut=   100.00 Ry     beta=0.50
     Davidson diagonalization with overlap
     ethr =  4.68E-04,  avg # of iterations =  7.2

     total cpu time spent up to now is      293.0 secs

     total energy              =   -1496.03698588 Ry
     Harris-Foulkes estimate   =   -1496.15346172 Ry
     estimated scf accuracy    <       0.28248958 Ry

     iteration #  4     ecut=   100.00 Ry     beta=0.50
     Davidson diagonalization with overlap
     ethr =  1.01E-04,  avg # of iterations =  3.0

     total cpu time spent up to now is      350.0 secs

     total energy              =   -1496.06624294 Ry
     Harris-Foulkes estimate   =   -1496.08501908 Ry
     estimated scf accuracy    <       0.05174966 Ry

     iteration #  5     ecut=   100.00 Ry     beta=0.50
     Davidson diagonalization with overlap
     ethr =  1.85E-05,  avg # of iterations =  7.4

     total cpu time spent up to now is      455.7 secs

     total energy              =   -1496.08354538 Ry
     Harris-Foulkes estimate   =   -1496.09073047 Ry
     estimated scf accuracy    <       0.01899035 Ry

     iteration #  6     ecut=   100.00 Ry     beta=0.50
     Davidson diagonalization with overlap
     ethr =  6.78E-06,  avg # of iterations =  2.0

     total cpu time spent up to now is      508.1 secs

     total energy              =   -1496.08343625 Ry
     Harris-Foulkes estimate   =   -1496.08543583 Ry
     estimated scf accuracy    <       0.00359432 Ry

     iteration #  7     ecut=   100.00 Ry     beta=0.50
     Davidson diagonalization with overlap
     ethr =  1.28E-06,  avg # of iterations =  6.5

     total cpu time spent up to now is      621.6 secs

     total energy              =   -1496.08589378 Ry
     Harris-Foulkes estimate   =   -1496.08656218 Ry
     estimated scf accuracy    <       0.00215344 Ry

     iteration #  8     ecut=   100.00 Ry     beta=0.50
     Davidson diagonalization with overlap
     ethr =  7.69E-07,  avg # of iterations =  1.0

     total cpu time spent up to now is      671.6 secs

     total energy              =   -1496.08544592 Ry
     Harris-Foulkes estimate   =   -1496.08598334 Ry
     estimated scf accuracy    <       0.00085982 Ry

     iteration #  9     ecut=   100.00 Ry     beta=0.50
     Davidson diagonalization with overlap
     ethr =  3.07E-07,  avg # of iterations =  4.6

     total cpu time spent up to now is      763.1 secs

     total energy              =   -1496.08592397 Ry
     Harris-Foulkes estimate   =   -1496.08604422 Ry
     estimated scf accuracy    <       0.00036899 Ry

     iteration # 10     ecut=   100.00 Ry     beta=0.50
     Davidson diagonalization with overlap
     ethr =  1.32E-07,  avg # of iterations =  1.1

     total cpu time spent up to now is      813.3 secs

     total energy              =   -1496.08586367 Ry
     Harris-Foulkes estimate   =   -1496.08593648 Ry
     estimated scf accuracy    <       0.00014449 Ry

     iteration # 11     ecut=   100.00 Ry     beta=0.50
     Davidson diagonalization with overlap
     ethr =  5.16E-08,  avg # of iterations =  3.1

     total cpu time spent up to now is      898.5 secs

     total energy              =   -1496.08592794 Ry
     Harris-Foulkes estimate   =   -1496.08593205 Ry
     estimated scf accuracy    <       0.00001104 Ry

     iteration # 12     ecut=   100.00 Ry     beta=0.50
     Davidson diagonalization with overlap
     ethr =  3.94E-09,  avg # of iterations =  1.0

     total cpu time spent up to now is      948.4 secs

     total energy              =   -1496.08592666 Ry
     Harris-Foulkes estimate   =   -1496.08592855 Ry
     estimated scf accuracy    <       0.00000352 Ry

     iteration # 13     ecut=   100.00 Ry     beta=0.50
     Davidson diagonalization with overlap
     ethr =  1.26E-09,  avg # of iterations =  4.0

     total cpu time spent up to now is     1039.7 secs

     total energy              =   -1496.08592886 Ry
     Harris-Foulkes estimate   =   -1496.08592913 Ry
     estimated scf accuracy    <       0.00000085 Ry

     iteration # 14     ecut=   100.00 Ry     beta=0.50
     Davidson diagonalization with overlap
     ethr =  3.05E-10,  avg # of iterations =  1.0

     total cpu time spent up to now is     1089.5 secs

     total energy              =   -1496.08592869 Ry
     Harris-Foulkes estimate   =   -1496.08592889 Ry
     estimated scf accuracy    <       0.00000035 Ry

     iteration # 15     ecut=   100.00 Ry     beta=0.50
     Davidson diagonalization with overlap
     ethr =  1.26E-10,  avg # of iterations =  3.1

     total cpu time spent up to now is     1174.6 secs

     total energy              =   -1496.08592887 Ry
     Harris-Foulkes estimate   =   -1496.08592889 Ry
     estimated scf accuracy    <       0.00000006 Ry

     iteration # 16     ecut=   100.00 Ry     beta=0.50
     Davidson diagonalization with overlap
     ethr =  2.31E-11,  avg # of iterations =  1.0

     total cpu time spent up to now is     1224.3 secs

     total energy              =   -1496.08592886 Ry
     Harris-Foulkes estimate   =   -1496.08592888 Ry
     estimated scf accuracy    <       0.00000003 Ry

     iteration # 17     ecut=   100.00 Ry     beta=0.50
     Davidson diagonalization with overlap
     ethr =  1.19E-11,  avg # of iterations =  3.0

     total cpu time spent up to now is     1306.0 secs

     End of self-consistent calculation

          k = 0.0000 0.0000 0.0000 ( 89317 PWs)   bands (ev):

   -21.0744 -21.0592 -21.0076 -20.9945 -20.8366 -20.8301 -20.8096 -20.8038
   -18.8636 -18.8234 -18.7940 -18.7610 -18.5492 -18.5490 -18.5411 -18.5360
   -18.2065 -18.1928 -18.0898 -18.0836 -17.4911 -17.4793 -17.4505 -17.4483
   -13.6146 -13.6061 -13.5959 -13.5876 -13.1079 -13.1057 -13.1025 -13.0841
   -10.6800 -10.6590 -10.6171 -10.6094  -9.9474  -9.8930  -9.8929  -9.8320
    -8.4531  -8.4474  -8.4324  -8.4191  -8.0450  -8.0298  -8.0077  -7.9713
    -6.9209  -6.8086  -6.7422  -6.7203  -6.3675  -6.3479  -6.2570  -6.2546
    -6.2212  -6.2104  -6.0984  -6.0486  -5.7059  -5.6289  -5.5201  -5.3868
    -5.3724  -5.3093  -5.3069  -5.1989  -5.1278  -5.1072  -5.0847  -5.0408
    -4.9425  -4.8971  -4.8112  -4.7488  -4.7321  -4.6962  -4.6687  -4.5730
    -4.3008  -4.2754  -4.1288  -4.1198  -3.7296  -3.7153  -3.6614  -3.6596
    -3.4864  -3.4703  -3.3786  -3.3450  -3.2981  -3.1162  -2.9129  -2.9093
    -2.7867  -2.7586  -2.7397  -2.7392  -2.6882  -2.6043  -2.4573  -2.4332
    -1.9308  -1.8862  -1.6242  -1.5918  -1.4239  -1.4139  -1.1251  -1.1103
    -1.1067  -0.9620  -0.9508  -0.9031  -0.7788  -0.7737  -0.6856  -0.6707
    -0.5057  -0.4920  -0.4918  -0.4549  -0.3988  -0.3673  -0.3385  -0.3139
    -0.2759  -0.2707  -0.2051  -0.1296  -0.1058   0.0300   0.0409   0.1091
     0.1648   0.1924   0.2039   0.2924   3.6535   3.6657   3.9012   3.9165
     3.9742   4.0430   4.1339   4.1928   5.8957   5.9228   6.0456   6.0699
     6.5104   7.2154   7.2169   7.3013   7.3232   7.4357   7.8787   7.9262
     8.1896   8.2056   8.6129   8.6222   8.7798   8.8390   8.8920   9.0973

          k = 0.0000 0.0000 0.5982 ( 89329 PWs)   bands (ev):

   -21.0577 -21.0429 -21.0243 -21.0105 -20.8299 -20.8235 -20.8165 -20.8103
   -18.8535 -18.8334 -18.7854 -18.7689 -18.5492 -18.5491 -18.5397 -18.5371
   -18.2030 -18.1962 -18.0880 -18.0849 -17.4891 -17.4833 -17.4508 -17.4497
   -13.6149 -13.6114 -13.5923 -13.5890 -13.1092 -13.1056 -13.0992 -13.0893
   -10.6661 -10.6473 -10.6350 -10.6223  -9.9413  -9.9220  -9.8633  -9.8407
    -8.4519  -8.4402  -8.4363  -8.4235  -8.0430  -8.0345  -8.0011  -7.9821
    -6.9064  -6.8588  -6.7163  -6.7141  -6.3681  -6.3585  -6.2563  -6.2546
    -6.2201  -6.2152  -6.0801  -6.0570  -5.6970  -5.6603  -5.4443  -5.4036
    -5.2899  -5.2619  -5.2379  -5.1415  -5.1338  -5.0787  -5.0277  -4.9979
    -4.9222  -4.8877  -4.7388  -4.7229  -4.6674  -4.6548  -4.5745  -4.5362
    -4.5346  -4.4886  -4.2266  -4.1957  -3.7286  -3.7023  -3.6986  -3.6618
    -3.4738  -3.4083  -3.3904  -3.3166  -3.2090  -3.1335  -3.0903  -3.0583
    -2.7986  -2.7827  -2.7465  -2.7442  -2.6568  -2.6185  -2.4491  -2.4374
    -1.8874  -1.8667  -1.5879  -1.5802  -1.3356  -1.2979  -1.1036  -1.0705
    -1.0560  -1.0256  -1.0064  -0.9280  -0.8995  -0.8018  -0.7888  -0.7577
    -0.5019  -0.4978  -0.4679  -0.4619  -0.4204  -0.4024  -0.3702  -0.2992
    -0.2930  -0.2555  -0.2483  -0.1987  -0.0685  -0.0283   0.0878   0.1086
     0.1737   0.1832   0.2392   0.2742   3.7139   3.7426   3.8467   3.8700
     3.9438   4.0109   4.0313   4.1003   5.8957   5.9156   5.9699   5.9813
     6.9880   7.2079   7.2087   7.2715   7.2859   7.7791   8.0831   8.1654
     8.5583   8.6023   8.7031   8.8981   9.0173   9.0365   9.2216   9.2292

          k = 0.0000-0.6508 0.0000 ( 89372 PWs)   bands (ev):

   -21.0568 -21.0568 -20.9954 -20.9954 -20.8377 -20.8377 -20.8228 -20.8228
   -18.8232 -18.8232 -18.7872 -18.7872 -18.5542 -18.5542 -18.5471 -18.5471
   -18.1408 -18.1408 -18.1300 -18.1300 -17.4715 -17.4715 -17.4656 -17.4656
   -13.6032 -13.6032 -13.5953 -13.5953 -13.1841 -13.1841 -13.1238 -13.1238
   -10.4002 -10.4002 -10.3462 -10.3462  -9.9671  -9.9671  -9.9202  -9.9202
    -8.5753  -8.5753  -8.5465  -8.5465  -8.3526  -8.3526  -8.2647  -8.2647
    -6.8273  -6.8273  -6.6698  -6.6698  -6.3526  -6.3526  -6.2640  -6.2640
    -5.8558  -5.8558  -5.7623  -5.7623  -5.5948  -5.5948  -5.5485  -5.5485
    -5.2729  -5.2729  -5.1860  -5.1860  -5.1083  -5.1083  -5.0758  -5.0758
    -5.0055  -5.0055  -4.9053  -4.9053  -4.8580  -4.8580  -4.7421  -4.7421
    -4.2102  -4.2102  -4.0725  -4.0725  -3.6519  -3.6519  -3.6039  -3.6039
    -3.4108  -3.4108  -3.3565  -3.3565  -3.2260  -3.2260  -2.9912  -2.9912
    -2.7482  -2.7482  -2.6831  -2.6831  -2.6067  -2.6067  -2.5472  -2.5472
    -1.8202  -1.8202  -1.7822  -1.7822  -1.3892  -1.3892  -1.1881  -1.1881
    -0.9895  -0.9895  -0.8952  -0.8952  -0.7888  -0.7888  -0.7126  -0.7126
    -0.5740  -0.5740  -0.4376  -0.4376  -0.3739  -0.3739  -0.3556  -0.3556
    -0.2602  -0.2602  -0.1956  -0.1956  -0.0435  -0.0435  -0.0011  -0.0011
     0.1610   0.1610   0.2845   0.2845   3.7073   3.7073   3.8214   3.8214
     4.0620   4.0620   4.1963   4.1963   5.8470   5.8470   6.2957   6.2957
     7.0074   7.0074   7.0664   7.0664   7.2261   7.2261   7.7562   7.7562
     8.1248   8.1248   8.7845   8.7845   8.9529   8.9529   9.1523   9.1523

          k = 0.0000-0.6508 0.5982 ( 89322 PWs)   bands (ev):

   -21.0409 -21.0409 -21.0100 -21.0100 -20.8347 -20.8347 -20.8270 -20.8270
   -18.8146 -18.8146 -18.7955 -18.7955 -18.5527 -18.5527 -18.5485 -18.5485
   -18.1383 -18.1383 -18.1323 -18.1323 -17.4713 -17.4713 -17.4676 -17.4676
   -13.6050 -13.6050 -13.5953 -13.5953 -13.1704 -13.1704 -13.1396 -13.1396
   -10.3876 -10.3876 -10.3599 -10.3599  -9.9679  -9.9679  -9.9217  -9.9217
    -8.5691  -8.5691  -8.5544  -8.5544  -8.3408  -8.3408  -8.2780  -8.2780
    -6.8339  -6.8339  -6.6649  -6.6649  -6.3310  -6.3310  -6.2867  -6.2867
    -5.8383  -5.8383  -5.7805  -5.7805  -5.5966  -5.5966  -5.5527  -5.5527
    -5.2347  -5.2347  -5.1867  -5.1867  -5.0447  -5.0447  -4.9637  -4.9637
    -4.9343  -4.9343  -4.8528  -4.8528  -4.8001  -4.8001  -4.7366  -4.7366
    -4.3520  -4.3520  -4.3076  -4.3076  -3.6454  -3.6454  -3.6254  -3.6254
    -3.3739  -3.3739  -3.3061  -3.3061  -3.2331  -3.2331  -3.0860  -3.0860
    -2.7409  -2.7409  -2.6826  -2.6826  -2.6032  -2.6032  -2.5504  -2.5504
    -1.7908  -1.7908  -1.7629  -1.7629  -1.2852  -1.2852  -1.1202  -1.1202
    -1.0392  -1.0392  -0.9279  -0.9279  -0.8904  -0.8904  -0.7607  -0.7607
    -0.5581  -0.5581  -0.4950  -0.4950  -0.3931  -0.3931  -0.3540  -0.3540
    -0.2892  -0.2892  -0.2518  -0.2518  -0.0333  -0.0333   0.0154   0.0154
     0.1659   0.1659   0.2835   0.2835   3.7958   3.7958   3.8347   3.8347
     3.9700   3.9700   4.0620   4.0620   5.9365   5.9365   6.1585   6.1585
     7.0554   7.0554   7.1491   7.1491   7.5324   7.5324   8.2289   8.2289
     8.4212   8.4212   8.5608   8.5608   9.0462   9.0462   9.1509   9.1509

          k =-0.5000 0.0000 0.0000 ( 89326 PWs)   bands (ev):

   -21.0675 -21.0675 -21.0003 -21.0003 -20.8338 -20.8338 -20.8062 -20.8062
   -18.8484 -18.8484 -18.7725 -18.7725 -18.5496 -18.5496 -18.5381 -18.5381
   -18.1998 -18.1998 -18.0865 -18.0865 -17.4849 -17.4849 -17.4497 -17.4497
   -13.6076 -13.6076 -13.5944 -13.5944 -13.1072 -13.1072 -13.0929 -13.0929
   -10.6697 -10.6697 -10.6129 -10.6129  -9.9066  -9.9066  -9.8772  -9.8772
    -8.4958  -8.4958  -8.3745  -8.3745  -8.0332  -8.0332  -7.9974  -7.9974
    -6.8358  -6.8358  -6.7681  -6.7681  -6.3734  -6.3734  -6.2613  -6.2613
    -6.2099  -6.2099  -6.0420  -6.0420  -5.6365  -5.6365  -5.5135  -5.5135
    -5.3487  -5.3487  -5.2338  -5.2338  -5.1712  -5.1712  -4.9489  -4.9489
    -4.9014  -4.9014  -4.7982  -4.7982  -4.7746  -4.7746  -4.6445  -4.6445
    -4.2915  -4.2915  -4.1227  -4.1227  -3.7448  -3.7448  -3.5566  -3.5566
    -3.4705  -3.4705  -3.3622  -3.3622  -3.2498  -3.2498  -2.9011  -2.9011
    -2.7471  -2.7471  -2.6823  -2.6823  -2.6686  -2.6686  -2.5625  -2.5625
    -1.9003  -1.9003  -1.6071  -1.6071  -1.4013  -1.4013  -1.1330  -1.1330
    -0.9998  -0.9998  -0.9285  -0.9285  -0.7994  -0.7994  -0.6678  -0.6678
    -0.5069  -0.5069  -0.4485  -0.4485  -0.3767  -0.3767  -0.3379  -0.3379
    -0.2829  -0.2829  -0.1494  -0.1494  -0.0247  -0.0247   0.0567   0.0567
     0.1624   0.1624   0.2501   0.2501   3.6641   3.6641   3.9158   3.9158
     4.0102   4.0102   4.1543   4.1543   5.8906   5.8906   6.0699   6.0699
     6.8574   6.8574   7.2547   7.2547   7.2743   7.2743   8.0277   8.0277
     8.3295   8.3295   8.4113   8.4113   8.8197   8.8197   9.1669   9.1669

          k =-0.5000 0.0000 0.5982 ( 89290 PWs)   bands (ev):

   -21.0517 -21.0517 -21.0160 -21.0160 -20.8275 -20.8275 -20.8127 -20.8127
   -18.8447 -18.8447 -18.7759 -18.7759 -18.5492 -18.5492 -18.5384 -18.5384
   -18.1996 -18.1996 -18.0864 -18.0864 -17.4857 -17.4857 -17.4508 -17.4508
   -13.6092 -13.6092 -13.5945 -13.5945 -13.1052 -13.1052 -13.0965 -13.0965
   -10.6569 -10.6569 -10.6284 -10.6284  -9.9081  -9.9081  -9.8766  -9.8766
    -8.4940  -8.4940  -8.3770  -8.3770  -8.0323  -8.0323  -8.0008  -8.0008
    -6.8314  -6.8314  -6.7788  -6.7788  -6.3739  -6.3739  -6.2632  -6.2632
    -6.2112  -6.2112  -6.0354  -6.0354  -5.6186  -5.6186  -5.5285  -5.5285
    -5.2449  -5.2449  -5.2152  -5.2152  -5.0940  -5.0940  -4.9390  -4.9390
    -4.8932  -4.8932  -4.7772  -4.7772  -4.7148  -4.7148  -4.5589  -4.5589
    -4.5150  -4.5150  -4.2102  -4.2102  -3.7429  -3.7429  -3.5708  -3.5708
    -3.4262  -3.4262  -3.3371  -3.3371  -3.2500  -3.2500  -3.0660  -3.0660
    -2.7496  -2.7496  -2.6724  -2.6724  -2.6628  -2.6628  -2.5694  -2.5694
    -1.8555  -1.8555  -1.5830  -1.5830  -1.3119  -1.3119  -1.0807  -1.0807
    -1.0593  -1.0593  -0.9666  -0.9666  -0.8486  -0.8486  -0.7632  -0.7632
    -0.5047  -0.5047  -0.4452  -0.4452  -0.4101  -0.4101  -0.3472  -0.3472
    -0.2787  -0.2787  -0.2127  -0.2127  -0.0041  -0.0041   0.0610   0.0610
     0.1665   0.1665   0.2534   0.2534   3.7311   3.7311   3.8644   3.8644
     3.9856   3.9856   4.0536   4.0536   5.8864   5.8864   5.9850   5.9850
     7.2260   7.2260   7.2484   7.2484   7.3624   7.3624   8.0942   8.0942
     8.6041   8.6041   8.8173   8.8173   9.0164   9.0164   9.2139   9.2139

          k =-0.5000-0.6508 0.0000 ( 89392 PWs)   bands (ev):

   -21.0567 -21.0567 -20.9955 -20.9955 -20.8378 -20.8378 -20.8227 -20.8227
   -18.8224 -18.8224 -18.7882 -18.7882 -18.5520 -18.5520 -18.5493 -18.5493
   -18.1357 -18.1357 -18.1350 -18.1350 -17.4686 -17.4686 -17.4685 -17.4685
   -13.6010 -13.6010 -13.5977 -13.5977 -13.1837 -13.1837 -13.1239 -13.1239
   -10.3994 -10.3994 -10.3463 -10.3463  -9.9524  -9.9524  -9.9367  -9.9367
    -8.5845  -8.5845  -8.5462  -8.5462  -8.3365  -8.3365  -8.2720  -8.2720
    -6.7521  -6.7521  -6.7358  -6.7358  -6.3119  -6.3119  -6.2912  -6.2912
    -5.8560  -5.8560  -5.8148  -5.8148  -5.5856  -5.5856  -5.5713  -5.5713
    -5.2312  -5.2312  -5.2090  -5.2090  -5.1079  -5.1079  -5.0789  -5.0789
    -4.9872  -4.9872  -4.8871  -4.8871  -4.8694  -4.8694  -4.7486  -4.7486
    -4.2133  -4.2133  -4.0733  -4.0733  -3.6428  -3.6428  -3.5903  -3.5903
    -3.3656  -3.3656  -3.2927  -3.2927  -3.2831  -3.2831  -2.9844  -2.9844
    -2.7447  -2.7447  -2.7149  -2.7149  -2.6225  -2.6225  -2.5974  -2.5974
    -1.8153  -1.8153  -1.7859  -1.7859  -1.3782  -1.3782  -1.1658  -1.1658
    -1.0204  -1.0204  -0.9006  -0.9006  -0.7869  -0.7869  -0.7031  -0.7031
    -0.5556  -0.5556  -0.4143  -0.4143  -0.4040  -0.4040  -0.3673  -0.3673
    -0.2398  -0.2398  -0.1964  -0.1964  -0.0258  -0.0258  -0.0100  -0.0100
     0.2063   0.2063   0.2293   0.2293   3.7109   3.7109   3.8223   3.8223
     4.0711   4.0711   4.1849   4.1849   5.8370   5.8370   6.2943   6.2943
     7.0565   7.0565   7.2029   7.2029   7.2533   7.2533   7.3262   7.3262
     8.5264   8.5264   8.5579   8.5579   9.0715   9.0715   9.2534   9.2534

          k =-0.5000-0.6508 0.5982 ( 89316 PWs)   bands (ev):

   -21.0409 -21.0409 -21.0101 -21.0101 -20.8347 -20.8347 -20.8270 -20.8270
   -18.8136 -18.8136 -18.7965 -18.7965 -18.5513 -18.5513 -18.5499 -18.5499
   -18.1354 -18.1354 -18.1351 -18.1351 -17.4695 -17.4695 -17.4695 -17.4695
   -13.6011 -13.6011 -13.5994 -13.5994 -13.1698 -13.1698 -13.1399 -13.1399
   -10.3867 -10.3867 -10.3601 -10.3601  -9.9497  -9.9497  -9.9418  -9.9418
    -8.5755  -8.5755  -8.5564  -8.5564  -8.3213  -8.3213  -8.2890  -8.2890
    -6.7496  -6.7496  -6.7414  -6.7414  -6.3059  -6.3059  -6.2958  -6.2958
    -5.8467  -5.8467  -5.8266  -5.8266  -5.5842  -5.5842  -5.5763  -5.5763
    -5.1804  -5.1804  -5.1676  -5.1676  -5.0482  -5.0482  -5.0477  -5.0477
    -4.8740  -4.8740  -4.8590  -4.8590  -4.7895  -4.7895  -4.7560  -4.7560
    -4.3561  -4.3561  -4.3125  -4.3125  -3.6282  -3.6282  -3.6007  -3.6007
    -3.3432  -3.3432  -3.3001  -3.3001  -3.2355  -3.2355  -3.0708  -3.0708
    -2.7318  -2.7318  -2.7170  -2.7170  -2.6170  -2.6170  -2.6031  -2.6031
    -1.7809  -1.7809  -1.7656  -1.7656  -1.2778  -1.2778  -1.1203  -1.1203
    -1.0278  -1.0278  -0.9818  -0.9818  -0.8644  -0.8644  -0.7643  -0.7643
    -0.5388  -0.5388  -0.4641  -0.4641  -0.4192  -0.4192  -0.3853  -0.3853
    -0.2558  -0.2558  -0.2538  -0.2538  -0.0061  -0.0061  -0.0012  -0.0012
     0.2161   0.2161   0.2269   0.2269   3.7998   3.7998   3.8341   3.8341
     3.9771   3.9771   4.0553   4.0553   5.9275   5.9275   6.1526   6.1526
     7.0602   7.0602   7.1480   7.1480   7.7459   7.7459   7.8066   7.8066
     8.5279   8.5279   8.5912   8.5912   9.1927   9.1927   9.2750   9.2750

     highest occupied, lowest unoccupied level (ev):     0.2924    3.6535

!    total energy              =   -1496.08592887 Ry
     Harris-Foulkes estimate   =   -1496.08592887 Ry
     estimated scf accuracy    <          2.8E-09 Ry

     total all-electron energy =     -5615.613700 Ry

     The total energy is the sum of the following terms:

     one-electron contribution =    -727.75932206 Ry
     hartree contribution      =     477.98799433 Ry
     xc contribution           =    -305.59678271 Ry
     ewald contribution        =    -530.72631278 Ry
     Dispersion Correction     =      -0.34852551 Ry
     one-center paw contrib.   =    -409.64298014 Ry

     convergence has been achieved in  17 iterations

     Forces acting on atoms (cartesian axes, Ry/au):

     atom    1 type  1   force =     0.00042984    0.00204749    0.00082416
     atom    2 type  1   force =     0.00042984   -0.00204749   -0.00082416
     atom    3 type  1   force =    -0.00042984    0.00204749   -0.00082416
     atom    4 type  1   force =    -0.00042984   -0.00204749    0.00082416
     atom    5 type  1   force =     0.00102176    0.00244299   -0.00095023
     atom    6 type  1   force =     0.00102176   -0.00244299    0.00095023
     atom    7 type  1   force =    -0.00102176    0.00244299    0.00095023
     atom    8 type  1   force =    -0.00102176   -0.00244299   -0.00095023
     atom    9 type  1   force =     0.00213767   -0.00106691   -0.00045555
     atom   10 type  1   force =     0.00213767    0.00106691    0.00045555
     atom   11 type  1   force =    -0.00213767   -0.00106691    0.00045555
     atom   12 type  1   force =    -0.00213767    0.00106691   -0.00045555
     atom   13 type  1   force =     0.00120462   -0.00002921   -0.00050889
     atom   14 type  1   force =     0.00120462    0.00002921    0.00050889
     atom   15 type  1   force =    -0.00120462   -0.00002921    0.00050889
     atom   16 type  1   force =    -0.00120462    0.00002921   -0.00050889
     atom   17 type  1   force =     0.00050225   -0.00009800   -0.00057087
     atom   18 type  1   force =     0.00050225    0.00009800    0.00057087
     atom   19 type  1   force =    -0.00050225   -0.00009800    0.00057087
     atom   20 type  1   force =    -0.00050225    0.00009800   -0.00057087
     atom   21 type  1   force =    -0.00367897   -0.00463387   -0.00133780
     atom   22 type  1   force =    -0.00367897    0.00463387    0.00133780
     atom   23 type  1   force =     0.00367897   -0.00463387    0.00133780
     atom   24 type  1   force =     0.00367897    0.00463387   -0.00133780
     atom   25 type  1   force =    -0.00114885    0.00062947    0.00013969
     atom   26 type  1   force =    -0.00114885   -0.00062947   -0.00013969
     atom   27 type  1   force =     0.00114885    0.00062947   -0.00013969
     atom   28 type  1   force =     0.00114885   -0.00062947    0.00013969
     atom   29 type  3   force =    -0.00006583   -0.00062685   -0.00012997
     atom   30 type  3   force =    -0.00006583    0.00062685    0.00012997
     atom   31 type  3   force =     0.00006583   -0.00062685    0.00012997
     atom   32 type  3   force =     0.00006583    0.00062685   -0.00012997
     atom   33 type  3   force =     0.00006027    0.00003773    0.00002359
     atom   34 type  3   force =     0.00006027   -0.00003773   -0.00002359
     atom   35 type  3   force =    -0.00006027    0.00003773   -0.00002359
     atom   36 type  3   force =    -0.00006027   -0.00003773    0.00002359
     atom   37 type  3   force =    -0.00038865   -0.00002178    0.00003963
     atom   38 type  3   force =    -0.00038865    0.00002178   -0.00003963
     atom   39 type  3   force =     0.00038865   -0.00002178   -0.00003963
     atom   40 type  3   force =     0.00038865    0.00002178    0.00003963
     atom   41 type  3   force =     0.00003506    0.00021700   -0.00049834
     atom   42 type  3   force =     0.00003506   -0.00021700    0.00049834
     atom   43 type  3   force =    -0.00003506    0.00021700    0.00049834
     atom   44 type  3   force =    -0.00003506   -0.00021700   -0.00049834
     atom   45 type  3   force =    -0.00175951   -0.00131991   -0.00060499
     atom   46 type  3   force =    -0.00175951    0.00131991    0.00060499
     atom   47 type  3   force =     0.00175951   -0.00131991    0.00060499
     atom   48 type  3   force =     0.00175951    0.00131991   -0.00060499
     atom   49 type  3   force =    -0.00110488    0.00046975   -0.00050975
     atom   50 type  3   force =    -0.00110488   -0.00046975    0.00050975
     atom   51 type  3   force =     0.00110488    0.00046975    0.00050975
     atom   52 type  3   force =     0.00110488   -0.00046975   -0.00050975
     atom   53 type  3   force =    -0.00039733   -0.00040618   -0.00011033
     atom   54 type  3   force =    -0.00039733    0.00040618    0.00011033
     atom   55 type  3   force =     0.00039733   -0.00040618    0.00011033
     atom   56 type  3   force =     0.00039733    0.00040618   -0.00011033
     atom   57 type  2   force =    -0.00064211   -0.00012213    0.00066287
     atom   58 type  2   force =    -0.00064211    0.00012213   -0.00066287
     atom   59 type  2   force =     0.00064211   -0.00012213   -0.00066287
     atom   60 type  2   force =     0.00064211    0.00012213    0.00066287
     atom   61 type  4   force =     0.00563565    0.00463355    0.00073580
     atom   62 type  4   force =     0.00563565   -0.00463355   -0.00073580
     atom   63 type  4   force =    -0.00563565    0.00463355   -0.00073580
     atom   64 type  4   force =    -0.00563565   -0.00463355    0.00073580
     atom   65 type  4   force =    -0.00068125    0.00038503    0.00018654
     atom   66 type  4   force =    -0.00068125   -0.00038503   -0.00018654
     atom   67 type  4   force =     0.00068125    0.00038503   -0.00018654
     atom   68 type  4   force =     0.00068125   -0.00038503    0.00018654
     atom   69 type  4   force =     0.00032436   -0.00042462    0.00029414
     atom   70 type  4   force =     0.00032436    0.00042462   -0.00029414
     atom   71 type  4   force =    -0.00032436   -0.00042462   -0.00029414
     atom   72 type  4   force =    -0.00032436    0.00042462    0.00029414
     atom   73 type  4   force =    -0.00037845    0.00086084    0.00012270
     atom   74 type  4   force =    -0.00037845   -0.00086084   -0.00012270
     atom   75 type  4   force =     0.00037845    0.00086084   -0.00012270
     atom   76 type  4   force =     0.00037845   -0.00086084    0.00012270
     atom   77 type  4   force =     0.00122874    0.00096805   -0.00021182
     atom   78 type  4   force =     0.00122874   -0.00096805    0.00021182
     atom   79 type  4   force =    -0.00122874    0.00096805    0.00021182
     atom   80 type  4   force =    -0.00122874   -0.00096805   -0.00021182

     Total force =     0.022528     Total SCF correction =     0.000149


     Computing stress (Cartesian axis) and pressure

          total   stress  (Ry/bohr**3)                   (kbar)     P=   -4.53
  -0.00001378   0.00000000   0.00000000         -2.03      0.00      0.00
   0.00000000  -0.00004017   0.00000000          0.00     -5.91      0.00
   0.00000000   0.00000000  -0.00003841          0.00      0.00     -5.65


     Writing output data file scf.save
 
     init_run     :     31.08s CPU     32.60s WALL (       1 calls)
     electrons    :   1223.81s CPU   1272.71s WALL (       1 calls)
     forces       :     14.87s CPU     14.99s WALL (       1 calls)
     stress       :     62.50s CPU     62.69s WALL (       1 calls)

     Called by init_run:
     wfcinit      :     26.33s CPU     27.59s WALL (       1 calls)
     potinit      :      1.72s CPU      1.78s WALL (       1 calls)

     Called by electrons:
     c_bands      :   1099.00s CPU   1141.61s WALL (      17 calls)
     sum_band     :    113.54s CPU    118.68s WALL (      17 calls)
     v_of_rho     :      1.91s CPU      2.11s WALL (      18 calls)
     newd         :      3.39s CPU      4.25s WALL (      18 calls)
     PAW_pot      :      5.53s CPU      5.54s WALL (      18 calls)
     mix_rho      :      0.39s CPU      0.42s WALL (      17 calls)

     Called by c_bands:
     init_us_2    :      5.85s CPU      5.88s WALL (     296 calls)
     cegterg      :   1075.21s CPU   1117.76s WALL (     136 calls)

     Called by sum_band:
     sum_band:bec :      0.07s CPU      0.07s WALL (     136 calls)
     addusdens    :      3.45s CPU      4.26s WALL (      17 calls)

     Called by *egterg:
     h_psi        :    597.20s CPU    630.42s WALL (     586 calls)
     s_psi        :    121.27s CPU    121.33s WALL (     586 calls)
     g_psi        :      3.01s CPU      3.01s WALL (     442 calls)
     cdiaghg      :     63.45s CPU     63.62s WALL (     578 calls)

     Called by h_psi:
     h_psi:pot    :    593.11s CPU    626.26s WALL (     586 calls)
     h_psi:calbec :    119.99s CPU    120.28s WALL (     586 calls)
     vloc_psi     :    351.66s CPU    384.48s WALL (     586 calls)
     add_vuspsi   :    121.46s CPU    121.51s WALL (     586 calls)

     General routines
     calbec       :    173.27s CPU    173.69s WALL (     762 calls)
     fft          :      1.08s CPU      1.53s WALL (     258 calls)
     fftw         :    378.40s CPU    413.33s WALL (  154572 calls)
 
     Parallel routines
     fft_scatter  :     80.65s CPU    109.16s WALL (  154830 calls)
 
     PWSCF        : 22m20.83s CPU    23m51.94s WALL

 
   This run was terminated on:   6:49:28   4Nov2017            

=------------------------------------------------------------------------------=
   JOB DONE.
=------------------------------------------------------------------------------=
