
     Program PWSCF v.6.1 (svn rev. 13369) starts on  4Nov2017 at 14:50:34 

     This program is part of the open-source Quantum ESPRESSO suite
     for quantum simulation of materials; please cite
         "P. Giannozzi et al., J. Phys.:Condens. Matter 21 395502 (2009);
          URL http://www.quantum-espresso.org", 
     in publications or presentations arising from this work. More details at
     http://www.quantum-espresso.org/quote

     Parallel version (MPI), running on     8 processors
     R & G space division:  proc/nbgrp/npool/nimage =       8
     Waiting for input...
     Reading input from standard input

     Current dimensions of program PWSCF are:
     Max number of different atomic species (ntypx) = 10
     Max number of k-points (npk) =  40000
     Max angular momentum in pseudopotentials (lmaxx) =  3
               file C.pbe-n-kjpaw_psl.0.1.UPF: wavefunction(s)  2P renormalized
               file N.pbe-n-kjpaw_psl.0.1.UPF: wavefunction(s)  2P renormalized
               file H.pbe-kjpaw_psl.0.1.UPF: wavefunction(s)  1S renormalized
               file O.pbe-n-kjpaw_psl.0.1.UPF: wavefunction(s)  2P renormalized

     -------------------------------------
     Parameters for Dispersion Correction:
     -------------------------------------
       atom      VdW radius       C_6     

        C          2.744         60.710
        N          2.640         42.670
        H          1.892          4.857
        O          2.536         24.284

     Subspace diagonalization in iterative solution of the eigenvalue problem:
     a serial algorithm will be used

 
     Parallelization info
     --------------------
     sticks:   dense  smooth     PW     G-vecs:    dense   smooth      PW
     Min         947     947    249                63832    63832    8646
     Max         948     948    250                63834    63834    8648
     Sum        7579    7579   1993               510661   510661   69175
 


     bravais-lattice index     =            0
     lattice parameter (alat)  =      14.1163  a.u.
     unit-cell volume          =    3780.0560 (a.u.)^3
     number of atoms/cell      =           64
     number of atomic types    =            4
     number of electrons       =       184.00
     number of Kohn-Sham states=          110
     kinetic-energy cutoff     =     100.0000  Ry
     charge density cutoff     =     400.0000  Ry
     convergence threshold     =      1.0E-08
     mixing beta               =       0.5000
     number of iterations used =            8  plain     mixing
     Exchange-correlation      =  SLA  PW   PBX  PBC ( 1  4  3  4 0 0)

     celldm(1)=  14.116254  celldm(2)=   0.000000  celldm(3)=   0.000000
     celldm(4)=   0.000000  celldm(5)=   0.000000  celldm(6)=   0.000000

     crystal axes: (cart. coord. in units of alat)
               a(1) = (   1.000000   0.000000   0.000000 )  
               a(2) = (   0.000000   1.196252   0.000000 )  
               a(3) = (  -1.000873   0.000000   1.123356 )  

     reciprocal axes: (cart. coord. in units 2 pi/alat)
               b(1) = (  1.000000  0.000000  0.890967 )  
               b(2) = (  0.000000  0.835944  0.000000 )  
               b(3) = (  0.000000  0.000000  0.890190 )  


     PseudoPot. # 1 for  C read from file:
     /scratch/ahofstet/pseudo/C.pbe-n-kjpaw_psl.0.1.UPF
     MD5 check sum: 430fe95172b1e11ef3f8ed03bac87931
     Pseudo is Projector augmented-wave + core cor, Zval =  4.0
     Generated using "atomic" code by A. Dal Corso  v.5.0.99 svn rev. 10869
     Shape of augmentation charge: BESSEL
     Using radial grid of 1073 points,  4 beta functions with: 
                l(1) =   0
                l(2) =   0
                l(3) =   1
                l(4) =   1
     Q(r) pseudized with 0 coefficients 


     PseudoPot. # 2 for  N read from file:
     /scratch/ahofstet/pseudo/N.pbe-n-kjpaw_psl.0.1.UPF
     MD5 check sum: f73187c8b701007e77325f868c9291d7
     Pseudo is Projector augmented-wave + core cor, Zval =  5.0
     Generated using "atomic" code by A. Dal Corso  v.5.0.99 svn rev. 10869
     Shape of augmentation charge: PSQ
     Using radial grid of 1085 points,  4 beta functions with: 
                l(1) =   0
                l(2) =   0
                l(3) =   1
                l(4) =   1
     Q(r) pseudized with 0 coefficients 


     PseudoPot. # 3 for  H read from file:
     /scratch/ahofstet/pseudo/H.pbe-kjpaw_psl.0.1.UPF
     MD5 check sum: 94e484f906d9e9773b2f6e52662335b2
     Pseudo is Projector augmented-wave, Zval =  1.0
     Generated using "atomic" code by A. Dal Corso  v.5.0.99 svn rev. 10869
     Shape of augmentation charge: PSQ
     Using radial grid of  929 points,  2 beta functions with: 
                l(1) =   0
                l(2) =   0
     Q(r) pseudized with 0 coefficients 


     PseudoPot. # 4 for  O read from file:
     /scratch/ahofstet/pseudo/O.pbe-n-kjpaw_psl.0.1.UPF
     MD5 check sum: 3f94a2996a3169367d6eb21d9b593f20
     Pseudo is Projector augmented-wave + core cor, Zval =  6.0
     Generated using "atomic" code by A. Dal Corso  v.5.0.99 svn rev. 10869
     Shape of augmentation charge: BESSEL
     Using radial grid of 1095 points,  4 beta functions with: 
                l(1) =   0
                l(2) =   0
                l(3) =   1
                l(4) =   1
     Q(r) pseudized with 0 coefficients 


     atomic species   valence    mass     pseudopotential
        C              4.00    12.01070      C( 1.00)
        N              5.00    14.00670      N( 1.00)
        H              1.00     1.00794      H( 1.00)
        O              6.00    15.99940      O( 1.00)

      2 Sym. Ops., with inversion, found
          (note:  2 additional sym.ops. were found but ignored
           their fractional translations are incommensurate with FFT grid)


   Cartesian axes

     site n.     atom                  positions (alat units)
         1           O   tau(   1) = (  -0.7874813   0.5408658   1.0316838  )
         2           O   tau(   2) = (   0.2861713   1.1389916   0.6533496  )
         3           O   tau(   3) = (   0.7866080   0.6553859   0.0916718  )
         4           O   tau(   4) = (  -0.2870446   0.0572600   0.4700060  )
         5           C   tau(   5) = (  -0.7784276   0.6831953   1.1142784  )
         6           C   tau(   6) = (   0.2771175   0.0850695   0.5707550  )
         7           C   tau(   7) = (   0.7775542   0.5130563   0.0090772  )
         8           C   tau(   8) = (  -0.2779909   1.1111822   0.5526006  )
         9           N   tau(   9) = (  -0.6660363   0.8199249   1.0699762  )
        10           N   tau(  10) = (   0.1647262   0.2217990   0.6150572  )
        11           N   tau(  11) = (   0.6651629   0.3763268   0.0533794  )
        12           N   tau(  12) = (  -0.1655996   0.9744526   0.5082984  )
        13           N   tau(  13) = (   0.3354432   0.9726678   0.0536459  )
        14           N   tau(  14) = (   0.1641201   0.3745419   0.5080319  )
        15           N   tau(  15) = (  -0.3363166   0.2235839   1.0697097  )
        16           N   tau(  16) = (  -0.1649934   0.8217097   0.6153237  )
        17           C   tau(  17) = (   0.2235435   1.1100203   0.0100515  )
        18           C   tau(  18) = (   0.2760198   0.5118945   0.5516263  )
        19           C   tau(  19) = (  -0.2244169   0.0862314   1.1133042  )
        20           C   tau(  20) = (  -0.2768932   0.6843572   0.5717293  )
        21           O   tau(  21) = (   0.2155628   0.0561175   0.0927436  )
        22           O   tau(  22) = (   0.2840005   0.6542433   0.4689342  )
        23           O   tau(  23) = (  -0.2164362   1.1401342   1.0306120  )
        24           O   tau(  24) = (  -0.2848739   0.5420084   0.6544214  )
        25           C   tau(  25) = (  -0.5355485   0.8113831   0.9246846  )
        26           C   tau(  26) = (   0.0342385   0.2132573   0.7603488  )
        27           C   tau(  27) = (   0.5346752   0.3848686   0.1986710  )
        28           C   tau(  28) = (  -0.0351119   0.9829944   0.3630068  )
        29           C   tau(  29) = (   0.4659785   0.9798090   0.1989454  )
        30           C   tau(  30) = (   0.0335848   0.3816831   0.3627324  )
        31           C   tau(  31) = (  -0.4668518   0.2164427   0.9244102  )
        32           C   tau(  32) = (  -0.0344582   0.8145685   0.7606232  )
        33           H   tau(  33) = (   0.1389234   0.7154959   0.1090343  )
        34           H   tau(  34) = (   0.3606400   0.1173701   0.4526435  )
        35           H   tau(  35) = (  -0.1397967   0.4807558   1.0143213  )
        36           H   tau(  36) = (  -0.3615133   1.0788816   0.6707121  )
        37           H   tau(  37) = (  -0.4087662   0.8685962   0.9716788  )
        38           H   tau(  38) = (  -0.0925438   0.2704704   0.7133546  )
        39           H   tau(  39) = (   0.4078928   0.3276554   0.1516768  )
        40           H   tau(  40) = (   0.0916705   0.9257813   0.4100010  )
        41           H   tau(  41) = (  -0.5160288   0.6709092   0.8877369  )
        42           H   tau(  42) = (   0.0147188   0.0727834   0.7972966  )
        43           H   tau(  43) = (   0.5151555   0.5253425   0.2356188  )
        44           H   tau(  44) = (  -0.0155922   1.1234683   0.3260590  )
        45           H   tau(  45) = (   0.4181439   0.9018399   0.3141589  )
        46           H   tau(  46) = (   0.0814194   0.3037141   0.2475189  )
        47           H   tau(  47) = (  -0.4190172   0.2944117   0.8091967  )
        48           H   tau(  48) = (  -0.0822928   0.8925376   0.8758367  )
        49           H   tau(  49) = (  -0.8614941   1.0783202   1.0156216  )
        50           H   tau(  50) = (   0.3601840   0.4801943   0.6694119  )
        51           H   tau(  51) = (   0.8606207   0.1179315   0.1077340  )
        52           H   tau(  52) = (  -0.3610574   0.7160573   0.4539438  )
        53           H   tau(  53) = (  -0.5839263   0.8869750   0.8081224  )
        54           H   tau(  54) = (   0.0826163   0.2888491   0.8769110  )
        55           H   tau(  55) = (   0.5830530   0.3092767   0.3152332  )
        56           H   tau(  56) = (  -0.0834896   0.9074025   0.2464446  )
        57           H   tau(  57) = (   0.5933393   0.9246910   0.1510093  )
        58           H   tau(  58) = (  -0.0937760   0.3265652   0.4106685  )
        59           H   tau(  59) = (  -0.5942126   0.2715607   0.9723463  )
        60           H   tau(  60) = (   0.0929026   0.8696865   0.7126871  )
        61           H   tau(  61) = (   0.4843138   1.1197399   0.2384266  )
        62           H   tau(  62) = (   0.0152495   0.5216140   0.3232512  )
        63           H   tau(  63) = (  -0.4851872   0.0765118   0.8849290  )
        64           H   tau(  64) = (  -0.0161229   0.6746376   0.8001044  )

     number of k points=     8
                       cart. coord. in units 2pi/alat
        k(    1) = (   0.0000000   0.0000000   0.0000000), wk =   0.1666667
        k(    2) = (   0.0000000   0.0000000  -0.4450950), wk =   0.1666667
        k(    3) = (   0.0000000  -0.4179722   0.0000000), wk =   0.1666667
        k(    4) = (   0.0000000  -0.4179722  -0.4450950), wk =   0.1666667
        k(    5) = (   0.3333333   0.0000000   0.2969892), wk =   0.3333333
        k(    6) = (   0.3333333   0.0000000  -0.1481059), wk =   0.3333333
        k(    7) = (   0.3333333  -0.4179722   0.2969892), wk =   0.3333333
        k(    8) = (   0.3333333  -0.4179722  -0.1481059), wk =   0.3333333

     Dense  grid:   510661 G-vectors     FFT dimensions: (  90, 108, 135)

     Estimated max dynamical RAM per process >     312.91MB

     Estimated total allocated dynamical RAM >    2503.31MB

     Check: negative/imaginary core charge=   -0.000002    0.000000

     Initial potential from superposition of free atoms

     starting charge  183.99896, renormalised to  184.00000
     Starting wfc are  160 randomized atomic wfcs
     Checking if some PAW data can be deallocated... 

     total cpu time spent up to now is       19.7 secs

     per-process dynamical memory:   268.0 Mb

     Self-consistent Calculation

     iteration #  1     ecut=   100.00 Ry     beta=0.50
     Davidson diagonalization with overlap
     ethr =  1.00E-02,  avg # of iterations =  3.1

     total cpu time spent up to now is       61.3 secs

     total energy              =    -890.95453142 Ry
     Harris-Foulkes estimate   =    -894.00455594 Ry
     estimated scf accuracy    <       5.95410955 Ry

     iteration #  2     ecut=   100.00 Ry     beta=0.50
     Davidson diagonalization with overlap
     ethr =  3.24E-03,  avg # of iterations =  3.0

     total cpu time spent up to now is       86.7 secs

     total energy              =    -891.53325734 Ry
     Harris-Foulkes estimate   =    -892.15482634 Ry
     estimated scf accuracy    <       1.26670100 Ry

     iteration #  3     ecut=   100.00 Ry     beta=0.50
     Davidson diagonalization with overlap
     ethr =  6.88E-04,  avg # of iterations =  6.4

     total cpu time spent up to now is      124.9 secs

     total energy              =    -891.94023515 Ry
     Harris-Foulkes estimate   =    -892.18121768 Ry
     estimated scf accuracy    <       0.61844744 Ry

     iteration #  4     ecut=   100.00 Ry     beta=0.50
     Davidson diagonalization with overlap
     ethr =  3.36E-04,  avg # of iterations =  2.0

     total cpu time spent up to now is      148.0 secs

     total energy              =    -891.98724627 Ry
     Harris-Foulkes estimate   =    -892.02007493 Ry
     estimated scf accuracy    <       0.07590705 Ry

     iteration #  5     ecut=   100.00 Ry     beta=0.50
     Davidson diagonalization with overlap
     ethr =  4.13E-05,  avg # of iterations =  7.5

     total cpu time spent up to now is      193.4 secs

     total energy              =    -892.02690859 Ry
     Harris-Foulkes estimate   =    -892.04073380 Ry
     estimated scf accuracy    <       0.04053242 Ry

     iteration #  6     ecut=   100.00 Ry     beta=0.50
     Davidson diagonalization with overlap
     ethr =  2.20E-05,  avg # of iterations =  1.0

     total cpu time spent up to now is      214.7 secs

     total energy              =    -892.01963018 Ry
     Harris-Foulkes estimate   =    -892.02847508 Ry
     estimated scf accuracy    <       0.01340830 Ry

     iteration #  7     ecut=   100.00 Ry     beta=0.50
     Davidson diagonalization with overlap
     ethr =  7.29E-06,  avg # of iterations =  5.5

     total cpu time spent up to now is      257.9 secs

     total energy              =    -892.02905429 Ry
     Harris-Foulkes estimate   =    -892.03408307 Ry
     estimated scf accuracy    <       0.01583720 Ry

     iteration #  8     ecut=   100.00 Ry     beta=0.50
     Davidson diagonalization with overlap
     ethr =  7.29E-06,  avg # of iterations =  1.0

     total cpu time spent up to now is      279.1 secs

     total energy              =    -892.02498570 Ry
     Harris-Foulkes estimate   =    -892.02939764 Ry
     estimated scf accuracy    <       0.00688469 Ry

     iteration #  9     ecut=   100.00 Ry     beta=0.50
     Davidson diagonalization with overlap
     ethr =  3.74E-06,  avg # of iterations =  4.0

     total cpu time spent up to now is      316.6 secs

     total energy              =    -892.02934651 Ry
     Harris-Foulkes estimate   =    -892.03026846 Ry
     estimated scf accuracy    <       0.00386131 Ry

     iteration # 10     ecut=   100.00 Ry     beta=0.50
     Davidson diagonalization with overlap
     ethr =  2.10E-06,  avg # of iterations =  1.0

     total cpu time spent up to now is      337.8 secs

     total energy              =    -892.02843594 Ry
     Harris-Foulkes estimate   =    -892.02939521 Ry
     estimated scf accuracy    <       0.00220837 Ry

     iteration # 11     ecut=   100.00 Ry     beta=0.50
     Davidson diagonalization with overlap
     ethr =  1.20E-06,  avg # of iterations =  4.9

     total cpu time spent up to now is      367.4 secs

     total energy              =    -892.02902527 Ry
     Harris-Foulkes estimate   =    -892.02902834 Ry
     estimated scf accuracy    <       0.00000842 Ry

     iteration # 12     ecut=   100.00 Ry     beta=0.50
     Davidson diagonalization with overlap
     ethr =  4.57E-09,  avg # of iterations =  4.1

     total cpu time spent up to now is      411.8 secs

     total energy              =    -892.02904170 Ry
     Harris-Foulkes estimate   =    -892.02904329 Ry
     estimated scf accuracy    <       0.00000422 Ry

     iteration # 13     ecut=   100.00 Ry     beta=0.50
     Davidson diagonalization with overlap
     ethr =  2.29E-09,  avg # of iterations =  3.0

     total cpu time spent up to now is      436.7 secs

     total energy              =    -892.02904210 Ry
     Harris-Foulkes estimate   =    -892.02904253 Ry
     estimated scf accuracy    <       0.00000077 Ry

     iteration # 14     ecut=   100.00 Ry     beta=0.50
     Davidson diagonalization with overlap
     ethr =  4.21E-10,  avg # of iterations =  4.0

     total cpu time spent up to now is      471.6 secs

     total energy              =    -892.02904240 Ry
     Harris-Foulkes estimate   =    -892.02904241 Ry
     estimated scf accuracy    <       0.00000011 Ry

     iteration # 15     ecut=   100.00 Ry     beta=0.50
     Davidson diagonalization with overlap
     ethr =  5.79E-11,  avg # of iterations =  4.0

     total cpu time spent up to now is      510.0 secs

     total energy              =    -892.02904254 Ry
     Harris-Foulkes estimate   =    -892.02904249 Ry
     estimated scf accuracy    <       0.00000031 Ry

     iteration # 16     ecut=   100.00 Ry     beta=0.50
     Davidson diagonalization with overlap
     ethr =  5.79E-11,  avg # of iterations =  1.0

     total cpu time spent up to now is      531.3 secs

     total energy              =    -892.02904232 Ry
     Harris-Foulkes estimate   =    -892.02904254 Ry
     estimated scf accuracy    <       0.00000041 Ry

     iteration # 17     ecut=   100.00 Ry     beta=0.50
     Davidson diagonalization with overlap
     ethr =  5.79E-11,  avg # of iterations =  3.1

     total cpu time spent up to now is      566.9 secs

     End of self-consistent calculation

          k = 0.0000 0.0000 0.0000 ( 63869 PWs)   bands (ev):

   -20.5508 -20.5175 -20.4914 -20.4843 -19.7513 -19.7306 -19.6936 -19.6873
   -18.9244 -18.9234 -18.9142 -18.9072 -15.2172 -15.1946 -15.1903 -15.1878
   -11.9267 -11.8627 -11.8562 -11.8298 -11.7279 -11.5297 -11.5247 -11.5240
    -9.7158  -9.6500  -9.6080  -9.5856  -7.6675  -7.6335  -7.5626  -7.5351
    -7.3951  -7.2458  -7.2019  -7.0404  -6.1497  -5.9290  -5.8005  -5.7966
    -5.7434  -5.7333  -5.6408  -5.5758  -5.1210  -4.9051  -4.7601  -4.6363
    -4.5959  -4.4854  -4.4732  -4.3147  -4.2996  -4.2705  -4.2399  -4.1988
    -4.0795  -3.9862  -3.9733  -3.8279  -3.5740  -3.4363  -3.4255  -3.4187
    -3.3332  -3.3300  -3.2984  -3.2773  -3.1969  -3.0598  -3.0467  -2.9244
    -2.9157  -2.8417  -2.8072  -2.7325  -0.6307  -0.5021  -0.3424  -0.3229
    -0.2971  -0.2732  -0.2489  -0.1478  -0.0595  -0.0316   0.1798   0.2043
     0.2836   0.3023   0.3257   0.4041   4.8463   5.0543   5.1196   5.2680
     5.2711   5.3964   5.6311   5.7693   6.6867   7.3898   7.4996   7.5148
     7.5194   7.7070   7.8221   8.1298   8.3284   8.3862

          k = 0.0000 0.0000-0.4451 ( 63842 PWs)   bands (ev):

   -20.5343 -20.5343 -20.4879 -20.4878 -19.7410 -19.7410 -19.6904 -19.6904
   -18.9194 -18.9193 -18.9153 -18.9153 -15.2027 -15.2026 -15.1924 -15.1923
   -11.8993 -11.8993 -11.8399 -11.8399 -11.6250 -11.6250 -11.5299 -11.5299
    -9.6505  -9.6505  -9.6269  -9.6269  -7.6161  -7.6161  -7.4784  -7.4784
    -7.3442  -7.3442  -7.2397  -7.2397  -5.9790  -5.9790  -5.8389  -5.8389
    -5.7210  -5.7210  -5.6083  -5.6083  -4.9024  -4.9024  -4.7607  -4.7607
    -4.6815  -4.6815  -4.4804  -4.4804  -4.2399  -4.2399  -4.1838  -4.1838
    -3.9370  -3.9369  -3.9168  -3.9168  -3.5490  -3.5490  -3.3771  -3.3771
    -3.2837  -3.2837  -3.2532  -3.2531  -3.1522  -3.1522  -2.9388  -2.9388
    -2.8879  -2.8879  -2.8490  -2.8490  -0.5774  -0.5774  -0.3255  -0.3255
    -0.3109  -0.3109  -0.1864  -0.1864   0.0772   0.0772   0.1632   0.1633
     0.2676   0.2676   0.3127   0.3127   5.0582   5.0583   5.1101   5.1102
     5.4607   5.4607   5.5045   5.5046   7.0345   7.0345   7.7034   7.7034
     7.9113   7.9113   7.9286   7.9286   8.1907   8.1907

          k = 0.0000-0.4180 0.0000 ( 63874 PWs)   bands (ev):

   -20.5181 -20.5181 -20.5037 -20.5037 -19.7212 -19.7212 -19.7153 -19.7153
   -18.9157 -18.9157 -18.9127 -18.9127 -15.2075 -15.2075 -15.1905 -15.1905
   -11.8916 -11.8916 -11.8490 -11.8490 -11.6270 -11.6270 -11.5279 -11.5279
    -9.6761  -9.6761  -9.5921  -9.5921  -7.6514  -7.6514  -7.5097  -7.5097
    -7.3578  -7.3578  -7.1237  -7.1237  -5.9812  -5.9812  -5.9611  -5.9611
    -5.6797  -5.6797  -5.6231  -5.6231  -4.8835  -4.8835  -4.7412  -4.7412
    -4.5263  -4.5263  -4.4069  -4.4069  -4.2891  -4.2891  -4.2077  -4.2077
    -4.0543  -4.0543  -3.9578  -3.9578  -3.6216  -3.6216  -3.3442  -3.3442
    -3.2934  -3.2934  -3.2436  -3.2436  -3.0704  -3.0704  -3.0135  -3.0135
    -2.8666  -2.8666  -2.8366  -2.8366  -0.4914  -0.4914  -0.3912  -0.3912
    -0.1977  -0.1977  -0.1707  -0.1707  -0.1102  -0.1102   0.1637   0.1637
     0.2920   0.2920   0.3380   0.3380   4.9506   4.9506   5.2233   5.2233
     5.5071   5.5071   5.5168   5.5168   6.9840   6.9840   7.5147   7.5147
     7.8790   7.8791   7.9576   7.9576   8.1922   8.1922

          k = 0.0000-0.4180-0.4451 ( 63800 PWs)   bands (ev):

   -20.5113 -20.5112 -20.5104 -20.5104 -19.7191 -19.7191 -19.7178 -19.7178
   -18.9146 -18.9145 -18.9137 -18.9137 -15.1995 -15.1995 -15.1987 -15.1986
   -11.8698 -11.8697 -11.8679 -11.8678 -11.5819 -11.5819 -11.5785 -11.5785
    -9.6318  -9.6318  -9.6314  -9.6314  -7.5641  -7.5641  -7.5628  -7.5628
    -7.2811  -7.2811  -7.2775  -7.2775  -5.9250  -5.9250  -5.9233  -5.9233
    -5.6566  -5.6565  -5.6555  -5.6555  -4.8826  -4.8826  -4.8806  -4.8806
    -4.5004  -4.5004  -4.4896  -4.4896  -4.1727  -4.1727  -4.1725  -4.1725
    -4.0035  -4.0035  -3.9982  -3.9982  -3.4638  -3.4638  -3.4621  -3.4621
    -3.2894  -3.2894  -3.2878  -3.2878  -3.0948  -3.0947  -3.0930  -3.0930
    -2.8087  -2.8087  -2.8055  -2.8055  -0.4522  -0.4522  -0.4508  -0.4507
    -0.1907  -0.1907  -0.1890  -0.1890   0.0950   0.0950   0.0961   0.0962
     0.2604   0.2605   0.2661   0.2661   5.1352   5.1352   5.1354   5.1354
     5.4492   5.4492   5.4507   5.4507   7.3034   7.3034   7.3095   7.3095
     7.8643   7.8644   7.8719   7.8719   8.2563   8.2597

          k = 0.3333 0.0000 0.2970 ( 63842 PWs)   bands (ev):

   -20.5300 -20.5172 -20.5018 -20.4954 -19.7373 -19.7310 -19.6988 -19.6961
   -18.9400 -18.9395 -18.8955 -18.8943 -15.2072 -15.2008 -15.1916 -15.1902
   -11.9130 -11.8979 -11.8417 -11.8344 -11.6459 -11.5964 -11.5296 -11.5258
    -9.6794  -9.6564  -9.6196  -9.6026  -7.6291  -7.6211  -7.5930  -7.4909
    -7.3385  -7.2589  -7.2448  -7.1523  -6.0066  -5.9404  -5.8673  -5.8378
    -5.7089  -5.7065  -5.6397  -5.5978  -4.9908  -4.8987  -4.7963  -4.7027
    -4.6971  -4.6846  -4.4545  -4.4076  -4.2611  -4.2354  -4.0993  -4.0949
    -4.0245  -3.9431  -3.8853  -3.7482  -3.5720  -3.5477  -3.4229  -3.4122
    -3.3910  -3.3699  -3.3037  -3.2519  -3.2010  -3.1819  -3.0580  -3.0256
    -2.8537  -2.8445  -2.7606  -2.7236  -0.5115  -0.4667  -0.3710  -0.3543
    -0.3135  -0.3065  -0.1357  -0.1248  -0.0340   0.0180   0.1144   0.1253
     0.2170   0.2494   0.3597   0.3701   4.9702   5.0315   5.1211   5.2236
     5.2911   5.3060   5.6417   5.6818   7.0286   7.1790   7.5237   7.6182
     7.8207   7.8234   7.9099   8.0574   8.0889   8.2312

          k = 0.3333 0.0000-0.1481 ( 63813 PWs)   bands (ev):

   -20.5348 -20.5133 -20.5030 -20.4931 -19.7401 -19.7289 -19.6996 -19.6947
   -18.9406 -18.9397 -18.8953 -18.8936 -15.2108 -15.1999 -15.1916 -15.1874
   -11.9153 -11.8877 -11.8455 -11.8334 -11.6745 -11.5922 -11.5217 -11.5168
    -9.6909  -9.6463  -9.6240  -9.5923  -7.6458  -7.6032  -7.5779  -7.4074
    -7.4028  -7.2961  -7.2656  -7.1349  -6.0462  -5.9544  -5.8260  -5.8112
    -5.7336  -5.7315  -5.6668  -5.6141  -5.0047  -4.8288  -4.7983  -4.6996
    -4.6261  -4.5760  -4.4501  -4.3502  -4.3050  -4.2518  -4.1190  -4.1091
    -4.0906  -3.9641  -3.9368  -3.7109  -3.6041  -3.5529  -3.4692  -3.4008
    -3.3835  -3.3381  -3.2526  -3.2348  -3.2205  -3.1444  -3.0844  -3.0749
    -2.8372  -2.8352  -2.7932  -2.7227  -0.5233  -0.4444  -0.3588  -0.3407
    -0.3210  -0.3148  -0.1499  -0.1362  -0.0784   0.0089   0.0743   0.1172
     0.2650   0.2784   0.3713   0.3958   4.9022   5.0126   5.1498   5.2443
     5.2455   5.3067   5.6921   5.7562   6.9966   7.2883   7.4148   7.5346
     7.8362   7.8576   7.9054   8.1320   8.1764   8.2119

          k = 0.3333-0.4180 0.2970 ( 63842 PWs)   bands (ev):

   -20.5120 -20.5120 -20.5085 -20.5085 -19.7205 -19.7205 -19.7186 -19.7185
   -18.9143 -18.9143 -18.9130 -18.9130 -15.2010 -15.2010 -15.1970 -15.1970
   -11.8770 -11.8770 -11.8660 -11.8660 -11.5886 -11.5885 -11.5643 -11.5643
    -9.6436  -9.6436  -9.6238  -9.6238  -7.6094  -7.6094  -7.5610  -7.5610
    -7.2911  -7.2911  -7.2156  -7.2156  -5.9146  -5.9146  -5.8842  -5.8842
    -5.6877  -5.6877  -5.6360  -5.6360  -4.9894  -4.9894  -4.8808  -4.8808
    -4.5270  -4.5270  -4.3840  -4.3840  -4.2578  -4.2578  -4.1388  -4.1388
    -3.9363  -3.9362  -3.8897  -3.8897  -3.5544  -3.5544  -3.4887  -3.4887
    -3.3443  -3.3443  -3.2797  -3.2797  -3.1433  -3.1433  -3.0693  -3.0693
    -2.8143  -2.8143  -2.7629  -2.7629  -0.4370  -0.4370  -0.4071  -0.4071
    -0.2003  -0.2003  -0.1795  -0.1795   0.0090   0.0090   0.0954   0.0954
     0.2531   0.2531   0.2892   0.2892   5.0586   5.0586   5.1546   5.1547
     5.4487   5.4487   5.4940   5.4940   7.3135   7.3135   7.4456   7.4456
     7.6795   7.6795   7.8673   7.8673   8.3568   8.3569

          k = 0.3333-0.4180-0.1481 ( 63846 PWs)   bands (ev):

   -20.5134 -20.5134 -20.5072 -20.5072 -19.7209 -19.7209 -19.7180 -19.7180
   -18.9145 -18.9145 -18.9129 -18.9129 -15.2028 -15.2028 -15.1952 -15.1952
   -11.8804 -11.8804 -11.8610 -11.8610 -11.6002 -11.6002 -11.5559 -11.5559
    -9.6517  -9.6517  -9.6145  -9.6145  -7.6060  -7.6059  -7.5154  -7.5154
    -7.3404  -7.3404  -7.2140  -7.2140  -5.9264  -5.9263  -5.8912  -5.8912
    -5.7210  -5.7210  -5.6584  -5.6584  -4.8986  -4.8986  -4.7512  -4.7512
    -4.6083  -4.6083  -4.4168  -4.4167  -4.2878  -4.2878  -4.1549  -4.1549
    -3.9237  -3.9237  -3.8905  -3.8905  -3.5370  -3.5370  -3.4217  -3.4217
    -3.3914  -3.3914  -3.2877  -3.2877  -3.1651  -3.1651  -3.0876  -3.0876
    -2.8003  -2.8003  -2.7657  -2.7657  -0.4406  -0.4406  -0.3919  -0.3919
    -0.2059  -0.2058  -0.1837  -0.1837  -0.0443  -0.0443   0.0874   0.0874
     0.2848   0.2848   0.3168   0.3168   5.0130   5.0130   5.1452   5.1452
     5.4922   5.4922   5.5212   5.5212   7.2596   7.2596   7.4361   7.4361
     7.7707   7.7707   8.0064   8.0064   8.2723   8.2724

     highest occupied, lowest unoccupied level (ev):     0.4041    4.8463

!    total energy              =    -892.02904238 Ry
     Harris-Foulkes estimate   =    -892.02904239 Ry
     estimated scf accuracy    <          2.9E-09 Ry

     total all-electron energy =     -3337.420075 Ry

     The total energy is the sum of the following terms:

     one-electron contribution =    -441.73093453 Ry
     hartree contribution      =     290.79052192 Ry
     xc contribution           =    -191.94595855 Ry
     ewald contribution        =    -300.10699721 Ry
     Dispersion Correction     =      -0.29430003 Ry
     one-center paw contrib.   =    -248.74137398 Ry

     convergence has been achieved in  17 iterations

     Forces acting on atoms (cartesian axes, Ry/au):

     atom    1 type  4   force =    -0.00078759    0.00057287   -0.00016347
     atom    2 type  4   force =     0.00078820    0.00057490    0.00016235
     atom    3 type  4   force =     0.00078759   -0.00057287    0.00016347
     atom    4 type  4   force =    -0.00078820   -0.00057490   -0.00016235
     atom    5 type  1   force =    -0.00019588   -0.00083811   -0.00043987
     atom    6 type  1   force =     0.00019445   -0.00083934    0.00044156
     atom    7 type  1   force =     0.00019588    0.00083811    0.00043987
     atom    8 type  1   force =    -0.00019445    0.00083934   -0.00044156
     atom    9 type  2   force =     0.00089155    0.00156669    0.00080806
     atom   10 type  2   force =    -0.00089168    0.00156767   -0.00080820
     atom   11 type  2   force =    -0.00089155   -0.00156669   -0.00080806
     atom   12 type  2   force =     0.00089168   -0.00156767    0.00080820
     atom   13 type  2   force =     0.00109367   -0.00136614   -0.00045924
     atom   14 type  2   force =    -0.00109356   -0.00136616    0.00045901
     atom   15 type  2   force =    -0.00109367    0.00136614    0.00045924
     atom   16 type  2   force =     0.00109356    0.00136616   -0.00045901
     atom   17 type  1   force =     0.00022049    0.00098711    0.00041214
     atom   18 type  1   force =    -0.00021135    0.00098735   -0.00041695
     atom   19 type  1   force =    -0.00022049   -0.00098711   -0.00041214
     atom   20 type  1   force =     0.00021135   -0.00098735    0.00041695
     atom   21 type  4   force =    -0.00082242   -0.00072850    0.00017167
     atom   22 type  4   force =     0.00082263   -0.00072632   -0.00017300
     atom   23 type  4   force =     0.00082242    0.00072850   -0.00017167
     atom   24 type  4   force =    -0.00082263    0.00072632    0.00017300
     atom   25 type  1   force =    -0.00022174   -0.00032643    0.00000309
     atom   26 type  1   force =     0.00023299   -0.00032611   -0.00000886
     atom   27 type  1   force =     0.00022174    0.00032643   -0.00000309
     atom   28 type  1   force =    -0.00023299    0.00032611    0.00000886
     atom   29 type  1   force =    -0.00011843    0.00075024    0.00008312
     atom   30 type  1   force =     0.00012274    0.00074969   -0.00008388
     atom   31 type  1   force =     0.00011843   -0.00075024   -0.00008312
     atom   32 type  1   force =    -0.00012274   -0.00074969    0.00008388
     atom   33 type  3   force =    -0.00006518   -0.00034275   -0.00014339
     atom   34 type  3   force =     0.00006508   -0.00034241    0.00014326
     atom   35 type  3   force =     0.00006518    0.00034275    0.00014339
     atom   36 type  3   force =    -0.00006508    0.00034241   -0.00014326
     atom   37 type  3   force =     0.00104046   -0.00022004    0.00068811
     atom   38 type  3   force =    -0.00103990   -0.00022045   -0.00068780
     atom   39 type  3   force =    -0.00104046    0.00022004   -0.00068811
     atom   40 type  3   force =     0.00103990    0.00022045    0.00068780
     atom   41 type  3   force =    -0.00016529   -0.00058470    0.00059053
     atom   42 type  3   force =     0.00016541   -0.00058424   -0.00059076
     atom   43 type  3   force =     0.00016529    0.00058470   -0.00059053
     atom   44 type  3   force =    -0.00016541    0.00058424    0.00059076
     atom   45 type  3   force =    -0.00036977   -0.00063433    0.00049666
     atom   46 type  3   force =     0.00036997   -0.00063445   -0.00049672
     atom   47 type  3   force =     0.00036977    0.00063433   -0.00049666
     atom   48 type  3   force =    -0.00036997    0.00063445    0.00049672
     atom   49 type  3   force =    -0.00020817    0.00017550   -0.00011637
     atom   50 type  3   force =     0.00020840    0.00017549    0.00011659
     atom   51 type  3   force =     0.00020817   -0.00017550    0.00011637
     atom   52 type  3   force =    -0.00020840   -0.00017549   -0.00011659
     atom   53 type  3   force =    -0.00041632    0.00057469   -0.00062708
     atom   54 type  3   force =     0.00041630    0.00057441    0.00062644
     atom   55 type  3   force =     0.00041632   -0.00057469    0.00062708
     atom   56 type  3   force =    -0.00041630   -0.00057441   -0.00062644
     atom   57 type  3   force =     0.00091795   -0.00003855   -0.00073538
     atom   58 type  3   force =    -0.00091767   -0.00003844    0.00073545
     atom   59 type  3   force =    -0.00091795    0.00003855    0.00073538
     atom   60 type  3   force =     0.00091767    0.00003844   -0.00073545
     atom   61 type  3   force =    -0.00033030    0.00078696   -0.00080363
     atom   62 type  3   force =     0.00033031    0.00078723    0.00080370
     atom   63 type  3   force =     0.00033030   -0.00078696    0.00080363
     atom   64 type  3   force =    -0.00033031   -0.00078723   -0.00080370

     Total force =     0.008776     Total SCF correction =     0.000108


     Computing stress (Cartesian axis) and pressure

          total   stress  (Ry/bohr**3)                   (kbar)     P=   -5.32
  -0.00003727   0.00000000   0.00000026         -5.48      0.00      0.04
   0.00000000  -0.00002761   0.00000001          0.00     -4.06      0.00
   0.00000026   0.00000001  -0.00004362          0.04      0.00     -6.42


     Writing output data file scf.save
 
     init_run     :     17.19s CPU     17.91s WALL (       1 calls)
     electrons    :    521.11s CPU    547.34s WALL (       1 calls)
     forces       :      8.59s CPU      8.65s WALL (       1 calls)
     stress       :     23.88s CPU     23.91s WALL (       1 calls)

     Called by init_run:
     wfcinit      :     11.30s CPU     11.85s WALL (       1 calls)
     potinit      :      2.08s CPU      2.13s WALL (       1 calls)

     Called by electrons:
     c_bands      :    459.49s CPU    481.57s WALL (      17 calls)
     sum_band     :     52.76s CPU     56.21s WALL (      17 calls)
     v_of_rho     :      1.45s CPU      1.64s WALL (      18 calls)
     newd         :      2.62s CPU      3.06s WALL (      18 calls)
     PAW_pot      :      4.34s CPU      4.34s WALL (      18 calls)
     mix_rho      :      0.27s CPU      0.30s WALL (      17 calls)

     Called by c_bands:
     init_us_2    :      3.12s CPU      3.14s WALL (     296 calls)
     cegterg      :    448.50s CPU    470.54s WALL (     136 calls)

     Called by sum_band:
     sum_band:bec :      0.03s CPU      0.03s WALL (     136 calls)
     addusdens    :      2.58s CPU      3.02s WALL (      17 calls)

     Called by *egterg:
     h_psi        :    281.95s CPU    299.61s WALL (     613 calls)
     s_psi        :     41.99s CPU     42.01s WALL (     613 calls)
     g_psi        :      1.49s CPU      1.49s WALL (     469 calls)
     cdiaghg      :     22.80s CPU     22.81s WALL (     605 calls)

     Called by h_psi:
     h_psi:pot    :    280.32s CPU    297.95s WALL (     613 calls)
     h_psi:calbec :     41.48s CPU     41.65s WALL (     613 calls)
     vloc_psi     :    196.98s CPU    214.42s WALL (     613 calls)
     add_vuspsi   :     41.86s CPU     41.87s WALL (     613 calls)

     General routines
     calbec       :     59.33s CPU     59.55s WALL (     789 calls)
     fft          :      0.96s CPU      1.34s WALL (     258 calls)
     fftw         :    212.67s CPU    231.64s WALL (  104524 calls)
 
     Parallel routines
     fft_scatter  :     51.95s CPU     65.07s WALL (  104782 calls)
 
     PWSCF        :  9m36.35s CPU    10m 5.00s WALL

 
   This run was terminated on:  15: 0:39   4Nov2017            

=------------------------------------------------------------------------------=
   JOB DONE.
=------------------------------------------------------------------------------=
