
     Program PWSCF v.6.1 (svn rev. 13369) starts on  4Nov2017 at  4: 4:16 

     This program is part of the open-source Quantum ESPRESSO suite
     for quantum simulation of materials; please cite
         "P. Giannozzi et al., J. Phys.:Condens. Matter 21 395502 (2009);
          URL http://www.quantum-espresso.org", 
     in publications or presentations arising from this work. More details at
     http://www.quantum-espresso.org/quote

     Parallel version (MPI), running on     8 processors
     R & G space division:  proc/nbgrp/npool/nimage =       8
     Waiting for input...
     Reading input from standard input

     Current dimensions of program PWSCF are:
     Max number of different atomic species (ntypx) = 10
     Max number of k-points (npk) =  40000
     Max angular momentum in pseudopotentials (lmaxx) =  3
               file C.pbe-n-kjpaw_psl.0.1.UPF: wavefunction(s)  2P renormalized
               file N.pbe-n-kjpaw_psl.0.1.UPF: wavefunction(s)  2P renormalized
               file H.pbe-kjpaw_psl.0.1.UPF: wavefunction(s)  1S renormalized
               file O.pbe-n-kjpaw_psl.0.1.UPF: wavefunction(s)  2P renormalized

     -------------------------------------
     Parameters for Dispersion Correction:
     -------------------------------------
       atom      VdW radius       C_6     

        C          2.744         60.710
        N          2.640         42.670
        H          1.892          4.857
        O          2.536         24.284

     Subspace diagonalization in iterative solution of the eigenvalue problem:
     a serial algorithm will be used

 
     Parallelization info
     --------------------
     sticks:   dense  smooth     PW     G-vecs:    dense   smooth      PW
     Min        2434    2434    638               180542   180542   24302
     Max        2435    2435    639               180544   180544   24305
     Sum       19473   19473   5111              1444339  1444339  194427
 


     bravais-lattice index     =            0
     lattice parameter (alat)  =      18.1847  a.u.
     unit-cell volume          =   10690.4436 (a.u.)^3
     number of atoms/cell      =          144
     number of atomic types    =            4
     number of electrons       =       536.00
     number of Kohn-Sham states=          321
     kinetic-energy cutoff     =     100.0000  Ry
     charge density cutoff     =     400.0000  Ry
     convergence threshold     =      1.0E-08
     mixing beta               =       0.5000
     number of iterations used =            8  plain     mixing
     Exchange-correlation      =  SLA  PW   PBX  PBC ( 1  4  3  4 0 0)

     celldm(1)=  18.184665  celldm(2)=   0.000000  celldm(3)=   0.000000
     celldm(4)=   0.000000  celldm(5)=   0.000000  celldm(6)=   0.000000

     crystal axes: (cart. coord. in units of alat)
               a(1) = (   1.000000   0.000000   0.000000 )  
               a(2) = (   0.000000   1.851103   0.000000 )  
               a(3) = (   0.000000   0.000000   0.960393 )  

     reciprocal axes: (cart. coord. in units 2 pi/alat)
               b(1) = (  1.000000  0.000000  0.000000 )  
               b(2) = (  0.000000  0.540218  0.000000 )  
               b(3) = (  0.000000  0.000000  1.041240 )  


     PseudoPot. # 1 for  C read from file:
     /scratch/ahofstet/pseudo/C.pbe-n-kjpaw_psl.0.1.UPF
     MD5 check sum: 430fe95172b1e11ef3f8ed03bac87931
     Pseudo is Projector augmented-wave + core cor, Zval =  4.0
     Generated using "atomic" code by A. Dal Corso  v.5.0.99 svn rev. 10869
     Shape of augmentation charge: BESSEL
     Using radial grid of 1073 points,  4 beta functions with: 
                l(1) =   0
                l(2) =   0
                l(3) =   1
                l(4) =   1
     Q(r) pseudized with 0 coefficients 


     PseudoPot. # 2 for  N read from file:
     /scratch/ahofstet/pseudo/N.pbe-n-kjpaw_psl.0.1.UPF
     MD5 check sum: f73187c8b701007e77325f868c9291d7
     Pseudo is Projector augmented-wave + core cor, Zval =  5.0
     Generated using "atomic" code by A. Dal Corso  v.5.0.99 svn rev. 10869
     Shape of augmentation charge: PSQ
     Using radial grid of 1085 points,  4 beta functions with: 
                l(1) =   0
                l(2) =   0
                l(3) =   1
                l(4) =   1
     Q(r) pseudized with 0 coefficients 


     PseudoPot. # 3 for  H read from file:
     /scratch/ahofstet/pseudo/H.pbe-kjpaw_psl.0.1.UPF
     MD5 check sum: 94e484f906d9e9773b2f6e52662335b2
     Pseudo is Projector augmented-wave, Zval =  1.0
     Generated using "atomic" code by A. Dal Corso  v.5.0.99 svn rev. 10869
     Shape of augmentation charge: PSQ
     Using radial grid of  929 points,  2 beta functions with: 
                l(1) =   0
                l(2) =   0
     Q(r) pseudized with 0 coefficients 


     PseudoPot. # 4 for  O read from file:
     /scratch/ahofstet/pseudo/O.pbe-n-kjpaw_psl.0.1.UPF
     MD5 check sum: 3f94a2996a3169367d6eb21d9b593f20
     Pseudo is Projector augmented-wave + core cor, Zval =  6.0
     Generated using "atomic" code by A. Dal Corso  v.5.0.99 svn rev. 10869
     Shape of augmentation charge: BESSEL
     Using radial grid of 1095 points,  4 beta functions with: 
                l(1) =   0
                l(2) =   0
                l(3) =   1
                l(4) =   1
     Q(r) pseudized with 0 coefficients 


     atomic species   valence    mass     pseudopotential
        C              4.00    12.01070      C( 1.00)
        N              5.00    14.00670      N( 1.00)
        H              1.00     1.00794      H( 1.00)
        O              6.00    15.99940      O( 1.00)

      4 Sym. Ops. (no inversion) found ( 3 have fractional translation)



   Cartesian axes

     site n.     atom                  positions (alat units)
         1           C   tau(   1) = (   0.0305596   0.0151770   0.6001168  )
         2           C   tau(   2) = (   0.4694404   0.0151770   0.1199201  )
         3           C   tau(   3) = (   0.5305596   1.8359262   0.6001168  )
         4           C   tau(   4) = (   0.9694404   1.8359262   0.1199201  )
         5           C   tau(   5) = (   0.0742614   0.1579562   0.5585095  )
         6           C   tau(   6) = (   0.4257386   0.1579562   0.0783128  )
         7           C   tau(   7) = (   0.5742614   1.6931470   0.5585095  )
         8           C   tau(   8) = (   0.9257386   1.6931470   0.0783128  )
         9           C   tau(   9) = (   1.0106010   0.2853443   0.5853660  )
        10           C   tau(  10) = (   0.4893990   0.2853443   0.1051692  )
        11           C   tau(  11) = (   0.5106010   1.5657590   0.5853660  )
        12           C   tau(  12) = (  -0.0106010   1.5657590   0.1051692  )
        13           C   tau(  13) = (   0.0763013   0.4005337   0.5275058  )
        14           C   tau(  14) = (   0.4236987   0.4005337   0.0473091  )
        15           C   tau(  15) = (   0.5763013   1.4505695   0.5275058  )
        16           C   tau(  16) = (   0.9236987   1.4505695   0.0473091  )
        17           C   tau(  17) = (   0.0329802   0.5498685   0.5276774  )
        18           C   tau(  18) = (   0.4670198   0.5498685   0.0474807  )
        19           C   tau(  19) = (   0.5329802   1.3012347   0.5276774  )
        20           C   tau(  20) = (   0.9670198   1.3012347   0.0474807  )
        21           C   tau(  21) = (   0.2401198   0.5292536   0.4006945  )
        22           C   tau(  22) = (   0.2598802   0.5292536   0.8808912  )
        23           C   tau(  23) = (   0.7401198   1.3218497   0.4006945  )
        24           C   tau(  24) = (   0.7598802   1.3218497   0.8808912  )
        25           C   tau(  25) = (   0.1984078   0.3886626   0.4491744  )
        26           C   tau(  26) = (   0.3015922   0.3886626   0.9293711  )
        27           C   tau(  27) = (   0.6984078   1.4624406   0.4491744  )
        28           C   tau(  28) = (   0.8015922   1.4624406   0.9293711  )
        29           C   tau(  29) = (   0.2603430   0.2616812   0.4197633  )
        30           C   tau(  30) = (   0.2396570   0.2616812   0.8999600  )
        31           C   tau(  31) = (   0.7603430   1.5894220   0.4197633  )
        32           C   tau(  32) = (   0.7396570   1.5894220   0.8999600  )
        33           C   tau(  33) = (   0.1929837   0.1472022   0.4761223  )
        34           C   tau(  34) = (   0.3070163   0.1472022   0.9563190  )
        35           C   tau(  35) = (   0.6929837   1.7039010   0.4761223  )
        36           C   tau(  36) = (   0.8070163   1.7039010   0.9563190  )
        37           C   tau(  37) = (   0.2265705   1.8500112   0.4562558  )
        38           C   tau(  38) = (   0.2734295   1.8500112   0.9364525  )
        39           C   tau(  39) = (   0.7265705   0.0010921   0.4562558  )
        40           C   tau(  40) = (   0.7734295   0.0010921   0.9364525  )
        41           C   tau(  41) = (   0.1237768   1.6272235   0.5400959  )
        42           C   tau(  42) = (   0.3762232   1.6272235   0.0598991  )
        43           C   tau(  43) = (   0.6237768   0.2238798   0.5400959  )
        44           C   tau(  44) = (   0.8762232   0.2238798   0.0598991  )
        45           C   tau(  45) = (   0.1752320   1.5472535   0.4286303  )
        46           C   tau(  46) = (   0.3247680   1.5472535   0.9088270  )
        47           C   tau(  47) = (   0.6752320   0.3038498   0.4286303  )
        48           C   tau(  48) = (   0.8247680   0.3038498   0.9088270  )
        49           C   tau(  49) = (   0.1270893   1.3496801   0.5496723  )
        50           C   tau(  50) = (   0.3729107   1.3496801   0.0694756  )
        51           C   tau(  51) = (   0.6270893   0.5014231   0.5496723  )
        52           C   tau(  52) = (   0.8729107   0.5014231   0.0694756  )
        53           C   tau(  53) = (   0.0750181   1.4294311   0.6586685  )
        54           C   tau(  54) = (   0.4249819   1.4294311   0.1784718  )
        55           C   tau(  55) = (   0.5750181   0.4216722   0.6586685  )
        56           C   tau(  56) = (   0.9249819   0.4216722   0.1784718  )
        57           C   tau(  57) = (   0.1387095   0.7658650   0.4216596  )
        58           C   tau(  58) = (   0.3612905   0.7658650   0.9018563  )
        59           C   tau(  59) = (   0.6387095   1.0852382   0.4216596  )
        60           C   tau(  60) = (   0.8612905   1.0852382   0.9018563  )
        61           C   tau(  61) = (   0.0592450   0.8184355   0.3122511  )
        62           C   tau(  62) = (   0.4407550   0.8184355   0.7924478  )
        63           C   tau(  63) = (   0.5592450   1.0326677   0.3122511  )
        64           C   tau(  64) = (   0.9407550   1.0326677   0.7924478  )
        65           C   tau(  65) = (   0.1452261   1.0337286   0.3566448  )
        66           C   tau(  66) = (   0.3547739   1.0337286   0.8368415  )
        67           C   tau(  67) = (   0.6452261   0.8173747   0.3566448  )
        68           C   tau(  68) = (   0.8547739   0.8173747   0.8368415  )
        69           C   tau(  69) = (   0.2258189   0.9794813   0.4651323  )
        70           C   tau(  70) = (   0.2741811   0.9794813  -0.0150644  )
        71           C   tau(  71) = (   0.7258189   0.8716220   0.4651323  )
        72           C   tau(  72) = (   0.7741811   0.8716220  -0.0150644  )
        73           N   tau(  73) = (   0.1368433   0.6203506   0.4506765  )
        74           N   tau(  74) = (   0.3631567   0.6203506   0.9308733  )
        75           N   tau(  75) = (   0.6368433   1.2307527   0.4506765  )
        76           N   tau(  76) = (   0.8631567   1.2307527   0.9308733  )
        77           N   tau(  77) = (   0.1260093   1.7740543   0.5331563  )
        78           N   tau(  78) = (   0.3739907   1.7740543   0.0529595  )
        79           N   tau(  79) = (   0.6260093   0.0770489   0.5331563  )
        80           N   tau(  80) = (   0.8739907   0.0770489   0.0529595  )
        81           N   tau(  81) = (   0.2228037   0.8442417   0.4982531  )
        82           N   tau(  82) = (   0.2771963   0.8442417   0.0180563  )
        83           N   tau(  83) = (   0.7228037   1.0068615   0.4982531  )
        84           N   tau(  84) = (   0.7771963   1.0068615   0.0180563  )
        85           N   tau(  85) = (   0.0618494   0.9531638   0.2794706  )
        86           N   tau(  86) = (   0.4381506   0.9531638   0.7596674  )
        87           N   tau(  87) = (   0.5618494   0.8979394   0.2794706  )
        88           N   tau(  88) = (   0.9381506   0.8979394   0.7596674  )
        89           N   tau(  89) = (   0.0739508   1.5683783   0.6554438  )
        90           N   tau(  90) = (   0.4260492   1.5683783   0.1752471  )
        91           N   tau(  91) = (   0.5739508   0.2827249   0.6554438  )
        92           N   tau(  92) = (   0.9260492   0.2827249   0.1752471  )
        93           N   tau(  93) = (   0.1774353   1.4087650   0.4342464  )
        94           N   tau(  94) = (   0.3225647   1.4087650   0.9144431  )
        95           N   tau(  95) = (   0.6774353   0.4423382   0.4342464  )
        96           N   tau(  96) = (   0.8225647   0.4423382   0.9144431  )
        97           O   tau(  97) = (   0.9323534   1.8335697   0.6716506  )
        98           O   tau(  98) = (   0.5676466   1.8335697   0.1914539  )
        99           O   tau(  99) = (   0.4323534   0.0175335   0.6716506  )
       100           O   tau( 100) = (   0.0676466   0.0175335   0.1914539  )
       101           O   tau( 101) = (   0.9291990   0.6021994   0.5761956  )
       102           O   tau( 102) = (   0.5708010   0.6021994   0.0959989  )
       103           O   tau( 103) = (   0.4291990   1.2489039   0.5761956  )
       104           O   tau( 104) = (   0.0708010   1.2489039   0.0959989  )
       105           O   tau( 105) = (   0.3396558   0.5616400   0.3299546  )
       106           O   tau( 106) = (   0.1603442   0.5616400   0.8101513  )
       107           O   tau( 107) = (   0.8396558   1.2894632   0.3299546  )
       108           O   tau( 108) = (   0.6603442   1.2894632   0.8101513  )
       109           O   tau( 109) = (   0.3212901   1.8013376   0.3885956  )
       110           O   tau( 110) = (   0.1787099   1.8013376   0.8687923  )
       111           O   tau( 111) = (   0.8212901   0.0497657   0.3885956  )
       112           O   tau( 112) = (   0.6787099   0.0497657   0.8687923  )
       113           H   tau( 113) = (   0.9155987   0.2949286   0.6458194  )
       114           H   tau( 114) = (   0.5844013   0.2949286   0.1656227  )
       115           H   tau( 115) = (   0.4155987   1.5561747   0.6458194  )
       116           H   tau( 116) = (   0.0844013   1.5561747   0.1656227  )
       117           H   tau( 117) = (   0.3525100   0.2522786   0.3547836  )
       118           H   tau( 118) = (   0.1474900   0.2522786   0.8349803  )
       119           H   tau( 119) = (   0.8525100   1.5988247   0.3547836  )
       120           H   tau( 120) = (   0.6474900   1.5988247   0.8349803  )
       121           H   tau( 121) = (   0.2185196   1.5969667   0.3367882  )
       122           H   tau( 122) = (   0.2814804   1.5969667   0.8169849  )
       123           H   tau( 123) = (   0.7185196   0.2541365   0.3367882  )
       124           H   tau( 124) = (   0.7814804   0.2541365   0.8169849  )
       125           H   tau( 125) = (   0.1294941   1.2365508   0.5556532  )
       126           H   tau( 126) = (   0.3705059   1.2365508   0.0754565  )
       127           H   tau( 127) = (   0.6294941   0.6145525   0.5556532  )
       128           H   tau( 128) = (   0.8705059   0.6145525   0.0754565  )
       129           H   tau( 129) = (   0.0355473   1.3802351   0.7528422  )
       130           H   tau( 130) = (   0.4644527   1.3802351   0.2726455  )
       131           H   tau( 131) = (   0.5355473   0.4708682   0.7528422  )
       132           H   tau( 132) = (   0.9644527   0.4708682   0.2726455  )
       133           H   tau( 133) = (  -0.0062319   0.7500230   0.2495955  )
       134           H   tau( 134) = (   0.5062319   0.7500230   0.7297922  )
       135           H   tau( 135) = (   0.4937681   1.1010802   0.2495955  )
       136           H   tau( 136) = (   1.0062319   1.1010802   0.7297922  )
       137           H   tau( 137) = (   0.1486851   1.1441357   0.3298380  )
       138           H   tau( 138) = (   0.3513149   1.1441357   0.8100347  )
       139           H   tau( 139) = (   0.6486851   0.7069676   0.3298380  )
       140           H   tau( 140) = (   0.8513149   0.7069676   0.8100347  )
       141           H   tau( 141) = (   0.2956176   1.0454362   0.5257758  )
       142           H   tau( 142) = (   0.2043824   1.0454362   0.0455790  )
       143           H   tau( 143) = (   0.7956176   0.8056670   0.5257758  )
       144           H   tau( 144) = (   0.7043824   0.8056670   0.0455790  )

     number of k points=     4
                       cart. coord. in units 2pi/alat
        k(    1) = (   0.0000000   0.0000000   0.0000000), wk =   0.5000000
        k(    2) = (   0.0000000   0.0000000  -0.5206199), wk =   0.5000000
        k(    3) = (  -0.5000000   0.0000000   0.0000000), wk =   0.5000000
        k(    4) = (  -0.5000000   0.0000000  -0.5206199), wk =   0.5000000

     Dense  grid:  1444339 G-vectors     FFT dimensions: ( 120, 216, 120)

     Estimated max dynamical RAM per process >    1929.74MB

     Estimated total allocated dynamical RAM >   15437.90MB

     Check: negative/imaginary core charge=   -0.000002    0.000000

     Initial potential from superposition of free atoms

     starting charge  535.99650, renormalised to  536.00000
     Starting wfc are  480 randomized atomic wfcs
     Checking if some PAW data can be deallocated... 

     total cpu time spent up to now is       78.8 secs

     per-process dynamical memory:  1078.3 Mb

     Self-consistent Calculation

     iteration #  1     ecut=   100.00 Ry     beta=0.50
     Davidson diagonalization with overlap
     ethr =  1.00E-02,  avg # of iterations =  5.2

     total cpu time spent up to now is      324.1 secs

     total energy              =   -2706.23256149 Ry
     Harris-Foulkes estimate   =   -2714.20238079 Ry
     estimated scf accuracy    <      15.12560443 Ry

     iteration #  2     ecut=   100.00 Ry     beta=0.50
     Davidson diagonalization with overlap
     ethr =  2.82E-03,  avg # of iterations =  2.5

     total cpu time spent up to now is      451.9 secs

     total energy              =   -2707.06830075 Ry
     Harris-Foulkes estimate   =   -2708.69819685 Ry
     estimated scf accuracy    <       3.21505675 Ry

     iteration #  3     ecut=   100.00 Ry     beta=0.50
     Davidson diagonalization with overlap
     ethr =  6.00E-04,  avg # of iterations =  7.5

     total cpu time spent up to now is      702.1 secs

     total energy              =   -2708.53735833 Ry
     Harris-Foulkes estimate   =   -2709.24541875 Ry
     estimated scf accuracy    <       1.72534489 Ry

     iteration #  4     ecut=   100.00 Ry     beta=0.50
     Davidson diagonalization with overlap
     ethr =  3.22E-04,  avg # of iterations =  9.2

     total cpu time spent up to now is      842.8 secs

     total energy              =   -2708.64695989 Ry
     Harris-Foulkes estimate   =   -2708.78793331 Ry
     estimated scf accuracy    <       0.30209113 Ry

     iteration #  5     ecut=   100.00 Ry     beta=0.50
     Davidson diagonalization with overlap
     ethr =  5.64E-05,  avg # of iterations =  7.0

     total cpu time spent up to now is     1085.8 secs

     total energy              =   -2708.80256688 Ry
     Harris-Foulkes estimate   =   -2708.85745042 Ry
     estimated scf accuracy    <       0.18166996 Ry

     iteration #  6     ecut=   100.00 Ry     beta=0.50
     Davidson diagonalization with overlap
     ethr =  3.39E-05,  avg # of iterations =  9.8

     total cpu time spent up to now is     1224.1 secs

     total energy              =   -2708.80740048 Ry
     Harris-Foulkes estimate   =   -2708.82617965 Ry
     estimated scf accuracy    <       0.04092202 Ry

     iteration #  7     ecut=   100.00 Ry     beta=0.50
     Davidson diagonalization with overlap
     ethr =  7.63E-06,  avg # of iterations = 12.2

     total cpu time spent up to now is     1437.7 secs

     total energy              =   -2708.81841830 Ry
     Harris-Foulkes estimate   =   -2708.81975416 Ry
     estimated scf accuracy    <       0.00376787 Ry

     iteration #  8     ecut=   100.00 Ry     beta=0.50
     Davidson diagonalization with overlap
     ethr =  7.03E-07,  avg # of iterations =  5.2

     total cpu time spent up to now is     1637.5 secs

     total energy              =   -2708.81981799 Ry
     Harris-Foulkes estimate   =   -2708.82036558 Ry
     estimated scf accuracy    <       0.00155326 Ry

     iteration #  9     ecut=   100.00 Ry     beta=0.50
     Davidson diagonalization with overlap
     ethr =  2.90E-07,  avg # of iterations =  2.0

     total cpu time spent up to now is     1754.4 secs

     total energy              =   -2708.81985718 Ry
     Harris-Foulkes estimate   =   -2708.81999222 Ry
     estimated scf accuracy    <       0.00031785 Ry

     iteration # 10     ecut=   100.00 Ry     beta=0.50
     Davidson diagonalization with overlap
     ethr =  5.93E-08,  avg # of iterations =  4.0

     total cpu time spent up to now is     1977.9 secs

     total energy              =   -2708.82002637 Ry
     Harris-Foulkes estimate   =   -2708.82008895 Ry
     estimated scf accuracy    <       0.00015239 Ry

     iteration # 11     ecut=   100.00 Ry     beta=0.50
     Davidson diagonalization with overlap
     ethr =  2.84E-08,  avg # of iterations =  2.0

     total cpu time spent up to now is     2094.6 secs

     total energy              =   -2708.82002463 Ry
     Harris-Foulkes estimate   =   -2708.82003863 Ry
     estimated scf accuracy    <       0.00002973 Ry

     iteration # 12     ecut=   100.00 Ry     beta=0.50
     Davidson diagonalization with overlap
     ethr =  5.55E-09,  avg # of iterations =  5.0

     total cpu time spent up to now is     2334.2 secs

     total energy              =   -2708.82004610 Ry
     Harris-Foulkes estimate   =   -2708.82005752 Ry
     estimated scf accuracy    <       0.00002814 Ry

     iteration # 13     ecut=   100.00 Ry     beta=0.50
     Davidson diagonalization with overlap
     ethr =  5.25E-09,  avg # of iterations =  2.0

     total cpu time spent up to now is     2450.9 secs

     total energy              =   -2708.82004470 Ry
     Harris-Foulkes estimate   =   -2708.82004788 Ry
     estimated scf accuracy    <       0.00000620 Ry

     iteration # 14     ecut=   100.00 Ry     beta=0.50
     Davidson diagonalization with overlap
     ethr =  1.16E-09,  avg # of iterations =  5.0

     total cpu time spent up to now is     2679.9 secs

     total energy              =   -2708.82004961 Ry
     Harris-Foulkes estimate   =   -2708.82005093 Ry
     estimated scf accuracy    <       0.00000432 Ry

     iteration # 15     ecut=   100.00 Ry     beta=0.50
     Davidson diagonalization with overlap
     ethr =  8.06E-10,  avg # of iterations =  1.0

     total cpu time spent up to now is     2793.6 secs

     total energy              =   -2708.82004906 Ry
     Harris-Foulkes estimate   =   -2708.82004975 Ry
     estimated scf accuracy    <       0.00000169 Ry

     iteration # 16     ecut=   100.00 Ry     beta=0.50
     Davidson diagonalization with overlap
     ethr =  3.15E-10,  avg # of iterations =  5.0

     total cpu time spent up to now is     2987.6 secs

     total energy              =   -2708.82004976 Ry
     Harris-Foulkes estimate   =   -2708.82004977 Ry
     estimated scf accuracy    <       0.00000010 Ry

     iteration # 17     ecut=   100.00 Ry     beta=0.50
     Davidson diagonalization with overlap
     ethr =  1.93E-11,  avg # of iterations =  2.0

     total cpu time spent up to now is     3108.9 secs

     total energy              =   -2708.82004974 Ry
     Harris-Foulkes estimate   =   -2708.82004977 Ry
     estimated scf accuracy    <       0.00000009 Ry

     iteration # 18     ecut=   100.00 Ry     beta=0.50
     Davidson diagonalization with overlap
     ethr =  1.63E-11,  avg # of iterations =  3.0

     total cpu time spent up to now is     3230.1 secs

     total energy              =   -2708.82004974 Ry
     Harris-Foulkes estimate   =   -2708.82004975 Ry
     estimated scf accuracy    <       0.00000003 Ry

     iteration # 19     ecut=   100.00 Ry     beta=0.50
     Davidson diagonalization with overlap
     ethr =  5.24E-12,  avg # of iterations =  4.8

     total cpu time spent up to now is     3393.8 secs

     End of self-consistent calculation

          k = 0.0000 0.0000 0.0000 (180485 PWs)   bands (ev):

   -20.3319 -20.2328 -20.1385 -20.1273 -20.0932 -20.0920 -20.0501 -20.0499
   -19.8006 -19.7914 -19.6926 -19.5940 -19.5840 -19.5839 -19.5435 -19.5434
   -18.1299 -18.1293 -18.1207 -18.1204 -17.8440 -17.8392 -17.8317 -17.8262
   -17.2453 -17.2265 -17.2131 -17.2058 -17.0195 -17.0029 -17.0004 -16.9944
   -15.9294 -15.9273 -15.9113 -15.8969 -15.6406 -15.6363 -15.6166 -15.6086
   -15.3233 -15.3205 -15.3123 -15.3059 -13.7777 -13.7627 -13.7568 -13.7351
   -12.7780 -12.7688 -12.7342 -12.7075 -12.6432 -12.6322 -12.6305 -12.6301
   -11.9016 -11.8883 -11.8781 -11.8649 -10.8867 -10.8536 -10.8380 -10.8300
   -10.3767 -10.2993 -10.2846 -10.2836  -9.8687  -9.8636  -9.8535  -9.8534
    -9.5957  -9.5893  -9.5810  -9.5533  -9.3742  -9.3664  -9.3642  -9.2801
    -9.2691  -9.2554  -9.2001  -9.1918  -8.7919  -8.7689  -8.7547  -8.7314
    -8.2890  -8.2659  -8.2496  -8.2479  -7.7881  -7.7672  -7.7456  -7.6967
    -7.3656  -7.3463  -7.3235  -7.3027  -6.6763  -6.6673  -6.6579  -6.6295
    -6.2417  -6.2348  -6.1722  -6.1281  -5.9995  -5.9895  -5.9829  -5.9730
    -5.9484  -5.9202  -5.9198  -5.9148  -5.7600  -5.7240  -5.7005  -5.6367
    -5.6056  -5.6019  -5.5424  -5.5368  -5.4401  -5.4267  -5.3257  -5.2938
    -5.2569  -5.2403  -5.0583  -4.9577  -4.8548  -4.8533  -4.7527  -4.7269
    -4.7141  -4.7109  -4.6432  -4.6312  -4.6211  -4.6064  -4.5872  -4.5678
    -4.5615  -4.5499  -4.5426  -4.4943  -4.3230  -4.3171  -4.2333  -4.2181
    -4.1023  -4.0793  -4.0789  -4.0418  -4.0025  -3.9246  -3.9167  -3.9139
    -3.8378  -3.8193  -3.8070  -3.8061  -3.7597  -3.7337  -3.7317  -3.6653
    -3.6644  -3.6075  -3.5899  -3.5892  -3.5420  -3.4867  -3.4387  -3.4011
    -3.3681  -3.3570  -3.3430  -3.3105  -3.1588  -3.1562  -3.0515  -3.0477
    -2.9616  -2.9413  -2.9197  -2.8833  -2.8825  -2.8463  -2.7023  -2.6917
    -2.6410  -2.6075  -2.5560  -2.5433  -2.4869  -2.4868  -2.4601  -2.4383
    -2.4382  -2.3952  -2.3701  -2.3323  -1.7018  -1.6714  -1.5793  -1.5692
    -1.1906  -1.1845  -1.0724  -1.0148  -1.0057  -0.9899  -0.9802  -0.8463
    -0.6277  -0.5991  -0.5270  -0.5257  -0.5076  -0.4875  -0.4345  -0.4049
    -0.3954  -0.3560  -0.3511  -0.3351  -0.2836  -0.2790  -0.2659  -0.2586
    -0.0959  -0.0565  -0.0416  -0.0283  -0.0239  -0.0054   0.0117   0.0322
     0.0426   0.0777   0.0942   0.1366   0.1404   0.2494   0.2700   0.2955
     0.3228   0.3469   0.3576   0.3904   0.5546   0.5733   0.5787   0.5986
     0.6713   0.6883   0.7087   0.7441   1.0836   1.1332   1.2333   1.2678
     1.3734   1.3945   1.4030   1.4892   2.9206   2.9787   3.1928   3.4682
     3.9353   4.0314   4.0514   4.0782   4.2424   4.4142   4.4276   4.4649
     4.4770   4.4902   4.5740   4.6162   4.6616   4.7095   4.8018   4.9011
     5.0675   5.1599   5.2566   5.2771   5.3216   5.4252   5.4831   5.6436
     6.8490   7.0488   7.1372   7.2158   7.2228   7.2374   7.2926   7.3277
     7.3419   7.3480   7.4482   7.4500   7.4520   7.6096   7.6509   8.0192
     8.1062   8.1224   8.1536   8.2755   8.3214   8.3505   8.5369   8.5414
     8.6702

          k = 0.0000 0.0000-0.5206 (180560 PWs)   bands (ev):

   -20.2863 -20.2863 -20.1328 -20.1328 -20.0725 -20.0725 -20.0718 -20.0718
   -19.7962 -19.7962 -19.6392 -19.6392 -19.5629 -19.5629 -19.5628 -19.5628
   -18.1250 -18.1250 -18.1249 -18.1249 -17.8377 -17.8377 -17.8327 -17.8327
   -17.2360 -17.2360 -17.2098 -17.2098 -17.0103 -17.0103 -16.9987 -16.9987
   -15.9189 -15.9189 -15.9132 -15.9132 -15.6286 -15.6286 -15.6208 -15.6208
   -15.3222 -15.3222 -15.3102 -15.3102 -13.7674 -13.7674 -13.7489 -13.7489
   -12.7597 -12.7597 -12.7367 -12.7367 -12.6380 -12.6380 -12.6275 -12.6275
   -11.8951 -11.8951 -11.8714 -11.8714 -10.8592 -10.8592 -10.8468 -10.8468
   -10.3383 -10.3383 -10.2835 -10.2835  -9.8627  -9.8627  -9.8554  -9.8554
    -9.5832  -9.5832  -9.5764  -9.5764  -9.3713  -9.3713  -9.3236  -9.3236
    -9.2625  -9.2625  -9.1947  -9.1947  -8.7724  -8.7724  -8.7514  -8.7514
    -8.2757  -8.2757  -8.2489  -8.2489  -7.7535  -7.7535  -7.7461  -7.7461
    -7.3353  -7.3353  -7.3345  -7.3345  -6.6628  -6.6628  -6.6524  -6.6524
    -6.2139  -6.2139  -6.1760  -6.1760  -5.9758  -5.9758  -5.9594  -5.9594
    -5.9396  -5.9396  -5.9391  -5.9391  -5.7395  -5.7395  -5.6774  -5.6774
    -5.5708  -5.5708  -5.5704  -5.5704  -5.4217  -5.4217  -5.2868  -5.2868
    -5.2611  -5.2611  -4.9944  -4.9944  -4.8971  -4.8971  -4.8294  -4.8294
    -4.7147  -4.7147  -4.6560  -4.6560  -4.6371  -4.6371  -4.5325  -4.5325
    -4.5070  -4.5070  -4.4316  -4.4316  -4.3315  -4.3315  -4.3077  -4.3077
    -4.0894  -4.0894  -4.0024  -4.0024  -3.9903  -3.9903  -3.9628  -3.9628
    -3.8536  -3.8536  -3.8323  -3.8323  -3.7124  -3.7124  -3.6447  -3.6447
    -3.6220  -3.6220  -3.5853  -3.5853  -3.5014  -3.5014  -3.4160  -3.4160
    -3.3419  -3.3419  -3.3402  -3.3402  -3.1646  -3.1646  -3.0004  -3.0004
    -2.9862  -2.9862  -2.8996  -2.8996  -2.8760  -2.8760  -2.6732  -2.6732
    -2.6611  -2.6611  -2.5435  -2.5435  -2.4625  -2.4625  -2.4300  -2.4300
    -2.4242  -2.4242  -2.3768  -2.3768  -1.6875  -1.6875  -1.5703  -1.5703
    -1.1982  -1.1982  -1.0047  -1.0047  -0.9954  -0.9954  -0.9187  -0.9187
    -0.5617  -0.5617  -0.5586  -0.5586  -0.5238  -0.5238  -0.4712  -0.4712
    -0.3834  -0.3834  -0.3556  -0.3556  -0.2871  -0.2871  -0.2295  -0.2295
    -0.0966  -0.0966  -0.0542  -0.0542   0.0308   0.0308   0.0365   0.0365
     0.0683   0.0683   0.1071   0.1071   0.1865   0.1865   0.3108   0.3108
     0.3176   0.3176   0.3327   0.3327   0.5695   0.5695   0.5764   0.5764
     0.6741   0.6741   0.7381   0.7381   1.1639   1.1639   1.1918   1.1918
     1.4143   1.4143   1.4273   1.4273   2.9499   2.9499   3.3395   3.3395
     3.9873   3.9873   4.0518   4.0518   4.2908   4.2908   4.4627   4.4627
     4.5751   4.5751   4.6198   4.6198   4.6937   4.6937   4.7466   4.7466
     5.2138   5.2138   5.2160   5.2160   5.3613   5.3613   5.5258   5.5258
     7.1474   7.1474   7.2421   7.2421   7.2714   7.2714   7.3031   7.3031
     7.4547   7.4547   7.5320   7.5320   7.5359   7.5359   7.7005   7.7005
     7.9649   7.9649   8.1352   8.1352   8.4145   8.4145   8.4336   8.4336
     8.6315

          k =-0.5000 0.0000 0.0000 (180670 PWs)   bands (ev):

   -20.2571 -20.2571 -20.1811 -20.1811 -20.0925 -20.0925 -20.0501 -20.0501
   -19.7393 -19.7393 -19.6767 -19.6767 -19.5842 -19.5842 -19.5435 -19.5435
   -18.1298 -18.1298 -18.1200 -18.1200 -17.8415 -17.8415 -17.8290 -17.8290
   -17.2295 -17.2295 -17.2156 -17.2156 -17.0120 -17.0120 -16.9970 -16.9970
   -15.9292 -15.9292 -15.9035 -15.9035 -15.6386 -15.6386 -15.6124 -15.6124
   -15.3179 -15.3179 -15.3133 -15.3133 -13.7706 -13.7706 -13.7460 -13.7460
   -12.7778 -12.7778 -12.7174 -12.7174 -12.6379 -12.6379 -12.6270 -12.6270
   -11.8899 -11.8899 -11.8772 -11.8772 -10.8746 -10.8746 -10.8310 -10.8310
   -10.3367 -10.3367 -10.2830 -10.2830  -9.8603  -9.8603  -9.8591  -9.8591
    -9.5940  -9.5940  -9.5665  -9.5665  -9.3780  -9.3780  -9.3120  -9.3120
    -9.2366  -9.2366  -9.2241  -9.2241  -8.7818  -8.7818  -8.7426  -8.7426
    -8.2709  -8.2709  -8.2552  -8.2552  -7.7935  -7.7935  -7.7140  -7.7140
    -7.3589  -7.3589  -7.3102  -7.3102  -6.6738  -6.6738  -6.6421  -6.6421
    -6.2406  -6.2406  -6.1494  -6.1494  -5.9950  -5.9950  -5.9607  -5.9607
    -5.9365  -5.9365  -5.9127  -5.9127  -5.7283  -5.7283  -5.6750  -5.6750
    -5.6004  -5.6004  -5.5428  -5.5428  -5.3509  -5.3509  -5.2818  -5.2818
    -5.2197  -5.2197  -5.1800  -5.1800  -4.9128  -4.9128  -4.7196  -4.7196
    -4.7009  -4.7009  -4.6672  -4.6672  -4.6385  -4.6385  -4.6081  -4.6081
    -4.5025  -4.5025  -4.4230  -4.4230  -4.3540  -4.3540  -4.2551  -4.2551
    -4.0785  -4.0785  -4.0417  -4.0417  -4.0081  -4.0081  -3.9719  -3.9719
    -3.8627  -3.8627  -3.7837  -3.7837  -3.7731  -3.7731  -3.7044  -3.7044
    -3.5877  -3.5877  -3.5521  -3.5521  -3.4375  -3.4375  -3.3970  -3.3970
    -3.3151  -3.3151  -3.2534  -3.2534  -3.1370  -3.1370  -3.0295  -3.0295
    -2.9734  -2.9734  -2.9102  -2.9102  -2.8870  -2.8870  -2.7442  -2.7442
    -2.6652  -2.6652  -2.6196  -2.6196  -2.5018  -2.5018  -2.4660  -2.4660
    -2.4100  -2.4100  -2.3710  -2.3710  -1.6260  -1.6260  -1.5646  -1.5646
    -1.1280  -1.1280  -1.0650  -1.0650  -1.0234  -1.0234  -0.8915  -0.8915
    -0.6204  -0.6204  -0.5157  -0.5157  -0.4879  -0.4879  -0.4639  -0.4639
    -0.3897  -0.3897  -0.3606  -0.3606  -0.3066  -0.3066  -0.2471  -0.2471
    -0.0679  -0.0679  -0.0317  -0.0317  -0.0007  -0.0007   0.0473   0.0473
     0.0808   0.0808   0.1198   0.1198   0.1832   0.1832   0.2960   0.2960
     0.3238   0.3238   0.3785   0.3785   0.5562   0.5562   0.5886   0.5886
     0.6684   0.6684   0.6983   0.6983   1.1033   1.1033   1.2484   1.2484
     1.3676   1.3676   1.4608   1.4608   3.0344   3.0344   3.2564   3.2564
     3.9364   3.9364   4.0784   4.0784   4.3439   4.3439   4.4498   4.4498
     4.5668   4.5668   4.6396   4.6396   4.6675   4.6675   4.7423   4.7423
     5.1183   5.1183   5.2890   5.2890   5.3568   5.3568   5.5260   5.5260
     7.0820   7.0820   7.2101   7.2101   7.2427   7.2427   7.3122   7.3122
     7.3856   7.3856   7.4344   7.4344   7.5155   7.5155   7.7482   7.7482
     7.9826   7.9826   8.1997   8.1997   8.4646   8.4646   8.6176   8.6179
     8.7041

          k =-0.5000 0.0000-0.5206 (180528 PWs)   bands (ev):

   -20.2217 -20.2217 -20.2217 -20.2217 -20.0721 -20.0721 -20.0721 -20.0721
   -19.7054 -19.7054 -19.7054 -19.7054 -19.5630 -19.5630 -19.5630 -19.5630
   -18.1249 -18.1249 -18.1249 -18.1249 -17.8352 -17.8352 -17.8352 -17.8352
   -17.2228 -17.2228 -17.2228 -17.2228 -17.0047 -17.0047 -17.0047 -17.0047
   -15.9162 -15.9162 -15.9162 -15.9162 -15.6247 -15.6247 -15.6247 -15.6247
   -15.3163 -15.3163 -15.3163 -15.3163 -13.7584 -13.7584 -13.7584 -13.7584
   -12.7499 -12.7499 -12.7499 -12.7499 -12.6301 -12.6301 -12.6301 -12.6301
   -11.8836 -11.8836 -11.8836 -11.8836 -10.8538 -10.8538 -10.8538 -10.8538
   -10.3096 -10.3096 -10.3096 -10.3096  -9.8588  -9.8588  -9.8588  -9.8588
    -9.5802  -9.5802  -9.5802  -9.5802  -9.3468  -9.3468  -9.3468  -9.3468
    -9.2291  -9.2291  -9.2291  -9.2291  -8.7625  -8.7625  -8.7625  -8.7625
    -8.2620  -8.2620  -8.2620  -8.2620  -7.7546  -7.7546  -7.7546  -7.7546
    -7.3353  -7.3353  -7.3353  -7.3353  -6.6577  -6.6577  -6.6577  -6.6577
    -6.1940  -6.1940  -6.1940  -6.1940  -5.9643  -5.9643  -5.9643  -5.9643
    -5.9398  -5.9398  -5.9398  -5.9398  -5.7087  -5.7087  -5.7087  -5.7087
    -5.5735  -5.5735  -5.5735  -5.5735  -5.2935  -5.2935  -5.2935  -5.2935
    -5.2329  -5.2329  -5.2329  -5.2329  -4.8395  -4.8395  -4.8395  -4.8395
    -4.6588  -4.6588  -4.6588  -4.6588  -4.5769  -4.5769  -4.5769  -4.5769
    -4.4910  -4.4910  -4.4910  -4.4910  -4.2807  -4.2807  -4.2807  -4.2807
    -4.0820  -4.0820  -4.0820  -4.0820  -4.0010  -4.0010  -4.0010  -4.0010
    -3.8427  -3.8427  -3.8427  -3.8427  -3.6848  -3.6848  -3.6848  -3.6848
    -3.6080  -3.6080  -3.6080  -3.6080  -3.4195  -3.4195  -3.4195  -3.4195
    -3.2869  -3.2869  -3.2869  -3.2869  -3.0571  -3.0571  -3.0571  -3.0571
    -2.9427  -2.9427  -2.9427  -2.9427  -2.8323  -2.8323  -2.8323  -2.8323
    -2.6248  -2.6248  -2.6248  -2.6248  -2.4771  -2.4771  -2.4771  -2.4771
    -2.4072  -2.4072  -2.4072  -2.4072  -1.5908  -1.5908  -1.5908  -1.5908
    -1.0939  -1.0939  -1.0939  -1.0939  -0.9558  -0.9558  -0.9558  -0.9558
    -0.5700  -0.5700  -0.5700  -0.5700  -0.4945  -0.4945  -0.4945  -0.4945
    -0.3789  -0.3789  -0.3789  -0.3789  -0.2472  -0.2472  -0.2472  -0.2472
    -0.0665  -0.0665  -0.0665  -0.0665   0.0283   0.0283   0.0283   0.0283
     0.0841   0.0841   0.0841   0.0841   0.2550   0.2550   0.2550   0.2550
     0.3446   0.3446   0.3446   0.3446   0.5682   0.5682   0.5682   0.5682
     0.6836   0.6836   0.6836   0.6836   1.1782   1.1782   1.1782   1.1782
     1.4155   1.4155   1.4155   1.4155   3.1476   3.1476   3.1476   3.1476
     4.0031   4.0031   4.0031   4.0031   4.4449   4.4449   4.4449   4.4449
     4.5681   4.5681   4.5681   4.5681   4.6956   4.6956   4.6956   4.6956
     5.2270   5.2270   5.2270   5.2270   5.4201   5.4201   5.4201   5.4201
     7.1832   7.1832   7.1832   7.1832   7.3467   7.3467   7.3467   7.3467
     7.4285   7.4285   7.4285   7.4285   7.6967   7.6967   7.6967   7.6967
     8.1365   8.1365   8.1365   8.1365   8.2832   8.2832   8.2832   8.2832
     8.6628

     highest occupied, lowest unoccupied level (ev):     1.4892    2.9206

!    total energy              =   -2708.82004975 Ry
     Harris-Foulkes estimate   =   -2708.82004975 Ry
     estimated scf accuracy    <          2.7E-09 Ry

     total all-electron energy =    -10560.556718 Ry

     The total energy is the sum of the following terms:

     one-electron contribution =   -1611.55360926 Ry
     hartree contribution      =    1017.28351342 Ry
     xc contribution           =    -568.14085596 Ry
     ewald contribution        =    -715.60545198 Ry
     Dispersion Correction     =      -0.68906207 Ry
     one-center paw contrib.   =    -830.11458391 Ry

     convergence has been achieved in  19 iterations

     Forces acting on atoms (cartesian axes, Ry/au):

     atom    1 type  1   force =    -0.00049030    0.00042785   -0.00036771
     atom    2 type  1   force =     0.00049030    0.00042785   -0.00036771
     atom    3 type  1   force =    -0.00049030   -0.00042785   -0.00036771
     atom    4 type  1   force =     0.00049030   -0.00042785   -0.00036771
     atom    5 type  1   force =    -0.00083016   -0.00063945   -0.00015123
     atom    6 type  1   force =     0.00083016   -0.00063945   -0.00015123
     atom    7 type  1   force =    -0.00083016    0.00063945   -0.00015123
     atom    8 type  1   force =     0.00083016    0.00063945   -0.00015123
     atom    9 type  1   force =     0.00038394    0.00048356    0.00002396
     atom   10 type  1   force =    -0.00038394    0.00048356    0.00002396
     atom   11 type  1   force =     0.00038394   -0.00048356    0.00002396
     atom   12 type  1   force =    -0.00038394   -0.00048356    0.00002396
     atom   13 type  1   force =    -0.00045354   -0.00031842    0.00058168
     atom   14 type  1   force =     0.00045354   -0.00031842    0.00058168
     atom   15 type  1   force =    -0.00045354    0.00031842    0.00058168
     atom   16 type  1   force =     0.00045354    0.00031842    0.00058168
     atom   17 type  1   force =    -0.00006070   -0.00034578    0.00047634
     atom   18 type  1   force =     0.00006070   -0.00034578    0.00047634
     atom   19 type  1   force =    -0.00006070    0.00034578    0.00047634
     atom   20 type  1   force =     0.00006070    0.00034578    0.00047634
     atom   21 type  1   force =     0.00033918    0.00019831   -0.00062358
     atom   22 type  1   force =    -0.00033918    0.00019831   -0.00062358
     atom   23 type  1   force =     0.00033918   -0.00019831   -0.00062358
     atom   24 type  1   force =    -0.00033918   -0.00019831   -0.00062358
     atom   25 type  1   force =     0.00055968    0.00002940   -0.00040671
     atom   26 type  1   force =    -0.00055968    0.00002940   -0.00040671
     atom   27 type  1   force =     0.00055968   -0.00002940   -0.00040671
     atom   28 type  1   force =    -0.00055968   -0.00002940   -0.00040671
     atom   29 type  1   force =    -0.00070469    0.00076317   -0.00018927
     atom   30 type  1   force =     0.00070469    0.00076317   -0.00018927
     atom   31 type  1   force =    -0.00070469   -0.00076317   -0.00018927
     atom   32 type  1   force =     0.00070469   -0.00076317   -0.00018927
     atom   33 type  1   force =    -0.00020442   -0.00023912   -0.00064114
     atom   34 type  1   force =     0.00020442   -0.00023912   -0.00064114
     atom   35 type  1   force =    -0.00020442    0.00023912   -0.00064114
     atom   36 type  1   force =     0.00020442    0.00023912   -0.00064114
     atom   37 type  1   force =    -0.00004465    0.00069359    0.00062836
     atom   38 type  1   force =     0.00004465    0.00069359    0.00062836
     atom   39 type  1   force =    -0.00004465   -0.00069359    0.00062836
     atom   40 type  1   force =     0.00004465   -0.00069359    0.00062836
     atom   41 type  1   force =    -0.00024092   -0.00043452    0.00048932
     atom   42 type  1   force =     0.00024092   -0.00043452    0.00048932
     atom   43 type  1   force =    -0.00024092    0.00043452    0.00048932
     atom   44 type  1   force =     0.00024092    0.00043452    0.00048932
     atom   45 type  1   force =    -0.00030361    0.00028783   -0.00001657
     atom   46 type  1   force =     0.00030361    0.00028783   -0.00001657
     atom   47 type  1   force =    -0.00030361   -0.00028783   -0.00001657
     atom   48 type  1   force =     0.00030361   -0.00028783   -0.00001657
     atom   49 type  1   force =    -0.00071260   -0.00034833   -0.00047021
     atom   50 type  1   force =     0.00071260   -0.00034833   -0.00047021
     atom   51 type  1   force =    -0.00071260    0.00034833   -0.00047021
     atom   52 type  1   force =     0.00071260    0.00034833   -0.00047021
     atom   53 type  1   force =    -0.00003097    0.00022807    0.00013855
     atom   54 type  1   force =     0.00003097    0.00022807    0.00013855
     atom   55 type  1   force =    -0.00003097   -0.00022807    0.00013855
     atom   56 type  1   force =     0.00003097   -0.00022807    0.00013855
     atom   57 type  1   force =     0.00060696   -0.00006387   -0.00002584
     atom   58 type  1   force =    -0.00060696   -0.00006387   -0.00002584
     atom   59 type  1   force =     0.00060696    0.00006387   -0.00002584
     atom   60 type  1   force =    -0.00060696    0.00006387   -0.00002584
     atom   61 type  1   force =    -0.00104504    0.00050097    0.00024130
     atom   62 type  1   force =     0.00104504    0.00050097    0.00024130
     atom   63 type  1   force =    -0.00104504   -0.00050097    0.00024130
     atom   64 type  1   force =     0.00104504   -0.00050097    0.00024130
     atom   65 type  1   force =     0.00004235   -0.00023648   -0.00040519
     atom   66 type  1   force =    -0.00004235   -0.00023648   -0.00040519
     atom   67 type  1   force =     0.00004235    0.00023648   -0.00040519
     atom   68 type  1   force =    -0.00004235    0.00023648   -0.00040519
     atom   69 type  1   force =     0.00024409    0.00022048    0.00000674
     atom   70 type  1   force =    -0.00024409    0.00022048    0.00000674
     atom   71 type  1   force =     0.00024409   -0.00022048    0.00000674
     atom   72 type  1   force =    -0.00024409   -0.00022048    0.00000674
     atom   73 type  2   force =     0.00092504   -0.00006742    0.00021883
     atom   74 type  2   force =    -0.00092504   -0.00006742    0.00021883
     atom   75 type  2   force =     0.00092504    0.00006742    0.00021883
     atom   76 type  2   force =    -0.00092504    0.00006742    0.00021883
     atom   77 type  2   force =    -0.00025549    0.00069039    0.00042072
     atom   78 type  2   force =     0.00025549    0.00069039    0.00042072
     atom   79 type  2   force =    -0.00025549   -0.00069039    0.00042072
     atom   80 type  2   force =     0.00025549   -0.00069039    0.00042072
     atom   81 type  2   force =     0.00029689   -0.00043860   -0.00022802
     atom   82 type  2   force =    -0.00029689   -0.00043860   -0.00022802
     atom   83 type  2   force =     0.00029689    0.00043860   -0.00022802
     atom   84 type  2   force =    -0.00029689    0.00043860   -0.00022802
     atom   85 type  2   force =    -0.00001722    0.00026097    0.00010355
     atom   86 type  2   force =     0.00001722    0.00026097    0.00010355
     atom   87 type  2   force =    -0.00001722   -0.00026097    0.00010355
     atom   88 type  2   force =     0.00001722   -0.00026097    0.00010355
     atom   89 type  2   force =    -0.00019633    0.00077945   -0.00045837
     atom   90 type  2   force =     0.00019633    0.00077945   -0.00045837
     atom   91 type  2   force =    -0.00019633   -0.00077945   -0.00045837
     atom   92 type  2   force =     0.00019633   -0.00077945   -0.00045837
     atom   93 type  2   force =    -0.00045191   -0.00001476   -0.00014579
     atom   94 type  2   force =     0.00045191   -0.00001476   -0.00014579
     atom   95 type  2   force =    -0.00045191    0.00001476   -0.00014579
     atom   96 type  2   force =     0.00045191    0.00001476   -0.00014579
     atom   97 type  4   force =    -0.00149303   -0.00017338    0.00098905
     atom   98 type  4   force =     0.00149303   -0.00017338    0.00098905
     atom   99 type  4   force =    -0.00149303    0.00017338    0.00098905
     atom  100 type  4   force =     0.00149303    0.00017338    0.00098905
     atom  101 type  4   force =     0.00060534   -0.00050735   -0.00041924
     atom  102 type  4   force =    -0.00060534   -0.00050735   -0.00041924
     atom  103 type  4   force =     0.00060534    0.00050735   -0.00041924
     atom  104 type  4   force =    -0.00060534    0.00050735   -0.00041924
     atom  105 type  4   force =     0.00002817   -0.00006859   -0.00004178
     atom  106 type  4   force =    -0.00002817   -0.00006859   -0.00004178
     atom  107 type  4   force =     0.00002817    0.00006859   -0.00004178
     atom  108 type  4   force =    -0.00002817    0.00006859   -0.00004178
     atom  109 type  4   force =     0.00014702   -0.00010545   -0.00116752
     atom  110 type  4   force =    -0.00014702   -0.00010545   -0.00116752
     atom  111 type  4   force =     0.00014702    0.00010545   -0.00116752
     atom  112 type  4   force =    -0.00014702    0.00010545   -0.00116752
     atom  113 type  3   force =    -0.00009907    0.00011289    0.00000131
     atom  114 type  3   force =     0.00009907    0.00011289    0.00000131
     atom  115 type  3   force =    -0.00009907   -0.00011289    0.00000131
     atom  116 type  3   force =     0.00009907   -0.00011289    0.00000131
     atom  117 type  3   force =     0.00003284    0.00042649    0.00049581
     atom  118 type  3   force =    -0.00003284    0.00042649    0.00049581
     atom  119 type  3   force =     0.00003284   -0.00042649    0.00049581
     atom  120 type  3   force =    -0.00003284   -0.00042649    0.00049581
     atom  121 type  3   force =     0.00034371    0.00031715    0.00028773
     atom  122 type  3   force =    -0.00034371    0.00031715    0.00028773
     atom  123 type  3   force =     0.00034371   -0.00031715    0.00028773
     atom  124 type  3   force =    -0.00034371   -0.00031715    0.00028773
     atom  125 type  3   force =    -0.00049628   -0.00025830    0.00001518
     atom  126 type  3   force =     0.00049628   -0.00025830    0.00001518
     atom  127 type  3   force =    -0.00049628    0.00025830    0.00001518
     atom  128 type  3   force =     0.00049628    0.00025830    0.00001518
     atom  129 type  3   force =     0.00008581   -0.00002705    0.00041401
     atom  130 type  3   force =    -0.00008581   -0.00002705    0.00041401
     atom  131 type  3   force =     0.00008581    0.00002705    0.00041401
     atom  132 type  3   force =    -0.00008581    0.00002705    0.00041401
     atom  133 type  3   force =    -0.00067829   -0.00036354    0.00012576
     atom  134 type  3   force =     0.00067829   -0.00036354    0.00012576
     atom  135 type  3   force =    -0.00067829    0.00036354    0.00012576
     atom  136 type  3   force =     0.00067829    0.00036354    0.00012576
     atom  137 type  3   force =    -0.00029580    0.00012800    0.00017420
     atom  138 type  3   force =     0.00029580    0.00012800    0.00017420
     atom  139 type  3   force =    -0.00029580   -0.00012800    0.00017420
     atom  140 type  3   force =     0.00029580   -0.00012800    0.00017420
     atom  141 type  3   force =     0.00088575   -0.00015191   -0.00007421
     atom  142 type  3   force =    -0.00088575   -0.00015191   -0.00007421
     atom  143 type  3   force =     0.00088575    0.00015191   -0.00007421
     atom  144 type  3   force =    -0.00088575    0.00015191   -0.00007421

     Total force =     0.009302     Total SCF correction =     0.000093


     Computing stress (Cartesian axis) and pressure

          total   stress  (Ry/bohr**3)                   (kbar)     P=   -1.25
  -0.00000308   0.00000000   0.00000000         -0.45      0.00      0.00
   0.00000000  -0.00000965   0.00000000          0.00     -1.42      0.00
   0.00000000   0.00000000  -0.00001274          0.00      0.00     -1.87


     Writing output data file scf.save
 
     init_run     :     74.53s CPU     78.12s WALL (       1 calls)
     electrons    :   3166.79s CPU   3315.24s WALL (       1 calls)
     forces       :     37.13s CPU     37.58s WALL (       1 calls)
     stress       :    307.62s CPU    308.22s WALL (       1 calls)

     Called by init_run:
     wfcinit      :     63.23s CPU     66.53s WALL (       1 calls)
     potinit      :      3.89s CPU      3.96s WALL (       1 calls)

     Called by electrons:
     c_bands      :   2866.98s CPU   2989.30s WALL (      19 calls)
     sum_band     :    271.77s CPU    294.30s WALL (      19 calls)
     v_of_rho     :      4.32s CPU      4.81s WALL (      20 calls)
     newd         :     10.44s CPU     13.40s WALL (      20 calls)
     PAW_pot      :     12.32s CPU     12.33s WALL (      20 calls)
     mix_rho      :      1.11s CPU      1.27s WALL (      19 calls)

     Called by c_bands:
     init_us_2    :     14.26s CPU     14.33s WALL (     164 calls)
     cegterg      :   2796.17s CPU   2918.40s WALL (      76 calls)

     Called by sum_band:
     sum_band:bec :      0.13s CPU      0.13s WALL (      76 calls)
     addusdens    :     10.67s CPU     13.52s WALL (      19 calls)

     Called by *egterg:
     h_psi        :   1419.96s CPU   1521.30s WALL (     458 calls)
     s_psi        :    294.73s CPU    294.76s WALL (     458 calls)
     g_psi        :      6.63s CPU      6.63s WALL (     378 calls)
     cdiaghg      :    188.96s CPU    188.99s WALL (     454 calls)

     Called by h_psi:
     h_psi:pot    :   1410.71s CPU   1511.92s WALL (     458 calls)
     h_psi:calbec :    336.98s CPU    337.55s WALL (     458 calls)
     vloc_psi     :    779.08s CPU    879.69s WALL (     458 calls)
     add_vuspsi   :    294.66s CPU    294.68s WALL (     458 calls)

     General routines
     calbec       :    496.37s CPU    497.23s WALL (     554 calls)
     fft          :     10.19s CPU     11.07s WALL (     284 calls)
     fftw         :    835.73s CPU    955.46s WALL (  164514 calls)
 
     Parallel routines
     fft_scatter  :    211.95s CPU    332.11s WALL (  164798 calls)
 
     PWSCF        :     0h59m CPU        1h 3m WALL

 
   This run was terminated on:   5: 7:20   4Nov2017            

=------------------------------------------------------------------------------=
   JOB DONE.
=------------------------------------------------------------------------------=
