
     Program PWSCF v.6.1 (svn rev. 13369) starts on  4Nov2017 at  5:46:47 

     This program is part of the open-source Quantum ESPRESSO suite
     for quantum simulation of materials; please cite
         "P. Giannozzi et al., J. Phys.:Condens. Matter 21 395502 (2009);
          URL http://www.quantum-espresso.org", 
     in publications or presentations arising from this work. More details at
     http://www.quantum-espresso.org/quote

     Parallel version (MPI), running on     8 processors
     R & G space division:  proc/nbgrp/npool/nimage =       8
     Waiting for input...
     Reading input from standard input

     Current dimensions of program PWSCF are:
     Max number of different atomic species (ntypx) = 10
     Max number of k-points (npk) =  40000
     Max angular momentum in pseudopotentials (lmaxx) =  3
               file C.pbe-n-kjpaw_psl.0.1.UPF: wavefunction(s)  2P renormalized
               file N.pbe-n-kjpaw_psl.0.1.UPF: wavefunction(s)  2P renormalized
               file H.pbe-kjpaw_psl.0.1.UPF: wavefunction(s)  1S renormalized
               file O.pbe-n-kjpaw_psl.0.1.UPF: wavefunction(s)  2P renormalized

     -------------------------------------
     Parameters for Dispersion Correction:
     -------------------------------------
       atom      VdW radius       C_6     

        C          2.744         60.710
        N          2.640         42.670
        H          1.892          4.857
        O          2.536         24.284

     Subspace diagonalization in iterative solution of the eigenvalue problem:
     a serial algorithm will be used

 
     Parallelization info
     --------------------
     sticks:   dense  smooth     PW     G-vecs:    dense   smooth      PW
     Min         828     828    220                46552    46552    6377
     Max         829     829    221                46553    46553    6379
     Sum        6625    6625   1761               372417   372417   51023
 


     bravais-lattice index     =            0
     lattice parameter (alat)  =      10.8792  a.u.
     unit-cell volume          =    2755.5585 (a.u.)^3
     number of atoms/cell      =           44
     number of atomic types    =            4
     number of electrons       =       152.00
     number of Kohn-Sham states=           91
     kinetic-energy cutoff     =     100.0000  Ry
     charge density cutoff     =     400.0000  Ry
     convergence threshold     =      1.0E-08
     mixing beta               =       0.5000
     number of iterations used =            8  plain     mixing
     Exchange-correlation      =  SLA  PW   PBX  PBC ( 1  4  3  4 0 0)

     celldm(1)=  10.879153  celldm(2)=   0.000000  celldm(3)=   0.000000
     celldm(4)=   0.000000  celldm(5)=   0.000000  celldm(6)=   0.000000

     crystal axes: (cart. coord. in units of alat)
               a(1) = (   1.000000   0.000000   0.000000 )  
               a(2) = (   0.000000   1.757912   0.000000 )  
               a(3) = (  -0.179681   0.000000   1.217383 )  

     reciprocal axes: (cart. coord. in units 2 pi/alat)
               b(1) = (  1.000000  0.000000  0.147596 )  
               b(2) = (  0.000000  0.568857  0.000000 )  
               b(3) = (  0.000000  0.000000  0.821434 )  


     PseudoPot. # 1 for  C read from file:
     /scratch/ahofstet/pseudo/C.pbe-n-kjpaw_psl.0.1.UPF
     MD5 check sum: 430fe95172b1e11ef3f8ed03bac87931
     Pseudo is Projector augmented-wave + core cor, Zval =  4.0
     Generated using "atomic" code by A. Dal Corso  v.5.0.99 svn rev. 10869
     Shape of augmentation charge: BESSEL
     Using radial grid of 1073 points,  4 beta functions with: 
                l(1) =   0
                l(2) =   0
                l(3) =   1
                l(4) =   1
     Q(r) pseudized with 0 coefficients 


     PseudoPot. # 2 for  N read from file:
     /scratch/ahofstet/pseudo/N.pbe-n-kjpaw_psl.0.1.UPF
     MD5 check sum: f73187c8b701007e77325f868c9291d7
     Pseudo is Projector augmented-wave + core cor, Zval =  5.0
     Generated using "atomic" code by A. Dal Corso  v.5.0.99 svn rev. 10869
     Shape of augmentation charge: PSQ
     Using radial grid of 1085 points,  4 beta functions with: 
                l(1) =   0
                l(2) =   0
                l(3) =   1
                l(4) =   1
     Q(r) pseudized with 0 coefficients 


     PseudoPot. # 3 for  H read from file:
     /scratch/ahofstet/pseudo/H.pbe-kjpaw_psl.0.1.UPF
     MD5 check sum: 94e484f906d9e9773b2f6e52662335b2
     Pseudo is Projector augmented-wave, Zval =  1.0
     Generated using "atomic" code by A. Dal Corso  v.5.0.99 svn rev. 10869
     Shape of augmentation charge: PSQ
     Using radial grid of  929 points,  2 beta functions with: 
                l(1) =   0
                l(2) =   0
     Q(r) pseudized with 0 coefficients 


     PseudoPot. # 4 for  O read from file:
     /scratch/ahofstet/pseudo/O.pbe-n-kjpaw_psl.0.1.UPF
     MD5 check sum: 3f94a2996a3169367d6eb21d9b593f20
     Pseudo is Projector augmented-wave + core cor, Zval =  6.0
     Generated using "atomic" code by A. Dal Corso  v.5.0.99 svn rev. 10869
     Shape of augmentation charge: BESSEL
     Using radial grid of 1095 points,  4 beta functions with: 
                l(1) =   0
                l(2) =   0
                l(3) =   1
                l(4) =   1
     Q(r) pseudized with 0 coefficients 


     atomic species   valence    mass     pseudopotential
        C              4.00    12.01070      C( 1.00)
        N              5.00    14.00670      N( 1.00)
        H              1.00     1.00794      H( 1.00)
        O              6.00    15.99940      O( 1.00)

      2 Sym. Ops., with inversion, found
          (note:  2 additional sym.ops. were found but ignored
           their fractional translations are incommensurate with FFT grid)


   Cartesian axes

     site n.     atom                  positions (alat units)
         1           H   tau(   1) = (   0.2623846   1.6503301   0.1670698  )
         2           H   tau(   2) = (   0.6477751   0.7713741   0.4416217  )
         3           H   tau(   3) = (   0.5579348   0.1075820   1.0503131  )
         4           H   tau(   4) = (   0.1725443   0.9865380   0.7757612  )
         5           O   tau(   5) = (   0.3435693   1.5449247   0.0236825  )
         6           O   tau(   6) = (   0.5665903   0.6659687   0.5850089  )
         7           O   tau(   7) = (   0.4767500   0.2129874   1.1937003  )
         8           O   tau(   8) = (   0.2537290   1.0919434   0.6323740  )
         9           O   tau(   9) = (   0.7468922   0.8734002   0.2625574  )
        10           O   tau(  10) = (   0.1632675  -0.0055559   0.3461341  )
        11           O   tau(  11) = (   0.0734272   0.8845119   0.9548255  )
        12           O   tau(  12) = (   0.6570519   1.7634680   0.8712488  )
        13           N   tau(  13) = (   0.5005926   1.4066116   0.1319755  )
        14           N   tau(  14) = (   0.4095671   0.5276555   0.4767159  )
        15           N   tau(  15) = (   0.3197268   0.3513005   1.0854074  )
        16           N   tau(  16) = (   0.4107523   1.2302566   0.7406669  )
        17           N   tau(  17) = (   0.6809673   1.0970964   0.2425067  )
        18           N   tau(  18) = (   0.2291924   0.2181404   0.3661847  )
        19           N   tau(  19) = (   0.1393521   0.6608157   0.9748762  )
        20           N   tau(  20) = (   0.5911270   1.5397717   0.8511981  )
        21           C   tau(  21) = (   0.4960763   1.1721893   0.1201439  )
        22           C   tau(  22) = (   0.4140834   0.2932332   0.4885475  )
        23           C   tau(  23) = (   0.3242431   0.5857228   1.0972389  )
        24           C   tau(  24) = (   0.4062360   1.4646789   0.7288354  )
        25           H   tau(  25) = (   0.3776759   1.0681690   0.0155302  )
        26           H   tau(  26) = (   0.5324838   0.1892129   0.5931613  )
        27           H   tau(  27) = (   0.4426435   0.6897431   1.2018527  )
        28           H   tau(  28) = (   0.2878356   1.5686992   0.6242216  )
        29           C   tau(  29) = (   0.6860435   1.4800095   0.2615021  )
        30           C   tau(  30) = (   0.2241162   0.6010534   0.3471894  )
        31           C   tau(  31) = (   0.1342759   0.2779026   0.9558808  )
        32           C   tau(  32) = (   0.5962032   1.1568587   0.8701935  )
        33           H   tau(  33) = (   0.7254763   1.6621577   0.2881182  )
        34           H   tau(  34) = (   0.1846834   0.7832017   0.3205733  )
        35           H   tau(  35) = (   0.0948431   0.0957544   0.9292647  )
        36           H   tau(  36) = (   0.6356360   0.9747104   0.8968096  )
        37           C   tau(  37) = (   0.8013686   1.2823340   0.3323812  )
        38           C   tau(  38) = (   0.1087911   0.4033780   0.2763103  )
        39           C   tau(  39) = (   0.0189508   0.4755781   0.8850017  )
        40           C   tau(  40) = (   0.7115282   1.3545341   0.9410726  )
        41           H   tau(  41) = (  -0.0457937   1.2572158   0.4394620  )
        42           H   tau(  42) = (   0.9559534   0.3782597   0.1692295  )
        43           H   tau(  43) = (   0.8661131   0.5006963   0.7779209  )
        44           H   tau(  44) = (  -0.1356340   1.3796524   1.0481534  )

     number of k points=    10
                       cart. coord. in units 2pi/alat
        k(    1) = (   0.0000000   0.0000000   0.0000000), wk =   0.1111111
        k(    2) = (   0.0000000   0.0000000   0.2738114), wk =   0.2222222
        k(    3) = (   0.0000000  -0.2844283   0.0000000), wk =   0.1111111
        k(    4) = (   0.0000000  -0.2844283   0.2738114), wk =   0.2222222
        k(    5) = (   0.3333333   0.0000000   0.0491986), wk =   0.2222222
        k(    6) = (   0.3333333   0.0000000   0.3230100), wk =   0.2222222
        k(    7) = (   0.3333333   0.0000000  -0.2246128), wk =   0.2222222
        k(    8) = (   0.3333333  -0.2844283   0.0491986), wk =   0.2222222
        k(    9) = (   0.3333333  -0.2844283   0.3230100), wk =   0.2222222
        k(   10) = (   0.3333333  -0.2844283  -0.2246128), wk =   0.2222222

     Dense  grid:   372417 G-vectors     FFT dimensions: (  72, 125,  90)

     Estimated max dynamical RAM per process >     208.75MB

     Estimated total allocated dynamical RAM >    1670.01MB

     Check: negative/imaginary core charge=   -0.000002    0.000000

     Initial potential from superposition of free atoms

     starting charge  151.99928, renormalised to  152.00000
     Starting wfc are  128 randomized atomic wfcs
     Checking if some PAW data can be deallocated... 

     total cpu time spent up to now is       12.8 secs

     per-process dynamical memory:   201.1 Mb

     Self-consistent Calculation

     iteration #  1     ecut=   100.00 Ry     beta=0.50
     Davidson diagonalization with overlap
     ethr =  1.00E-02,  avg # of iterations =  3.2

     total cpu time spent up to now is       39.7 secs

     total energy              =    -797.92837330 Ry
     Harris-Foulkes estimate   =    -799.66341861 Ry
     estimated scf accuracy    <       3.44289424 Ry

     iteration #  2     ecut=   100.00 Ry     beta=0.50
     Davidson diagonalization with overlap
     ethr =  2.27E-03,  avg # of iterations =  2.8

     total cpu time spent up to now is       56.4 secs

     total energy              =    -798.25957268 Ry
     Harris-Foulkes estimate   =    -798.44837161 Ry
     estimated scf accuracy    <       0.44182040 Ry

     iteration #  3     ecut=   100.00 Ry     beta=0.50
     Davidson diagonalization with overlap
     ethr =  2.91E-04,  avg # of iterations =  5.8

     total cpu time spent up to now is       84.2 secs

     total energy              =    -798.41084521 Ry
     Harris-Foulkes estimate   =    -798.48340869 Ry
     estimated scf accuracy    <       0.17169897 Ry

     iteration #  4     ecut=   100.00 Ry     beta=0.50
     Davidson diagonalization with overlap
     ethr =  1.13E-04,  avg # of iterations =  2.9

     total cpu time spent up to now is      100.2 secs

     total energy              =    -798.42575091 Ry
     Harris-Foulkes estimate   =    -798.43387979 Ry
     estimated scf accuracy    <       0.02105798 Ry

     iteration #  5     ecut=   100.00 Ry     beta=0.50
     Davidson diagonalization with overlap
     ethr =  1.39E-05,  avg # of iterations =  5.7

     total cpu time spent up to now is      129.4 secs

     total energy              =    -798.43673928 Ry
     Harris-Foulkes estimate   =    -798.44448129 Ry
     estimated scf accuracy    <       0.01862411 Ry

     iteration #  6     ecut=   100.00 Ry     beta=0.50
     Davidson diagonalization with overlap
     ethr =  1.23E-05,  avg # of iterations =  2.5

     total cpu time spent up to now is      144.2 secs

     total energy              =    -798.43570036 Ry
     Harris-Foulkes estimate   =    -798.43798582 Ry
     estimated scf accuracy    <       0.00433749 Ry

     iteration #  7     ecut=   100.00 Ry     beta=0.50
     Davidson diagonalization with overlap
     ethr =  2.85E-06,  avg # of iterations =  5.0

     total cpu time spent up to now is      172.2 secs

     total energy              =    -798.43843154 Ry
     Harris-Foulkes estimate   =    -798.43914134 Ry
     estimated scf accuracy    <       0.00158474 Ry

     iteration #  8     ecut=   100.00 Ry     beta=0.50
     Davidson diagonalization with overlap
     ethr =  1.04E-06,  avg # of iterations =  2.4

     total cpu time spent up to now is      187.0 secs

     total energy              =    -798.43847499 Ry
     Harris-Foulkes estimate   =    -798.43856208 Ry
     estimated scf accuracy    <       0.00026111 Ry

     iteration #  9     ecut=   100.00 Ry     beta=0.50
     Davidson diagonalization with overlap
     ethr =  1.72E-07,  avg # of iterations =  4.0

     total cpu time spent up to now is      212.2 secs

     total energy              =    -798.43867779 Ry
     Harris-Foulkes estimate   =    -798.43868917 Ry
     estimated scf accuracy    <       0.00003249 Ry

     iteration # 10     ecut=   100.00 Ry     beta=0.50
     Davidson diagonalization with overlap
     ethr =  2.14E-08,  avg # of iterations =  1.1

     total cpu time spent up to now is      226.4 secs

     total energy              =    -798.43867682 Ry
     Harris-Foulkes estimate   =    -798.43868004 Ry
     estimated scf accuracy    <       0.00000769 Ry

     iteration # 11     ecut=   100.00 Ry     beta=0.50
     Davidson diagonalization with overlap
     ethr =  5.06E-09,  avg # of iterations =  4.0

     total cpu time spent up to now is      251.1 secs

     total energy              =    -798.43868120 Ry
     Harris-Foulkes estimate   =    -798.43868191 Ry
     estimated scf accuracy    <       0.00000150 Ry

     iteration # 12     ecut=   100.00 Ry     beta=0.50
     Davidson diagonalization with overlap
     ethr =  9.88E-10,  avg # of iterations =  3.3

     total cpu time spent up to now is      266.9 secs

     total energy              =    -798.43868136 Ry
     Harris-Foulkes estimate   =    -798.43868138 Ry
     estimated scf accuracy    <       0.00000013 Ry

     iteration # 13     ecut=   100.00 Ry     beta=0.50
     Davidson diagonalization with overlap
     ethr =  8.71E-11,  avg # of iterations =  4.0

     total cpu time spent up to now is      293.6 secs

     total energy              =    -798.43868148 Ry
     Harris-Foulkes estimate   =    -798.43868150 Ry
     estimated scf accuracy    <       0.00000003 Ry

     iteration # 14     ecut=   100.00 Ry     beta=0.50
     Davidson diagonalization with overlap
     ethr =  1.98E-11,  avg # of iterations =  3.0

     total cpu time spent up to now is      308.9 secs

     End of self-consistent calculation

          k = 0.0000 0.0000 0.0000 ( 46539 PWs)   bands (ev):

   -21.1637 -21.0331 -20.9230 -20.8644 -20.2477 -20.1794 -19.8226 -19.8104
   -17.1401 -17.1108 -16.6950 -16.6561 -13.4276 -13.4143 -12.9088 -12.8830
   -12.1485 -12.1079 -12.0942 -12.0143  -8.9036  -8.8362  -8.8081  -8.7240
    -8.4060  -8.1930  -7.7274  -7.6251  -7.3276  -7.2044  -6.7195  -6.4958
    -6.3268  -6.1244  -5.8501  -5.5732  -5.0122  -4.9392  -4.8007  -4.6514
    -4.5608  -4.4634  -4.4252  -4.3170  -4.1564  -4.1462  -4.0079  -3.9665
    -3.6369  -3.5899  -3.5593  -3.4749  -3.4060  -3.2485  -3.2341  -2.8310
    -1.8941  -1.7930  -0.6991  -0.5838  -0.2969  -0.1331   0.0315   0.2811
     0.4169   0.4381   0.6000   0.6585   0.9198   1.0119   1.0249   1.1571
     1.2741   1.5133   1.8913   2.0326   5.8167   6.2086   6.4257   6.5843
     6.8452   6.9742   6.9910   7.1247   7.5267   7.7707   7.9982   8.1139
     8.5325   8.6553   8.6667

          k = 0.0000 0.0000 0.2738 ( 46505 PWs)   bands (ev):

   -21.1335 -21.0687 -20.9070 -20.8773 -20.2306 -20.1965 -19.8187 -19.8126
   -17.1330 -17.1183 -16.6857 -16.6663 -13.4242 -13.4175 -12.9021 -12.8891
   -12.1330 -12.1065 -12.0851 -12.0378  -8.9002  -8.8764  -8.7590  -8.7265
    -8.3503  -8.2412  -7.7327  -7.6741  -7.3261  -7.2620  -6.6282  -6.5209
    -6.2872  -6.1817  -5.6371  -5.3346  -5.2110  -4.8978  -4.8659  -4.7357
    -4.7041  -4.5437  -4.2940  -4.1973  -4.1784  -4.1003  -4.0784  -4.0142
    -3.8113  -3.6490  -3.4998  -3.4565  -3.4231  -3.3032  -3.0562  -2.8648
    -1.8799  -1.8300  -0.6820  -0.6203  -0.2834  -0.1914   0.0379   0.1984
     0.4537   0.4759   0.5742   0.5965   0.9416   0.9799   1.1810   1.2408
     1.3196   1.3773   1.9723   2.0641   5.8877   6.1408   6.2954   6.5117
     6.8657   6.9719   6.9723   7.0452   7.6048   7.8482   8.1187   8.2976
     8.6062   8.6835   9.0962

          k = 0.0000-0.2844 0.0000 ( 46596 PWs)   bands (ev):

   -21.0656 -21.0656 -20.9606 -20.9606 -20.0212 -20.0212 -19.9867 -19.9867
   -16.9224 -16.9224 -16.8836 -16.8836 -13.1701 -13.1701 -13.1504 -13.1504
   -12.1236 -12.1236 -12.0476 -12.0476  -8.8565  -8.8565  -8.8275  -8.8275
    -8.0833  -8.0833  -7.7738  -7.7738  -7.1596  -7.1596  -7.0812  -7.0812
    -5.8902  -5.8902  -5.6360  -5.6360  -5.0595  -5.0595  -4.6856  -4.6856
    -4.5308  -4.5308  -4.3590  -4.3590  -4.1820  -4.1820  -3.9846  -3.9846
    -3.7268  -3.7268  -3.4457  -3.4457  -3.2807  -3.2807  -3.1630  -3.1630
    -1.4528  -1.4528  -1.1197  -1.1197  -0.0697  -0.0697   0.0875   0.0875
     0.5167   0.5167   0.6369   0.6369   0.8685   0.8685   1.1835   1.1835
     1.6453   1.6453   1.7239   1.7239   5.9686   5.9686   6.5378   6.5378
     6.8478   6.8478   7.1027   7.1027   7.8110   7.8110   8.0156   8.0156
     8.3603   8.3603   9.0713

          k = 0.0000-0.2844 0.2738 ( 46524 PWs)   bands (ev):

   -21.0423 -21.0423 -20.9855 -20.9855 -20.0123 -20.0123 -19.9943 -19.9943
   -16.9194 -16.9194 -16.8873 -16.8873 -13.1717 -13.1717 -13.1484 -13.1484
   -12.1042 -12.1042 -12.0656 -12.0656  -8.8744  -8.8744  -8.8101  -8.8101
    -8.0653  -8.0653  -7.7885  -7.7885  -7.1939  -7.1939  -7.0850  -7.0850
    -5.7664  -5.7664  -5.5961  -5.5961  -5.0239  -5.0239  -4.7769  -4.7769
    -4.6250  -4.6250  -4.3707  -4.3707  -4.1431  -4.1431  -4.0229  -4.0229
    -3.6683  -3.6683  -3.4965  -3.4965  -3.3057  -3.3056  -3.1575  -3.1575
    -1.3690  -1.3690  -1.1991  -1.1991  -0.1442  -0.1442   0.0955   0.0955
     0.5728   0.5728   0.6368   0.6368   0.8865   0.8865   1.1622   1.1622
     1.5884   1.5884   1.8440   1.8440   6.0022   6.0022   6.4033   6.4034
     6.8758   6.8758   7.0451   7.0451   7.8778   7.8778   8.1299   8.1299
     8.5741   8.5741   9.0602

          k = 0.3333 0.0000 0.0492 ( 46529 PWs)   bands (ev):

   -21.1540 -21.0347 -20.9184 -20.8683 -20.2403 -20.1894 -19.8176 -19.8171
   -17.1552 -17.1235 -16.6895 -16.6443 -13.4321 -13.4157 -12.9182 -12.8591
   -12.1668 -12.0918 -12.0912 -12.0542  -8.8989  -8.8715  -8.7628  -8.7210
    -8.2161  -8.2117  -7.8785  -7.5946  -7.4106  -7.3265  -6.7160  -6.3907
    -6.2965  -6.0011  -5.8180  -5.5760  -5.0954  -4.8816  -4.7316  -4.6168
    -4.6114  -4.5071  -4.3185  -4.2987  -4.1876  -4.1322  -4.0738  -4.0533
    -3.7874  -3.6969  -3.4979  -3.4954  -3.3075  -3.2992  -3.2061  -2.8295
    -1.9222  -1.7225  -0.7368  -0.5789  -0.1898   0.0011   0.1023   0.2535
     0.4875   0.4905   0.5747   0.6563   0.8824   0.9868   1.0049   1.2114
     1.2600   1.6009   1.9330   1.9802   5.7651   6.1074   6.3270   6.4627
     6.7477   6.8293   6.8604   6.8945   7.4800   7.8053   7.9173   8.2753
     8.5756   8.7372   9.0706

          k = 0.3333 0.0000 0.3230 ( 46535 PWs)   bands (ev):

   -21.1237 -21.0697 -20.9023 -20.8812 -20.2243 -20.2055 -19.8205 -19.8131
   -17.1480 -17.1312 -16.6801 -16.6547 -13.4346 -13.4122 -12.9146 -12.8689
   -12.1499 -12.0990 -12.0781 -12.0660  -8.9026  -8.8537  -8.7514  -8.7459
    -8.2856  -8.1608  -7.8242  -7.6620  -7.3980  -7.3542  -6.6657  -6.4153
    -6.2473  -6.0646  -5.6029  -5.3438  -5.2779  -4.9178  -4.8241  -4.8018
    -4.5828  -4.5795  -4.3549  -4.2315  -4.2262  -4.0723  -3.9965  -3.9882
    -3.8258  -3.7524  -3.5115  -3.4958  -3.4209  -3.3118  -3.0139  -2.8731
    -1.9624  -1.7530  -0.7625  -0.5643  -0.2250  -0.0677   0.1720   0.1824
     0.4735   0.4927   0.5894   0.6306   0.9326   0.9691   1.2107   1.2728
     1.3197   1.3929   1.9784   2.0270   5.7735   6.1348   6.2227   6.4776
     6.7502   6.7551   6.8755   6.9784   7.4192   7.5297   7.8371   8.6228
     8.6257   8.8623   9.0081

          k = 0.3333 0.0000-0.2246 ( 46521 PWs)   bands (ev):

   -21.1287 -21.0642 -20.9066 -20.8769 -20.2311 -20.1990 -19.8208 -19.8129
   -17.1471 -17.1322 -16.6774 -16.6576 -13.4261 -13.4198 -12.9022 -12.8884
   -12.1379 -12.1117 -12.0906 -12.0441  -8.8784  -8.8434  -8.7975  -8.7480
    -8.2855  -8.1667  -7.7805  -7.6722  -7.4462  -7.3213  -6.5624  -6.4955
    -6.2354  -6.1200  -5.6358  -5.3464  -5.2017  -4.9029  -4.8763  -4.7382
    -4.7098  -4.5640  -4.2855  -4.2841  -4.1889  -4.1167  -4.0572  -3.9925
    -3.6610  -3.6345  -3.5393  -3.5150  -3.4813  -3.3520  -3.0524  -2.8473
    -1.8722  -1.8572  -0.6756  -0.6163  -0.1712  -0.1677   0.1368   0.2441
     0.4480   0.4632   0.6247   0.6591   0.9596   1.0035   1.1679   1.2277
     1.2817   1.4417   1.9731   2.0228   5.9521   6.0165   6.3044   6.3344
     6.7073   6.8171   6.8472   6.8917   7.4257   7.5788   8.1660   8.3794
     8.4895   8.9195   9.0929

          k = 0.3333-0.2844 0.0492 ( 46498 PWs)   bands (ev):

   -21.0579 -21.0579 -20.9633 -20.9633 -20.0174 -20.0174 -19.9940 -19.9940
   -16.9282 -16.9282 -16.8845 -16.8845 -13.1737 -13.1737 -13.1350 -13.1350
   -12.1268 -12.1268 -12.0710 -12.0710  -8.8764  -8.8764  -8.7942  -8.7942
    -8.0140  -8.0140  -7.8176  -7.8176  -7.1707  -7.1706  -7.1134  -7.1133
    -5.8446  -5.8446  -5.6642  -5.6642  -5.0176  -5.0176  -4.6364  -4.6364
    -4.5446  -4.5446  -4.3297  -4.3297  -4.1513  -4.1513  -4.0201  -4.0201
    -3.7845  -3.7845  -3.5956  -3.5956  -3.2682  -3.2682  -3.1092  -3.1092
    -1.3636  -1.3636  -1.1586  -1.1586  -0.0834  -0.0834   0.2118   0.2118
     0.5490   0.5490   0.6510   0.6510   0.8307   0.8307   1.2126   1.2126
     1.6128   1.6128   1.7758   1.7758   5.9121   5.9121   6.3977   6.3977
     6.7807   6.7807   6.8892   6.8892   7.7202   7.7202   7.9979   7.9979
     8.7068   8.7068   9.2438

          k = 0.3333-0.2844 0.3230 ( 46496 PWs)   bands (ev):

   -21.0346 -21.0346 -20.9878 -20.9878 -20.0089 -20.0089 -20.0015 -20.0015
   -16.9245 -16.9244 -16.8891 -16.8891 -13.1771 -13.1771 -13.1326 -13.1326
   -12.1059 -12.1059 -12.0882 -12.0882  -8.8715  -8.8715  -8.8013  -8.8013
    -8.0251  -8.0251  -7.7983  -7.7983  -7.2040  -7.2040  -7.1069  -7.1069
    -5.7280  -5.7280  -5.6279  -5.6279  -5.0215  -5.0215  -4.7589  -4.7589
    -4.5645  -4.5645  -4.4052  -4.4052  -4.0920  -4.0920  -4.0213  -4.0213
    -3.7604  -3.7604  -3.5969  -3.5969  -3.2752  -3.2752  -3.1190  -3.1190
    -1.3425  -1.3425  -1.2141  -1.2141  -0.0988  -0.0988   0.1808   0.1808
     0.5773   0.5773   0.6555   0.6555   0.8781   0.8781   1.2120   1.2120
     1.5802   1.5802   1.8410   1.8410   5.9108   5.9108   6.3722   6.3722
     6.7734   6.7734   6.9165   6.9165   7.6029   7.6030   7.9317   7.9317
     8.9609   8.9609   9.2338

          k = 0.3333-0.2844-0.2246 ( 46512 PWs)   bands (ev):

   -21.0386 -21.0386 -20.9835 -20.9835 -20.0143 -20.0143 -19.9962 -19.9962
   -16.9233 -16.9233 -16.8904 -16.8904 -13.1708 -13.1708 -13.1406 -13.1406
   -12.1151 -12.1151 -12.0764 -12.0764  -8.8442  -8.8442  -8.8286  -8.8286
    -8.0342  -8.0342  -7.7935  -7.7935  -7.1822  -7.1822  -7.1205  -7.1205
    -5.7453  -5.7453  -5.6135  -5.6135  -5.0384  -5.0384  -4.7916  -4.7916
    -4.5024  -4.5024  -4.3618  -4.3618  -4.1861  -4.1861  -3.9986  -3.9986
    -3.8292  -3.8292  -3.4937  -3.4937  -3.2398  -3.2398  -3.1648  -3.1648
    -1.3599  -1.3599  -1.2189  -1.2189  -0.0556  -0.0556   0.1578   0.1578
     0.5701   0.5701   0.6586   0.6587   0.8901   0.8901   1.1952   1.1952
     1.5787   1.5788   1.8375   1.8376   6.0053   6.0053   6.2657   6.2657
     6.7370   6.7370   6.9210   6.9210   7.7317   7.7317   7.9013   7.9013
     8.7920   8.7920   9.3254

     highest occupied, lowest unoccupied level (ev):     2.0641    5.7651

!    total energy              =    -798.43868148 Ry
     Harris-Foulkes estimate   =    -798.43868149 Ry
     estimated scf accuracy    <          4.8E-09 Ry

     total all-electron energy =     -3012.773377 Ry

     The total energy is the sum of the following terms:

     one-electron contribution =    -418.30407901 Ry
     hartree contribution      =     271.82062021 Ry
     xc contribution           =    -163.68589733 Ry
     ewald contribution        =    -265.89521446 Ry
     Dispersion Correction     =      -0.20585740 Ry
     one-center paw contrib.   =    -222.16825349 Ry

     convergence has been achieved in  14 iterations

     Forces acting on atoms (cartesian axes, Ry/au):

     atom    1 type  3   force =    -0.00063092   -0.00108464   -0.00126274
     atom    2 type  3   force =     0.00063067   -0.00108507    0.00126297
     atom    3 type  3   force =     0.00063092    0.00108464    0.00126274
     atom    4 type  3   force =    -0.00063067    0.00108507   -0.00126297
     atom    5 type  4   force =    -0.00426668    0.00027189    0.00213560
     atom    6 type  4   force =     0.00426722    0.00027352   -0.00213616
     atom    7 type  4   force =     0.00426668   -0.00027189   -0.00213560
     atom    8 type  4   force =    -0.00426722   -0.00027352    0.00213616
     atom    9 type  4   force =    -0.00025443    0.00354702   -0.00082287
     atom   10 type  4   force =     0.00025654    0.00354770    0.00082177
     atom   11 type  4   force =     0.00025443   -0.00354702    0.00082287
     atom   12 type  4   force =    -0.00025654   -0.00354770   -0.00082177
     atom   13 type  2   force =    -0.00237713   -0.00690338   -0.00128542
     atom   14 type  2   force =     0.00238049   -0.00689987    0.00128474
     atom   15 type  2   force =     0.00237713    0.00690338    0.00128542
     atom   16 type  2   force =    -0.00238049    0.00689987   -0.00128474
     atom   17 type  2   force =     0.00397103   -0.00543679   -0.00036035
     atom   18 type  2   force =    -0.00397264   -0.00544052    0.00035760
     atom   19 type  2   force =    -0.00397103    0.00543679    0.00036035
     atom   20 type  2   force =     0.00397264    0.00544052   -0.00035760
     atom   21 type  1   force =     0.00068204    0.00792627    0.00168124
     atom   22 type  1   force =    -0.00067546    0.00789278   -0.00168029
     atom   23 type  1   force =    -0.00068204   -0.00792627   -0.00168124
     atom   24 type  1   force =     0.00067546   -0.00789278    0.00168029
     atom   25 type  3   force =    -0.00049983   -0.00128445    0.00083261
     atom   26 type  3   force =     0.00050157   -0.00128533   -0.00083143
     atom   27 type  3   force =     0.00049983    0.00128445   -0.00083261
     atom   28 type  3   force =    -0.00050157    0.00128533    0.00083143
     atom   29 type  1   force =     0.00756497    0.00093385    0.00244589
     atom   30 type  1   force =    -0.00756382    0.00092436   -0.00244658
     atom   31 type  1   force =    -0.00756497   -0.00093385   -0.00244589
     atom   32 type  1   force =     0.00756382   -0.00092436    0.00244658
     atom   33 type  3   force =    -0.00078276   -0.00263056   -0.00095541
     atom   34 type  3   force =     0.00078306   -0.00263160    0.00095565
     atom   35 type  3   force =     0.00078276    0.00263056    0.00095541
     atom   36 type  3   force =    -0.00078306    0.00263160   -0.00095565
     atom   37 type  1   force =    -0.00239900    0.00624320   -0.00142106
     atom   38 type  1   force =     0.00239589    0.00623197    0.00141695
     atom   39 type  1   force =     0.00239900   -0.00624320    0.00142106
     atom   40 type  1   force =    -0.00239589   -0.00623197   -0.00141695
     atom   41 type  3   force =     0.00081960   -0.00080548   -0.00117608
     atom   42 type  3   force =    -0.00081978   -0.00080432    0.00117569
     atom   43 type  3   force =    -0.00081960    0.00080548    0.00117608
     atom   44 type  3   force =     0.00081978    0.00080432   -0.00117569

     Total force =     0.036337     Total SCF correction =     0.000145


     Computing stress (Cartesian axis) and pressure

          total   stress  (Ry/bohr**3)                   (kbar)     P=   -1.44
   0.00001078  -0.00000000  -0.00000404          1.59     -0.00     -0.59
  -0.00000000  -0.00002511   0.00000000         -0.00     -3.69      0.00
  -0.00000404   0.00000000  -0.00001509         -0.59      0.00     -2.22


     Writing output data file scf.save
 
     init_run     :     11.85s CPU     12.17s WALL (       1 calls)
     electrons    :    286.97s CPU    296.23s WALL (       1 calls)
     forces       :      6.14s CPU      6.19s WALL (       1 calls)
     stress       :     15.55s CPU     15.58s WALL (       1 calls)

     Called by init_run:
     wfcinit      :      7.42s CPU      7.64s WALL (       1 calls)
     potinit      :      1.65s CPU      1.71s WALL (       1 calls)

     Called by electrons:
     c_bands      :    251.63s CPU    260.03s WALL (      14 calls)
     sum_band     :     30.07s CPU     30.66s WALL (      14 calls)
     v_of_rho     :      0.76s CPU      0.87s WALL (      15 calls)
     newd         :      1.52s CPU      1.56s WALL (      15 calls)
     PAW_pot      :      2.75s CPU      2.75s WALL (      15 calls)
     mix_rho      :      0.15s CPU      0.17s WALL (      14 calls)

     Called by c_bands:
     init_us_2    :      1.94s CPU      1.95s WALL (     310 calls)
     cegterg      :    244.62s CPU    252.99s WALL (     140 calls)

     Called by sum_band:
     sum_band:bec :      0.03s CPU      0.03s WALL (     140 calls)
     addusdens    :      1.41s CPU      1.43s WALL (      14 calls)

     Called by *egterg:
     h_psi        :    156.45s CPU    162.02s WALL (     647 calls)
     s_psi        :     21.60s CPU     21.60s WALL (     647 calls)
     g_psi        :      0.90s CPU      0.90s WALL (     497 calls)
     cdiaghg      :     15.05s CPU     15.04s WALL (     637 calls)

     Called by h_psi:
     h_psi:pot    :    155.47s CPU    161.03s WALL (     647 calls)
     h_psi:calbec :     21.41s CPU     21.48s WALL (     647 calls)
     vloc_psi     :    112.50s CPU    117.97s WALL (     647 calls)
     add_vuspsi   :     21.57s CPU     21.57s WALL (     647 calls)

     General routines
     calbec       :     31.14s CPU     31.24s WALL (     837 calls)
     fft          :      0.62s CPU      0.82s WALL (     219 calls)
     fftw         :    121.57s CPU    127.44s WALL (   87842 calls)
 
     Parallel routines
     fft_scatter  :     29.17s CPU     32.57s WALL (   88061 calls)
 
     PWSCF        :  5m24.21s CPU     5m34.83s WALL

 
   This run was terminated on:   5:52:21   4Nov2017            

=------------------------------------------------------------------------------=
   JOB DONE.
=------------------------------------------------------------------------------=
