
     Program PWSCF v.6.1 (svn rev. 13369) starts on 13Nov2017 at 12:24: 2 

     This program is part of the open-source Quantum ESPRESSO suite
     for quantum simulation of materials; please cite
         "P. Giannozzi et al., J. Phys.:Condens. Matter 21 395502 (2009);
          URL http://www.quantum-espresso.org", 
     in publications or presentations arising from this work. More details at
     http://www.quantum-espresso.org/quote

     Parallel version (MPI), running on     8 processors
     R & G space division:  proc/nbgrp/npool/nimage =       8
     Waiting for input...
     Reading input from standard input

     Current dimensions of program PWSCF are:
     Max number of different atomic species (ntypx) = 10
     Max number of k-points (npk) =  40000
     Max angular momentum in pseudopotentials (lmaxx) =  3
               file C.pbe-n-kjpaw_psl.0.1.UPF: wavefunction(s)  2P renormalized
               file N.pbe-n-kjpaw_psl.0.1.UPF: wavefunction(s)  2P renormalized
               file H.pbe-kjpaw_psl.0.1.UPF: wavefunction(s)  1S renormalized
               file O.pbe-n-kjpaw_psl.0.1.UPF: wavefunction(s)  2P renormalized

     -------------------------------------
     Parameters for Dispersion Correction:
     -------------------------------------
       atom      VdW radius       C_6     

        C          2.744         60.710
        N          2.640         42.670
        H          1.892          4.857
        O          2.536         24.284

     Subspace diagonalization in iterative solution of the eigenvalue problem:
     a serial algorithm will be used

 
     Parallelization info
     --------------------
     sticks:   dense  smooth     PW     G-vecs:    dense   smooth      PW
     Min         732     732    191                84968    84968   11433
     Max         733     733    192                84973    84973   11439
     Sum        5857    5857   1535               679753   679753   91499
 


     bravais-lattice index     =            0
     lattice parameter (alat)  =      14.5352  a.u.
     unit-cell volume          =    5031.7165 (a.u.)^3
     number of atoms/cell      =           76
     number of atomic types    =            4
     number of electrons       =       248.00
     number of Kohn-Sham states=          148
     kinetic-energy cutoff     =     100.0000  Ry
     charge density cutoff     =     400.0000  Ry
     convergence threshold     =      1.0E-08
     mixing beta               =       0.5000
     number of iterations used =            8  plain     mixing
     Exchange-correlation      =  SLA  PW   PBX  PBC ( 1  4  3  4 0 0)

     celldm(1)=  14.535206  celldm(2)=   0.000000  celldm(3)=   0.000000
     celldm(4)=   0.000000  celldm(5)=   0.000000  celldm(6)=   0.000000

     crystal axes: (cart. coord. in units of alat)
               a(1) = (   1.000000   0.000000   0.000000 )  
               a(2) = (   0.000000   0.869301   0.000000 )  
               a(3) = (  -0.007270   0.000000   1.884875 )  

     reciprocal axes: (cart. coord. in units 2 pi/alat)
               b(1) = (  1.000000  0.000000  0.003857 )  
               b(2) = (  0.000000  1.150350  0.000000 )  
               b(3) = (  0.000000  0.000000  0.530539 )  


     PseudoPot. # 1 for  C read from file:
     /scratch/ahofstet/pseudo/C.pbe-n-kjpaw_psl.0.1.UPF
     MD5 check sum: 430fe95172b1e11ef3f8ed03bac87931
     Pseudo is Projector augmented-wave + core cor, Zval =  4.0
     Generated using "atomic" code by A. Dal Corso  v.5.0.99 svn rev. 10869
     Shape of augmentation charge: BESSEL
     Using radial grid of 1073 points,  4 beta functions with: 
                l(1) =   0
                l(2) =   0
                l(3) =   1
                l(4) =   1
     Q(r) pseudized with 0 coefficients 


     PseudoPot. # 2 for  N read from file:
     /scratch/ahofstet/pseudo/N.pbe-n-kjpaw_psl.0.1.UPF
     MD5 check sum: f73187c8b701007e77325f868c9291d7
     Pseudo is Projector augmented-wave + core cor, Zval =  5.0
     Generated using "atomic" code by A. Dal Corso  v.5.0.99 svn rev. 10869
     Shape of augmentation charge: PSQ
     Using radial grid of 1085 points,  4 beta functions with: 
                l(1) =   0
                l(2) =   0
                l(3) =   1
                l(4) =   1
     Q(r) pseudized with 0 coefficients 


     PseudoPot. # 3 for  H read from file:
     /scratch/ahofstet/pseudo/H.pbe-kjpaw_psl.0.1.UPF
     MD5 check sum: 94e484f906d9e9773b2f6e52662335b2
     Pseudo is Projector augmented-wave, Zval =  1.0
     Generated using "atomic" code by A. Dal Corso  v.5.0.99 svn rev. 10869
     Shape of augmentation charge: PSQ
     Using radial grid of  929 points,  2 beta functions with: 
                l(1) =   0
                l(2) =   0
     Q(r) pseudized with 0 coefficients 


     PseudoPot. # 4 for  O read from file:
     /scratch/ahofstet/pseudo/O.pbe-n-kjpaw_psl.0.1.UPF
     MD5 check sum: 3f94a2996a3169367d6eb21d9b593f20
     Pseudo is Projector augmented-wave + core cor, Zval =  6.0
     Generated using "atomic" code by A. Dal Corso  v.5.0.99 svn rev. 10869
     Shape of augmentation charge: BESSEL
     Using radial grid of 1095 points,  4 beta functions with: 
                l(1) =   0
                l(2) =   0
                l(3) =   1
                l(4) =   1
     Q(r) pseudized with 0 coefficients 


     atomic species   valence    mass     pseudopotential
        C              4.00    12.01070      C( 1.00)
        N              5.00    14.00670      N( 1.00)
        H              1.00     1.00794      H( 1.00)
        O              6.00    15.99940      O( 1.00)

      2 Sym. Ops., with inversion, found



   Cartesian axes

     site n.     atom                  positions (alat units)
         1           C   tau(   1) = (   0.7294478   0.2207410   1.2419772  )
         2           C   tau(   2) = (   0.2595911   0.6553902   1.5852895  )
         3           C   tau(   3) = (   0.2632818   0.6485597   0.6428976  )
         4           C   tau(   4) = (   0.7331386   0.2139104   0.2995854  )
         5           C   tau(   5) = (   0.5987034   0.3054179   1.3683295  )
         6           C   tau(   6) = (   0.3903542   0.7400328   1.4589498  )
         7           C   tau(   7) = (   0.3940263   0.5638828   0.5165454  )
         8           C   tau(   8) = (   0.6023755   0.1292679   0.4259251  )
         9           C   tau(   9) = (   0.6336093   0.3320623   1.5516313  )
        10           C   tau(  10) = (   0.3554824   0.7667190   1.2756651  )
        11           C   tau(  11) = (   0.3591204   0.5372384   0.3332436  )
        12           C   tau(  12) = (   0.6372472   0.1025817   0.6092098  )
        13           H   tau(  13) = (   0.5198854   0.3794126   1.6221694  )
        14           H   tau(  14) = (   0.4692119   0.8140925   1.2051510  )
        15           H   tau(  15) = (   0.4728443   0.4898880   0.2627055  )
        16           H   tau(  16) = (   0.5235178   0.0552082   0.6797239  )
        17           C   tau(  17) = (   0.7789473   0.3025052   1.6466504  )
        18           C   tau(  18) = (   0.2101662   0.7371590   1.1805992  )
        19           C   tau(  19) = (   0.2137823   0.5667955   0.2382245  )
        20           C   tau(  20) = (   0.7825634   0.1321416   0.7042757  )
        21           H   tau(  21) = (   0.7684763   0.3210117   1.7872743  )
        22           H   tau(  22) = (   0.2206701   0.7556833   1.0399793  )
        23           H   tau(  23) = (   0.2242534   0.5482890   0.0976006  )
        24           H   tau(  24) = (   0.7720596   0.1136174   0.8448956  )
        25           C   tau(  25) = (   0.9501377   0.2486531   1.5927079  )
        26           C   tau(  26) = (   0.0389623   0.6832951   1.2345031  )
        27           C   tau(  27) = (   0.0425919   0.6206476   0.2921670  )
        28           C   tau(  28) = (   0.9537674   0.1860055   0.6503718  )
        29           C   tau(  29) = (   0.0116306   0.2358877   1.4152429  )
        30           C   tau(  30) = (   0.9774534   0.6705138   1.4119766  )
        31           C   tau(  31) = (   0.9810991   0.6334130   0.4696320  )
        32           C   tau(  32) = (   0.0152763   0.1987869   0.4728982  )
        33           H   tau(  33) = (   0.1528398   0.2287332   1.4011575  )
        34           H   tau(  34) = (   0.8362219   0.6633611   1.4260123  )
        35           H   tau(  35) = (   0.8398899   0.6405675   0.4837174  )
        36           H   tau(  36) = (   0.1565078   0.2059396   0.4588626  )
        37           C   tau(  37) = (   0.9177145   0.2293649   1.2663727  )
        38           C   tau(  38) = (   0.0713239   0.6639902   1.5608225  )
        39           C   tau(  39) = (   0.0750152   0.6399358   0.6185022  )
        40           C   tau(  40) = (   0.9214058   0.2053105   0.3240524  )
        41           H   tau(  41) = (   0.9888547   0.2153705   1.1438397  )
        42           H   tau(  42) = (   0.0001667   0.6499941   1.6833643  )
        43           H   tau(  43) = (   0.0038750   0.6539301   0.7410352  )
        44           H   tau(  44) = (   0.9925630   0.2193066   0.2015106  )
        45           C   tau(  45) = (   0.3205719   0.1511912   1.8408846  )
        46           C   tau(  46) = (   0.6685597   0.5858588   0.9862101  )
        47           C   tau(  47) = (   0.6721577   0.7181095   0.0439903  )
        48           C   tau(  48) = (   0.3241700   0.2834419   0.8986648  )
        49           H   tau(  49) = (   0.3390672   0.2793460   0.0168749  )
        50           H   tau(  50) = (   0.6573364   0.7140111   0.9253444  )
        51           H   tau(  51) = (   0.6536625   0.5899547   1.8680000  )
        52           H   tau(  52) = (   0.3353932   0.1552896   0.9595305  )
        53           H   tau(  53) = (   0.4465784   0.1077008   1.7914491  )
        54           H   tau(  54) = (   0.5425520   0.5423913   1.0356661  )
        55           H   tau(  55) = (   0.5461513   0.7615999   0.0934258  )
        56           H   tau(  56) = (   0.4501777   0.3269094   0.8492088  )
        57           H   tau(  57) = (   0.2742475   0.0559618   0.0477462  )
        58           H   tau(  58) = (   0.7221376   0.4906083   0.8944886  )
        59           H   tau(  59) = (   0.7184822   0.8133388   1.8371287  )
        60           H   tau(  60) = (   0.2705920   0.3786924   0.9903863  )
        61           N   tau(  61) = (   0.0515934   0.2198970   1.7295883  )
        62           N   tau(  62) = (   0.9375393   0.6545594   1.0975895  )
        63           N   tau(  63) = (   0.9411363   0.6494037   0.1552866  )
        64           N   tau(  64) = (   0.0551904   0.2147412   0.7872853  )
        65           O   tau(  65) = (   0.6701088   0.1548205   1.1084799  )
        66           O   tau(  66) = (   0.3189047   0.5894982   1.7188465  )
        67           O   tau(  67) = (   0.3226209   0.7144802   0.7763950  )
        68           O   tau(  68) = (   0.6738250   0.2798024   0.1660284  )
        69           O   tau(  69) = (   0.4572021   0.3489974   1.3054841  )
        70           O   tau(  70) = (   0.5318905   0.7835920   1.5218236  )
        71           O   tau(  71) = (   0.5355276   0.5203032   0.5793908  )
        72           O   tau(  72) = (   0.4608392   0.0857086   0.3630513  )
        73           O   tau(  73) = (   0.2118911   0.1621943   1.6878124  )
        74           O   tau(  74) = (   0.7772268   0.5968576   1.1393052  )
        75           O   tau(  75) = (   0.7808386   0.7071064   0.1970624  )
        76           O   tau(  76) = (   0.2155028   0.2724430   0.7455697  )

     number of k points=    10
                       cart. coord. in units 2pi/alat
        k(    1) = (   0.0000000   0.0000000   0.0000000), wk =   0.1111111
        k(    2) = (   0.0000000   0.0000000  -0.2652696), wk =   0.1111111
        k(    3) = (   0.0000000   0.3834500   0.0000000), wk =   0.2222222
        k(    4) = (   0.0000000   0.3834500  -0.2652696), wk =   0.2222222
        k(    5) = (   0.3333333   0.0000000   0.0012857), wk =   0.2222222
        k(    6) = (   0.3333333   0.0000000  -0.2639839), wk =   0.2222222
        k(    7) = (   0.3333333   0.3834500   0.0012857), wk =   0.2222222
        k(    8) = (   0.3333333   0.3834500  -0.2639839), wk =   0.2222222
        k(    9) = (  -0.3333333   0.3834500  -0.0012857), wk =   0.2222222
        k(   10) = (  -0.3333333   0.3834500   0.2639839), wk =   0.2222222

     Dense  grid:   679753 G-vectors     FFT dimensions: (  96,  81, 180)

     Estimated max dynamical RAM per process >     588.92MB

     Estimated total allocated dynamical RAM >    4711.39MB

     Check: negative/imaginary core charge=   -0.000002    0.000000

     Initial potential from superposition of free atoms

     starting charge  247.99836, renormalised to  248.00000
     Starting wfc are  220 randomized atomic wfcs
     Checking if some PAW data can be deallocated... 

     total cpu time spent up to now is       37.5 secs

     per-process dynamical memory:   439.7 Mb

     Self-consistent Calculation

     iteration #  1     ecut=   100.00 Ry     beta=0.50
     Davidson diagonalization with overlap
     ethr =  1.00E-02,  avg # of iterations =  3.0

     total cpu time spent up to now is      135.0 secs

     total energy              =   -1233.83670186 Ry
     Harris-Foulkes estimate   =   -1237.70499976 Ry
     estimated scf accuracy    <       7.48934337 Ry

     iteration #  2     ecut=   100.00 Ry     beta=0.50
     Davidson diagonalization with overlap
     ethr =  3.02E-03,  avg # of iterations =  2.0

     total cpu time spent up to now is      186.6 secs

     total energy              =   -1233.87356497 Ry
     Harris-Foulkes estimate   =   -1234.99122440 Ry
     estimated scf accuracy    <       2.22700184 Ry

     iteration #  3     ecut=   100.00 Ry     beta=0.50
     Davidson diagonalization with overlap
     ethr =  8.98E-04,  avg # of iterations =  6.3

     total cpu time spent up to now is      283.7 secs

     total energy              =   -1234.77341579 Ry
     Harris-Foulkes estimate   =   -1235.48889716 Ry
     estimated scf accuracy    <       2.05879282 Ry

     iteration #  4     ecut=   100.00 Ry     beta=0.50
     Davidson diagonalization with overlap
     ethr =  8.30E-04,  avg # of iterations =  1.0

     total cpu time spent up to now is      332.6 secs

     total energy              =   -1234.95653850 Ry
     Harris-Foulkes estimate   =   -1235.04768761 Ry
     estimated scf accuracy    <       0.20846904 Ry

     iteration #  5     ecut=   100.00 Ry     beta=0.50
     Davidson diagonalization with overlap
     ethr =  8.41E-05,  avg # of iterations =  7.0

     total cpu time spent up to now is      443.4 secs

     total energy              =   -1235.06020652 Ry
     Harris-Foulkes estimate   =   -1235.08220944 Ry
     estimated scf accuracy    <       0.06235370 Ry

     iteration #  6     ecut=   100.00 Ry     beta=0.50
     Davidson diagonalization with overlap
     ethr =  2.51E-05,  avg # of iterations =  3.0

     total cpu time spent up to now is      495.4 secs

     total energy              =   -1235.06288636 Ry
     Harris-Foulkes estimate   =   -1235.07052811 Ry
     estimated scf accuracy    <       0.02070285 Ry

     iteration #  7     ecut=   100.00 Ry     beta=0.50
     Davidson diagonalization with overlap
     ethr =  8.35E-06,  avg # of iterations =  7.5

     total cpu time spent up to now is      566.1 secs

     total energy              =   -1235.06583293 Ry
     Harris-Foulkes estimate   =   -1235.07029279 Ry
     estimated scf accuracy    <       0.01482243 Ry

     iteration #  8     ecut=   100.00 Ry     beta=0.50
     Davidson diagonalization with overlap
     c_bands:  3 eigenvalues not converged
     ethr =  5.98E-06,  avg # of iterations = 13.3

     total cpu time spent up to now is      633.7 secs

     total energy              =   -1235.06857357 Ry
     Harris-Foulkes estimate   =   -1235.06944002 Ry
     estimated scf accuracy    <       0.00361075 Ry

     iteration #  9     ecut=   100.00 Ry     beta=0.50
     Davidson diagonalization with overlap
     ethr =  1.46E-06,  avg # of iterations = 10.3

     total cpu time spent up to now is      718.5 secs

     total energy              =   -1235.06947478 Ry
     Harris-Foulkes estimate   =   -1235.06984629 Ry
     estimated scf accuracy    <       0.00111029 Ry

     iteration # 10     ecut=   100.00 Ry     beta=0.50
     Davidson diagonalization with overlap
     ethr =  4.48E-07,  avg # of iterations =  2.0

     total cpu time spent up to now is      769.3 secs

     total energy              =   -1235.06939756 Ry
     Harris-Foulkes estimate   =   -1235.06957316 Ry
     estimated scf accuracy    <       0.00035308 Ry

     iteration # 11     ecut=   100.00 Ry     beta=0.50
     Davidson diagonalization with overlap
     ethr =  1.42E-07,  avg # of iterations =  4.0

     total cpu time spent up to now is      860.1 secs

     total energy              =   -1235.06958309 Ry
     Harris-Foulkes estimate   =   -1235.06961513 Ry
     estimated scf accuracy    <       0.00008632 Ry

     iteration # 12     ecut=   100.00 Ry     beta=0.50
     Davidson diagonalization with overlap
     ethr =  3.48E-08,  avg # of iterations =  1.9

     total cpu time spent up to now is      910.0 secs

     total energy              =   -1235.06957690 Ry
     Harris-Foulkes estimate   =   -1235.06958904 Ry
     estimated scf accuracy    <       0.00002384 Ry

     iteration # 13     ecut=   100.00 Ry     beta=0.50
     Davidson diagonalization with overlap
     ethr =  9.61E-09,  avg # of iterations =  4.0

     total cpu time spent up to now is     1002.4 secs

     total energy              =   -1235.06959031 Ry
     Harris-Foulkes estimate   =   -1235.06959436 Ry
     estimated scf accuracy    <       0.00001038 Ry

     iteration # 14     ecut=   100.00 Ry     beta=0.50
     Davidson diagonalization with overlap
     ethr =  4.18E-09,  avg # of iterations =  1.4

     total cpu time spent up to now is     1051.5 secs

     total energy              =   -1235.06958982 Ry
     Harris-Foulkes estimate   =   -1235.06959112 Ry
     estimated scf accuracy    <       0.00000235 Ry

     iteration # 15     ecut=   100.00 Ry     beta=0.50
     Davidson diagonalization with overlap
     ethr =  9.47E-10,  avg # of iterations =  4.0

     total cpu time spent up to now is     1146.2 secs

     total energy              =   -1235.06959156 Ry
     Harris-Foulkes estimate   =   -1235.06959196 Ry
     estimated scf accuracy    <       0.00000145 Ry

     iteration # 16     ecut=   100.00 Ry     beta=0.50
     Davidson diagonalization with overlap
     ethr =  5.83E-10,  avg # of iterations =  1.0

     total cpu time spent up to now is     1195.1 secs

     total energy              =   -1235.06959139 Ry
     Harris-Foulkes estimate   =   -1235.06959161 Ry
     estimated scf accuracy    <       0.00000070 Ry

     iteration # 17     ecut=   100.00 Ry     beta=0.50
     Davidson diagonalization with overlap
     ethr =  2.82E-10,  avg # of iterations =  3.0

     total cpu time spent up to now is     1258.1 secs

     total energy              =   -1235.06959150 Ry
     Harris-Foulkes estimate   =   -1235.06959152 Ry
     estimated scf accuracy    <       0.00000006 Ry

     iteration # 18     ecut=   100.00 Ry     beta=0.50
     Davidson diagonalization with overlap
     ethr =  2.29E-11,  avg # of iterations =  4.0

     total cpu time spent up to now is     1344.7 secs

     total energy              =   -1235.06959153 Ry
     Harris-Foulkes estimate   =   -1235.06959153 Ry
     estimated scf accuracy    <       0.00000003 Ry

     iteration # 19     ecut=   100.00 Ry     beta=0.50
     Davidson diagonalization with overlap
     ethr =  1.06E-11,  avg # of iterations =  2.0

     total cpu time spent up to now is     1395.2 secs

     End of self-consistent calculation

          k = 0.0000 0.0000 0.0000 ( 85011 PWs)   bands (ev):

   -21.8058 -21.8042 -21.8027 -21.8013 -19.8649 -19.8633 -19.8284 -19.8284
   -19.0283 -19.0273 -19.0092 -19.0082 -15.8909 -15.8890 -15.8454 -15.8432
   -13.6760 -13.6676 -13.6096 -13.5686 -12.9043 -12.8895 -12.8852 -12.8841
   -11.3276 -11.2887 -11.2870 -11.2010 -10.1768 -10.1003 -10.0955 -10.0906
    -9.3084  -9.2895  -9.2816  -9.2729  -8.8358  -8.7544  -8.7297  -8.6842
    -7.2765  -7.2122  -7.1518  -7.1312  -6.6644  -6.6251  -6.5789  -6.5368
    -6.4897  -6.3992  -6.2811  -6.2795  -5.5853  -5.4185  -5.3934  -5.2570
    -4.9488  -4.9123  -4.9073  -4.8299  -4.8222  -4.7867  -4.7806  -4.7069
    -4.5247  -4.5107  -4.4076  -4.3575  -4.2967  -4.2252  -4.1995  -4.0690
    -4.0542  -3.9924  -3.8761  -3.7710  -3.7108  -3.6640  -3.4567  -3.4436
    -3.3854  -3.3661  -3.2180  -3.1836  -3.1045  -3.0520  -3.0438  -2.9448
    -2.7654  -2.7383  -2.7068  -2.6263  -2.5273  -2.3709  -2.3259  -2.3064
    -2.2204  -2.0769  -2.0496  -1.9214  -1.7236  -1.5382  -1.4192  -1.2099
    -0.5366  -0.4886  -0.4394  -0.3784  -0.3099  -0.2837  -0.2587  -0.1176
    -0.0571   0.0206   0.0308   0.0761   0.5434   0.5820   0.6751   0.7851
     0.9552   0.9573   1.0509   1.0834   2.5561   2.6021   2.8568   2.9020
     4.1644   4.1843   4.2424   4.2463   4.6689   4.6720   4.6894   4.8724
     7.1146   7.2000   7.3594   7.4038   7.5537   7.5830   7.6500   7.8434
     7.8510   7.9095   8.0939   8.1636

          k = 0.0000 0.0000-0.2653 ( 84988 PWs)   bands (ev):

   -21.8052 -21.8051 -21.8019 -21.8017 -19.8641 -19.8641 -19.8284 -19.8284
   -19.0278 -19.0278 -19.0087 -19.0087 -15.8900 -15.8900 -15.8443 -15.8443
   -13.6724 -13.6722 -13.5890 -13.5889 -12.8973 -12.8966 -12.8846 -12.8840
   -11.3092 -11.3083 -11.2446 -11.2439 -10.1448 -10.1445 -10.0890 -10.0886
    -9.2931  -9.2930  -9.2760  -9.2759  -8.7950  -8.7946  -8.7145  -8.7142
    -7.2403  -7.2403  -7.1436  -7.1435  -6.6516  -6.6515  -6.5431  -6.5431
    -6.3964  -6.3962  -6.3413  -6.3412  -5.5339  -5.5338  -5.2974  -5.2973
    -4.9497  -4.9493  -4.9198  -4.9196  -4.7488  -4.7484  -4.6950  -4.6949
    -4.5137  -4.5135  -4.4082  -4.4081  -4.2375  -4.2370  -4.1891  -4.1883
    -3.9601  -3.9594  -3.8237  -3.8236  -3.7325  -3.7325  -3.4896  -3.4892
    -3.3094  -3.3089  -3.1923  -3.1921  -3.0849  -3.0847  -3.0514  -3.0513
    -2.7172  -2.7170  -2.6801  -2.6793  -2.4331  -2.4326  -2.3323  -2.3319
    -2.1423  -2.1422  -1.9784  -1.9784  -1.6621  -1.6616  -1.2898  -1.2897
    -0.4842  -0.4840  -0.3908  -0.3907  -0.3302  -0.3301  -0.1944  -0.1943
    -0.0389  -0.0381   0.0678   0.0686   0.5624   0.5625   0.7317   0.7318
     1.0058   1.0060   1.0211   1.0212   2.5760   2.5761   2.8799   2.8799
     4.2064   4.2066   4.2145   4.2147   4.6598   4.6602   4.7892   4.7894
     7.1395   7.1395   7.3896   7.3903   7.6504   7.6505   7.7301   7.7302
     7.8905   7.8905   8.0025   8.0030

          k = 0.0000 0.3834 0.0000 ( 84954 PWs)   bands (ev):

   -21.8045 -21.8037 -21.8025 -21.8018 -19.8565 -19.8552 -19.8380 -19.8375
   -19.0242 -19.0231 -19.0140 -19.0129 -15.8783 -15.8774 -15.8556 -15.8544
   -13.6588 -13.6436 -13.6253 -13.5940 -12.9021 -12.8945 -12.8900 -12.8887
   -11.3231 -11.3102 -11.2552 -11.2189 -10.1729 -10.1422 -10.0772 -10.0718
    -9.3044  -9.2974  -9.2803  -9.2787  -8.8069  -8.7546  -8.7358  -8.7012
    -7.2522  -7.2019  -7.1865  -7.1645  -6.6349  -6.5965  -6.5925  -6.5532
    -6.4825  -6.4431  -6.2823  -6.2795  -5.4626  -5.3787  -5.3417  -5.2985
    -4.9712  -4.9565  -4.8370  -4.8368  -4.7793  -4.7334  -4.7312  -4.7082
    -4.5248  -4.5072  -4.4242  -4.3848  -4.3058  -4.2839  -4.2056  -4.1429
    -4.0632  -4.0471  -3.7839  -3.7263  -3.7094  -3.6191  -3.5977  -3.5431
    -3.2809  -3.2169  -3.1711  -3.1031  -3.0921  -3.0570  -3.0272  -3.0227
    -2.7913  -2.7143  -2.7104  -2.6435  -2.5036  -2.3812  -2.3405  -2.3396
    -2.1946  -2.0972  -2.0720  -1.9846  -1.6230  -1.5198  -1.4611  -1.3609
    -0.5025  -0.4791  -0.4589  -0.4305  -0.4211  -0.3502  -0.2153  -0.1539
    -0.0377   0.0074   0.0307   0.0503   0.5766   0.6432   0.6643   0.7671
     0.9277   0.9385   1.0454   1.0587   2.5954   2.6526   2.7534   2.8126
     4.1394   4.1426   4.2172   4.2179   4.6320   4.6395   4.7196   4.8067
     7.2532   7.2796   7.3086   7.4178   7.5038   7.5568   7.7205   7.8931
     7.9905   8.0451   8.2554   8.2794

          k = 0.0000 0.3834-0.2653 ( 84952 PWs)   bands (ev):

   -21.8043 -21.8041 -21.8022 -21.8020 -19.8559 -19.8558 -19.8378 -19.8377
   -19.0237 -19.0235 -19.0136 -19.0134 -15.8778 -15.8778 -15.8550 -15.8550
   -13.6516 -13.6514 -13.6097 -13.6096 -12.8981 -12.8974 -12.8900 -12.8893
   -11.3066 -11.3057 -11.2485 -11.2477 -10.1558 -10.1553 -10.0789 -10.0785
    -9.2976  -9.2975  -9.2745  -9.2744  -8.7756  -8.7753  -8.7320  -8.7317
    -7.2269  -7.2268  -7.1740  -7.1739  -6.6202  -6.6200  -6.5658  -6.5657
    -6.3927  -6.3926  -6.3575  -6.3573  -5.4359  -5.4358  -5.3146  -5.3146
    -4.9913  -4.9910  -4.8331  -4.8329  -4.7439  -4.7436  -4.6658  -4.6656
    -4.4954  -4.4951  -4.4403  -4.4401  -4.2990  -4.2983  -4.2202  -4.2190
    -3.9403  -3.9396  -3.8449  -3.8447  -3.6743  -3.6738  -3.5598  -3.5596
    -3.2363  -3.2358  -3.1399  -3.1393  -3.0714  -3.0712  -3.0536  -3.0534
    -2.7313  -2.7309  -2.6903  -2.6899  -2.4333  -2.4321  -2.3370  -2.3360
    -2.1380  -2.1376  -2.0349  -2.0348  -1.5889  -1.5886  -1.3988  -1.3985
    -0.5056  -0.5054  -0.4300  -0.4297  -0.3215  -0.3214  -0.2516  -0.2515
    -0.0261  -0.0249   0.0551   0.0563   0.6113   0.6116   0.7117   0.7118
     0.9889   0.9892   1.0009   1.0011   2.6196   2.6197   2.7833   2.7834
     4.1674   4.1677   4.1984   4.1985   4.6661   4.6666   4.7250   4.7255
     7.2493   7.2497   7.3528   7.3530   7.6115   7.6121   7.7830   7.7831
     8.0305   8.0310   8.2210   8.2220

          k = 0.3333 0.0000 0.0013 ( 84925 PWs)   bands (ev):

   -21.8051 -21.8038 -21.8029 -21.8018 -19.8652 -19.8632 -19.8281 -19.8280
   -19.0286 -19.0276 -19.0094 -19.0084 -15.9021 -15.8924 -15.8518 -15.8464
   -13.6766 -13.6745 -13.5618 -13.5455 -12.8859 -12.8763 -12.8737 -12.8700
   -11.3327 -11.3319 -11.2907 -11.2629 -10.2180 -10.1345 -10.1030 -10.0824
    -9.3392  -9.3186  -9.3081  -9.2627  -8.7651  -8.7241  -8.7136  -8.6709
    -7.2635  -7.1676  -7.1345  -7.0942  -6.6585  -6.6543  -6.6355  -6.5882
    -6.4149  -6.3511  -6.2617  -6.2146  -5.5057  -5.4549  -5.3589  -5.3209
    -5.2150  -5.0768  -4.9614  -4.9146  -4.8393  -4.7871  -4.7657  -4.6591
    -4.6001  -4.5124  -4.3544  -4.2623  -4.2252  -4.1503  -4.1259  -4.0927
    -3.9583  -3.8692  -3.8670  -3.7289  -3.7069  -3.6376  -3.5404  -3.4168
    -3.3896  -3.3687  -3.2095  -3.2087  -3.1955  -3.1704  -3.0822  -2.9040
    -2.7259  -2.6984  -2.5816  -2.5623  -2.5002  -2.4259  -2.3208  -2.2749
    -2.2180  -2.0997  -2.0441  -1.9553  -1.6990  -1.5892  -1.3933  -1.2201
    -0.6629  -0.5600  -0.4932  -0.3489  -0.3001  -0.2869  -0.2593  -0.1442
    -0.0062   0.0596   0.0824   0.1054   0.5277   0.5687   0.7346   0.7493
     0.9072   0.9667   0.9858   1.0529   2.6121   2.6354   2.7819   2.8128
     4.1161   4.1912   4.3059   4.3408   4.5979   4.6166   4.7745   4.9193
     7.1410   7.2538   7.4459   7.4727   7.4764   7.6051   7.7064   7.8042
     7.9679   8.0309   8.0760   8.0793

          k = 0.3333 0.0000-0.2640 ( 84947 PWs)   bands (ev):

   -21.8048 -21.8045 -21.8023 -21.8021 -19.8643 -19.8641 -19.8282 -19.8279
   -19.0281 -19.0281 -19.0089 -19.0089 -15.8998 -15.8952 -15.8499 -15.8479
   -13.6781 -13.6731 -13.5604 -13.5471 -12.8813 -12.8806 -12.8730 -12.8708
   -11.3619 -11.2992 -11.2880 -11.2675 -10.2223 -10.1308 -10.0994 -10.0925
    -9.3288  -9.3231  -9.2917  -9.2725  -8.7720  -8.7194  -8.7094  -8.6833
    -7.2079  -7.1903  -7.1626  -7.0974  -6.6668  -6.6517  -6.6107  -6.6043
    -6.3474  -6.3400  -6.3064  -6.2682  -5.4989  -5.4665  -5.3315  -5.3247
    -5.1860  -5.0785  -4.9285  -4.9042  -4.8893  -4.8312  -4.7769  -4.7440
    -4.4619  -4.4293  -4.4022  -4.3434  -4.2184  -4.1349  -4.1196  -4.1000
    -3.9378  -3.8990  -3.7684  -3.7359  -3.7192  -3.6879  -3.5321  -3.4339
    -3.3875  -3.3576  -3.2510  -3.2270  -3.2188  -3.1590  -2.9956  -2.9322
    -2.7450  -2.7232  -2.5823  -2.5702  -2.4716  -2.4123  -2.3336  -2.2831
    -2.1334  -2.1090  -2.0362  -2.0175  -1.6697  -1.6385  -1.3144  -1.2912
    -0.6251  -0.6020  -0.3969  -0.3798  -0.3277  -0.2897  -0.2159  -0.2081
     0.0301   0.0443   0.0714   0.0997   0.5420   0.5608   0.7030   0.7745
     0.9377   0.9591   1.0074   1.0097   2.6111   2.6320   2.7931   2.8018
     4.1581   4.1643   4.3112   4.3247   4.5922   4.6153   4.8435   4.8547
     7.1414   7.3217   7.4375   7.4560   7.4595   7.5920   7.7206   7.9292
     7.9623   7.9662   8.0475   8.0578

          k = 0.3333 0.3834 0.0013 ( 84992 PWs)   bands (ev):

   -21.8040 -21.8033 -21.8027 -21.8021 -19.8565 -19.8550 -19.8377 -19.8373
   -19.0244 -19.0234 -19.0142 -19.0131 -15.8883 -15.8811 -15.8628 -15.8582
   -13.6499 -13.6435 -13.5918 -13.5793 -12.8840 -12.8795 -12.8740 -12.8717
   -11.3335 -11.3304 -11.2876 -11.2715 -10.1938 -10.1459 -10.1086 -10.0908
    -9.3365  -9.3211  -9.3027  -9.2749  -8.7690  -8.7486  -8.6911  -8.6707
    -7.2411  -7.1926  -7.1206  -7.0985  -6.6610  -6.6485  -6.6410  -6.6090
    -6.3894  -6.3602  -6.2523  -6.2276  -5.4657  -5.4201  -5.4090  -5.3128
    -5.0924  -5.0341  -5.0174  -4.8971  -4.8562  -4.8239  -4.7353  -4.6870
    -4.5608  -4.5135  -4.3073  -4.2589  -4.2196  -4.1929  -4.1093  -4.1005
    -3.9081  -3.8782  -3.8082  -3.7401  -3.6969  -3.6449  -3.5786  -3.5454
    -3.3566  -3.2694  -3.2067  -3.1623  -3.1250  -3.0937  -3.0087  -2.9718
    -2.7612  -2.7030  -2.6368  -2.6276  -2.5056  -2.4201  -2.3972  -2.3613
    -2.1815  -2.1354  -2.0248  -1.9888  -1.6160  -1.5403  -1.4430  -1.3713
    -0.5822  -0.5159  -0.4517  -0.3975  -0.3798  -0.3586  -0.2414  -0.1728
    -0.0156   0.0174   0.0746   0.0827   0.5736   0.5966   0.6969   0.7332
     0.8982   0.9374   0.9895   1.0249   2.6202   2.6695   2.7101   2.7714
     4.1338   4.1893   4.2263   4.2648   4.6113   4.6624   4.6894   4.8118
     7.1915   7.2927   7.5052   7.5996   7.6415   7.6902   7.7784   7.9738
     8.0227   8.0674   8.1336   8.1684

          k = 0.3333 0.3834-0.2640 ( 85001 PWs)   bands (ev):

   -21.8039 -21.8035 -21.8024 -21.8023 -19.8559 -19.8557 -19.8375 -19.8374
   -19.0240 -19.0238 -19.0138 -19.0136 -15.8868 -15.8831 -15.8615 -15.8591
   -13.6509 -13.6426 -13.5916 -13.5795 -12.8817 -12.8800 -12.8750 -12.8723
   -11.3509 -11.3222 -11.2784 -11.2700 -10.1980 -10.1419 -10.1139 -10.0917
    -9.3244  -9.3117  -9.3037  -9.2849  -8.7664  -8.7385  -8.7028  -8.6813
    -7.2001  -7.1809  -7.1564  -7.1152  -6.6580  -6.6448  -6.6325  -6.6148
    -6.3415  -6.3319  -6.2997  -6.2763  -5.4657  -5.4139  -5.3749  -5.3439
    -5.0686  -5.0348  -4.9782  -4.9121  -4.8917  -4.8566  -4.7701  -4.7383
    -4.4400  -4.4260  -4.3603  -4.3247  -4.1928  -4.1423  -4.1325  -4.1168
    -3.8953  -3.8396  -3.8206  -3.7646  -3.7003  -3.6758  -3.5741  -3.5410
    -3.3424  -3.2933  -3.2143  -3.1552  -3.1436  -3.0826  -3.0189  -2.9551
    -2.7619  -2.7164  -2.6437  -2.6402  -2.4828  -2.4201  -2.3796  -2.3677
    -2.1229  -2.1024  -2.0594  -2.0495  -1.5907  -1.5743  -1.4150  -1.3895
    -0.5643  -0.5493  -0.4157  -0.3773  -0.3375  -0.3330  -0.2740  -0.2573
     0.0149   0.0306   0.0542   0.0751   0.5613   0.6247   0.6688   0.7407
     0.9347   0.9567   0.9780   0.9854   2.6306   2.6508   2.7319   2.7527
     4.1633   4.1774   4.2332   4.2534   4.6266   4.6410   4.7410   4.7537
     7.2119   7.2906   7.5458   7.5902   7.6200   7.7216   7.7878   7.9391
     7.9696   8.0558   8.0987   8.2486

          k =-0.3333 0.3834-0.0013 ( 84992 PWs)   bands (ev):

   -21.8040 -21.8033 -21.8027 -21.8021 -19.8565 -19.8551 -19.8377 -19.8373
   -19.0244 -19.0234 -19.0142 -19.0132 -15.8883 -15.8811 -15.8628 -15.8582
   -13.6498 -13.6436 -13.5918 -13.5794 -12.8839 -12.8793 -12.8739 -12.8720
   -11.3329 -11.3311 -11.2874 -11.2716 -10.1935 -10.1463 -10.1086 -10.0907
    -9.3364  -9.3212  -9.3028  -9.2749  -8.7694  -8.7482  -8.6911  -8.6707
    -7.2410  -7.1927  -7.1207  -7.0985  -6.6611  -6.6485  -6.6411  -6.6089
    -6.3894  -6.3602  -6.2522  -6.2276  -5.4657  -5.4203  -5.4089  -5.3129
    -5.0923  -5.0343  -5.0173  -4.8970  -4.8561  -4.8240  -4.7354  -4.6868
    -4.5608  -4.5136  -4.3071  -4.2590  -4.2195  -4.1928  -4.1095  -4.1007
    -3.9082  -3.8785  -3.8078  -3.7392  -3.6977  -3.6448  -3.5785  -3.5454
    -3.3565  -3.2703  -3.2061  -3.1629  -3.1245  -3.0938  -3.0084  -2.9717
    -2.7618  -2.7029  -2.6369  -2.6275  -2.5061  -2.4199  -2.3964  -2.3611
    -2.1818  -2.1354  -2.0252  -1.9886  -1.6160  -1.5403  -1.4429  -1.3713
    -0.5821  -0.5158  -0.4517  -0.3975  -0.3799  -0.3587  -0.2415  -0.1728
    -0.0160   0.0179   0.0740   0.0832   0.5736   0.5967   0.6968   0.7332
     0.8982   0.9375   0.9894   1.0249   2.6204   2.6695   2.7101   2.7713
     4.1337   4.1892   4.2265   4.2649   4.6115   4.6619   4.6897   4.8117
     7.1920   7.2921   7.5053   7.6000   7.6413   7.6901   7.7780   7.9737
     8.0230   8.0672   8.1337   8.1686

          k =-0.3333 0.3834 0.2640 ( 85001 PWs)   bands (ev):

   -21.8038 -21.8036 -21.8025 -21.8021 -19.8558 -19.8558 -19.8376 -19.8373
   -19.0240 -19.0238 -19.0138 -19.0136 -15.8868 -15.8831 -15.8614 -15.8591
   -13.6508 -13.6426 -13.5915 -13.5796 -12.8811 -12.8806 -12.8744 -12.8728
   -11.3509 -11.3224 -11.2780 -11.2703 -10.1978 -10.1420 -10.1141 -10.0915
    -9.3243  -9.3118  -9.3036  -9.2849  -8.7668  -8.7381  -8.7025  -8.6815
    -7.2000  -7.1810  -7.1564  -7.1152  -6.6581  -6.6449  -6.6324  -6.6148
    -6.3413  -6.3320  -6.2998  -6.2764  -5.4656  -5.4141  -5.3749  -5.3439
    -5.0683  -5.0350  -4.9782  -4.9122  -4.8917  -4.8565  -4.7698  -4.7386
    -4.4400  -4.4259  -4.3603  -4.3246  -4.1926  -4.1424  -4.1331  -4.1164
    -3.8959  -3.8392  -3.8205  -3.7643  -3.7004  -3.6756  -3.5742  -3.5409
    -3.3427  -3.2932  -3.2148  -3.1543  -3.1436  -3.0823  -3.0191  -2.9551
    -2.7625  -2.7160  -2.6441  -2.6401  -2.4833  -2.4199  -2.3793  -2.3670
    -2.1235  -2.1024  -2.0593  -2.0495  -1.5909  -1.5740  -1.4151  -1.3894
    -0.5642  -0.5492  -0.4157  -0.3774  -0.3376  -0.3331  -0.2740  -0.2572
     0.0140   0.0320   0.0534   0.0753   0.5614   0.6248   0.6687   0.7406
     0.9348   0.9567   0.9780   0.9853   2.6307   2.6509   2.7320   2.7525
     4.1632   4.1773   4.2334   4.2534   4.6268   4.6409   4.7409   4.7537
     7.2123   7.2902   7.5461   7.5900   7.6201   7.7218   7.7874   7.9389
     7.9696   8.0555   8.0990   8.2492

     highest occupied, lowest unoccupied level (ev):     1.0834    2.5561

!    total energy              =   -1235.06959153 Ry
     Harris-Foulkes estimate   =   -1235.06959153 Ry
     estimated scf accuracy    <          6.7E-09 Ry

     total all-electron energy =     -4714.878629 Ry

     The total energy is the sum of the following terms:

     one-electron contribution =    -572.24908234 Ry
     hartree contribution      =     383.61896870 Ry
     xc contribution           =    -261.52493030 Ry
     ewald contribution        =    -424.20057406 Ry
     Dispersion Correction     =      -0.36266692 Ry
     one-center paw contrib.   =    -360.35130659 Ry

     convergence has been achieved in  19 iterations

     Forces acting on atoms (cartesian axes, Ry/au):

     atom    1 type  1   force =     0.00024492    0.00294509   -0.00168609
     atom    2 type  1   force =    -0.00006246    0.00270760    0.00208172
     atom    3 type  1   force =    -0.00024492   -0.00294509    0.00168609
     atom    4 type  1   force =     0.00006246   -0.00270760   -0.00208172
     atom    5 type  1   force =    -0.00297601    0.00213240   -0.00188912
     atom    6 type  1   force =     0.00357881    0.00230957    0.00226368
     atom    7 type  1   force =     0.00297601   -0.00213240    0.00188912
     atom    8 type  1   force =    -0.00357881   -0.00230957   -0.00226368
     atom    9 type  1   force =    -0.00320712    0.00065308    0.00103438
     atom   10 type  1   force =     0.00312769    0.00062839   -0.00119758
     atom   11 type  1   force =     0.00320712   -0.00065308   -0.00103438
     atom   12 type  1   force =    -0.00312769   -0.00062839    0.00119758
     atom   13 type  3   force =     0.00075522    0.00062605   -0.00070254
     atom   14 type  3   force =    -0.00074854    0.00061415    0.00070926
     atom   15 type  3   force =    -0.00075522   -0.00062605    0.00070254
     atom   16 type  3   force =     0.00074854   -0.00061415   -0.00070926
     atom   17 type  1   force =     0.00094745   -0.00184258    0.00208080
     atom   18 type  1   force =    -0.00096380   -0.00184662   -0.00201378
     atom   19 type  1   force =    -0.00094745    0.00184258   -0.00208080
     atom   20 type  1   force =     0.00096380    0.00184662    0.00201378
     atom   21 type  3   force =    -0.00001946    0.00025447   -0.00039117
     atom   22 type  3   force =     0.00001800    0.00025415    0.00040366
     atom   23 type  3   force =     0.00001946   -0.00025447    0.00039117
     atom   24 type  3   force =    -0.00001800   -0.00025415   -0.00040366
     atom   25 type  1   force =     0.00093441   -0.00241047   -0.00036919
     atom   26 type  1   force =    -0.00088352   -0.00241560    0.00036568
     atom   27 type  1   force =    -0.00093441    0.00241047    0.00036919
     atom   28 type  1   force =     0.00088352    0.00241560   -0.00036568
     atom   29 type  1   force =     0.00275167   -0.00027666   -0.00164560
     atom   30 type  1   force =    -0.00326406   -0.00025986    0.00092937
     atom   31 type  1   force =    -0.00275167    0.00027666    0.00164560
     atom   32 type  1   force =     0.00326406    0.00025986   -0.00092937
     atom   33 type  3   force =    -0.00060583    0.00053154    0.00025016
     atom   34 type  3   force =     0.00076134    0.00053722   -0.00023088
     atom   35 type  3   force =     0.00060583   -0.00053154   -0.00025016
     atom   36 type  3   force =    -0.00076134   -0.00053722    0.00023088
     atom   37 type  1   force =     0.00221095   -0.00246511    0.00156243
     atom   38 type  1   force =    -0.00187742   -0.00252053   -0.00079837
     atom   39 type  1   force =    -0.00221095    0.00246511   -0.00156243
     atom   40 type  1   force =     0.00187742    0.00252053    0.00079837
     atom   41 type  3   force =    -0.00097263   -0.00017601    0.00083044
     atom   42 type  3   force =     0.00102611   -0.00016058   -0.00096774
     atom   43 type  3   force =     0.00097263    0.00017601   -0.00083044
     atom   44 type  3   force =    -0.00102611    0.00016058    0.00096774
     atom   45 type  1   force =     0.00196858   -0.00173400    0.00122498
     atom   46 type  1   force =    -0.00194017   -0.00173429   -0.00108177
     atom   47 type  1   force =    -0.00196858    0.00173400   -0.00122498
     atom   48 type  1   force =     0.00194017    0.00173429    0.00108177
     atom   49 type  3   force =     0.00054822    0.00029309    0.00035228
     atom   50 type  3   force =    -0.00052514    0.00029489   -0.00036276
     atom   51 type  3   force =    -0.00054822   -0.00029309   -0.00035228
     atom   52 type  3   force =     0.00052514   -0.00029489    0.00036276
     atom   53 type  3   force =    -0.00042326   -0.00002393    0.00089312
     atom   54 type  3   force =     0.00042369   -0.00001730   -0.00092339
     atom   55 type  3   force =     0.00042326    0.00002393   -0.00089312
     atom   56 type  3   force =    -0.00042369    0.00001730    0.00092339
     atom   57 type  3   force =    -0.00113611    0.00025763    0.00029577
     atom   58 type  3   force =     0.00115361    0.00026367   -0.00030179
     atom   59 type  3   force =     0.00113611   -0.00025763   -0.00029577
     atom   60 type  3   force =    -0.00115361   -0.00026367    0.00030179
     atom   61 type  2   force =    -0.00151334    0.00151299   -0.00109943
     atom   62 type  2   force =     0.00149029    0.00151004    0.00113256
     atom   63 type  2   force =     0.00151334   -0.00151299    0.00109943
     atom   64 type  2   force =    -0.00149029   -0.00151004   -0.00113256
     atom   65 type  4   force =     0.00030028   -0.00175122    0.00015553
     atom   66 type  4   force =    -0.00054847   -0.00149945   -0.00067831
     atom   67 type  4   force =    -0.00030028    0.00175122   -0.00015553
     atom   68 type  4   force =     0.00054847    0.00149945    0.00067831
     atom   69 type  4   force =    -0.00115268   -0.00070597    0.00176973
     atom   70 type  4   force =     0.00059342   -0.00088274   -0.00203900
     atom   71 type  4   force =     0.00115268    0.00070597   -0.00176973
     atom   72 type  4   force =    -0.00059342    0.00088274    0.00203900
     atom   73 type  4   force =     0.00281442    0.00155972   -0.00362534
     atom   74 type  4   force =    -0.00280688    0.00155525    0.00362125
     atom   75 type  4   force =    -0.00281442   -0.00155972    0.00362534
     atom   76 type  4   force =     0.00280688   -0.00155525   -0.00362125

     Total force =     0.023202     Total SCF correction =     0.000158


     Computing stress (Cartesian axis) and pressure

          total   stress  (Ry/bohr**3)                   (kbar)     P=   -2.71
   0.00000190  -0.00000007  -0.00000450          0.28     -0.01     -0.66
  -0.00000007  -0.00002567   0.00000010         -0.01     -3.78      0.01
  -0.00000450   0.00000010  -0.00003141         -0.66      0.01     -4.62


     Writing output data file scf.save
 
     init_run     :     35.53s CPU     36.79s WALL (       1 calls)
     electrons    :   1307.25s CPU   1357.93s WALL (       1 calls)
     forces       :     17.09s CPU     17.24s WALL (       1 calls)
     stress       :     65.06s CPU     65.34s WALL (       1 calls)

     Called by init_run:
     wfcinit      :     27.44s CPU     28.55s WALL (       1 calls)
     potinit      :      2.84s CPU      2.88s WALL (       1 calls)

     Called by electrons:
     c_bands      :   1170.23s CPU   1213.45s WALL (      19 calls)
     sum_band     :    124.71s CPU    130.87s WALL (      19 calls)
     v_of_rho     :      1.75s CPU      1.95s WALL (      20 calls)
     newd         :      4.11s CPU      5.05s WALL (      20 calls)
     PAW_pot      :      5.98s CPU      5.98s WALL (      20 calls)
     mix_rho      :      0.41s CPU      0.46s WALL (      19 calls)

     Called by c_bands:
     init_us_2    :      7.21s CPU      7.24s WALL (     410 calls)
     cegterg      :   1141.38s CPU   1184.54s WALL (     190 calls)

     Called by sum_band:
     sum_band:bec :      0.09s CPU      0.09s WALL (     190 calls)
     addusdens    :      4.19s CPU      5.09s WALL (      19 calls)

     Called by *egterg:
     h_psi        :    643.09s CPU    675.28s WALL (    1007 calls)
     s_psi        :    130.60s CPU    130.64s WALL (    1007 calls)
     g_psi        :      3.33s CPU      3.33s WALL (     807 calls)
     cdiaghg      :     73.75s CPU     73.71s WALL (     997 calls)

     Called by h_psi:
     h_psi:pot    :    638.58s CPU    670.69s WALL (    1007 calls)
     h_psi:calbec :    128.88s CPU    129.22s WALL (    1007 calls)
     vloc_psi     :    379.23s CPU    410.98s WALL (    1007 calls)
     add_vuspsi   :    130.46s CPU    130.48s WALL (    1007 calls)

     General routines
     calbec       :    186.22s CPU    186.69s WALL (    1247 calls)
     fft          :      1.21s CPU      1.58s WALL (     284 calls)
     fftw         :    413.22s CPU    447.43s WALL (  184910 calls)
 
     Parallel routines
     fft_scatter  :     92.54s CPU    116.92s WALL (  185194 calls)
 
     PWSCF        : 23m54.00s CPU    25m38.28s WALL

 
   This run was terminated on:  12:49:40  13Nov2017            

=------------------------------------------------------------------------------=
   JOB DONE.
=------------------------------------------------------------------------------=
