
     Program PWSCF v.6.1 (svn rev. 13369) starts on 10Dec2017 at  7:12:37 

     This program is part of the open-source Quantum ESPRESSO suite
     for quantum simulation of materials; please cite
         "P. Giannozzi et al., J. Phys.:Condens. Matter 21 395502 (2009);
          URL http://www.quantum-espresso.org", 
     in publications or presentations arising from this work. More details at
     http://www.quantum-espresso.org/quote

     Parallel version (MPI), running on     8 processors
     R & G space division:  proc/nbgrp/npool/nimage =       8
     Waiting for input...
     Reading input from standard input

     Current dimensions of program PWSCF are:
     Max number of different atomic species (ntypx) = 10
     Max number of k-points (npk) =  40000
     Max angular momentum in pseudopotentials (lmaxx) =  3
               file C.pbe-n-kjpaw_psl.0.1.UPF: wavefunction(s)  2P renormalized
               file N.pbe-n-kjpaw_psl.0.1.UPF: wavefunction(s)  2P renormalized
               file H.pbe-kjpaw_psl.0.1.UPF: wavefunction(s)  1S renormalized
               file O.pbe-n-kjpaw_psl.0.1.UPF: wavefunction(s)  2P renormalized

     -------------------------------------
     Parameters for Dispersion Correction:
     -------------------------------------
       atom      VdW radius       C_6     

        C          2.744         60.710
        N          2.640         42.670
        H          1.892          4.857
        O          2.536         24.284

     Subspace diagonalization in iterative solution of the eigenvalue problem:
     a serial algorithm will be used

 
     Parallelization info
     --------------------
     sticks:   dense  smooth     PW     G-vecs:    dense   smooth      PW
     Min         552     552    150                28697    28697    4059
     Max         554     554    151                28698    28698    4062
     Sum        4423    4423   1201               229577   229577   32477
 


     bravais-lattice index     =            0
     lattice parameter (alat)  =       8.7551  a.u.
     unit-cell volume          =    1699.0792 (a.u.)^3
     number of atoms/cell      =           28
     number of atomic types    =            4
     number of electrons       =        72.00
     number of Kohn-Sham states=           43
     kinetic-energy cutoff     =     100.0000  Ry
     charge density cutoff     =     400.0000  Ry
     convergence threshold     =      1.0E-08
     mixing beta               =       0.5000
     number of iterations used =            8  plain     mixing
     Exchange-correlation      =  SLA  PW   PBX  PBC ( 1  4  3  4 0 0)

     celldm(1)=   8.755101  celldm(2)=   0.000000  celldm(3)=   0.000000
     celldm(4)=   0.000000  celldm(5)=   0.000000  celldm(6)=   0.000000

     crystal axes: (cart. coord. in units of alat)
               a(1) = (   1.000000   0.000000   0.000000 )  
               a(2) = (   0.000000   1.813080   0.000000 )  
               a(3) = (  -0.255534   0.000000   1.396411 )  

     reciprocal axes: (cart. coord. in units 2 pi/alat)
               b(1) = (  1.000000  0.000000  0.182993 )  
               b(2) = (  0.000000  0.551548  0.000000 )  
               b(3) = (  0.000000  0.000000  0.716122 )  


     PseudoPot. # 1 for  C read from file:
     /scratch/ahofstet/pseudo/C.pbe-n-kjpaw_psl.0.1.UPF
     MD5 check sum: 430fe95172b1e11ef3f8ed03bac87931
     Pseudo is Projector augmented-wave + core cor, Zval =  4.0
     Generated using "atomic" code by A. Dal Corso  v.5.0.99 svn rev. 10869
     Shape of augmentation charge: BESSEL
     Using radial grid of 1073 points,  4 beta functions with: 
                l(1) =   0
                l(2) =   0
                l(3) =   1
                l(4) =   1
     Q(r) pseudized with 0 coefficients 


     PseudoPot. # 2 for  N read from file:
     /scratch/ahofstet/pseudo/N.pbe-n-kjpaw_psl.0.1.UPF
     MD5 check sum: f73187c8b701007e77325f868c9291d7
     Pseudo is Projector augmented-wave + core cor, Zval =  5.0
     Generated using "atomic" code by A. Dal Corso  v.5.0.99 svn rev. 10869
     Shape of augmentation charge: PSQ
     Using radial grid of 1085 points,  4 beta functions with: 
                l(1) =   0
                l(2) =   0
                l(3) =   1
                l(4) =   1
     Q(r) pseudized with 0 coefficients 


     PseudoPot. # 3 for  H read from file:
     /scratch/ahofstet/pseudo/H.pbe-kjpaw_psl.0.1.UPF
     MD5 check sum: 94e484f906d9e9773b2f6e52662335b2
     Pseudo is Projector augmented-wave, Zval =  1.0
     Generated using "atomic" code by A. Dal Corso  v.5.0.99 svn rev. 10869
     Shape of augmentation charge: PSQ
     Using radial grid of  929 points,  2 beta functions with: 
                l(1) =   0
                l(2) =   0
     Q(r) pseudized with 0 coefficients 


     PseudoPot. # 4 for  O read from file:
     /scratch/ahofstet/pseudo/O.pbe-n-kjpaw_psl.0.1.UPF
     MD5 check sum: 3f94a2996a3169367d6eb21d9b593f20
     Pseudo is Projector augmented-wave + core cor, Zval =  6.0
     Generated using "atomic" code by A. Dal Corso  v.5.0.99 svn rev. 10869
     Shape of augmentation charge: BESSEL
     Using radial grid of 1095 points,  4 beta functions with: 
                l(1) =   0
                l(2) =   0
                l(3) =   1
                l(4) =   1
     Q(r) pseudized with 0 coefficients 


     atomic species   valence    mass     pseudopotential
        C              4.00    12.01070      C( 1.00)
        N              5.00    14.00670      N( 1.00)
        H              1.00     1.00794      H( 1.00)
        O              6.00    15.99940      O( 1.00)

      2 Sym. Ops., with inversion, found



   Cartesian axes

     site n.     atom                  positions (alat units)
         1           O   tau(   1) = (   0.0276111   1.4411579   0.1511980  )
         2           O   tau(   2) = (   0.3447938   0.5343800   0.5466099  )
         3           O   tau(   3) = (   0.7168553   0.3719222   1.2452126  )
         4           O   tau(   4) = (   0.3996726   1.2787001   0.8498007  )
         5           C   tau(   5) = (   0.1284305   1.6700560   0.3469100  )
         6           C   tau(   6) = (   0.2434294   0.7631825   0.3510994  )
         7           C   tau(   7) = (   0.6160359   0.1430241   1.0495006  )
         8           C   tau(   8) = (   0.5010370   1.0498976   1.0453112  )
         9           C   tau(   9) = (   0.8666706   1.5111287   0.4118610  )
        10           C   tau(  10) = (   0.5054908   0.6047955   0.2858822  )
        11           C   tau(  11) = (  -0.1222042   0.3019514   0.9845496  )
        12           C   tau(  12) = (   0.2389756   1.2082846   1.1105284  )
        13           H   tau(  13) = (   0.3200284   1.6082147   0.4723147  )
        14           H   tau(  14) = (   0.0519982   0.7010319   0.2255925  )
        15           H   tau(  15) = (   0.4244380   0.2048654   0.9240959  )
        16           H   tau(  16) = (   0.6924682   1.1120482   1.1708181  )
        17           H   tau(  17) = (   0.1210726   0.0751322   0.2586246  )
        18           H   tau(  18) = (   0.2503507   0.9813202   0.4394649  )
        19           H   tau(  19) = (   0.6233938   1.7379479   1.1377860  )
        20           H   tau(  20) = (   0.4941157   0.8317599   0.9569457  )
        21           H   tau(  21) = (   0.6564795   1.6191300   0.3724582  )
        22           H   tau(  22) = (   0.7155152   0.7130907   0.3253211  )
        23           H   tau(  23) = (   0.0879869   0.1939501   1.0239524  )
        24           H   tau(  24) = (   0.0289512   1.0999894   1.0710895  )
        25           H   tau(  25) = (   0.8630766   1.3434607   0.5778224  )
        26           H   tau(  26) = (   0.5093162   0.4372541   0.1198240  )
        27           H   tau(  27) = (  -0.1186102   0.4696194   0.8185882  )
        28           H   tau(  28) = (   0.2351502   1.3758259   1.2765866  )

     number of k points=    14
                       cart. coord. in units 2pi/alat
        k(    1) = (   0.0000000   0.0000000   0.0000000), wk =   0.0833333
        k(    2) = (   0.0000000   0.0000000   0.2387072), wk =   0.1666667
        k(    3) = (   0.0000000  -0.2757738   0.0000000), wk =   0.0833333
        k(    4) = (   0.0000000  -0.2757738   0.2387072), wk =   0.1666667
        k(    5) = (   0.2500000   0.0000000   0.0457483), wk =   0.1666667
        k(    6) = (   0.2500000   0.0000000   0.2844555), wk =   0.1666667
        k(    7) = (   0.2500000   0.0000000  -0.1929590), wk =   0.1666667
        k(    8) = (   0.2500000  -0.2757738   0.0457483), wk =   0.1666667
        k(    9) = (   0.2500000  -0.2757738   0.2844555), wk =   0.1666667
        k(   10) = (   0.2500000  -0.2757738  -0.1929590), wk =   0.1666667
        k(   11) = (  -0.5000000   0.0000000  -0.0914966), wk =   0.0833333
        k(   12) = (  -0.5000000   0.0000000   0.1472107), wk =   0.1666667
        k(   13) = (  -0.5000000  -0.2757738  -0.0914966), wk =   0.0833333
        k(   14) = (  -0.5000000  -0.2757738   0.1472107), wk =   0.1666667

     Dense  grid:   229577 G-vectors     FFT dimensions: (  60, 108,  80)

     Estimated max dynamical RAM per process >      79.36MB

     Estimated total allocated dynamical RAM >     634.91MB

     Check: negative/imaginary core charge=   -0.000002    0.000000

     Initial potential from superposition of free atoms

     starting charge   71.99951, renormalised to   72.00000
     Starting wfc are   64 randomized atomic wfcs
     Checking if some PAW data can be deallocated... 

     total cpu time spent up to now is        6.2 secs

     per-process dynamical memory:   117.5 Mb

     Self-consistent Calculation

     iteration #  1     ecut=   100.00 Ry     beta=0.50
     Davidson diagonalization with overlap
     ethr =  1.00E-02,  avg # of iterations =  3.0

     total cpu time spent up to now is       13.9 secs

     total energy              =    -332.48172571 Ry
     Harris-Foulkes estimate   =    -333.51321930 Ry
     estimated scf accuracy    <       2.19429377 Ry

     iteration #  2     ecut=   100.00 Ry     beta=0.50
     Davidson diagonalization with overlap
     ethr =  3.05E-03,  avg # of iterations =  2.0

     total cpu time spent up to now is       18.5 secs

     total energy              =    -332.52846436 Ry
     Harris-Foulkes estimate   =    -332.65706479 Ry
     estimated scf accuracy    <       0.28814350 Ry

     iteration #  3     ecut=   100.00 Ry     beta=0.50
     Davidson diagonalization with overlap
     ethr =  4.00E-04,  avg # of iterations =  5.4

     total cpu time spent up to now is       27.1 secs

     total energy              =    -332.73691541 Ry
     Harris-Foulkes estimate   =    -332.83285479 Ry
     estimated scf accuracy    <       0.29043446 Ry

     iteration #  4     ecut=   100.00 Ry     beta=0.50
     Davidson diagonalization with overlap
     ethr =  4.00E-04,  avg # of iterations =  1.0

     total cpu time spent up to now is       31.3 secs

     total energy              =    -332.65514403 Ry
     Harris-Foulkes estimate   =    -332.74484140 Ry
     estimated scf accuracy    <       0.12222465 Ry

     iteration #  5     ecut=   100.00 Ry     beta=0.50
     Davidson diagonalization with overlap
     ethr =  1.70E-04,  avg # of iterations =  4.5

     total cpu time spent up to now is       40.2 secs

     total energy              =    -332.62677400 Ry
     Harris-Foulkes estimate   =    -332.90874196 Ry
     estimated scf accuracy    <       0.53379846 Ry

     iteration #  6     ecut=   100.00 Ry     beta=0.50
     Davidson diagonalization with overlap
     ethr =  1.70E-04,  avg # of iterations =  4.1

     total cpu time spent up to now is       47.7 secs

     total energy              =    -332.73899235 Ry
     Harris-Foulkes estimate   =    -332.74075083 Ry
     estimated scf accuracy    <       0.00256725 Ry

     iteration #  7     ecut=   100.00 Ry     beta=0.50
     Davidson diagonalization with overlap
     ethr =  3.57E-06,  avg # of iterations =  4.5

     total cpu time spent up to now is       55.8 secs

     total energy              =    -332.73986076 Ry
     Harris-Foulkes estimate   =    -332.74148567 Ry
     estimated scf accuracy    <       0.00406540 Ry

     iteration #  8     ecut=   100.00 Ry     beta=0.50
     Davidson diagonalization with overlap
     ethr =  3.57E-06,  avg # of iterations =  3.4

     total cpu time spent up to now is       60.4 secs

     total energy              =    -332.73965172 Ry
     Harris-Foulkes estimate   =    -332.74006785 Ry
     estimated scf accuracy    <       0.00103154 Ry

     iteration #  9     ecut=   100.00 Ry     beta=0.50
     Davidson diagonalization with overlap
     ethr =  1.43E-06,  avg # of iterations =  4.5

     total cpu time spent up to now is       67.2 secs

     total energy              =    -332.74028501 Ry
     Harris-Foulkes estimate   =    -332.74030098 Ry
     estimated scf accuracy    <       0.00011821 Ry

     iteration # 10     ecut=   100.00 Ry     beta=0.50
     Davidson diagonalization with overlap
     ethr =  1.64E-07,  avg # of iterations =  1.1

     total cpu time spent up to now is       71.4 secs

     total energy              =    -332.74025124 Ry
     Harris-Foulkes estimate   =    -332.74028730 Ry
     estimated scf accuracy    <       0.00008222 Ry

     iteration # 11     ecut=   100.00 Ry     beta=0.50
     Davidson diagonalization with overlap
     ethr =  1.14E-07,  avg # of iterations =  3.1

     total cpu time spent up to now is       76.7 secs

     total energy              =    -332.74026749 Ry
     Harris-Foulkes estimate   =    -332.74026767 Ry
     estimated scf accuracy    <       0.00000202 Ry

     iteration # 12     ecut=   100.00 Ry     beta=0.50
     Davidson diagonalization with overlap
     ethr =  2.81E-09,  avg # of iterations =  4.0

     total cpu time spent up to now is       83.9 secs

     total energy              =    -332.74026893 Ry
     Harris-Foulkes estimate   =    -332.74026937 Ry
     estimated scf accuracy    <       0.00000110 Ry

     iteration # 13     ecut=   100.00 Ry     beta=0.50
     Davidson diagonalization with overlap
     ethr =  1.53E-09,  avg # of iterations =  1.1

     total cpu time spent up to now is       88.1 secs

     total energy              =    -332.74026882 Ry
     Harris-Foulkes estimate   =    -332.74026898 Ry
     estimated scf accuracy    <       0.00000030 Ry

     iteration # 14     ecut=   100.00 Ry     beta=0.50
     Davidson diagonalization with overlap
     ethr =  4.12E-10,  avg # of iterations =  4.0

     total cpu time spent up to now is       95.0 secs

     total energy              =    -332.74026906 Ry
     Harris-Foulkes estimate   =    -332.74026912 Ry
     estimated scf accuracy    <       0.00000019 Ry

     iteration # 15     ecut=   100.00 Ry     beta=0.50
     Davidson diagonalization with overlap
     ethr =  2.60E-10,  avg # of iterations =  1.0

     total cpu time spent up to now is       99.2 secs

     total energy              =    -332.74026904 Ry
     Harris-Foulkes estimate   =    -332.74026906 Ry
     estimated scf accuracy    <       0.00000007 Ry

     iteration # 16     ecut=   100.00 Ry     beta=0.50
     Davidson diagonalization with overlap
     ethr =  9.79E-11,  avg # of iterations =  4.9

     total cpu time spent up to now is      105.5 secs

     End of self-consistent calculation

          k = 0.0000 0.0000 0.0000 ( 28647 PWs)   bands (ev):

   -21.1445 -21.0951 -21.0577 -21.0370 -11.6823 -11.6010 -11.1993 -11.1736
    -9.7042  -9.5365  -9.5039  -9.4386  -7.2943  -7.1162  -7.0014  -6.5108
    -6.4613  -6.2985  -6.1011  -5.9808  -4.2499  -4.2121  -4.0778  -3.9587
    -3.9123  -3.7259  -3.6442  -3.5844  -2.4775  -2.4478  -2.4454  -2.2856
    -0.9553  -0.7797  -0.6120  -0.4502   4.8494   5.6563   6.2084   6.5180
     6.5887   6.9380   6.9526

          k = 0.0000 0.0000 0.2387 ( 28673 PWs)   bands (ev):

   -21.1227 -21.0810 -21.0791 -21.0521 -11.6345 -11.4420 -11.4152 -11.2078
    -9.6719  -9.5936  -9.4813  -9.4437  -7.1556  -7.0809  -6.7915  -6.5036
    -6.5013  -6.3096  -6.2838  -6.1207  -4.2136  -4.1037  -4.0944  -4.0066
    -3.8286  -3.7689  -3.7429  -3.6551  -2.5119  -2.4832  -2.3353  -2.2708
    -0.9040  -0.8220  -0.5341  -0.4519   4.8873   5.5055   5.7334   5.9449
     6.6243   6.7967   7.3233

          k = 0.0000-0.2758 0.0000 ( 28682 PWs)   bands (ev):

   -21.1243 -21.1233 -21.0438 -21.0430 -11.6439 -11.6434 -11.1850 -11.1839
    -9.6045  -9.6040  -9.4905  -9.4902  -7.2146  -7.2132  -6.8236  -6.8225
    -6.3248  -6.3234  -6.0157  -6.0146  -4.2595  -4.2591  -3.9610  -3.9593
    -3.8577  -3.8570  -3.6073  -3.6069  -2.4858  -2.4853  -2.3407  -2.3393
    -0.9124  -0.9098  -0.4941  -0.4937   5.3990   5.4001   5.8520   5.8537
     6.8281   6.8295   7.0149

          k = 0.0000-0.2758 0.2387 ( 28670 PWs)   bands (ev):

   -21.1085 -21.1070 -21.0604 -21.0591 -11.5762 -11.5751 -11.2747 -11.2732
    -9.6049  -9.6036  -9.4940  -9.4934  -7.1028  -7.1009  -6.7295  -6.7282
    -6.3497  -6.3480  -6.1973  -6.1958  -4.1701  -4.1698  -4.0306  -4.0293
    -3.8014  -3.8000  -3.6984  -3.6980  -2.4972  -2.4956  -2.3003  -2.2986
    -0.8533  -0.8503  -0.5208  -0.5203   5.2655   5.2679   5.7703   5.7725
     6.6573   6.6612   7.2735

          k = 0.2500 0.0000 0.0457 ( 28694 PWs)   bands (ev):

   -21.1254 -21.0801 -21.0641 -21.0387 -11.5399 -11.4527 -11.1533 -11.1434
    -9.9417  -9.8852  -9.7857  -9.7757  -7.3326  -7.3071  -6.9987  -6.7069
    -6.3187  -6.0804  -6.0114  -5.8114  -4.2387  -4.0995  -4.0467  -3.8333
    -3.5844  -3.5079  -3.4165  -3.2330  -2.4011  -2.3097  -2.2773  -2.1492
    -1.0739  -0.9044  -0.6250  -0.5176   5.1593   5.5799   5.9906   6.4592
     6.7703   6.8637   7.0085

          k = 0.2500 0.0000 0.2845 ( 28694 PWs)   bands (ev):

   -21.0963 -21.0920 -21.0630 -21.0572 -11.5037 -11.3642 -11.2921 -11.1891
    -9.9654  -9.8841  -9.7905  -9.6601  -7.5393  -7.0442  -6.9394  -6.7037
    -6.2145  -6.1856  -6.1345  -5.9226  -4.1657  -4.1078  -3.9670  -3.9001
    -3.6122  -3.3781  -3.3721  -3.3435  -2.4229  -2.3227  -2.2912  -2.1003
    -1.0415  -0.9228  -0.6373  -0.5066   5.1288   5.5364   5.5457   6.2223
     6.4555   6.8036   7.1102

          k = 0.2500 0.0000-0.1930 ( 28695 PWs)   bands (ev):

   -21.1225 -21.0782 -21.0639 -21.0434 -11.5138 -11.3831 -11.3242 -11.1267
    -9.9604  -9.8550  -9.8398  -9.6573  -7.4756  -6.9919  -6.8301  -6.8243
    -6.4722  -6.1555  -6.0088  -5.9195  -4.1295  -4.0956  -4.0329  -3.9825
    -3.6118  -3.4424  -3.3440  -3.2301  -2.3719  -2.3466  -2.2300  -2.1403
    -0.9755  -0.8933  -0.7659  -0.4992   5.2365   5.2525   5.8740   6.0992
     6.6511   6.8019   7.1333

          k = 0.2500-0.2758 0.0457 ( 28708 PWs)   bands (ev):

   -21.1085 -21.1072 -21.0468 -21.0457 -11.4997 -11.4991 -11.1453 -11.1443
    -9.8943  -9.8942  -9.8035  -9.8027  -7.2858  -7.2840  -6.9256  -6.9248
    -6.1668  -6.1660  -5.9043  -5.9039  -4.2057  -4.2048  -3.9063  -3.9057
    -3.5419  -3.5400  -3.3313  -3.3299  -2.3830  -2.3822  -2.1887  -2.1875
    -0.9818  -0.9793  -0.5836  -0.5830   5.5965   5.5976   5.9303   5.9316
     6.6722   6.6757   7.0176

          k = 0.2500-0.2758 0.2845 ( 28714 PWs)   bands (ev):

   -21.0939 -21.0917 -21.0624 -21.0605 -11.4539 -11.4525 -11.2211 -11.2196
    -9.9313  -9.9306  -9.7235  -9.7229  -7.3468  -7.3452  -6.7682  -6.7677
    -6.1928  -6.1918  -6.0366  -6.0357  -4.1420  -4.1416  -3.9372  -3.9364
    -3.5038  -3.5034  -3.3378  -3.3367  -2.3906  -2.3894  -2.1819  -2.1807
    -0.9567  -0.9540  -0.6078  -0.6077   5.3847   5.3864   5.9472   5.9490
     6.5391   6.5416   7.1101

          k = 0.2500-0.2758-0.1930 ( 28690 PWs)   bands (ev):

   -21.1059 -21.1046 -21.0493 -21.0482 -11.4749 -11.4738 -11.1999 -11.1986
    -9.9313  -9.9306  -9.7290  -9.7286  -7.2444  -7.2424  -6.8810  -6.8801
    -6.2182  -6.2171  -5.9935  -5.9932  -4.1185  -4.1178  -4.0017  -4.0017
    -3.5477  -3.5460  -3.2732  -3.2719  -2.3652  -2.3634  -2.1815  -2.1795
    -0.9648  -0.9624  -0.6038  -0.6030   5.4841   5.4861   5.7993   5.8010
     6.4915   6.4944   7.2429

          k =-0.5000 0.0000-0.0915 ( 28720 PWs)   bands (ev):

   -21.0894 -21.0872 -21.0536 -21.0518 -11.2326 -11.2320 -11.1636 -11.1630
   -10.2307 -10.2304 -10.0854 -10.0852  -7.3554  -7.3527  -6.9353  -6.9348
    -6.0732  -6.0714  -5.8736  -5.8735  -4.1835  -4.1831  -4.0028  -4.0023
    -3.2425  -3.2415  -2.9615  -2.9600  -2.0611  -2.0583  -1.9192  -1.9170
    -1.1706  -1.1689  -0.6966  -0.6962   5.6609   5.6621   6.0123   6.0133
     6.6989   6.7018   6.8973

          k =-0.5000 0.0000 0.1472 ( 28729 PWs)   bands (ev):

   -21.1059 -21.0670 -21.0646 -21.0438 -11.2898 -11.2875 -11.2171 -11.0867
   -10.2430 -10.1758 -10.1057  -9.9539  -7.5409  -7.1082  -6.9665  -6.8959
    -6.1832  -6.1577  -6.0645  -5.7707  -4.2319  -4.1475  -3.9452  -3.8234
    -3.2479  -3.1537  -3.1382  -2.8620  -2.1187  -1.9876  -1.9496  -1.8863
    -1.1249  -1.1223  -0.9078  -0.6401   5.3094   5.8313   5.8373   5.9987
     6.3349   6.4806   6.6547

          k =-0.5000-0.2758-0.0915 ( 28712 PWs)   bands (ev):

   -21.0883 -21.0860 -21.0548 -21.0529 -11.2075 -11.2050 -11.1915 -11.1902
   -10.2102 -10.2097 -10.1077 -10.1070  -7.3378  -7.3353  -6.9345  -6.9332
    -6.0925  -6.0904  -5.8733  -5.8724  -4.1785  -4.1779  -4.0181  -4.0176
    -3.1549  -3.1526  -3.0569  -3.0555  -2.0542  -2.0511  -1.9127  -1.9097
    -1.1298  -1.1276  -0.7451  -0.7443   5.7913   5.7925   6.2449   6.2477
     6.4885   6.4917   6.6541

          k =-0.5000-0.2758 0.1472 ( 28678 PWs)   bands (ev):

   -21.0928 -21.0911 -21.0494 -21.0481 -11.3024 -11.3004 -11.1385 -11.1369
   -10.2253 -10.2249 -10.0202 -10.0199  -7.3300  -7.3274  -6.9294  -6.9287
    -6.1828  -6.1813  -5.9015  -5.9010  -4.1852  -4.1849  -3.8957  -3.8950
    -3.2212  -3.2206  -2.9902  -2.9891  -2.0546  -2.0529  -1.9121  -1.9107
    -1.1318  -1.1298  -0.7627  -0.7622   5.7130   5.7148   6.1059   6.1068
     6.2619   6.2647   6.5105

     highest occupied, lowest unoccupied level (ev):    -0.4502    4.8494

!    total energy              =    -332.74026907 Ry
     Harris-Foulkes estimate   =    -332.74026907 Ry
     estimated scf accuracy    <          4.3E-10 Ry

     total all-electron energy =     -1230.240581 Ry

     The total energy is the sum of the following terms:

     one-electron contribution =    -172.12165274 Ry
     hartree contribution      =     111.86174380 Ry
     xc contribution           =     -74.02358054 Ry
     ewald contribution        =    -107.02545315 Ry
     Dispersion Correction     =      -0.10899571 Ry
     one-center paw contrib.   =     -91.32233074 Ry

     convergence has been achieved in  16 iterations

     Forces acting on atoms (cartesian axes, Ry/au):

     atom    1 type  4   force =     0.00137155    0.01427791    0.02078473
     atom    2 type  4   force =    -0.00145083    0.01427668   -0.02075166
     atom    3 type  4   force =    -0.00137155   -0.01427791   -0.02078473
     atom    4 type  4   force =     0.00145083   -0.01427668    0.02075166
     atom    5 type  1   force =     0.01855176   -0.01308819    0.00176260
     atom    6 type  1   force =    -0.01829309   -0.01325162   -0.00191957
     atom    7 type  1   force =    -0.01855176    0.01308819   -0.00176260
     atom    8 type  1   force =     0.01829309    0.01325162    0.00191957
     atom    9 type  1   force =    -0.03361247    0.00531995   -0.01428971
     atom   10 type  1   force =     0.03344157    0.00556554    0.01457290
     atom   11 type  1   force =     0.03361247   -0.00531995    0.01428971
     atom   12 type  1   force =    -0.03344157   -0.00556554   -0.01457290
     atom   13 type  3   force =    -0.01461687    0.00713974   -0.00582659
     atom   14 type  3   force =     0.01458655    0.00712722    0.00596112
     atom   15 type  3   force =     0.01461687   -0.00713974    0.00582659
     atom   16 type  3   force =    -0.01458655   -0.00712722   -0.00596112
     atom   17 type  3   force =    -0.00307375    0.00187413   -0.00095851
     atom   18 type  3   force =     0.00313777    0.00191166    0.00100277
     atom   19 type  3   force =     0.00307375   -0.00187413    0.00095851
     atom   20 type  3   force =    -0.00313777   -0.00191166   -0.00100277
     atom   21 type  3   force =     0.02773418   -0.01334236    0.00048190
     atom   22 type  3   force =    -0.02774742   -0.01329087   -0.00053145
     atom   23 type  3   force =    -0.02773418    0.01334236   -0.00048190
     atom   24 type  3   force =     0.02774742    0.01329087    0.00053145
     atom   25 type  3   force =     0.00392868    0.00204870   -0.00048383
     atom   26 type  3   force =    -0.00396193    0.00198165    0.00044835
     atom   27 type  3   force =    -0.00392868   -0.00204870    0.00048383
     atom   28 type  3   force =     0.00396193   -0.00198165   -0.00044835

     Total force =     0.123214     Total SCF correction =     0.000058


     Computing stress (Cartesian axis) and pressure

          total   stress  (Ry/bohr**3)                   (kbar)     P=    0.57
   0.00023313   0.00000038  -0.00005549         34.29      0.06     -8.16
   0.00000038  -0.00010321   0.00000013          0.06    -15.18      0.02
  -0.00005549   0.00000013  -0.00011821         -8.16      0.02    -17.39


     Writing output data file scf.save
 
     init_run     :      5.47s CPU      5.60s WALL (       1 calls)
     electrons    :     97.01s CPU     99.40s WALL (       1 calls)
     forces       :      3.21s CPU      3.23s WALL (       1 calls)
     stress       :      6.31s CPU      6.31s WALL (       1 calls)

     Called by init_run:
     wfcinit      :      2.28s CPU      2.37s WALL (       1 calls)
     potinit      :      1.12s CPU      1.13s WALL (       1 calls)

     Called by electrons:
     c_bands      :     81.49s CPU     83.46s WALL (      16 calls)
     sum_band     :     11.84s CPU     12.12s WALL (      16 calls)
     v_of_rho     :      0.53s CPU      0.60s WALL (      17 calls)
     newd         :      0.98s CPU      1.02s WALL (      17 calls)
     PAW_pot      :      1.91s CPU      1.92s WALL (      17 calls)
     mix_rho      :      0.14s CPU      0.14s WALL (      16 calls)

     Called by c_bands:
     init_us_2    :      1.32s CPU      1.33s WALL (     490 calls)
     cegterg      :     78.08s CPU     80.01s WALL (     224 calls)

     Called by sum_band:
     sum_band:bec :      0.01s CPU      0.01s WALL (     224 calls)
     addusdens    :      1.06s CPU      1.08s WALL (      16 calls)

     Called by *egterg:
     h_psi        :     58.55s CPU     60.49s WALL (     960 calls)
     s_psi        :      3.76s CPU      3.75s WALL (     960 calls)
     g_psi        :      0.52s CPU      0.52s WALL (     722 calls)
     cdiaghg      :      3.43s CPU      3.45s WALL (     946 calls)

     Called by h_psi:
     h_psi:pot    :     58.05s CPU     59.98s WALL (     960 calls)
     h_psi:calbec :      3.94s CPU      3.96s WALL (     960 calls)
     vloc_psi     :     50.56s CPU     52.47s WALL (     960 calls)
     add_vuspsi   :      3.55s CPU      3.55s WALL (     960 calls)

     General routines
     calbec       :      5.56s CPU      5.58s WALL (    1254 calls)
     fft          :      0.79s CPU      0.88s WALL (     245 calls)
     fftw         :     54.33s CPU     56.29s WALL (   69532 calls)
 
     Parallel routines
     fft_scatter  :     19.06s CPU     19.83s WALL (   69777 calls)
 
     PWSCF        :  1m53.77s CPU     1m57.03s WALL

 
   This run was terminated on:   7:14:34  10Dec2017            

=------------------------------------------------------------------------------=
   JOB DONE.
=------------------------------------------------------------------------------=
