
     Program PWSCF v.6.1 (svn rev. 13369) starts on 12Nov2017 at  9:52:57 

     This program is part of the open-source Quantum ESPRESSO suite
     for quantum simulation of materials; please cite
         "P. Giannozzi et al., J. Phys.:Condens. Matter 21 395502 (2009);
          URL http://www.quantum-espresso.org", 
     in publications or presentations arising from this work. More details at
     http://www.quantum-espresso.org/quote

     Parallel version (MPI), running on     8 processors
     R & G space division:  proc/nbgrp/npool/nimage =       8
     Waiting for input...
     Reading input from standard input

     Current dimensions of program PWSCF are:
     Max number of different atomic species (ntypx) = 10
     Max number of k-points (npk) =  40000
     Max angular momentum in pseudopotentials (lmaxx) =  3
               file C.pbe-n-kjpaw_psl.0.1.UPF: wavefunction(s)  2P renormalized
               file N.pbe-n-kjpaw_psl.0.1.UPF: wavefunction(s)  2P renormalized
               file H.pbe-kjpaw_psl.0.1.UPF: wavefunction(s)  1S renormalized
               file O.pbe-n-kjpaw_psl.0.1.UPF: wavefunction(s)  2P renormalized

     -------------------------------------
     Parameters for Dispersion Correction:
     -------------------------------------
       atom      VdW radius       C_6     

        C          2.744         60.710
        N          2.640         42.670
        H          1.892          4.857
        O          2.536         24.284

     Subspace diagonalization in iterative solution of the eigenvalue problem:
     a serial algorithm will be used

 
     Parallelization info
     --------------------
     sticks:   dense  smooth     PW     G-vecs:    dense   smooth      PW
     Min         685     685    183                92643    92643   12923
     Max         686     686    184                92652    92652   12932
     Sum        5483    5483   1469               741173   741173  103421
 


     bravais-lattice index     =            0
     lattice parameter (alat)  =       9.5866  a.u.
     unit-cell volume          =    5484.9494 (a.u.)^3
     number of atoms/cell      =          100
     number of atomic types    =            4
     number of electrons       =       304.00
     number of Kohn-Sham states=          182
     kinetic-energy cutoff     =     100.0000  Ry
     charge density cutoff     =     400.0000  Ry
     convergence threshold     =      1.0E-08
     mixing beta               =       0.5000
     number of iterations used =            8  plain     mixing
     Exchange-correlation      =  SLA  PW   PBX  PBC ( 1  4  3  4 0 0)

     celldm(1)=   9.586581  celldm(2)=   0.000000  celldm(3)=   0.000000
     celldm(4)=   0.000000  celldm(5)=   0.000000  celldm(6)=   0.000000

     crystal axes: (cart. coord. in units of alat)
               a(1) = (   1.000000   0.000000   0.000000 )  
               a(2) = (   0.000000   1.875222   0.000000 )  
               a(3) = (   0.000000   0.000000   3.319929 )  

     reciprocal axes: (cart. coord. in units 2 pi/alat)
               b(1) = (  1.000000  0.000000  0.000000 )  
               b(2) = (  0.000000  0.533270  0.000000 )  
               b(3) = (  0.000000  0.000000  0.301211 )  


     PseudoPot. # 1 for  C read from file:
     /scratch/ahofstet/pseudo/C.pbe-n-kjpaw_psl.0.1.UPF
     MD5 check sum: 430fe95172b1e11ef3f8ed03bac87931
     Pseudo is Projector augmented-wave + core cor, Zval =  4.0
     Generated using "atomic" code by A. Dal Corso  v.5.0.99 svn rev. 10869
     Shape of augmentation charge: BESSEL
     Using radial grid of 1073 points,  4 beta functions with: 
                l(1) =   0
                l(2) =   0
                l(3) =   1
                l(4) =   1
     Q(r) pseudized with 0 coefficients 


     PseudoPot. # 2 for  N read from file:
     /scratch/ahofstet/pseudo/N.pbe-n-kjpaw_psl.0.1.UPF
     MD5 check sum: f73187c8b701007e77325f868c9291d7
     Pseudo is Projector augmented-wave + core cor, Zval =  5.0
     Generated using "atomic" code by A. Dal Corso  v.5.0.99 svn rev. 10869
     Shape of augmentation charge: PSQ
     Using radial grid of 1085 points,  4 beta functions with: 
                l(1) =   0
                l(2) =   0
                l(3) =   1
                l(4) =   1
     Q(r) pseudized with 0 coefficients 


     PseudoPot. # 3 for  H read from file:
     /scratch/ahofstet/pseudo/H.pbe-kjpaw_psl.0.1.UPF
     MD5 check sum: 94e484f906d9e9773b2f6e52662335b2
     Pseudo is Projector augmented-wave, Zval =  1.0
     Generated using "atomic" code by A. Dal Corso  v.5.0.99 svn rev. 10869
     Shape of augmentation charge: PSQ
     Using radial grid of  929 points,  2 beta functions with: 
                l(1) =   0
                l(2) =   0
     Q(r) pseudized with 0 coefficients 


     PseudoPot. # 4 for  O read from file:
     /scratch/ahofstet/pseudo/O.pbe-n-kjpaw_psl.0.1.UPF
     MD5 check sum: 3f94a2996a3169367d6eb21d9b593f20
     Pseudo is Projector augmented-wave + core cor, Zval =  6.0
     Generated using "atomic" code by A. Dal Corso  v.5.0.99 svn rev. 10869
     Shape of augmentation charge: BESSEL
     Using radial grid of 1095 points,  4 beta functions with: 
                l(1) =   0
                l(2) =   0
                l(3) =   1
                l(4) =   1
     Q(r) pseudized with 0 coefficients 


     atomic species   valence    mass     pseudopotential
        C              4.00    12.01070      C( 1.00)
        N              5.00    14.00670      N( 1.00)
        H              1.00     1.00794      H( 1.00)
        O              6.00    15.99940      O( 1.00)

      4 Sym. Ops. (no inversion) found ( 3 have fractional translation)



   Cartesian axes

     site n.     atom                  positions (alat units)
         1           O   tau(   1) = (   0.7583172   1.8049661   0.1531348  )
         2           O   tau(   2) = (   0.2583172   1.0078666   3.1667943  )
         3           O   tau(   3) = (   0.2416828   0.8673552   1.5068298  )
         4           O   tau(   4) = (   0.7416828   0.0702557   1.8130993  )
         5           O   tau(   5) = (   0.8369923   0.3669240   0.1094602  )
         6           O   tau(   6) = (   0.3369923   0.5706868   3.2104688  )
         7           O   tau(   7) = (   0.1630077   1.3045349   1.5505043  )
         8           O   tau(   8) = (   0.6630077   1.5082977   1.7694247  )
         9           C   tau(   9) = (   0.8883499   0.1416435   0.1965378  )
        10           C   tau(  10) = (   0.3883499   0.7959674   3.1233913  )
        11           C   tau(  11) = (   0.1116501   1.0792544   1.4634267  )
        12           C   tau(  12) = (   0.6116501   1.7335783   1.8565023  )
        13           C   tau(  13) = (   0.1363479   0.1015030   0.3652748  )
        14           C   tau(  14) = (   0.6363479   0.8361079   2.9546542  )
        15           C   tau(  15) = (   0.8636521   1.0391138   1.2946897  )
        16           C   tau(  16) = (   0.3636521   1.7737188   2.0252393  )
        17           N   tau(  17) = (   0.2724237   0.3594130   0.4067014  )
        18           N   tau(  18) = (   0.7724237   0.5781979   2.9132277  )
        19           N   tau(  19) = (   0.7275763   1.2970239   1.2532631  )
        20           N   tau(  20) = (   0.2275763   1.5158088   2.0666659  )
        21           C   tau(  21) = (   0.0875526   1.8279854   0.6230803  )
        22           C   tau(  22) = (   0.5875526   0.9848472   2.6968487  )
        23           C   tau(  23) = (   0.9124474   0.8903746   1.0368842  )
        24           C   tau(  24) = (   0.4124474   0.0472363   2.2830448  )
        25           C   tau(  25) = (   0.8503466   0.0390448   0.7852826  )
        26           C   tau(  26) = (   0.3503466   0.8985661   2.5346464  )
        27           C   tau(  27) = (   0.1496534   0.9766557   0.8746819  )
        28           C   tau(  28) = (   0.6496534   1.8361770   2.4452472  )
        29           O   tau(  29) = (   0.7460424   0.2631901   0.7407557  )
        30           O   tau(  30) = (   0.2460424   0.6744207   2.5791733  )
        31           O   tau(  31) = (   0.2539576   1.2008010   0.9192088  )
        32           O   tau(  32) = (   0.7539576   1.6120316   2.4007202  )
        33           O   tau(  33) = (   0.7733399   1.7555140   0.9631401  )
        34           O   tau(  34) = (   0.2733399   1.0573187   2.3567890  )
        35           O   tau(  35) = (   0.2266601   0.8179031   0.6968244  )
        36           O   tau(  36) = (   0.7266601   0.1197078   2.6231046  )
        37           C   tau(  37) = (   0.7178484   1.1747231   0.3516478  )
        38           C   tau(  38) = (   0.2178484   1.6381095   2.9682813  )
        39           C   tau(  39) = (   0.2821516   0.2371123   1.3083168  )
        40           C   tau(  40) = (   0.7821516   0.7004986   2.0116123  )
        41           N   tau(  41) = (   0.5441708   1.3497757   0.4505052  )
        42           N   tau(  42) = (   0.0441708   1.4630570   2.8694238  )
        43           N   tau(  43) = (   0.4558292   0.4121648   1.2094593  )
        44           N   tau(  44) = (   0.9558292   0.5254461   2.1104697  )
        45           N   tau(  45) = (   0.9224131   1.2611890   0.2090731  )
        46           N   tau(  46) = (   0.4224131   1.5516436   3.1108560  )
        47           N   tau(  47) = (   0.0775869   0.3235782   1.4508915  )
        48           N   tau(  48) = (   0.5775869   0.6140327   1.8690376  )
        49           N   tau(  49) = (   0.6778462   0.9184768   0.3976188  )
        50           N   tau(  50) = (   0.1778462   0.0191341   2.9223103  )
        51           N   tau(  51) = (   0.3221538   1.8560876   1.2623458  )
        52           N   tau(  52) = (   0.8221538   0.9567450   2.0575833  )
        53           H   tau(  53) = (   0.4305449   1.2966045   0.6112896  )
        54           H   tau(  54) = (   0.9305449   1.5162282   2.7086394  )
        55           H   tau(  55) = (   0.5694551   0.3589936   1.0486749  )
        56           H   tau(  56) = (   0.0694551   0.5786173   2.2712541  )
        57           H   tau(  57) = (   0.5898261   1.5434153   0.4244573  )
        58           H   tau(  58) = (   0.0898261   1.2694174   2.8954717  )
        59           H   tau(  59) = (   0.4101739   0.6058044   1.2355072  )
        60           H   tau(  60) = (   0.9101739   0.3318065   2.0844218  )
        61           H   tau(  61) = (   0.9221490   1.4583583   0.1632604  )
        62           H   tau(  62) = (   0.4221490   1.3544744   3.1566687  )
        63           H   tau(  63) = (   0.0778510   0.5207474   1.4967041  )
        64           H   tau(  64) = (   0.5778510   0.4168635   1.8232249  )
        65           H   tau(  65) = (   1.0410817   1.1350393   0.1025760  )
        66           H   tau(  66) = (   0.5410817   1.6777933   3.2173530  )
        67           H   tau(  67) = (  -0.0410817   0.1974284   1.5573885  )
        68           H   tau(  68) = (   0.4589183   0.7401825   1.7625405  )
        69           H   tau(  69) = (   0.8025232   0.7787996   0.3271231  )
        70           H   tau(  70) = (   0.3025232   0.1588113   2.9928060  )
        71           H   tau(  71) = (   0.1974768   1.7164105   1.3328414  )
        72           H   tau(  72) = (   0.6974768   1.0964221   1.9870876  )
        73           H   tau(  73) = (   0.5134054   0.8674113   0.5086043  )
        74           H   tau(  74) = (   0.0134054   0.0701996   2.8113247  )
        75           H   tau(  75) = (   0.4865946   1.8050222   1.1513602  )
        76           H   tau(  76) = (   0.9865946   1.0078105   2.1685688  )
        77           H   tau(  77) = (   0.2783155  -0.0159646   0.2469348  )
        78           H   tau(  78) = (   0.7783155   0.9535755   3.0729942  )
        79           H   tau(  79) = (   0.7216845   0.9216463   1.4130297  )
        80           H   tau(  80) = (   0.2216845   1.8911864   1.9068993  )
        81           H   tau(  81) = (   0.0685096   1.6164447   0.5833402  )
        82           H   tau(  82) = (   0.5685096   1.1963880   2.7365888  )
        83           H   tau(  83) = (   0.9314904   0.6788338   1.0766243  )
        84           H   tau(  84) = (   0.4314904   0.2587771   2.2433048  )
        85           H   tau(  85) = (   0.2660598   1.8443137   0.7493070  )
        86           H   tau(  86) = (   0.7660598   0.9685189   2.5706220  )
        87           H   tau(  87) = (   0.7339402   0.9067028   0.9106575  )
        88           H   tau(  88) = (   0.2339402   0.0309080   2.4092715  )
        89           H   tau(  89) = (   0.2937193   0.4555629   0.2234717  )
        90           H   tau(  90) = (   0.7937193   0.4820480   3.0964573  )
        91           H   tau(  91) = (   0.7062807   1.3931738   1.4364928  )
        92           H   tau(  92) = (   0.2062807   1.4196589   1.8834362  )
        93           H   tau(  93) = (   0.1679718   0.4846057   0.5317034  )
        94           H   tau(  94) = (   0.6679718   0.4530051   2.7882256  )
        95           H   tau(  95) = (   0.8320282   1.4222166   1.1282611  )
        96           H   tau(  96) = (   0.3320282   1.3906160   2.1916679  )
        97           H   tau(  97) = (   0.4571036   0.3294740   0.4913028  )
        98           H   tau(  98) = (   0.9571036   0.6081369   2.8286262  )
        99           H   tau(  99) = (   0.5428964   1.2670849   1.1686617  )
       100           H   tau( 100) = (   0.0428964   1.5457477   2.1512673  )

     number of k points=     6
                       cart. coord. in units 2pi/alat
        k(    1) = (   0.0000000   0.0000000   0.0000000), wk =   0.2500000
        k(    2) = (   0.0000000  -0.2666351   0.0000000), wk =   0.2500000
        k(    3) = (   0.2500000   0.0000000   0.0000000), wk =   0.5000000
        k(    4) = (   0.2500000  -0.2666351   0.0000000), wk =   0.5000000
        k(    5) = (  -0.5000000   0.0000000   0.0000000), wk =   0.2500000
        k(    6) = (  -0.5000000  -0.2666351   0.0000000), wk =   0.2500000

     Dense  grid:   741173 G-vectors     FFT dimensions: (  64, 120, 216)

     Estimated max dynamical RAM per process >     645.94MB

     Estimated total allocated dynamical RAM >    5167.48MB

     Check: negative/imaginary core charge=   -0.000002    0.000000

     Initial potential from superposition of free atoms

     starting charge  303.99857, renormalised to  304.00000
     Starting wfc are  256 randomized atomic wfcs
     Checking if some PAW data can be deallocated... 

     total cpu time spent up to now is       28.5 secs

     per-process dynamical memory:   433.7 Mb

     Self-consistent Calculation

     iteration #  1     ecut=   100.00 Ry     beta=0.50
     Davidson diagonalization with overlap
     ethr =  1.00E-02,  avg # of iterations =  3.8

     total cpu time spent up to now is      113.6 secs

     total energy              =   -1542.65503715 Ry
     Harris-Foulkes estimate   =   -1548.59378169 Ry
     estimated scf accuracy    <      10.86947830 Ry

     iteration #  2     ecut=   100.00 Ry     beta=0.50
     Davidson diagonalization with overlap
     ethr =  3.58E-03,  avg # of iterations =  3.0

     total cpu time spent up to now is      170.5 secs

     total energy              =   -1544.83211022 Ry
     Harris-Foulkes estimate   =   -1545.36916224 Ry
     estimated scf accuracy    <       1.23379272 Ry

     iteration #  3     ecut=   100.00 Ry     beta=0.50
     Davidson diagonalization with overlap
     ethr =  4.06E-04,  avg # of iterations =  8.0

     total cpu time spent up to now is      243.7 secs

     total energy              =   -1545.11291340 Ry
     Harris-Foulkes estimate   =   -1545.19203825 Ry
     estimated scf accuracy    <       0.24268123 Ry

     iteration #  4     ecut=   100.00 Ry     beta=0.50
     Davidson diagonalization with overlap
     ethr =  7.98E-05,  avg # of iterations =  4.8

     total cpu time spent up to now is      293.7 secs

     total energy              =   -1545.13021585 Ry
     Harris-Foulkes estimate   =   -1545.14381829 Ry
     estimated scf accuracy    <       0.04682739 Ry

     iteration #  5     ecut=   100.00 Ry     beta=0.50
     Davidson diagonalization with overlap
     ethr =  1.54E-05,  avg # of iterations =  8.7

     total cpu time spent up to now is      385.8 secs

     total energy              =   -1545.14222333 Ry
     Harris-Foulkes estimate   =   -1545.15206375 Ry
     estimated scf accuracy    <       0.02698490 Ry

     iteration #  6     ecut=   100.00 Ry     beta=0.50
     Davidson diagonalization with overlap
     ethr =  8.88E-06,  avg # of iterations =  2.2

     total cpu time spent up to now is      430.2 secs

     total energy              =   -1545.14203898 Ry
     Harris-Foulkes estimate   =   -1545.14509116 Ry
     estimated scf accuracy    <       0.00598633 Ry

     iteration #  7     ecut=   100.00 Ry     beta=0.50
     Davidson diagonalization with overlap
     ethr =  1.97E-06,  avg # of iterations =  6.5

     total cpu time spent up to now is      515.1 secs

     total energy              =   -1545.14503792 Ry
     Harris-Foulkes estimate   =   -1545.14524966 Ry
     estimated scf accuracy    <       0.00110242 Ry

     iteration #  8     ecut=   100.00 Ry     beta=0.50
     Davidson diagonalization with overlap
     ethr =  3.63E-07,  avg # of iterations =  1.0

     total cpu time spent up to now is      557.0 secs

     total energy              =   -1545.14475881 Ry
     Harris-Foulkes estimate   =   -1545.14508018 Ry
     estimated scf accuracy    <       0.00060272 Ry

     iteration #  9     ecut=   100.00 Ry     beta=0.50
     Davidson diagonalization with overlap
     ethr =  1.98E-07,  avg # of iterations =  4.0

     total cpu time spent up to now is      622.1 secs

     total energy              =   -1545.14499116 Ry
     Harris-Foulkes estimate   =   -1545.14500956 Ry
     estimated scf accuracy    <       0.00008020 Ry

     iteration # 10     ecut=   100.00 Ry     beta=0.50
     Davidson diagonalization with overlap
     ethr =  2.64E-08,  avg # of iterations =  1.5

     total cpu time spent up to now is      664.3 secs

     total energy              =   -1545.14497456 Ry
     Harris-Foulkes estimate   =   -1545.14499479 Ry
     estimated scf accuracy    <       0.00004210 Ry

     iteration # 11     ecut=   100.00 Ry     beta=0.50
     Davidson diagonalization with overlap
     ethr =  1.38E-08,  avg # of iterations =  3.3

     total cpu time spent up to now is      726.7 secs

     total energy              =   -1545.14498776 Ry
     Harris-Foulkes estimate   =   -1545.14498857 Ry
     estimated scf accuracy    <       0.00000241 Ry

     iteration # 12     ecut=   100.00 Ry     beta=0.50
     Davidson diagonalization with overlap
     ethr =  7.93E-10,  avg # of iterations =  2.8

     total cpu time spent up to now is      773.9 secs

     total energy              =   -1545.14498790 Ry
     Harris-Foulkes estimate   =   -1545.14498809 Ry
     estimated scf accuracy    <       0.00000039 Ry

     iteration # 13     ecut=   100.00 Ry     beta=0.50
     Davidson diagonalization with overlap
     ethr =  1.28E-10,  avg # of iterations =  4.0

     total cpu time spent up to now is      853.1 secs

     total energy              =   -1545.14498810 Ry
     Harris-Foulkes estimate   =   -1545.14498817 Ry
     estimated scf accuracy    <       0.00000017 Ry

     iteration # 14     ecut=   100.00 Ry     beta=0.50
     Davidson diagonalization with overlap
     ethr =  5.58E-11,  avg # of iterations =  2.0

     total cpu time spent up to now is      896.2 secs

     total energy              =   -1545.14498810 Ry
     Harris-Foulkes estimate   =   -1545.14498812 Ry
     estimated scf accuracy    <       0.00000003 Ry

     iteration # 15     ecut=   100.00 Ry     beta=0.50
     Davidson diagonalization with overlap
     ethr =  9.61E-12,  avg # of iterations =  4.0

     total cpu time spent up to now is      977.1 secs

     total energy              =   -1545.14498813 Ry
     Harris-Foulkes estimate   =   -1545.14498813 Ry
     estimated scf accuracy    <       0.00000002 Ry

     iteration # 16     ecut=   100.00 Ry     beta=0.50
     Davidson diagonalization with overlap
     ethr =  6.88E-12,  avg # of iterations =  1.0

     total cpu time spent up to now is     1018.8 secs

     End of self-consistent calculation

          k = 0.0000 0.0000 0.0000 ( 92675 PWs)   bands (ev):

   -19.3813 -19.3563 -19.2987 -19.2773 -19.1422 -19.1412 -19.1268 -19.1199
   -18.0777 -18.0773 -18.0407 -18.0366 -17.2599 -17.2071 -17.1755 -17.0631
   -16.9547 -16.9358 -16.9048 -16.8408 -16.8064 -16.7201 -16.6831 -16.6098
   -15.0442 -15.0418 -15.0002 -14.9974 -14.8675 -14.8670 -14.8555 -14.8543
   -12.2831 -12.2516 -12.2473 -12.2190  -9.6714  -9.6369  -9.5386  -9.5232
    -8.8350  -8.7627  -8.7416  -8.6895  -7.5888  -7.4269  -7.3073  -7.2712
    -7.2583  -7.2093  -7.1850  -7.1242  -7.0615  -7.0417  -7.0174  -6.9254
    -6.7796  -6.5695  -6.5367  -6.3441  -6.0813  -6.0571  -5.9517  -5.9471
    -5.7757  -5.7119  -5.5735  -5.4821  -5.1644  -5.1198  -5.0720  -5.0437
    -4.9069  -4.8995  -4.8922  -4.8301  -4.7235  -4.7192  -4.6652  -4.5963
    -4.5915  -4.4862  -4.4012  -4.3510  -4.2348  -4.1957  -4.0748  -4.0729
    -3.8042  -3.8015  -3.7461  -3.6669  -3.6185  -3.5940  -3.5650  -3.5356
    -3.3525  -3.3499  -3.2677  -3.2428  -3.2161  -3.1892  -3.1079  -3.0927
    -3.0166  -2.9605  -2.9421  -2.8700  -2.8060  -2.6857  -2.6521  -2.5848
    -2.1147  -2.0895  -2.0765  -2.0068  -2.0042  -1.9576  -1.8792  -1.8414
     0.0122   0.0439   0.1399   0.1830   0.2049   0.2722   0.2971   0.3494
     0.3527   0.3653   0.4568   0.4926   0.5152   0.5234   0.5777   0.6327
     0.6379   0.7222   0.7224   0.7611   0.7806   0.7856   0.9253   0.9549
     0.9693   0.9989   1.0293   1.0385   1.1728   1.1736   1.3783   1.3936
     6.3596   6.4322   6.4645   6.4655   6.5020   6.5345   6.5694   6.6811
     6.8424   6.8503   6.8691   6.9813   7.0721   7.3851   7.4926   8.1633
     8.3510   8.3885   8.3945   8.4661   8.6172   8.9268   8.9678   9.1795
     9.2072   9.2997   9.3678   9.5095   9.6022   9.6258

          k = 0.0000-0.2666 0.0000 ( 92602 PWs)   bands (ev):

   -19.3627 -19.3627 -19.2917 -19.2917 -19.1434 -19.1434 -19.1246 -19.1246
   -18.0810 -18.0810 -18.0398 -18.0398 -17.2314 -17.2314 -17.1127 -17.1127
   -16.9425 -16.9425 -16.9092 -16.9092 -16.7259 -16.7259 -16.6488 -16.6488
   -15.0491 -15.0491 -14.9990 -14.9990 -14.8681 -14.8681 -14.8539 -14.8539
   -12.2697 -12.2697 -12.2383 -12.2383  -9.5882  -9.5882  -9.5689  -9.5689
    -8.8139  -8.8139  -8.7040  -8.7040  -7.4739  -7.4739  -7.3517  -7.3517
    -7.2541  -7.2541  -7.0855  -7.0855  -7.0454  -7.0454  -7.0303  -7.0303
    -6.6298  -6.6298  -6.4121  -6.4121  -6.0819  -6.0819  -5.9183  -5.9183
    -5.8504  -5.8504  -5.6149  -5.6149  -5.1828  -5.1828  -5.0533  -5.0533
    -4.9581  -4.9581  -4.8344  -4.8344  -4.7306  -4.7306  -4.5812  -4.5812
    -4.3889  -4.3889  -4.3525  -4.3525  -4.2047  -4.2047  -4.1152  -4.1152
    -3.8396  -3.8396  -3.6143  -3.6143  -3.5655  -3.5655  -3.5325  -3.5325
    -3.4096  -3.4096  -3.1911  -3.1911  -3.1748  -3.1748  -3.1208  -3.1208
    -3.0618  -3.0618  -2.9773  -2.9773  -2.7026  -2.7026  -2.6445  -2.6445
    -2.1187  -2.1187  -2.0164  -2.0164  -1.9246  -1.9246  -1.8818  -1.8818
     0.0518   0.0518   0.0638   0.0638   0.2594   0.2594   0.2933   0.2933
     0.3619   0.3619   0.4175   0.4175   0.5642   0.5642   0.5967   0.5967
     0.6545   0.6545   0.7433   0.7433   0.8608   0.8608   0.9104   0.9104
     1.0228   1.0228   1.0782   1.0782   1.0851   1.0851   1.4018   1.4018
     6.4380   6.4380   6.4630   6.4630   6.4951   6.4951   6.6430   6.6430
     6.8810   6.8810   6.9623   6.9623   7.3757   7.3757   7.7271   7.7271
     7.9211   7.9211   8.6003   8.6003   8.8405   8.8405   9.1597   9.1597
     9.2865   9.2865   9.3484   9.3484   9.5454   9.5454

          k = 0.2500 0.0000 0.0000 ( 92673 PWs)   bands (ev):

   -19.3488 -19.3293 -19.2883 -19.2723 -19.1367 -19.1347 -19.1270 -19.1199
   -18.0667 -18.0659 -18.0397 -18.0373 -17.2357 -17.1989 -17.1700 -17.0991
   -16.9518 -16.9263 -16.8812 -16.8275 -16.8258 -16.7745 -16.7128 -16.6660
   -15.0435 -15.0423 -15.0081 -15.0059 -14.8908 -14.8883 -14.8758 -14.8740
   -12.2772 -12.2579 -12.2472 -12.2206  -9.7172  -9.7090  -9.5991  -9.5772
    -8.8037  -8.7459  -8.7293  -8.6601  -7.4758  -7.3831  -7.3717  -7.3183
    -7.2583  -7.1643  -7.1289  -7.0919  -7.0625  -7.0509  -6.9879  -6.9805
    -6.6170  -6.6115  -6.4790  -6.3963  -6.1414  -6.1089  -5.9901  -5.8912
    -5.8215  -5.6873  -5.5423  -5.4566  -5.2667  -5.1862  -5.1797  -5.0595
    -4.9539  -4.9537  -4.8690  -4.7974  -4.7226  -4.7111  -4.6741  -4.5843
    -4.5839  -4.4486  -4.3833  -4.3172  -4.2437  -4.2415  -4.0114  -3.9784
    -3.8362  -3.8306  -3.7688  -3.7346  -3.6430  -3.6127  -3.6015  -3.5495
    -3.4737  -3.4658  -3.3407  -3.2739  -3.2487  -3.1799  -3.1520  -3.1143
    -3.0062  -2.9478  -2.9152  -2.8823  -2.7191  -2.5943  -2.5182  -2.4131
    -2.0961  -2.0425  -2.0393  -1.9463  -1.8066  -1.7889  -1.7120  -1.6767
     0.1188   0.1609   0.1981   0.2061   0.2250   0.2506   0.2807   0.2881
     0.3005   0.3737   0.5262   0.5646   0.5779   0.6075   0.6193   0.6969
     0.7069   0.7387   0.7487   0.7963   0.8267   0.8566   0.8694   0.8953
     0.9098   0.9888   1.0024   1.0455   1.1690   1.1704   1.3036   1.3306
     6.2083   6.2555   6.3371   6.3407   6.3619   6.4221   6.4597   6.4680
     6.7517   6.7585   6.8259   6.8697   7.3290   7.7513   7.7819   8.2791
     8.4496   8.4518   8.5970   8.5973   8.7480   9.0209   9.0394   9.0666
     9.1439   9.3239   9.4134   9.4203   9.4907   9.5225

          k = 0.2500-0.2666 0.0000 ( 92612 PWs)   bands (ev):

   -19.3347 -19.3347 -19.2831 -19.2831 -19.1367 -19.1367 -19.1236 -19.1236
   -18.0699 -18.0699 -18.0407 -18.0407 -17.2160 -17.2160 -17.1309 -17.1309
   -16.9280 -16.9280 -16.8985 -16.8985 -16.7510 -16.7510 -16.6996 -16.6996
   -15.0480 -15.0480 -15.0088 -15.0088 -14.8903 -14.8903 -14.8744 -14.8744
   -12.2617 -12.2617 -12.2442 -12.2442  -9.6580  -9.6580  -9.6327  -9.6327
    -8.7578  -8.7578  -8.6985  -8.6985  -7.4020  -7.4020  -7.3015  -7.3015
    -7.2532  -7.2532  -7.1217  -7.1217  -7.0664  -7.0664  -7.0173  -7.0173
    -6.5715  -6.5715  -6.4722  -6.4722  -6.1464  -6.1464  -5.9375  -5.9375
    -5.7577  -5.7577  -5.6046  -5.6046  -5.1682  -5.1682  -5.0717  -5.0717
    -4.9380  -4.9380  -4.8867  -4.8867  -4.7379  -4.7379  -4.6758  -4.6758
    -4.4297  -4.4297  -4.3151  -4.3151  -4.1547  -4.1547  -4.1029  -4.1029
    -3.8745  -3.8745  -3.7510  -3.7510  -3.6684  -3.6684  -3.5038  -3.5038
    -3.3848  -3.3848  -3.2824  -3.2824  -3.1981  -3.1981  -3.1302  -3.1302
    -3.0440  -3.0440  -2.9300  -2.9300  -2.6087  -2.6087  -2.4963  -2.4963
    -2.0687  -2.0687  -1.9719  -1.9719  -1.7572  -1.7572  -1.7251  -1.7251
     0.0937   0.0937   0.1551   0.1551   0.2449   0.2449   0.2740   0.2740
     0.3662   0.3662   0.4907   0.4907   0.6202   0.6202   0.6627   0.6627
     0.6868   0.6868   0.7887   0.7887   0.8409   0.8409   0.9051   0.9051
     0.9720   0.9720   1.0743   1.0743   1.0974   1.0974   1.3280   1.3280
     6.2871   6.2871   6.3357   6.3357   6.3833   6.3833   6.4640   6.4640
     6.7794   6.7794   6.8472   6.8472   7.6743   7.6743   8.0229   8.0229
     8.2018   8.2018   8.6718   8.6718   8.8873   8.8873   9.0827   9.0827
     9.2596   9.2596   9.3659   9.3659   9.5527   9.5527

          k =-0.5000 0.0000 0.0000 ( 92678 PWs)   bands (ev):

   -19.2948 -19.2948 -19.2856 -19.2856 -19.1295 -19.1295 -19.1244 -19.1244
   -18.0472 -18.0472 -18.0467 -18.0467 -17.1762 -17.1762 -17.1747 -17.1747
   -16.9006 -16.9006 -16.8947 -16.8947 -16.7766 -16.7766 -16.7661 -16.7661
   -15.0303 -15.0303 -15.0290 -15.0290 -14.9031 -14.9031 -14.9022 -14.9022
   -12.2678 -12.2678 -12.2350 -12.2350  -9.7697  -9.7697  -9.6435  -9.6435
    -8.7294  -8.7294  -8.6935  -8.6935  -7.3787  -7.3787  -7.3023  -7.3023
    -7.2201  -7.2201  -7.1415  -7.1415  -7.0107  -7.0107  -6.9785  -6.9785
    -6.6303  -6.6303  -6.4437  -6.4437  -6.1057  -6.1057  -5.8865  -5.8865
    -5.8064  -5.8064  -5.6087  -5.6087  -5.2358  -5.2358  -5.1413  -5.1413
    -4.9898  -4.9898  -4.8936  -4.8936  -4.6724  -4.6724  -4.6139  -4.6139
    -4.4185  -4.4185  -4.4073  -4.4073  -4.2020  -4.2020  -3.9911  -3.9911
    -3.9641  -3.9641  -3.6845  -3.6845  -3.6522  -3.6522  -3.5712  -3.5712
    -3.5065  -3.5065  -3.2740  -3.2740  -3.2480  -3.2480  -3.1375  -3.1375
    -3.0995  -3.0995  -2.8771  -2.8771  -2.6211  -2.6211  -2.3676  -2.3676
    -2.0036  -2.0036  -1.9001  -1.9001  -1.6116  -1.6116  -1.5276  -1.5276
     0.1169   0.1169   0.1623   0.1623   0.2549   0.2549   0.2843   0.2843
     0.4875   0.4875   0.5557   0.5557   0.6028   0.6028   0.7009   0.7009
     0.7545   0.7545   0.7848   0.7848   0.8557   0.8557   0.8997   0.8997
     1.0213   1.0213   1.0981   1.0981   1.1517   1.1517   1.1722   1.1722
     6.0966   6.0966   6.1723   6.1723   6.2606   6.2606   6.3593   6.3593
     6.6417   6.6417   6.7373   6.7373   7.9730   7.9730   8.3803   8.3803
     8.4376   8.4376   8.6157   8.6157   8.9389   8.9389   9.0652   9.0652
     9.2142   9.2142   9.2994   9.2994   9.4518   9.4518

          k =-0.5000-0.2666 0.0000 ( 92648 PWs)   bands (ev):

   -19.2918 -19.2918 -19.2880 -19.2880 -19.1288 -19.1288 -19.1243 -19.1243
   -18.0508 -18.0508 -18.0501 -18.0501 -17.1782 -17.1782 -17.1735 -17.1735
   -16.8938 -16.8938 -16.8919 -16.8919 -16.7728 -16.7728 -16.7674 -16.7674
   -15.0340 -15.0340 -15.0330 -15.0330 -14.9031 -14.9031 -14.9026 -14.9026
   -12.2546 -12.2546 -12.2496 -12.2496  -9.7189  -9.7189  -9.6969  -9.6969
    -8.7132  -8.7132  -8.6806  -8.6806  -7.3588  -7.3588  -7.2748  -7.2748
    -7.2232  -7.2232  -7.1367  -7.1367  -7.0392  -7.0392  -7.0324  -7.0324
    -6.5601  -6.5601  -6.5290  -6.5290  -6.0754  -6.0754  -5.9672  -5.9672
    -5.7786  -5.7786  -5.6876  -5.6876  -5.1232  -5.1232  -5.0698  -5.0698
    -4.9290  -4.9290  -4.8915  -4.8915  -4.7392  -4.7392  -4.7009  -4.7009
    -4.3999  -4.3999  -4.3346  -4.3346  -4.2490  -4.2490  -4.0987  -4.0987
    -3.8841  -3.8841  -3.8812  -3.8812  -3.5654  -3.5654  -3.5329  -3.5329
    -3.3768  -3.3768  -3.3111  -3.3111  -3.2241  -3.2241  -3.2071  -3.2071
    -3.0071  -3.0071  -2.9233  -2.9233  -2.5059  -2.5059  -2.4415  -2.4415
    -1.9582  -1.9582  -1.9386  -1.9386  -1.5817  -1.5817  -1.5611  -1.5611
     0.0613   0.0613   0.1596   0.1596   0.2245   0.2245   0.2698   0.2698
     0.4991   0.4991   0.5029   0.5029   0.6731   0.6731   0.6737   0.6737
     0.7560   0.7560   0.7958   0.7958   0.8833   0.8833   0.8985   0.8985
     1.0508   1.0508   1.0752   1.0752   1.1398   1.1398   1.1545   1.1545
     6.1641   6.1641   6.1832   6.1832   6.2797   6.2797   6.2823   6.2823
     6.6905   6.6905   6.7249   6.7249   8.2669   8.2669   8.3165   8.3165
     8.5311   8.5311   8.6288   8.6288   8.8525   8.8525   8.9209   8.9209
     9.0682   9.0682   9.3347   9.3347   9.5327   9.5327

     highest occupied, lowest unoccupied level (ev):     1.4018    6.0966

!    total energy              =   -1545.14498812 Ry
     Harris-Foulkes estimate   =   -1545.14498813 Ry
     estimated scf accuracy    <          7.8E-09 Ry

     total all-electron energy =     -5742.757905 Ry

     The total energy is the sum of the following terms:

     one-electron contribution =    -663.88498463 Ry
     hartree contribution      =     459.79477268 Ry
     xc contribution           =    -323.78596314 Ry
     ewald contribution        =    -599.18240473 Ry
     Dispersion Correction     =      -0.49197725 Ry
     one-center paw contrib.   =    -417.59443106 Ry

     convergence has been achieved in  16 iterations

     Forces acting on atoms (cartesian axes, Ry/au):

     atom    1 type  4   force =     0.00340332    0.00711057    0.00388803
     atom    2 type  4   force =     0.00340332   -0.00711057   -0.00388803
     atom    3 type  4   force =    -0.00340332    0.00711057   -0.00388803
     atom    4 type  4   force =    -0.00340332   -0.00711057    0.00388803
     atom    5 type  4   force =     0.00010186   -0.00230654    0.00572428
     atom    6 type  4   force =     0.00010186    0.00230654   -0.00572428
     atom    7 type  4   force =    -0.00010186   -0.00230654   -0.00572428
     atom    8 type  4   force =    -0.00010186    0.00230654    0.00572428
     atom    9 type  1   force =    -0.00819615   -0.00825981   -0.01093110
     atom   10 type  1   force =    -0.00819615    0.00825981    0.01093110
     atom   11 type  1   force =     0.00819615   -0.00825981    0.01093110
     atom   12 type  1   force =     0.00819615    0.00825981   -0.01093110
     atom   13 type  1   force =     0.01458315   -0.00457305   -0.00458411
     atom   14 type  1   force =     0.01458315    0.00457305    0.00458411
     atom   15 type  1   force =    -0.01458315   -0.00457305    0.00458411
     atom   16 type  1   force =    -0.01458315    0.00457305   -0.00458411
     atom   17 type  2   force =    -0.00063449    0.00169344   -0.00010500
     atom   18 type  2   force =    -0.00063449   -0.00169344    0.00010500
     atom   19 type  2   force =     0.00063449    0.00169344    0.00010500
     atom   20 type  2   force =     0.00063449   -0.00169344   -0.00010500
     atom   21 type  1   force =     0.01735878    0.00085382    0.00206434
     atom   22 type  1   force =     0.01735878   -0.00085382   -0.00206434
     atom   23 type  1   force =    -0.01735878    0.00085382   -0.00206434
     atom   24 type  1   force =    -0.01735878   -0.00085382    0.00206434
     atom   25 type  1   force =    -0.00856120    0.00366523    0.01412292
     atom   26 type  1   force =    -0.00856120   -0.00366523   -0.01412292
     atom   27 type  1   force =     0.00856120    0.00366523   -0.01412292
     atom   28 type  1   force =     0.00856120   -0.00366523    0.01412292
     atom   29 type  4   force =     0.00075115   -0.00453051   -0.00469528
     atom   30 type  4   force =     0.00075115    0.00453051    0.00469528
     atom   31 type  4   force =    -0.00075115   -0.00453051    0.00469528
     atom   32 type  4   force =    -0.00075115    0.00453051   -0.00469528
     atom   33 type  4   force =     0.00160058    0.00218872   -0.00641000
     atom   34 type  4   force =     0.00160058   -0.00218872    0.00641000
     atom   35 type  4   force =    -0.00160058    0.00218872    0.00641000
     atom   36 type  4   force =    -0.00160058   -0.00218872   -0.00641000
     atom   37 type  1   force =    -0.00204931   -0.00289044   -0.00051400
     atom   38 type  1   force =    -0.00204931    0.00289044    0.00051400
     atom   39 type  1   force =     0.00204931   -0.00289044    0.00051400
     atom   40 type  1   force =     0.00204931    0.00289044   -0.00051400
     atom   41 type  2   force =     0.00477567    0.00058779    0.00230753
     atom   42 type  2   force =     0.00477567   -0.00058779   -0.00230753
     atom   43 type  2   force =    -0.00477567    0.00058779   -0.00230753
     atom   44 type  2   force =    -0.00477567   -0.00058779    0.00230753
     atom   45 type  2   force =    -0.00568323   -0.00058967   -0.00335025
     atom   46 type  2   force =    -0.00568323    0.00058967    0.00335025
     atom   47 type  2   force =     0.00568323   -0.00058967    0.00335025
     atom   48 type  2   force =     0.00568323    0.00058967   -0.00335025
     atom   49 type  2   force =    -0.00061556    0.00542635   -0.00131120
     atom   50 type  2   force =    -0.00061556   -0.00542635    0.00131120
     atom   51 type  2   force =     0.00061556    0.00542635    0.00131120
     atom   52 type  2   force =     0.00061556   -0.00542635   -0.00131120
     atom   53 type  3   force =    -0.00076267   -0.00081877    0.00046430
     atom   54 type  3   force =    -0.00076267    0.00081877   -0.00046430
     atom   55 type  3   force =     0.00076267   -0.00081877   -0.00046430
     atom   56 type  3   force =     0.00076267    0.00081877    0.00046430
     atom   57 type  3   force =     0.00119588    0.00096227   -0.00087604
     atom   58 type  3   force =     0.00119588   -0.00096227    0.00087604
     atom   59 type  3   force =    -0.00119588    0.00096227    0.00087604
     atom   60 type  3   force =    -0.00119588   -0.00096227   -0.00087604
     atom   61 type  3   force =     0.00000096    0.00022765    0.00148230
     atom   62 type  3   force =     0.00000096   -0.00022765   -0.00148230
     atom   63 type  3   force =    -0.00000096    0.00022765   -0.00148230
     atom   64 type  3   force =    -0.00000096   -0.00022765    0.00148230
     atom   65 type  3   force =    -0.00007582   -0.00118606    0.00018554
     atom   66 type  3   force =    -0.00007582    0.00118606   -0.00018554
     atom   67 type  3   force =     0.00007582   -0.00118606   -0.00018554
     atom   68 type  3   force =     0.00007582    0.00118606    0.00018554
     atom   69 type  3   force =     0.00086274   -0.00195165   -0.00069156
     atom   70 type  3   force =     0.00086274    0.00195165    0.00069156
     atom   71 type  3   force =    -0.00086274   -0.00195165    0.00069156
     atom   72 type  3   force =    -0.00086274    0.00195165   -0.00069156
     atom   73 type  3   force =    -0.00023670   -0.00072782    0.00041140
     atom   74 type  3   force =    -0.00023670    0.00072782   -0.00041140
     atom   75 type  3   force =     0.00023670   -0.00072782   -0.00041140
     atom   76 type  3   force =     0.00023670    0.00072782    0.00041140
     atom   77 type  3   force =    -0.01025444    0.00506901    0.00328406
     atom   78 type  3   force =    -0.01025444   -0.00506901   -0.00328406
     atom   79 type  3   force =     0.01025444    0.00506901   -0.00328406
     atom   80 type  3   force =     0.01025444   -0.00506901    0.00328406
     atom   81 type  3   force =    -0.00114106   -0.00102881   -0.00299072
     atom   82 type  3   force =    -0.00114106    0.00102881    0.00299072
     atom   83 type  3   force =     0.00114106   -0.00102881    0.00299072
     atom   84 type  3   force =     0.00114106    0.00102881   -0.00299072
     atom   85 type  3   force =    -0.01057508    0.00013049   -0.00374245
     atom   86 type  3   force =    -0.01057508   -0.00013049    0.00374245
     atom   87 type  3   force =     0.01057508    0.00013049    0.00374245
     atom   88 type  3   force =     0.01057508   -0.00013049   -0.00374245
     atom   89 type  3   force =     0.00004778   -0.00192423    0.00220638
     atom   90 type  3   force =     0.00004778    0.00192423   -0.00220638
     atom   91 type  3   force =    -0.00004778   -0.00192423   -0.00220638
     atom   92 type  3   force =    -0.00004778    0.00192423    0.00220638
     atom   93 type  3   force =     0.00239885    0.00066380    0.00095078
     atom   94 type  3   force =     0.00239885   -0.00066380   -0.00095078
     atom   95 type  3   force =    -0.00239885    0.00066380   -0.00095078
     atom   96 type  3   force =    -0.00239885   -0.00066380    0.00095078
     atom   97 type  3   force =    -0.00112576    0.00062764    0.00116076
     atom   98 type  3   force =    -0.00112576   -0.00062764   -0.00116076
     atom   99 type  3   force =     0.00112576    0.00062764   -0.00116076
     atom  100 type  3   force =     0.00112576   -0.00062764    0.00116076

     Total force =     0.083438     Total SCF correction =     0.000173


     Computing stress (Cartesian axis) and pressure

          total   stress  (Ry/bohr**3)                   (kbar)     P=  -13.22
  -0.00008023   0.00000000   0.00000000        -11.80      0.00      0.00
   0.00000000  -0.00009158   0.00000000          0.00    -13.47      0.00
   0.00000000   0.00000000  -0.00009785          0.00      0.00    -14.39


     Writing output data file scf.save
 
     init_run     :     26.79s CPU     27.82s WALL (       1 calls)
     electrons    :    949.02s CPU    990.51s WALL (       1 calls)
     forces       :     14.53s CPU     14.67s WALL (       1 calls)
     stress       :     58.40s CPU     58.56s WALL (       1 calls)

     Called by init_run:
     wfcinit      :     21.85s CPU     22.75s WALL (       1 calls)
     potinit      :      1.84s CPU      1.88s WALL (       1 calls)

     Called by electrons:
     c_bands      :    850.70s CPU    885.39s WALL (      16 calls)
     sum_band     :     85.66s CPU     91.32s WALL (      16 calls)
     v_of_rho     :      1.69s CPU      1.88s WALL (      17 calls)
     newd         :      3.55s CPU      4.39s WALL (      17 calls)
     PAW_pot      :      6.78s CPU      6.78s WALL (      17 calls)
     mix_rho      :      0.36s CPU      0.40s WALL (      16 calls)

     Called by c_bands:
     init_us_2    :      4.74s CPU      4.76s WALL (     210 calls)
     cegterg      :    832.77s CPU    867.41s WALL (      96 calls)

     Called by sum_band:
     sum_band:bec :      0.07s CPU      0.07s WALL (      96 calls)
     addusdens    :      3.50s CPU      4.30s WALL (      16 calls)

     Called by *egterg:
     h_psi        :    434.46s CPU    461.85s WALL (     466 calls)
     s_psi        :    102.45s CPU    102.46s WALL (     466 calls)
     g_psi        :      2.26s CPU      2.26s WALL (     364 calls)
     cdiaghg      :     58.86s CPU     58.87s WALL (     460 calls)

     Called by h_psi:
     h_psi:pot    :    431.32s CPU    458.65s WALL (     466 calls)
     h_psi:calbec :    101.24s CPU    101.45s WALL (     466 calls)
     vloc_psi     :    227.04s CPU    254.15s WALL (     466 calls)
     add_vuspsi   :    103.04s CPU    103.05s WALL (     466 calls)

     General routines
     calbec       :    148.42s CPU    148.74s WALL (     592 calls)
     fft          :      1.11s CPU      1.43s WALL (     245 calls)
     fftw         :    243.25s CPU    273.29s WALL (  115428 calls)
 
     Parallel routines
     fft_scatter  :     65.79s CPU     91.15s WALL (  115673 calls)
 
     PWSCF        : 17m36.09s CPU    18m53.64s WALL

 
   This run was terminated on:  10:11:51  12Nov2017            

=------------------------------------------------------------------------------=
   JOB DONE.
=------------------------------------------------------------------------------=
