
     Program PWSCF v.6.1 (svn rev. 13369) starts on  4Nov2017 at  1: 8:16 

     This program is part of the open-source Quantum ESPRESSO suite
     for quantum simulation of materials; please cite
         "P. Giannozzi et al., J. Phys.:Condens. Matter 21 395502 (2009);
          URL http://www.quantum-espresso.org", 
     in publications or presentations arising from this work. More details at
     http://www.quantum-espresso.org/quote

     Parallel version (MPI), running on     8 processors
     R & G space division:  proc/nbgrp/npool/nimage =       8
     Waiting for input...
     Reading input from standard input

     Current dimensions of program PWSCF are:
     Max number of different atomic species (ntypx) = 10
     Max number of k-points (npk) =  40000
     Max angular momentum in pseudopotentials (lmaxx) =  3
               file C.pbe-n-kjpaw_psl.0.1.UPF: wavefunction(s)  2P renormalized
               file N.pbe-n-kjpaw_psl.0.1.UPF: wavefunction(s)  2P renormalized
               file H.pbe-kjpaw_psl.0.1.UPF: wavefunction(s)  1S renormalized
               file O.pbe-n-kjpaw_psl.0.1.UPF: wavefunction(s)  2P renormalized

     -------------------------------------
     Parameters for Dispersion Correction:
     -------------------------------------
       atom      VdW radius       C_6     

        C          2.744         60.710
        N          2.640         42.670
        H          1.892          4.857
        O          2.536         24.284

     Subspace diagonalization in iterative solution of the eigenvalue problem:
     a serial algorithm will be used

 
     Parallelization info
     --------------------
     sticks:   dense  smooth     PW     G-vecs:    dense   smooth      PW
     Min         783     783    204                48535    48535    6542
     Max         784     784    205                48536    48536    6545
     Sum        6265    6265   1633               388285   388285   52353
 


     bravais-lattice index     =            0
     lattice parameter (alat)  =      13.4231  a.u.
     unit-cell volume          =    2873.9935 (a.u.)^3
     number of atoms/cell      =           44
     number of atomic types    =            4
     number of electrons       =       152.00
     number of Kohn-Sham states=           91
     kinetic-energy cutoff     =     100.0000  Ry
     charge density cutoff     =     400.0000  Ry
     convergence threshold     =      1.0E-08
     mixing beta               =       0.5000
     number of iterations used =            8  plain     mixing
     Exchange-correlation      =  SLA  PW   PBX  PBC ( 1  4  3  4 0 0)

     celldm(1)=  13.423103  celldm(2)=   0.000000  celldm(3)=   0.000000
     celldm(4)=   0.000000  celldm(5)=   0.000000  celldm(6)=   0.000000

     crystal axes: (cart. coord. in units of alat)
               a(1) = (   1.000000   0.000000   0.000000 )  
               a(2) = (   0.000000   1.090030   0.000000 )  
               a(3) = (  -0.040355   0.000000   1.090156 )  

     reciprocal axes: (cart. coord. in units 2 pi/alat)
               b(1) = (  1.000000  0.000000  0.037018 )  
               b(2) = (  0.000000  0.917406  0.000000 )  
               b(3) = (  0.000000  0.000000  0.917300 )  


     PseudoPot. # 1 for  C read from file:
     /scratch/ahofstet/pseudo/C.pbe-n-kjpaw_psl.0.1.UPF
     MD5 check sum: 430fe95172b1e11ef3f8ed03bac87931
     Pseudo is Projector augmented-wave + core cor, Zval =  4.0
     Generated using "atomic" code by A. Dal Corso  v.5.0.99 svn rev. 10869
     Shape of augmentation charge: BESSEL
     Using radial grid of 1073 points,  4 beta functions with: 
                l(1) =   0
                l(2) =   0
                l(3) =   1
                l(4) =   1
     Q(r) pseudized with 0 coefficients 


     PseudoPot. # 2 for  N read from file:
     /scratch/ahofstet/pseudo/N.pbe-n-kjpaw_psl.0.1.UPF
     MD5 check sum: f73187c8b701007e77325f868c9291d7
     Pseudo is Projector augmented-wave + core cor, Zval =  5.0
     Generated using "atomic" code by A. Dal Corso  v.5.0.99 svn rev. 10869
     Shape of augmentation charge: PSQ
     Using radial grid of 1085 points,  4 beta functions with: 
                l(1) =   0
                l(2) =   0
                l(3) =   1
                l(4) =   1
     Q(r) pseudized with 0 coefficients 


     PseudoPot. # 3 for  H read from file:
     /scratch/ahofstet/pseudo/H.pbe-kjpaw_psl.0.1.UPF
     MD5 check sum: 94e484f906d9e9773b2f6e52662335b2
     Pseudo is Projector augmented-wave, Zval =  1.0
     Generated using "atomic" code by A. Dal Corso  v.5.0.99 svn rev. 10869
     Shape of augmentation charge: PSQ
     Using radial grid of  929 points,  2 beta functions with: 
                l(1) =   0
                l(2) =   0
     Q(r) pseudized with 0 coefficients 


     PseudoPot. # 4 for  O read from file:
     /scratch/ahofstet/pseudo/O.pbe-n-kjpaw_psl.0.1.UPF
     MD5 check sum: 3f94a2996a3169367d6eb21d9b593f20
     Pseudo is Projector augmented-wave + core cor, Zval =  6.0
     Generated using "atomic" code by A. Dal Corso  v.5.0.99 svn rev. 10869
     Shape of augmentation charge: BESSEL
     Using radial grid of 1095 points,  4 beta functions with: 
                l(1) =   0
                l(2) =   0
                l(3) =   1
                l(4) =   1
     Q(r) pseudized with 0 coefficients 


     atomic species   valence    mass     pseudopotential
        C              4.00    12.01070      C( 1.00)
        N              5.00    14.00670      N( 1.00)
        H              1.00     1.00794      H( 1.00)
        O              6.00    15.99940      O( 1.00)

      2 Sym. Ops., with inversion, found



   Cartesian axes

     site n.     atom                  positions (alat units)
         1           N   tau(   1) = (   0.1976889   0.0873358   0.0768700  )
         2           N   tau(   2) = (   0.7821396   0.6323713   0.4682172  )
         3           N   tau(   3) = (   0.7619558   1.0026941   1.0132860  )
         4           N   tau(   4) = (   0.1775051   0.4576585   0.6219388  )
         5           N   tau(   5) = (   0.2902410   1.0048405   0.0891765  )
         6           N   tau(   6) = (   0.6895674   0.4598632   0.4558818  )
         7           N   tau(   7) = (   0.6694038   0.0851894   1.0009795  )
         8           N   tau(   8) = (   0.2700773   0.6301666   0.6342742  )
         9           C   tau(   9) = (   0.3197769   0.9541766   0.2690504  )
        10           C   tau(  10) = (   0.6600165   0.4092197   0.2759937  )
        11           C   tau(  11) = (   0.6398678   0.1358532   0.8211057  )
        12           C   tau(  12) = (   0.2996282   0.6808101   0.8141623  )
        13           C   tau(  13) = (   0.2419710   0.0215114   0.3911765  )
        14           C   tau(  14) = (   0.7378588   0.5665843   0.1538898  )
        15           C   tau(  15) = (   0.7176738   1.0685184   0.6989795  )
        16           C   tau(  16) = (   0.2217859   0.5234456   0.9362662  )
        17           C   tau(  17) = (   0.1655813   0.1612076   0.2480315  )
        18           C   tau(  18) = (   0.8142545   0.7062728   0.2970540  )
        19           C   tau(  19) = (   0.7940635   0.9288222   0.8421245  )
        20           C   tau(  20) = (   0.1453902   0.3837570   0.7931020  )
        21           O   tau(  21) = (   0.3979868   0.8050785   0.3189488  )
        22           O   tau(  22) = (   0.5818029   0.2601523   0.2260939  )
        23           O   tau(  23) = (   0.5616580   0.2849513   0.7712072  )
        24           O   tau(  24) = (   0.3778419   0.8298776   0.8640621  )
        25           O   tau(  25) = (   0.0872862   0.3156563   0.2774255  )
        26           O   tau(  26) = (   0.8925356   0.8607063   0.2676786  )
        27           O   tau(  27) = (   0.8723586   0.7743735   0.8127305  )
        28           O   tau(  28) = (   0.0671092   0.2293235   0.8224774  )
        29           H   tau(  29) = (   0.1180808   0.1423540   1.0348295  )
        30           H   tau(  30) = (   0.8213831   0.6873869   0.6004123  )
        31           H   tau(  31) = (   0.8415640   0.9476758   0.0553265  )
        32           H   tau(  32) = (   0.1382616   0.4026430   0.4897437  )
        33           H   tau(  33) = (   0.2982263   0.9355851   1.0575487  )
        34           H   tau(  34) = (   0.6412341   0.3905966   0.5776632  )
        35           H   tau(  35) = (   0.6614184   0.1544448   0.0326073  )
        36           H   tau(  36) = (   0.3184106   0.6994332   0.5124928  )
        37           H   tau(  37) = (   0.3533939   0.0861276   0.4767176  )
        38           H   tau(  38) = (   0.6264484   0.6312087   0.0683390  )
        39           H   tau(  39) = (   0.6062508   1.0039022   0.6134384  )
        40           H   tau(  40) = (   0.3331963   0.4588212   1.0218171  )
        41           H   tau(  41) = (   0.1307029   1.0604352   0.4853661  )
        42           H   tau(  42) = (   0.8491279   0.5154565   0.0597115  )
        43           H   tau(  43) = (   0.8289419   0.0295946   0.6047899  )
        44           H   tau(  44) = (   0.1105168   0.5745733   1.0304445  )

     number of k points=    14
                       cart. coord. in units 2pi/alat
        k(    1) = (   0.0000000   0.0000000   0.0000000), wk =   0.0740741
        k(    2) = (   0.0000000   0.0000000   0.3057666), wk =   0.1481481
        k(    3) = (   0.0000000   0.3058020   0.0000000), wk =   0.1481481
        k(    4) = (   0.0000000   0.3058020   0.3057666), wk =   0.1481481
        k(    5) = (   0.3333333   0.0000000   0.0123393), wk =   0.1481481
        k(    6) = (   0.3333333   0.0000000   0.3181059), wk =   0.1481481
        k(    7) = (   0.3333333   0.0000000  -0.2934273), wk =   0.1481481
        k(    8) = (   0.3333333   0.3058020   0.0123393), wk =   0.1481481
        k(    9) = (   0.3333333   0.3058020   0.3181059), wk =   0.1481481
        k(   10) = (   0.3333333   0.3058020  -0.2934273), wk =   0.1481481
        k(   11) = (   0.0000000   0.3058020  -0.3057666), wk =   0.1481481
        k(   12) = (  -0.3333333   0.3058020  -0.0123393), wk =   0.1481481
        k(   13) = (  -0.3333333   0.3058020  -0.3181059), wk =   0.1481481
        k(   14) = (  -0.3333333   0.3058020   0.2934273), wk =   0.1481481

     Dense  grid:   388285 G-vectors     FFT dimensions: (  90,  96,  96)

     Estimated max dynamical RAM per process >     250.60MB

     Estimated total allocated dynamical RAM >    2004.83MB

     Check: negative/imaginary core charge=   -0.000002    0.000000

     Initial potential from superposition of free atoms

     starting charge  151.99928, renormalised to  152.00000
     Starting wfc are  128 randomized atomic wfcs
     Checking if some PAW data can be deallocated... 

     total cpu time spent up to now is       12.9 secs

     per-process dynamical memory:   262.6 Mb

     Self-consistent Calculation

     iteration #  1     ecut=   100.00 Ry     beta=0.50
     Davidson diagonalization with overlap
     ethr =  1.00E-02,  avg # of iterations =  4.5

     total cpu time spent up to now is       42.6 secs

     total energy              =    -798.50704568 Ry
     Harris-Foulkes estimate   =    -800.82803141 Ry
     estimated scf accuracy    <       4.31752225 Ry

     iteration #  2     ecut=   100.00 Ry     beta=0.50
     Davidson diagonalization with overlap
     ethr =  2.84E-03,  avg # of iterations =  2.9

     total cpu time spent up to now is       60.9 secs

     total energy              =    -799.08057943 Ry
     Harris-Foulkes estimate   =    -799.43205336 Ry
     estimated scf accuracy    <       0.72510119 Ry

     iteration #  3     ecut=   100.00 Ry     beta=0.50
     Davidson diagonalization with overlap
     ethr =  4.77E-04,  avg # of iterations =  5.3

     total cpu time spent up to now is       87.5 secs

     total energy              =    -799.35156293 Ry
     Harris-Foulkes estimate   =    -799.48251790 Ry
     estimated scf accuracy    <       0.33218302 Ry

     iteration #  4     ecut=   100.00 Ry     beta=0.50
     Davidson diagonalization with overlap
     ethr =  2.19E-04,  avg # of iterations =  2.1

     total cpu time spent up to now is      103.7 secs

     total energy              =    -799.37033695 Ry
     Harris-Foulkes estimate   =    -799.39297075 Ry
     estimated scf accuracy    <       0.05159864 Ry

     iteration #  5     ecut=   100.00 Ry     beta=0.50
     Davidson diagonalization with overlap
     ethr =  3.39E-05,  avg # of iterations =  6.0

     total cpu time spent up to now is      132.7 secs

     total energy              =    -799.39928075 Ry
     Harris-Foulkes estimate   =    -799.40966185 Ry
     estimated scf accuracy    <       0.03443330 Ry

     iteration #  6     ecut=   100.00 Ry     beta=0.50
     Davidson diagonalization with overlap
     ethr =  2.27E-05,  avg # of iterations =  1.0

     total cpu time spent up to now is      147.6 secs

     total energy              =    -799.39037860 Ry
     Harris-Foulkes estimate   =    -799.40061176 Ry
     estimated scf accuracy    <       0.01510623 Ry

     iteration #  7     ecut=   100.00 Ry     beta=0.50
     Davidson diagonalization with overlap
     ethr =  9.94E-06,  avg # of iterations =  5.7

     total cpu time spent up to now is      175.7 secs

     total energy              =    -799.39871368 Ry
     Harris-Foulkes estimate   =    -799.40330442 Ry
     estimated scf accuracy    <       0.01182968 Ry

     iteration #  8     ecut=   100.00 Ry     beta=0.50
     Davidson diagonalization with overlap
     ethr =  7.78E-06,  avg # of iterations =  2.0

     total cpu time spent up to now is      191.4 secs

     total energy              =    -799.39687990 Ry
     Harris-Foulkes estimate   =    -799.39913646 Ry
     estimated scf accuracy    <       0.00393242 Ry

     iteration #  9     ecut=   100.00 Ry     beta=0.50
     Davidson diagonalization with overlap
     c_bands:  1 eigenvalues not converged
     ethr =  2.59E-06,  avg # of iterations =  5.6

     total cpu time spent up to now is      218.9 secs

     total energy              =    -799.39975445 Ry
     Harris-Foulkes estimate   =    -799.40000948 Ry
     estimated scf accuracy    <       0.00162680 Ry

     iteration # 10     ecut=   100.00 Ry     beta=0.50
     Davidson diagonalization with overlap
     ethr =  1.07E-06,  avg # of iterations =  1.1

     total cpu time spent up to now is      233.8 secs

     total energy              =    -799.39930156 Ry
     Harris-Foulkes estimate   =    -799.39976439 Ry
     estimated scf accuracy    <       0.00118050 Ry

     iteration # 11     ecut=   100.00 Ry     beta=0.50
     Davidson diagonalization with overlap
     ethr =  7.77E-07,  avg # of iterations =  3.4

     total cpu time spent up to now is      250.6 secs

     total energy              =    -799.39932242 Ry
     Harris-Foulkes estimate   =    -799.39939488 Ry
     estimated scf accuracy    <       0.00023323 Ry

     iteration # 12     ecut=   100.00 Ry     beta=0.50
     Davidson diagonalization with overlap
     ethr =  1.53E-07,  avg # of iterations =  4.0

     total cpu time spent up to now is      275.6 secs

     total energy              =    -799.39949118 Ry
     Harris-Foulkes estimate   =    -799.39949593 Ry
     estimated scf accuracy    <       0.00000948 Ry

     iteration # 13     ecut=   100.00 Ry     beta=0.50
     Davidson diagonalization with overlap
     ethr =  6.23E-09,  avg # of iterations =  3.9

     total cpu time spent up to now is      293.3 secs

     total energy              =    -799.39949277 Ry
     Harris-Foulkes estimate   =    -799.39949235 Ry
     estimated scf accuracy    <       0.00000103 Ry

     iteration # 14     ecut=   100.00 Ry     beta=0.50
     Davidson diagonalization with overlap
     ethr =  6.77E-10,  avg # of iterations =  4.0

     total cpu time spent up to now is      318.7 secs

     total energy              =    -799.39949326 Ry
     Harris-Foulkes estimate   =    -799.39949348 Ry
     estimated scf accuracy    <       0.00000063 Ry

     iteration # 15     ecut=   100.00 Ry     beta=0.50
     Davidson diagonalization with overlap
     ethr =  4.18E-10,  avg # of iterations =  1.0

     total cpu time spent up to now is      333.5 secs

     total energy              =    -799.39949331 Ry
     Harris-Foulkes estimate   =    -799.39949328 Ry
     estimated scf accuracy    <       0.00000025 Ry

     iteration # 16     ecut=   100.00 Ry     beta=0.50
     Davidson diagonalization with overlap
     ethr =  1.62E-10,  avg # of iterations =  1.1

     total cpu time spent up to now is      348.4 secs

     total energy              =    -799.39949321 Ry
     Harris-Foulkes estimate   =    -799.39949332 Ry
     estimated scf accuracy    <       0.00000027 Ry

     iteration # 17     ecut=   100.00 Ry     beta=0.50
     Davidson diagonalization with overlap
     ethr =  1.62E-10,  avg # of iterations =  4.7

     total cpu time spent up to now is      371.1 secs

     End of self-consistent calculation

          k = 0.0000 0.0000 0.0000 ( 48509 PWs)   bands (ev):

   -20.3099 -20.1880 -20.0868 -20.0493 -19.2754 -19.2261 -19.1596 -19.1118
   -18.5176 -18.4738 -18.2499 -18.2329 -14.0427 -14.0387 -13.6395 -13.5876
   -12.6850 -12.6688 -12.6367 -12.5106  -9.2538  -9.1709  -8.8895  -8.7857
    -7.8803  -7.8583  -7.8258  -7.8130  -7.3362  -7.2434  -6.9510  -6.9289
    -5.8396  -5.8050  -5.3469  -5.2278  -5.1920  -5.1427  -5.1238  -4.6741
    -4.4550  -4.4374  -4.2464  -4.2447  -4.0043  -3.7973  -3.5049  -3.4805
    -3.4476  -3.4465  -3.3368  -3.3219  -3.2762  -3.1441  -3.1049  -3.0972
    -2.7064  -2.6445  -2.5969  -2.5119  -1.1883  -1.1770  -1.1037  -1.0728
    -0.3193  -0.2993   0.0323   0.1149   0.2640   0.2797   0.8831   0.9101
     1.2262   1.2500   1.4384   1.7631   5.0519   5.3515   5.3786   5.7765
     6.1752   6.3384   6.7401   6.8298   6.9025   7.6325   7.8143   8.0055
     8.1364   9.2068   9.4002

          k = 0.0000 0.0000 0.3058 ( 48585 PWs)   bands (ev):

   -20.2628 -20.1551 -20.1527 -20.0806 -19.2474 -19.1985 -19.1895 -19.1413
   -18.4498 -18.4063 -18.3173 -18.2855 -13.9498 -13.9260 -13.7464 -13.7030
   -12.6786 -12.6710 -12.6030 -12.5405  -9.2023  -9.1006  -9.0230  -8.9344
    -7.7449  -7.6722  -7.6012  -7.5613  -7.4637  -7.3734  -7.1480  -7.1332
    -5.7377  -5.6795  -5.4663  -5.3641  -5.1971  -5.1822  -5.0489  -4.8231
    -4.5041  -4.4071  -4.4039  -4.2651  -3.8546  -3.6002  -3.5927  -3.4733
    -3.4698  -3.4306  -3.4183  -3.3220  -3.1324  -3.1166  -2.9949  -2.9339
    -2.8031  -2.7576  -2.6048  -2.5369  -1.1929  -1.1622  -1.1104  -1.0536
    -0.2625  -0.2076  -0.0799   0.0001   0.4190   0.4511   0.7277   0.7704
     1.2150   1.2289   1.5296   1.6895   5.1278   5.2521   5.5391   5.7110
     6.2403   6.3311   6.7792   6.8602   7.1061   7.6227   7.7977   8.1715
     8.3790   8.4642   8.7922

          k = 0.0000 0.3058 0.0000 ( 48530 PWs)   bands (ev):

   -20.2564 -20.1647 -20.1289 -20.1138 -19.2171 -19.2099 -19.1766 -19.1392
   -18.4518 -18.4174 -18.3088 -18.3056 -13.9468 -13.9279 -13.7461 -13.7030
   -12.6755 -12.6491 -12.6194 -12.5419  -9.2008  -9.1093  -9.0304  -8.9292
    -7.7406  -7.7040  -7.5754  -7.5627  -7.4100  -7.4058  -7.1702  -7.1469
    -5.7402  -5.7264  -5.4185  -5.3283  -5.2796  -5.1423  -5.1219  -4.9573
    -4.2190  -4.2164  -4.1922  -4.1700  -4.0578  -3.9501  -3.7243  -3.7132
    -3.3769  -3.2746  -3.2089  -3.1965  -3.1523  -3.0573  -3.0480  -2.9855
    -2.7517  -2.7042  -2.6487  -2.6339  -1.1909  -1.1885  -1.1553  -1.1325
    -0.2906  -0.2696  -0.1239  -0.0783   0.4875   0.4908   0.7650   0.7819
     1.3241   1.3824   1.4166   1.6459   5.0890   5.2225   5.3931   5.5595
     6.4429   6.5526   6.6918   6.7990   7.0117   7.3884   7.8613   8.4188
     8.4857   8.5378   9.1637

          k = 0.0000 0.3058 0.3058 ( 48545 PWs)   bands (ev):

   -20.2266 -20.1650 -20.1476 -20.1200 -19.2185 -19.1983 -19.1961 -19.1631
   -18.4097 -18.3796 -18.3399 -18.3227 -13.8990 -13.8807 -13.8000 -13.7675
   -12.6579 -12.6330 -12.6158 -12.5651  -9.1428  -9.0480  -9.0356  -8.9466
    -7.8678  -7.8174  -7.6686  -7.6436  -7.3100  -7.2653  -7.1340  -7.0981
    -5.6670  -5.6384  -5.4832  -5.4313  -5.2007  -5.1778  -5.1283  -4.9975
    -4.2957  -4.2495  -4.2227  -4.1529  -3.9333  -3.9036  -3.7870  -3.7567
    -3.3357  -3.3177  -3.2327  -3.1850  -3.0721  -3.0166  -2.9737  -2.9074
    -2.8034  -2.7913  -2.7238  -2.6696  -1.2182  -1.2026  -1.1151  -1.0885
    -0.2406  -0.2016  -0.1422  -0.0925   0.5135   0.5403   0.6605   0.6986
     1.3271   1.3471   1.5034   1.6070   5.1716   5.2630   5.4169   5.5283
     6.4633   6.5123   6.7278   6.7839   7.2701   7.5612   7.8205   8.1494
     8.4856   8.7856   8.9185

          k = 0.3333 0.0000 0.0123 ( 48507 PWs)   bands (ev):

   -20.2806 -20.2198 -20.0789 -20.0567 -19.2628 -19.2375 -19.1476 -19.1231
   -18.5080 -18.4860 -18.2458 -18.2359 -14.0454 -14.0340 -13.6274 -13.6014
   -12.6600 -12.6440 -12.6423 -12.5549  -9.2393  -9.1918  -8.8677  -8.8091
    -7.8584  -7.8504  -7.8366  -7.8230  -7.3056  -7.2582  -6.9463  -6.9352
    -5.7488  -5.6519  -5.4369  -5.3508  -5.2169  -5.1874  -5.1819  -4.9037
    -4.3418  -4.3015  -4.1938  -4.1577  -3.9672  -3.8589  -3.5430  -3.5193
    -3.5060  -3.4793  -3.2678  -3.2414  -3.1586  -3.0502  -3.0084  -2.9372
    -2.8283  -2.8179  -2.6932  -2.6881  -1.2458  -1.1823  -1.0833  -1.0580
    -0.2761  -0.2624   0.0462   0.1158   0.2260   0.2348   0.8528   0.8837
     1.2981   1.3896   1.4184   1.6462   5.2600   5.3093   5.3129   5.6219
     6.3030   6.4543   6.5907   6.7344   7.1674   7.7145   8.0308   8.2392
     8.3342   8.9492   9.1291

          k = 0.3333 0.0000 0.3181 ( 48539 PWs)   bands (ev):

   -20.2330 -20.1847 -20.1419 -20.0941 -19.2349 -19.2098 -19.1774 -19.1527
   -18.4382 -18.4195 -18.3113 -18.2910 -13.9478 -13.9264 -13.7333 -13.7167
   -12.6569 -12.6413 -12.6164 -12.5787  -9.1828  -9.1259  -9.0062  -8.9542
    -7.7122  -7.6739  -7.6004  -7.5800  -7.4319  -7.3850  -7.1474  -7.1372
    -5.6673  -5.5777  -5.4557  -5.4546  -5.2276  -5.2247  -5.2008  -5.0365
    -4.3402  -4.2886  -4.2481  -4.2180  -3.7978  -3.6556  -3.5779  -3.5244
    -3.4850  -3.4776  -3.3709  -3.3249  -3.1009  -3.0292  -2.9420  -2.9391
    -2.8230  -2.8180  -2.7459  -2.6590  -1.2187  -1.1346  -1.1287  -1.0703
    -0.2148  -0.1788  -0.0561   0.0093   0.3840   0.4046   0.7008   0.7381
     1.2965   1.3739   1.4950   1.5748   5.2821   5.2833   5.4282   5.5639
     6.3648   6.4708   6.6579   6.7096   7.3760   7.8840   7.9853   8.2452
     8.4261   8.5375   8.8038

          k = 0.3333 0.0000-0.2934 ( 48503 PWs)   bands (ev):

   -20.2395 -20.1778 -20.1316 -20.1047 -19.2350 -19.2098 -19.1773 -19.1526
   -18.4411 -18.4162 -18.3071 -18.2956 -13.9390 -13.9354 -13.7383 -13.7113
   -12.6508 -12.6481 -12.6227 -12.5719  -9.1804  -9.1277  -9.0046  -8.9559
    -7.7128  -7.6751  -7.6052  -7.5783  -7.4255  -7.3821  -7.1464  -7.1412
    -5.6730  -5.6044  -5.4524  -5.4420  -5.2242  -5.2153  -5.2017  -5.0401
    -4.3349  -4.2898  -4.2631  -4.1864  -3.7764  -3.6740  -3.5409  -3.5207
    -3.5148  -3.4937  -3.3931  -3.2989  -3.0985  -3.0541  -2.9589  -2.9506
    -2.8561  -2.7920  -2.7288  -2.6339  -1.1869  -1.1554  -1.1345  -1.0749
    -0.2142  -0.1886  -0.0378  -0.0019   0.3922   0.4063   0.7075   0.7220
     1.3336   1.3491   1.4550   1.6046   5.2719   5.2888   5.4268   5.5641
     6.3891   6.4512   6.6365   6.7310   7.3998   7.8871   7.9163   8.1402
     8.4965   8.6797   8.7570

          k = 0.3333 0.3058 0.0123 ( 48548 PWs)   bands (ev):

   -20.2337 -20.1877 -20.1261 -20.1148 -19.2167 -19.2130 -19.1683 -19.1494
   -18.4432 -18.4258 -18.3083 -18.3044 -13.9435 -13.9302 -13.7360 -13.7140
   -12.6517 -12.6442 -12.6169 -12.5717  -9.1834  -9.1321  -9.0095  -8.9535
    -7.7225  -7.7048  -7.5866  -7.5749  -7.4112  -7.4038  -7.1674  -7.1562
    -5.6468  -5.5824  -5.4711  -5.3712  -5.2606  -5.1740  -5.1368  -5.0087
    -4.2512  -4.2112  -4.1627  -4.1210  -4.0568  -4.0308  -3.7931  -3.7620
    -3.3244  -3.2456  -3.2184  -3.1482  -3.0456  -2.9890  -2.9679  -2.9206
    -2.8540  -2.7989  -2.7470  -2.7338  -1.2353  -1.1836  -1.1587  -1.1256
    -0.2771  -0.2588  -0.1459  -0.1103   0.4998   0.5167   0.7693   0.7793
     1.3892   1.4202   1.4443   1.5823   5.2224   5.2478   5.3186   5.4585
     6.4937   6.5929   6.6381   6.7262   7.3246   7.7044   7.8199   8.2649
     8.6896   8.7091   9.1039

          k = 0.3333 0.3058 0.3181 ( 48500 PWs)   bands (ev):

   -20.2043 -20.1700 -20.1566 -20.1267 -19.2145 -19.2047 -19.1895 -19.1722
   -18.4008 -18.3879 -18.3366 -18.3246 -13.8969 -13.8819 -13.7903 -13.7774
   -12.6386 -12.6255 -12.6174 -12.5889  -9.1223  -9.0667  -9.0224  -8.9685
    -7.8555  -7.8302  -7.6642  -7.6491  -7.3002  -7.2785  -7.1257  -7.1074
    -5.6172  -5.5824  -5.5217  -5.4524  -5.2243  -5.1400  -5.0942  -5.0043
    -4.2662  -4.2221  -4.1673  -4.1568  -3.9960  -3.9503  -3.8265  -3.8200
    -3.3030  -3.2546  -3.2031  -3.1737  -3.0754  -3.0121  -2.9890  -2.9213
    -2.8309  -2.8082  -2.7800  -2.7073  -1.2288  -1.1898  -1.1385  -1.1096
    -0.2239  -0.1938  -0.1541  -0.1200   0.5346   0.5470   0.6777   0.6972
     1.3747   1.4272   1.4999   1.5441   5.2645   5.2850   5.3596   5.4466
     6.5119   6.5839   6.6783   6.7009   7.5258   7.8632   8.0201   8.2247
     8.4540   8.5459   8.9475

          k = 0.3333 0.3058-0.2934 ( 48494 PWs)   bands (ev):

   -20.2094 -20.1646 -20.1497 -20.1337 -19.2152 -19.2041 -19.1890 -19.1726
   -18.4031 -18.3854 -18.3336 -18.3277 -13.8937 -13.8853 -13.7939 -13.7733
   -12.6414 -12.6281 -12.6179 -12.5833  -9.1200  -9.0677  -9.0206  -8.9706
    -7.8571  -7.8325  -7.6626  -7.6479  -7.2988  -7.2775  -7.1251  -7.1078
    -5.6482  -5.6071  -5.4998  -5.4348  -5.1920  -5.1426  -5.1183  -4.9965
    -4.2916  -4.2469  -4.1372  -4.1090  -3.9890  -3.9769  -3.8231  -3.8091
    -3.2914  -3.2475  -3.2286  -3.1601  -3.1076  -3.0343  -2.9854  -2.9445
    -2.8388  -2.7892  -2.7722  -2.6828  -1.1998  -1.1770  -1.1626  -1.1249
    -0.2369  -0.2140  -0.1348  -0.1020   0.5304   0.5533   0.6749   0.6935
     1.3967   1.4267   1.4598   1.5622   5.2627   5.2836   5.3610   5.4463
     6.5333   6.5722   6.6440   6.7252   7.5624   7.8585   7.9787   8.1927
     8.4384   8.6434   8.8884

          k = 0.0000 0.3058-0.3058 ( 48545 PWs)   bands (ev):

   -20.2266 -20.1650 -20.1477 -20.1199 -19.2185 -19.1985 -19.1958 -19.1631
   -18.4097 -18.3796 -18.3399 -18.3226 -13.8990 -13.8808 -13.7999 -13.7674
   -12.6578 -12.6334 -12.6156 -12.5651  -9.1427  -9.0479  -9.0356  -8.9467
    -7.8683  -7.8179  -7.6682  -7.6432  -7.3098  -7.2652  -7.1342  -7.0982
    -5.6665  -5.6390  -5.4832  -5.4312  -5.2003  -5.1780  -5.1283  -4.9976
    -4.2954  -4.2494  -4.2227  -4.1533  -3.9334  -3.9038  -3.7869  -3.7565
    -3.3356  -3.3177  -3.2326  -3.1851  -3.0721  -3.0168  -2.9740  -2.9075
    -2.8031  -2.7913  -2.7239  -2.6696  -1.2179  -1.2029  -1.1151  -1.0884
    -0.2406  -0.2015  -0.1422  -0.0925   0.5135   0.5402   0.6605   0.6987
     1.3272   1.3469   1.5035   1.6070   5.1714   5.2634   5.4167   5.5284
     6.4634   6.5121   6.7278   6.7838   7.2700   7.5613   7.8206   8.1491
     8.4855   8.7855   8.9188

          k =-0.3333 0.3058-0.0123 ( 48548 PWs)   bands (ev):

   -20.2337 -20.1876 -20.1261 -20.1149 -19.2169 -19.2129 -19.1685 -19.1492
   -18.4431 -18.4259 -18.3083 -18.3044 -13.9435 -13.9302 -13.7360 -13.7140
   -12.6515 -12.6444 -12.6169 -12.5717  -9.1834  -9.1321  -9.0095  -8.9535
    -7.7225  -7.7049  -7.5865  -7.5750  -7.4112  -7.4037  -7.1674  -7.1562
    -5.6472  -5.5817  -5.4707  -5.3715  -5.2611  -5.1742  -5.1365  -5.0086
    -4.2515  -4.2117  -4.1626  -4.1207  -4.0567  -4.0306  -3.7929  -3.7621
    -3.3242  -3.2454  -3.2189  -3.1484  -3.0451  -2.9892  -2.9682  -2.9208
    -2.8538  -2.7990  -2.7468  -2.7337  -1.2352  -1.1838  -1.1588  -1.1254
    -0.2771  -0.2589  -0.1459  -0.1102   0.4998   0.5167   0.7692   0.7794
     1.3896   1.4193   1.4448   1.5822   5.2218   5.2484   5.3186   5.4584
     6.4936   6.5921   6.6389   6.7262   7.3245   7.7043   7.8198   8.2652
     8.6893   8.7093   9.1039

          k =-0.3333 0.3058-0.3181 ( 48500 PWs)   bands (ev):

   -20.2043 -20.1700 -20.1567 -20.1266 -19.2147 -19.2046 -19.1896 -19.1720
   -18.4007 -18.3880 -18.3365 -18.3246 -13.8970 -13.8820 -13.7902 -13.7772
   -12.6385 -12.6263 -12.6167 -12.5889  -9.1222  -9.0666  -9.0225  -8.9686
    -7.8560  -7.8306  -7.6637  -7.6487  -7.3001  -7.2783  -7.1258  -7.1075
    -5.6173  -5.5820  -5.5218  -5.4523  -5.2245  -5.1402  -5.0942  -5.0042
    -4.2668  -4.2223  -4.1669  -4.1568  -3.9959  -3.9503  -3.8264  -3.8202
    -3.3029  -3.2544  -3.2034  -3.1739  -3.0753  -3.0124  -2.9891  -2.9215
    -2.8311  -2.8077  -2.7795  -2.7074  -1.2287  -1.1900  -1.1385  -1.1096
    -0.2240  -0.1939  -0.1540  -0.1199   0.5346   0.5469   0.6777   0.6973
     1.3751   1.4265   1.5004   1.5439   5.2641   5.2853   5.3598   5.4465
     6.5119   6.5837   6.6786   6.7008   7.5257   7.8632   8.0200   8.2249
     8.4537   8.5458   8.9483

          k =-0.3333 0.3058 0.2934 ( 48494 PWs)   bands (ev):

   -20.2095 -20.1646 -20.1497 -20.1337 -19.2153 -19.2041 -19.1892 -19.1724
   -18.4030 -18.3855 -18.3335 -18.3278 -13.8936 -13.8853 -13.7940 -13.7734
   -12.6415 -12.6277 -12.6182 -12.5833  -9.1201  -9.0678  -9.0205  -8.9705
    -7.8567  -7.8320  -7.6631  -7.6482  -7.2990  -7.2776  -7.1250  -7.1077
    -5.6485  -5.6066  -5.4996  -5.4347  -5.1924  -5.1429  -5.1181  -4.9962
    -4.2922  -4.2473  -4.1367  -4.1086  -3.9887  -3.9767  -3.8232  -3.8094
    -3.2916  -3.2474  -3.2286  -3.1602  -3.1076  -3.0342  -2.9854  -2.9449
    -2.8386  -2.7893  -2.7718  -2.6829  -1.2002  -1.1768  -1.1622  -1.1251
    -0.2370  -0.2140  -0.1346  -0.1019   0.5304   0.5534   0.6748   0.6934
     1.3971   1.4264   1.4597   1.5621   5.2628   5.2832   5.3615   5.4461
     6.5330   6.5723   6.6441   6.7253   7.5624   7.8584   7.9786   8.1934
     8.4382   8.6432   8.8887

     highest occupied, lowest unoccupied level (ev):     1.7631    5.0519

!    total energy              =    -799.39949329 Ry
     Harris-Foulkes estimate   =    -799.39949329 Ry
     estimated scf accuracy    <          3.5E-09 Ry

     total all-electron energy =     -3013.734189 Ry

     The total energy is the sum of the following terms:

     one-electron contribution =    -408.35710401 Ry
     hartree contribution      =     265.81124509 Ry
     xc contribution           =    -164.10110407 Ry
     ewald contribution        =    -270.44408653 Ry
     Dispersion Correction     =      -0.18880819 Ry
     one-center paw contrib.   =    -222.11963558 Ry

     convergence has been achieved in  17 iterations

     Forces acting on atoms (cartesian axes, Ry/au):

     atom    1 type  2   force =    -0.00108449    0.00219081   -0.00073173
     atom    2 type  2   force =     0.00109939    0.00224791    0.00050778
     atom    3 type  2   force =     0.00108449   -0.00219081    0.00073173
     atom    4 type  2   force =    -0.00109939   -0.00224791   -0.00050778
     atom    5 type  2   force =     0.00141810   -0.00215261   -0.00027775
     atom    6 type  2   force =    -0.00144536   -0.00219981    0.00022560
     atom    7 type  2   force =    -0.00141810    0.00215261    0.00027775
     atom    8 type  2   force =     0.00144536    0.00219981   -0.00022560
     atom    9 type  1   force =    -0.00116958    0.00073119   -0.00130083
     atom   10 type  1   force =     0.00140843    0.00110728    0.00155237
     atom   11 type  1   force =     0.00116958   -0.00073119    0.00130083
     atom   12 type  1   force =    -0.00140843   -0.00110728   -0.00155237
     atom   13 type  1   force =    -0.00027602    0.00014865   -0.00318432
     atom   14 type  1   force =     0.00026783    0.00015907    0.00320125
     atom   15 type  1   force =     0.00027602   -0.00014865    0.00318432
     atom   16 type  1   force =    -0.00026783   -0.00015907   -0.00320125
     atom   17 type  1   force =     0.00123811   -0.00091617   -0.00058694
     atom   18 type  1   force =    -0.00145994   -0.00135511    0.00073383
     atom   19 type  1   force =    -0.00123811    0.00091617    0.00058694
     atom   20 type  1   force =     0.00145994    0.00135511   -0.00073383
     atom   21 type  4   force =     0.00024145   -0.00048049    0.00243274
     atom   22 type  4   force =    -0.00043366   -0.00084030   -0.00256737
     atom   23 type  4   force =    -0.00024145    0.00048049   -0.00243274
     atom   24 type  4   force =     0.00043366    0.00084030    0.00256737
     atom   25 type  4   force =    -0.00041401    0.00130515    0.00244801
     atom   26 type  4   force =     0.00057578    0.00164479   -0.00253437
     atom   27 type  4   force =     0.00041401   -0.00130515   -0.00244801
     atom   28 type  4   force =    -0.00057578   -0.00164479    0.00253437
     atom   29 type  3   force =     0.00039069   -0.00010382   -0.00030913
     atom   30 type  3   force =    -0.00038423   -0.00009150    0.00035945
     atom   31 type  3   force =    -0.00039069    0.00010382    0.00030913
     atom   32 type  3   force =     0.00038423    0.00009150   -0.00035945
     atom   33 type  3   force =    -0.00071235   -0.00048385    0.00039373
     atom   34 type  3   force =     0.00071367   -0.00046944   -0.00040115
     atom   35 type  3   force =     0.00071235    0.00048385   -0.00039373
     atom   36 type  3   force =    -0.00071367    0.00046944    0.00040115
     atom   37 type  3   force =     0.00058226    0.00053685    0.00034915
     atom   38 type  3   force =    -0.00056911    0.00054513   -0.00035260
     atom   39 type  3   force =    -0.00058226   -0.00053685   -0.00034915
     atom   40 type  3   force =     0.00056911   -0.00054513    0.00035260
     atom   41 type  3   force =    -0.00037949   -0.00032258    0.00006449
     atom   42 type  3   force =     0.00037769   -0.00030603   -0.00005702
     atom   43 type  3   force =     0.00037949    0.00032258   -0.00006449
     atom   44 type  3   force =    -0.00037769    0.00030603    0.00005702

     Total force =     0.014078     Total SCF correction =     0.000165


     Computing stress (Cartesian axis) and pressure

          total   stress  (Ry/bohr**3)                   (kbar)     P=   -5.43
  -0.00002713   0.00000046  -0.00000430         -3.99      0.07     -0.63
   0.00000046  -0.00003430   0.00000008          0.07     -5.05      0.01
  -0.00000430   0.00000008  -0.00004936         -0.63      0.01     -7.26


     Writing output data file scf.save
 
     init_run     :     12.02s CPU     12.41s WALL (       1 calls)
     electrons    :    344.28s CPU    358.55s WALL (       1 calls)
     forces       :      5.69s CPU      5.73s WALL (       1 calls)
     stress       :     21.84s CPU     21.87s WALL (       1 calls)

     Called by init_run:
     wfcinit      :      7.72s CPU      8.04s WALL (       1 calls)
     potinit      :      1.52s CPU      1.56s WALL (       1 calls)

     Called by electrons:
     c_bands      :    299.61s CPU    312.28s WALL (      17 calls)
     sum_band     :     38.91s CPU     40.12s WALL (      17 calls)
     v_of_rho     :      0.81s CPU      0.90s WALL (      18 calls)
     newd         :      1.70s CPU      1.73s WALL (      18 calls)
     PAW_pot      :      2.96s CPU      2.96s WALL (      18 calls)
     mix_rho      :      0.22s CPU      0.23s WALL (      17 calls)

     Called by c_bands:
     init_us_2    :      3.59s CPU      3.61s WALL (     518 calls)
     cegterg      :    288.21s CPU    300.81s WALL (     238 calls)

     Called by sum_band:
     sum_band:bec :      0.04s CPU      0.04s WALL (     238 calls)
     addusdens    :      1.80s CPU      1.82s WALL (      17 calls)

     Called by *egterg:
     h_psi        :    190.54s CPU    199.52s WALL (    1068 calls)
     s_psi        :     22.78s CPU     22.79s WALL (    1068 calls)
     g_psi        :      1.59s CPU      1.59s WALL (     816 calls)
     cdiaghg      :     19.09s CPU     19.10s WALL (    1054 calls)

     Called by h_psi:
     h_psi:pot    :    188.55s CPU    197.50s WALL (    1068 calls)
     h_psi:calbec :     21.19s CPU     21.30s WALL (    1068 calls)
     vloc_psi     :    144.43s CPU    153.26s WALL (    1068 calls)
     add_vuspsi   :     22.93s CPU     22.94s WALL (    1068 calls)

     General routines
     calbec       :     30.51s CPU     30.67s WALL (    1376 calls)
     fft          :      0.51s CPU      0.66s WALL (     258 calls)
     fftw         :    154.59s CPU    164.28s WALL (  142452 calls)
 
     Parallel routines
     fft_scatter  :     36.29s CPU     40.55s WALL (  142710 calls)
 
     PWSCF        :  6m28.05s CPU     6m44.14s WALL

 
   This run was terminated on:   1:15: 0   4Nov2017            

=------------------------------------------------------------------------------=
   JOB DONE.
=------------------------------------------------------------------------------=
