
     Program PWSCF v.6.1 (svn rev. 13369) starts on 12Dec2017 at 22:54:48 

     This program is part of the open-source Quantum ESPRESSO suite
     for quantum simulation of materials; please cite
         "P. Giannozzi et al., J. Phys.:Condens. Matter 21 395502 (2009);
          URL http://www.quantum-espresso.org", 
     in publications or presentations arising from this work. More details at
     http://www.quantum-espresso.org/quote

     Parallel version (MPI), running on     8 processors
     R & G space division:  proc/nbgrp/npool/nimage =       8
     Waiting for input...
     Reading input from standard input

     Current dimensions of program PWSCF are:
     Max number of different atomic species (ntypx) = 10
     Max number of k-points (npk) =  40000
     Max angular momentum in pseudopotentials (lmaxx) =  3
               file C.pbe-n-kjpaw_psl.0.1.UPF: wavefunction(s)  2P renormalized
               file N.pbe-n-kjpaw_psl.0.1.UPF: wavefunction(s)  2P renormalized
               file H.pbe-kjpaw_psl.0.1.UPF: wavefunction(s)  1S renormalized
               file O.pbe-n-kjpaw_psl.0.1.UPF: wavefunction(s)  2P renormalized

     -------------------------------------
     Parameters for Dispersion Correction:
     -------------------------------------
       atom      VdW radius       C_6     

        C          2.744         60.710
        N          2.640         42.670
        H          1.892          4.857
        O          2.536         24.284

     Subspace diagonalization in iterative solution of the eigenvalue problem:
     a serial algorithm will be used

 
     Parallelization info
     --------------------
     sticks:   dense  smooth     PW     G-vecs:    dense   smooth      PW
     Min        1173    1173    311               105315   105315   14406
     Max        1174    1174    312               105320   105320   14411
     Sum        9391    9391   2493               842551   842551  115269
 


     bravais-lattice index     =            0
     lattice parameter (alat)  =      19.7136  a.u.
     unit-cell volume          =    6236.1137 (a.u.)^3
     number of atoms/cell      =           92
     number of atomic types    =            4
     number of electrons       =       360.00
     number of Kohn-Sham states=          216
     kinetic-energy cutoff     =     100.0000  Ry
     charge density cutoff     =     400.0000  Ry
     convergence threshold     =      1.0E-08
     mixing beta               =       0.5000
     number of iterations used =            8  plain     mixing
     Exchange-correlation      =  SLA  PW   PBX  PBC ( 1  4  3  4 0 0)

     celldm(1)=  19.713623  celldm(2)=   0.000000  celldm(3)=   0.000000
     celldm(4)=   0.000000  celldm(5)=   0.000000  celldm(6)=   0.000000

     crystal axes: (cart. coord. in units of alat)
               a(1) = (   1.000000   0.000000   0.000000 )  
               a(2) = (   0.000000   0.759490   0.000000 )  
               a(3) = (  -0.465854   0.000000   1.071748 )  

     reciprocal axes: (cart. coord. in units 2 pi/alat)
               b(1) = (  1.000000  0.000000  0.434667 )  
               b(2) = (  0.000000  1.316673  0.000000 )  
               b(3) = (  0.000000  0.000000  0.933055 )  


     PseudoPot. # 1 for  C read from file:
     /scratch/ahofstet/pseudo/C.pbe-n-kjpaw_psl.0.1.UPF
     MD5 check sum: 430fe95172b1e11ef3f8ed03bac87931
     Pseudo is Projector augmented-wave + core cor, Zval =  4.0
     Generated using "atomic" code by A. Dal Corso  v.5.0.99 svn rev. 10869
     Shape of augmentation charge: BESSEL
     Using radial grid of 1073 points,  4 beta functions with: 
                l(1) =   0
                l(2) =   0
                l(3) =   1
                l(4) =   1
     Q(r) pseudized with 0 coefficients 


     PseudoPot. # 2 for  N read from file:
     /scratch/ahofstet/pseudo/N.pbe-n-kjpaw_psl.0.1.UPF
     MD5 check sum: f73187c8b701007e77325f868c9291d7
     Pseudo is Projector augmented-wave + core cor, Zval =  5.0
     Generated using "atomic" code by A. Dal Corso  v.5.0.99 svn rev. 10869
     Shape of augmentation charge: PSQ
     Using radial grid of 1085 points,  4 beta functions with: 
                l(1) =   0
                l(2) =   0
                l(3) =   1
                l(4) =   1
     Q(r) pseudized with 0 coefficients 


     PseudoPot. # 3 for  H read from file:
     /scratch/ahofstet/pseudo/H.pbe-kjpaw_psl.0.1.UPF
     MD5 check sum: 94e484f906d9e9773b2f6e52662335b2
     Pseudo is Projector augmented-wave, Zval =  1.0
     Generated using "atomic" code by A. Dal Corso  v.5.0.99 svn rev. 10869
     Shape of augmentation charge: PSQ
     Using radial grid of  929 points,  2 beta functions with: 
                l(1) =   0
                l(2) =   0
     Q(r) pseudized with 0 coefficients 


     PseudoPot. # 4 for  O read from file:
     /scratch/ahofstet/pseudo/O.pbe-n-kjpaw_psl.0.1.UPF
     MD5 check sum: 3f94a2996a3169367d6eb21d9b593f20
     Pseudo is Projector augmented-wave + core cor, Zval =  6.0
     Generated using "atomic" code by A. Dal Corso  v.5.0.99 svn rev. 10869
     Shape of augmentation charge: BESSEL
     Using radial grid of 1095 points,  4 beta functions with: 
                l(1) =   0
                l(2) =   0
                l(3) =   1
                l(4) =   1
     Q(r) pseudized with 0 coefficients 


     atomic species   valence    mass     pseudopotential
        C              4.00    12.01070      C( 1.00)
        N              5.00    14.00670      N( 1.00)
        H              1.00     1.00794      H( 1.00)
        O              6.00    15.99940      O( 1.00)

     No symmetry found



   Cartesian axes

     site n.     atom                  positions (alat units)
         1           O   tau(   1) = (   0.5604734   0.5685070   0.0488487  )
         2           O   tau(   2) = (  -0.0262533   0.1886199   1.0229965  )
         3           O   tau(   3) = (   0.5952740   0.6788730   0.2246399  )
         4           O   tau(   4) = (  -0.0610292   0.2990607   0.8472684  )
         5           O   tau(   5) = (   0.7359234   0.2710011   0.0426602  )
         6           O   tau(   6) = (  -0.2018047   0.6506888   1.0290524  )
         7           O   tau(   7) = (   0.8502660   0.2441028   0.2174468  )
         8           O   tau(   8) = (  -0.3161738   0.6239721   0.8542718  )
         9           O   tau(   9) = (   0.1965786   0.4336680   0.1661191  )
        10           O   tau(  10) = (   0.3375469   0.0538261   0.9056794  )
        11           O   tau(  11) = (   0.1775308   0.4966033   0.3670672  )
        12           O   tau(  12) = (   0.3566231   0.1168222   0.7047684  )
        13           O   tau(  13) = (   0.3063929   0.0372332   0.1915314  )
        14           O   tau(  14) = (   0.2276779   0.4168816   0.8800879  )
        15           O   tau(  15) = (   0.3701593   0.7377145   0.3829248  )
        16           O   tau(  16) = (   0.1639456   0.3579700   0.6886724  )
        17           O   tau(  17) = (   0.3707754   0.5463067   0.6337095  )
        18           O   tau(  18) = (   0.1633861   0.1666415   0.4380973  )
        19           O   tau(  19) = (   0.7797945   0.1411766   0.4823640  )
        20           O   tau(  20) = (  -0.2456531   0.5209279   0.5894610  )
        21           O   tau(  21) = (   0.6055743   0.0537585   0.5606208  )
        22           O   tau(  22) = (  -0.0714705   0.4335419   0.5111266  )
        23           O   tau(  23) = (   0.8249244   0.5314831   0.2522066  )
        24           O   tau(  24) = (  -0.2907683   0.1517956   0.8194874  )
        25           N   tau(  25) = (   0.5302798   0.4746658   0.2391812  )
        26           N   tau(  26) = (   0.0038754   0.0948504   0.8326211  )
        27           N   tau(  27) = (   0.6391672   0.2845189   0.2353862  )
        28           N   tau(  28) = (  -0.1050481   0.6642178   0.8363224  )
        29           N   tau(  29) = (   0.3283864   0.3575319   0.3141105  )
        30           N   tau(  30) = (   0.2057491   0.7372399   0.7576465  )
        31           N   tau(  31) = (   0.4309526   0.1700290   0.3074501  )
        32           N   tau(  32) = (   0.1031734   0.5497458   0.7642056  )
        33           N   tau(  33) = (   0.4741763   0.4558690   0.4619258  )
        34           N   tau(  34) = (   0.0599817   0.0761641   0.6098810  )
        35           N   tau(  35) = (   0.5909402   0.2422379   0.4574051  )
        36           N   tau(  36) = (  -0.0568105   0.6220403   0.6142886  )
        37           N   tau(  37) = (   0.5669250   0.5810841   0.1660158  )
        38           N   tau(  38) = (  -0.0327218   0.2012793   0.9058225  )
        39           N   tau(  39) = (   0.7513350   0.2675640   0.1590281  )
        40           N   tau(  40) = (  -0.2172494   0.6473154   0.9126717  )
        41           N   tau(  41) = (   0.2276573   0.4340890   0.2802159  )
        42           N   tau(  42) = (   0.3065020   0.0543040   0.7915736  )
        43           N   tau(  43) = (   0.3613673   0.0542534   0.2936550  )
        44           N   tau(  44) = (   0.1727396   0.4339427   0.7779734  )
        45           N   tau(  45) = (   0.6636182   0.1372891   0.5019228  )
        46           N   tau(  46) = (  -0.1294880   0.5170483   0.5698254  )
        47           C   tau(  47) = (   0.5281704   0.3479968   0.1798822  )
        48           C   tau(  48) = (   0.0059647   0.7276409   0.8918556  )
        49           H   tau(  49) = (   0.5335521   0.3521657   0.0754715  )
        50           H   tau(  50) = (   0.0005793   0.7317630   0.9962690  )
        51           C   tau(  51) = (   0.5781644   0.4611490   0.3713311  )
        52           C   tau(  52) = (  -0.0440161   0.0814366   0.7004553  )
        53           H   tau(  53) = (   0.6432644   0.5399452   0.3937833  )
        54           H   tau(  54) = (  -0.1090960   0.1602369   0.6780511  )
        55           C   tau(  55) = (   0.6530255   0.3292469   0.3675568  )
        56           C   tau(  56) = (  -0.1188824   0.7090178   0.7041720  )
        57           H   tau(  57) = (   0.7540239   0.3419336   0.3922778  )
        58           H   tau(  58) = (  -0.2198851   0.7217303   0.6794500  )
        59           C   tau(  59) = (   0.3990863   0.2778207   0.2251882  )
        60           C   tau(  60) = (   0.1350446   0.6574842   0.8465291  )
        61           H   tau(  61) = (   0.3414767   0.2499384   0.1424590  )
        62           H   tau(  62) = (   0.1926464   0.6295525   0.9292407  )
        63           C   tau(  63) = (   0.3835002   0.3527601   0.4419756  )
        64           C   tau(  64) = (   0.1506513   0.7325525   0.6297696  )
        65           H   tau(  65) = (   0.3097478   0.3556598   0.5164953  )
        66           H   tau(  66) = (   0.2244015   0.7354741   0.5552643  )
        67           C   tau(  67) = (   0.4548249   0.2195463   0.4373350  )
        68           C   tau(  68) = (   0.0793092   0.5993415   0.6343508  )
        69           H   tau(  69) = (   0.4179600   0.1530204   0.5091799  )
        70           H   tau(  70) = (   0.1161707   0.5328424   0.5624721  )
        71           C   tau(  71) = (   0.4597517   0.5454580   0.5576692  )
        72           C   tau(  72) = (   0.0744054   0.1658150   0.5141381  )
        73           H   tau(  73) = (   0.5384609   0.6159848   0.5583708  )
        74           H   tau(  74) = (  -0.0042940   0.2363174   0.5134509  )
        75           C   tau(  75) = (   0.9233772   0.5784031   0.0502962  )
        76           C   tau(  76) = (  -0.3892499   0.1986172   1.0214166  )
        77           H   tau(  77) = (   0.8683564   0.4966301   0.0138863  )
        78           H   tau(  78) = (  -0.3342600   0.1168085   1.0577906  )
        79           H   tau(  79) = (   0.0264410   0.5639756   0.0331885  )
        80           H   tau(  80) = (   0.5076800   0.1842204   1.0385115  )
        81           H   tau(  81) = (   0.8968776   0.6658159  -0.0026613  )
        82           H   tau(  82) = (  -0.3627208   0.2859942   1.0744223  )
        83           C   tau(  83) = (   0.9007024   0.5983963   0.1912846  )
        84           C   tau(  84) = (  -0.3665550   0.2187041   0.8804496  )
        85           C   tau(  85) = (  -0.0260066   0.7059024   0.2531609  )
        86           C   tau(  86) = (   0.5602173   0.3262791   0.8186169  )
        87           H   tau(  87) = (  -0.0489057   0.7131634   0.3553997  )
        88           H   tau(  88) = (   0.5831477   0.3335884   0.7163879  )
        89           H   tau(  89) = (  -0.0495341   0.0375235   0.2053891  )
        90           H   tau(  90) = (   0.5837591   0.4173562   0.8664444  )
        91           H   tau(  91) = (   0.0775125   0.6909149   0.2400975  )
        92           H   tau(  92) = (   0.4566874   0.3113195   0.8316369  )

     number of k points=     8
                       cart. coord. in units 2pi/alat
        k(    1) = (   0.0000000   0.0000000   0.0000000), wk =   0.1666667
        k(    2) = (   0.0000000   0.0000000  -0.4665277), wk =   0.1666667
        k(    3) = (   0.0000000   0.4388910   0.0000000), wk =   0.3333333
        k(    4) = (   0.0000000   0.4388910  -0.4665277), wk =   0.3333333
        k(    5) = (  -0.5000000   0.0000000  -0.2173336), wk =   0.1666667
        k(    6) = (  -0.5000000   0.0000000  -0.6838612), wk =   0.1666667
        k(    7) = (  -0.5000000   0.4388910  -0.2173336), wk =   0.3333333
        k(    8) = (  -0.5000000   0.4388910  -0.6838612), wk =   0.3333333

     Dense  grid:   842551 G-vectors     FFT dimensions: ( 125,  96, 150)

     Estimated max dynamical RAM per process >     941.38MB

     Estimated total allocated dynamical RAM >    7531.00MB

     Check: negative/imaginary core charge=   -0.000002    0.000000

     Initial potential from superposition of free atoms

     starting charge  359.99872, renormalised to  360.00000
     Starting wfc are  290 randomized atomic wfcs
     Checking if some PAW data can be deallocated... 

     total cpu time spent up to now is       56.3 secs

     per-process dynamical memory:   619.9 Mb

     Self-consistent Calculation

     iteration #  1     ecut=   100.00 Ry     beta=0.50
     Davidson diagonalization with overlap
     ethr =  1.00E-02,  avg # of iterations =  4.2

     total cpu time spent up to now is      227.2 secs

     total energy              =   -2015.48850890 Ry
     Harris-Foulkes estimate   =   -2020.89187948 Ry
     estimated scf accuracy    <       9.75267074 Ry

     iteration #  2     ecut=   100.00 Ry     beta=0.50
     Davidson diagonalization with overlap
     ethr =  2.71E-03,  avg # of iterations =  3.8

     total cpu time spent up to now is      354.3 secs

     total energy              =   -2017.25619063 Ry
     Harris-Foulkes estimate   =   -2018.75271963 Ry
     estimated scf accuracy    <       3.28516146 Ry

     iteration #  3     ecut=   100.00 Ry     beta=0.50
     Davidson diagonalization with overlap
     ethr =  9.13E-04,  avg # of iterations =  4.2

     total cpu time spent up to now is      465.1 secs

     total energy              =   -2017.85940872 Ry
     Harris-Foulkes estimate   =   -2018.05165475 Ry
     estimated scf accuracy    <       0.45846292 Ry

     iteration #  4     ecut=   100.00 Ry     beta=0.50
     Davidson diagonalization with overlap
     ethr =  1.27E-04,  avg # of iterations =  8.6

     total cpu time spent up to now is      614.4 secs

     total energy              =   -2017.95229078 Ry
     Harris-Foulkes estimate   =   -2018.02188443 Ry
     estimated scf accuracy    <       0.18763774 Ry

     iteration #  5     ecut=   100.00 Ry     beta=0.50
     Davidson diagonalization with overlap
     ethr =  5.21E-05,  avg # of iterations = 11.2

     total cpu time spent up to now is      729.7 secs

     total energy              =   -2017.98117161 Ry
     Harris-Foulkes estimate   =   -2017.98438823 Ry
     estimated scf accuracy    <       0.01049748 Ry

     iteration #  6     ecut=   100.00 Ry     beta=0.50
     Davidson diagonalization with overlap
     ethr =  2.92E-06,  avg # of iterations =  9.5

     total cpu time spent up to now is      947.8 secs

     total energy              =   -2017.98517461 Ry
     Harris-Foulkes estimate   =   -2017.98667398 Ry
     estimated scf accuracy    <       0.00372606 Ry

     iteration #  7     ecut=   100.00 Ry     beta=0.50
     Davidson diagonalization with overlap
     ethr =  1.04E-06,  avg # of iterations =  3.2

     total cpu time spent up to now is     1049.5 secs

     total energy              =   -2017.98574350 Ry
     Harris-Foulkes estimate   =   -2017.98623093 Ry
     estimated scf accuracy    <       0.00143939 Ry

     iteration #  8     ecut=   100.00 Ry     beta=0.50
     Davidson diagonalization with overlap
     ethr =  4.00E-07,  avg # of iterations =  3.0

     total cpu time spent up to now is     1149.0 secs

     total energy              =   -2017.98600536 Ry
     Harris-Foulkes estimate   =   -2017.98606337 Ry
     estimated scf accuracy    <       0.00016909 Ry

     iteration #  9     ecut=   100.00 Ry     beta=0.50
     Davidson diagonalization with overlap
     ethr =  4.70E-08,  avg # of iterations =  3.1

     total cpu time spent up to now is     1271.3 secs

     total energy              =   -2017.98605028 Ry
     Harris-Foulkes estimate   =   -2017.98607122 Ry
     estimated scf accuracy    <       0.00006146 Ry

     iteration # 10     ecut=   100.00 Ry     beta=0.50
     Davidson diagonalization with overlap
     ethr =  1.71E-08,  avg # of iterations =  3.0

     total cpu time spent up to now is     1368.4 secs

     total energy              =   -2017.98606041 Ry
     Harris-Foulkes estimate   =   -2017.98606279 Ry
     estimated scf accuracy    <       0.00000845 Ry

     iteration # 11     ecut=   100.00 Ry     beta=0.50
     Davidson diagonalization with overlap
     ethr =  2.35E-09,  avg # of iterations =  3.8

     total cpu time spent up to now is     1505.8 secs

     total energy              =   -2017.98606307 Ry
     Harris-Foulkes estimate   =   -2017.98606390 Ry
     estimated scf accuracy    <       0.00000261 Ry

     iteration # 12     ecut=   100.00 Ry     beta=0.50
     Davidson diagonalization with overlap
     ethr =  7.26E-10,  avg # of iterations =  3.0

     total cpu time spent up to now is     1601.0 secs

     total energy              =   -2017.98606341 Ry
     Harris-Foulkes estimate   =   -2017.98606353 Ry
     estimated scf accuracy    <       0.00000038 Ry

     iteration # 13     ecut=   100.00 Ry     beta=0.50
     Davidson diagonalization with overlap
     ethr =  1.06E-10,  avg # of iterations =  4.0

     total cpu time spent up to now is     1759.6 secs

     total energy              =   -2017.98606358 Ry
     Harris-Foulkes estimate   =   -2017.98606363 Ry
     estimated scf accuracy    <       0.00000020 Ry

     iteration # 14     ecut=   100.00 Ry     beta=0.50
     Davidson diagonalization with overlap
     ethr =  5.59E-11,  avg # of iterations =  2.0

     total cpu time spent up to now is     1850.4 secs

     total energy              =   -2017.98606359 Ry
     Harris-Foulkes estimate   =   -2017.98606361 Ry
     estimated scf accuracy    <       0.00000005 Ry

     iteration # 15     ecut=   100.00 Ry     beta=0.50
     Davidson diagonalization with overlap
     ethr =  1.31E-11,  avg # of iterations =  3.9

     total cpu time spent up to now is     1972.6 secs

     End of self-consistent calculation

          k = 0.0000 0.0000 0.0000 (105419 PWs)   bands (ev):

   -24.7100 -24.6987 -24.5544 -24.5489 -24.4582 -24.4549 -24.3053 -24.3031
   -24.3014 -24.2984 -20.0960 -20.0910 -20.0703 -20.0612 -19.9146 -19.9012
   -19.8611 -19.8531 -19.7405 -19.7377 -19.5855 -19.5822 -19.2573 -19.2316
   -18.6469 -18.6414 -18.4153 -18.4122 -18.0281 -18.0112 -17.4738 -17.4701
   -16.7205 -16.7135 -16.3492 -16.3333 -13.4271 -13.4199 -13.2552 -13.2216
   -12.9255 -12.8766 -11.7120 -11.6786 -11.3227 -11.2957 -11.2932 -11.2834
   -11.0905 -11.0576  -9.9063  -9.8717  -9.6380  -9.6261  -9.1623  -9.1444
    -8.5834  -8.5726  -8.3982  -8.3462  -8.2918  -8.2684  -7.9004  -7.8218
    -7.6088  -7.4875  -7.3762  -7.3247  -7.2772  -7.1645  -7.1554  -7.0028
    -6.9984  -6.9127  -6.8602  -6.8336  -6.7919  -6.7664  -6.7073  -6.6730
    -6.6133  -6.5748  -6.4742  -6.3979  -6.3461  -6.2846  -6.2667  -6.2228
    -6.0981  -6.0100  -5.7734  -5.6408  -5.6082  -5.5684  -5.5001  -5.4314
    -5.3739  -5.3548  -5.3389  -5.3252  -5.1656  -5.1461  -4.8522  -4.8284
    -4.5121  -4.4529  -4.4102  -4.2352  -4.1277  -4.0993  -3.7842  -3.7607
    -3.5404  -3.5289  -3.4729  -3.4491  -3.4374  -3.4117  -3.3957  -3.3521
    -3.1912  -3.1638  -2.9142  -2.9134  -2.8579  -2.8174  -1.8789  -1.8747
    -1.7877  -1.7165  -1.6147  -1.5326  -1.4615  -1.4095  -1.2983  -1.2930
    -1.1768  -1.1331  -1.1134  -1.0624  -0.9868  -0.9860  -0.9728  -0.9140
    -0.8757  -0.8454  -0.7527  -0.7391  -0.7121  -0.6676  -0.6599  -0.6236
    -0.5737  -0.5607  -0.5384  -0.5253  -0.5032  -0.4750  -0.4438  -0.4215
    -0.2126  -0.2077  -0.1272  -0.1260   0.0066   0.0246   0.1220   0.1507
     0.1750   0.2192   0.2821   0.3763   0.5011   0.5152   0.6013   0.6528
     0.7656   0.9041   1.7403   1.7697   4.0158   4.1359   4.1809   4.2349
     4.3270   4.3463   4.5072   4.6105   4.7064   4.7748   5.9210   5.9237
     6.0227   6.0466   6.3457   6.9827   7.4795   7.6237   7.6249   7.7850
     7.8490   8.0666   8.1021   8.2294   8.3702   8.3876   8.5974   8.6873
     8.7130   8.7365   8.7755   8.9624   9.0466   9.0630   9.1539   9.2038

          k = 0.0000 0.0000-0.4665 (105288 PWs)   bands (ev):

   -24.7099 -24.6988 -24.5545 -24.5488 -24.4587 -24.4545 -24.3056 -24.3028
   -24.3014 -24.2984 -20.0975 -20.0893 -20.0700 -20.0615 -19.9129 -19.9017
   -19.8616 -19.8540 -19.7406 -19.7375 -19.5857 -19.5821 -19.2566 -19.2325
   -18.6452 -18.6428 -18.4153 -18.4122 -18.0246 -18.0146 -17.4731 -17.4711
   -16.7203 -16.7138 -16.3475 -16.3347 -13.4320 -13.4157 -13.2720 -13.2077
   -12.9335 -12.8620 -11.7152 -11.6801 -11.3247 -11.3108 -11.2831 -11.2796
   -11.0898 -11.0528  -9.9187  -9.8554  -9.6388  -9.6282  -9.1904  -9.1172
    -8.6579  -8.4957  -8.3792  -8.3344  -8.2957  -8.2681  -7.8802  -7.8761
    -7.6268  -7.5201  -7.4315  -7.2886  -7.2130  -7.2041  -7.0338  -7.0311
    -6.9960  -6.8993  -6.8681  -6.8451  -6.8180  -6.7841  -6.7044  -6.6463
    -6.6383  -6.5988  -6.4338  -6.4228  -6.3052  -6.3025  -6.2728  -6.1937
    -6.1408  -6.0126  -5.7627  -5.7084  -5.6027  -5.5943  -5.4109  -5.4037
    -5.3968  -5.3453  -5.3372  -5.2952  -5.1808  -5.1426  -4.8683  -4.8370
    -4.5127  -4.4864  -4.4140  -4.2249  -4.1285  -4.0874  -3.8302  -3.7253
    -3.5538  -3.5230  -3.4595  -3.4590  -3.4442  -3.4033  -3.3764  -3.3668
    -3.2055  -3.1418  -2.9173  -2.9019  -2.8664  -2.8156  -1.8969  -1.8838
    -1.7890  -1.7143  -1.5989  -1.5177  -1.4140  -1.3737  -1.3661  -1.2896
    -1.1965  -1.1057  -1.1047  -1.0388  -1.0209  -0.9979  -0.9715  -0.9293
    -0.8717  -0.8032  -0.7838  -0.7358  -0.7322  -0.6561  -0.6495  -0.6272
    -0.5674  -0.5622  -0.5445  -0.5433  -0.5224  -0.4841  -0.4708  -0.4134
    -0.2009  -0.1684  -0.1341  -0.1320   0.0195   0.0328   0.1270   0.1328
     0.2004   0.2011   0.2974   0.3674   0.4982   0.5095   0.6086   0.6322
     0.7629   0.9151   1.7429   1.7671   4.0129   4.1369   4.1788   4.2230
     4.3263   4.3510   4.5131   4.6109   4.7149   4.7592   5.8774   5.9906
     6.0104   6.0329   6.5875   6.7158   7.4821   7.5143   7.7151   7.7512
     7.8645   7.9652   8.1060   8.3433   8.3567   8.4109   8.6530   8.6755
     8.7361   8.7469   8.8382   8.9116   8.9666   8.9760   9.2051   9.2460

          k = 0.0000 0.4389 0.0000 (105358 PWs)   bands (ev):

   -24.7071 -24.7010 -24.5511 -24.5474 -24.4597 -24.4565 -24.3062 -24.3043
   -24.3012 -24.2993 -20.0991 -20.0970 -20.0663 -20.0619 -19.9107 -19.9035
   -19.8604 -19.8554 -19.7402 -19.7378 -19.5856 -19.5824 -19.2469 -19.2342
   -18.6438 -18.6404 -18.4153 -18.4122 -18.0232 -18.0145 -17.4708 -17.4687
   -16.7259 -16.7217 -16.3440 -16.3358 -13.4316 -13.4277 -13.2519 -13.2351
   -12.9186 -12.8933 -11.6915 -11.6730 -11.3189 -11.3039 -11.2626 -11.2557
   -11.0891 -11.0718  -9.9047  -9.8865  -9.6332  -9.6269  -9.1756  -9.1582
    -8.5922  -8.5801  -8.3978  -8.3845  -8.2734  -8.2532  -7.8443  -7.7926
    -7.5881  -7.5848  -7.4312  -7.3269  -7.2178  -7.1677  -7.1410  -7.0396
    -6.9835  -6.9566  -6.9012  -6.8494  -6.7925  -6.7667  -6.7298  -6.6978
    -6.5780  -6.5693  -6.4498  -6.4173  -6.3247  -6.3002  -6.1660  -6.1368
    -6.0546  -6.0365  -5.7503  -5.7222  -5.6878  -5.6259  -5.5401  -5.5139
    -5.3629  -5.3123  -5.2933  -5.2544  -5.0910  -5.0847  -4.8564  -4.8316
    -4.5041  -4.4712  -4.4027  -4.3021  -4.1228  -4.1018  -3.7820  -3.7809
    -3.5166  -3.4988  -3.4780  -3.4511  -3.4336  -3.4077  -3.4046  -3.3610
    -3.1674  -3.1563  -2.9332  -2.9318  -2.8371  -2.8163  -1.8650  -1.8554
    -1.7720  -1.7451  -1.5885  -1.5465  -1.4177  -1.3773  -1.3124  -1.2885
    -1.1832  -1.1499  -1.1117  -1.0864  -1.0391  -1.0140  -0.9423  -0.9235
    -0.8750  -0.8634  -0.7784  -0.7567  -0.7368  -0.6790  -0.6513  -0.6477
    -0.5779  -0.5744  -0.5530  -0.5311  -0.4557  -0.4358  -0.4039  -0.3842
    -0.2136  -0.2101  -0.1203  -0.1102  -0.0059   0.0096   0.1127   0.1361
     0.1860   0.2056   0.3177   0.3613   0.4864   0.5060   0.5940   0.6345
     0.7981   0.8665   1.7429   1.7577   4.0265   4.0831   4.1884   4.2203
     4.3326   4.3340   4.5277   4.5812   4.7691   4.8064   5.9149   5.9169
     6.0033   6.0048   6.5606   6.8636   7.4627   7.5867   7.6905   7.7707
     7.9094   7.9603   8.1937   8.3402   8.3891   8.4602   8.5681   8.5774
     8.7512   8.7959   8.8013   8.8933   9.0219   9.0524   9.1789   9.1829

          k = 0.0000 0.4389-0.4665 (105346 PWs)   bands (ev):

   -24.7071 -24.7010 -24.5512 -24.5473 -24.4599 -24.4564 -24.3063 -24.3045
   -24.3009 -24.2992 -20.0997 -20.0963 -20.0662 -20.0621 -19.9096 -19.9033
   -19.8611 -19.8562 -19.7403 -19.7378 -19.5857 -19.5824 -19.2464 -19.2345
   -18.6433 -18.6411 -18.4153 -18.4122 -18.0215 -18.0162 -17.4704 -17.4689
   -16.7258 -16.7217 -16.3432 -16.3365 -13.4329 -13.4253 -13.2624 -13.2323
   -12.9192 -12.8848 -11.6941 -11.6747 -11.3190 -11.3045 -11.2641 -11.2521
   -11.0886 -11.0694  -9.9117  -9.8759  -9.6337  -9.6285  -9.1872  -9.1482
    -8.6381  -8.5707  -8.3773  -8.3627  -8.2763  -8.2557  -7.8230  -7.7982
    -7.6320  -7.5765  -7.4237  -7.2993  -7.2126  -7.1852  -7.1047  -7.0648
    -7.0175  -6.9958  -6.8735  -6.8458  -6.7912  -6.7468  -6.7053  -6.6967
    -6.5896  -6.5547  -6.4608  -6.4335  -6.3481  -6.3296  -6.1360  -6.1053
    -6.0609  -6.0161  -5.7560  -5.7340  -5.6749  -5.6683  -5.4917  -5.4831
    -5.3502  -5.3137  -5.3102  -5.2804  -5.0941  -5.0780  -4.8744  -4.8598
    -4.5047  -4.4754  -4.3874  -4.3005  -4.1149  -4.0933  -3.8141  -3.7660
    -3.5208  -3.4891  -3.4645  -3.4640  -3.4324  -3.4159  -3.3815  -3.3781
    -3.1737  -3.1420  -2.9368  -2.9360  -2.8337  -2.8160  -1.8766  -1.8633
    -1.7767  -1.7492  -1.5624  -1.5159  -1.3890  -1.3564  -1.3550  -1.3027
    -1.1705  -1.1491  -1.1359  -1.0662  -1.0365  -1.0169  -0.9619  -0.9344
    -0.8838  -0.8252  -0.7836  -0.7480  -0.7349  -0.7134  -0.6721  -0.6569
    -0.5725  -0.5669  -0.5273  -0.5217  -0.4653  -0.4380  -0.4064  -0.4054
    -0.2149  -0.1931  -0.1181  -0.1101   0.0000   0.0124   0.1131   0.1179
     0.1993   0.2024   0.3308   0.3575   0.4919   0.4944   0.6102   0.6118
     0.7968   0.8710   1.7443   1.7566   4.0230   4.0793   4.1900   4.2142
     4.3262   4.3432   4.5327   4.5780   4.7785   4.7964   5.8995   5.9632
     5.9764   5.9975   6.6917   6.7688   7.5024   7.5112   7.7117   7.7316
     7.8978   7.9247   8.2419   8.2915   8.3613   8.4326   8.5570   8.6556
     8.7327   8.7607   8.8306   8.8485   9.0132   9.0359   9.1934   9.2661

          k =-0.5000 0.0000-0.2173 (105234 PWs)   bands (ev):

   -24.7097 -24.6990 -24.5546 -24.5487 -24.4583 -24.4549 -24.3049 -24.3027
   -24.3016 -24.2988 -20.1031 -20.0829 -20.0723 -20.0600 -19.9145 -19.9013
   -19.8610 -19.8534 -19.7405 -19.7376 -19.5854 -19.5821 -19.2590 -19.2299
   -18.6448 -18.6420 -18.4163 -18.4131 -18.0228 -18.0168 -17.4776 -17.4660
   -16.7193 -16.7142 -16.3448 -16.3380 -13.4538 -13.3945 -13.2502 -13.2285
   -12.9169 -12.8763 -11.7141 -11.6904 -11.3462 -11.2962 -11.2937 -11.2522
   -11.0981 -11.0498  -9.8961  -9.8771  -9.6386  -9.6262  -9.2082  -9.0993
    -8.6125  -8.5427  -8.3943  -8.3237  -8.3095  -8.2519  -7.9027  -7.8480
    -7.6354  -7.5076  -7.4140  -7.2822  -7.2510  -7.1511  -7.0848  -6.9982
    -6.9560  -6.9364  -6.8930  -6.8759  -6.8167  -6.7468  -6.7115  -6.6730
    -6.6090  -6.5833  -6.4641  -6.4188  -6.3217  -6.3005  -6.2903  -6.1702
    -6.1466  -6.0048  -5.7631  -5.6958  -5.6176  -5.5469  -5.5316  -5.4414
    -5.4008  -5.3706  -5.2659  -5.2342  -5.1734  -5.1574  -4.8513  -4.8219
    -4.4989  -4.4804  -4.3576  -4.2888  -4.1186  -4.1134  -3.8202  -3.7325
    -3.5548  -3.5355  -3.4667  -3.4633  -3.4427  -3.4282  -3.3690  -3.3532
    -3.1716  -3.1228  -2.9385  -2.9212  -2.8483  -2.8227  -1.8788  -1.8715
    -1.7878  -1.7156  -1.5889  -1.5591  -1.4533  -1.3675  -1.3214  -1.3009
    -1.1956  -1.1675  -1.0852  -1.0589  -1.0063  -0.9960  -0.9627  -0.9269
    -0.8633  -0.7820  -0.7654  -0.7104  -0.6927  -0.6675  -0.6447  -0.6335
    -0.6069  -0.5860  -0.5701  -0.5346  -0.5094  -0.4967  -0.4457  -0.3798
    -0.2624  -0.1907  -0.1275  -0.1115   0.0175   0.0374   0.1152   0.1631
     0.1820   0.2122   0.2862   0.3582   0.5140   0.5180   0.5899   0.6543
     0.7872   0.8769   1.7439   1.7687   4.0220   4.1315   4.1762   4.2411
     4.3087   4.3613   4.4846   4.6001   4.7221   4.7890   5.8790   5.9615
     6.0057   6.0265   6.7081   6.7193   7.4066   7.4452   7.7114   7.7446
     7.9343   7.9565   8.1747   8.2821   8.4062   8.4259   8.5231   8.6542
     8.7515   8.7777   8.8373   8.9335   8.9436   9.0432   9.0979   9.3389

          k =-0.5000 0.0000-0.6839 (105314 PWs)   bands (ev):

   -24.7098 -24.6989 -24.5543 -24.5489 -24.4586 -24.4546 -24.3052 -24.3025
   -24.3018 -24.2986 -20.1048 -20.0815 -20.0724 -20.0594 -19.9129 -19.9016
   -19.8618 -19.8538 -19.7405 -19.7377 -19.5856 -19.5821 -19.2583 -19.2308
   -18.6444 -18.6418 -18.4162 -18.4132 -18.0265 -18.0136 -17.4785 -17.4650
   -16.7192 -16.7144 -16.3461 -16.3364 -13.4578 -13.3886 -13.2756 -13.1995
   -12.9097 -12.8917 -11.7099 -11.6940 -11.3287 -11.3233 -11.2738 -11.2643
   -11.0771 -11.0652  -9.8868  -9.8813  -9.6380  -9.6281  -9.1837  -9.1301
    -8.6324  -8.5266  -8.3813  -8.3486  -8.3163  -8.2477  -7.8764  -7.8416
    -7.5983  -7.5421  -7.4381  -7.3003  -7.2853  -7.1897  -7.0365  -6.9843
    -6.9516  -6.9326  -6.8611  -6.8478  -6.8257  -6.7759  -6.7123  -6.6425
    -6.6164  -6.5958  -6.4417  -6.4142  -6.3478  -6.3331  -6.2559  -6.1427
    -6.1150  -6.0216  -5.7870  -5.6886  -5.6851  -5.5717  -5.4408  -5.4126
    -5.3869  -5.3722  -5.3140  -5.2951  -5.1485  -5.1219  -4.8881  -4.8351
    -4.5274  -4.4315  -4.3687  -4.2837  -4.1203  -4.1187  -3.7646  -3.7590
    -3.5467  -3.5148  -3.5012  -3.4549  -3.4399  -3.4294  -3.3702  -3.3548
    -3.1832  -3.1222  -2.9438  -2.9178  -2.8590  -2.8196  -1.8969  -1.8908
    -1.7693  -1.7019  -1.5783  -1.5421  -1.4184  -1.3684  -1.3427  -1.2978
    -1.2069  -1.1521  -1.0732  -1.0501  -1.0438  -1.0173  -0.9728  -0.9206
    -0.8141  -0.7705  -0.7618  -0.7524  -0.6989  -0.6912  -0.6364  -0.6337
    -0.5969  -0.5701  -0.5639  -0.5370  -0.5192  -0.4981  -0.4469  -0.4097
    -0.2241  -0.2170  -0.1278  -0.0959   0.0200   0.0274   0.1238   0.1338
     0.1956   0.2169   0.3089   0.3549   0.5063   0.5107   0.6092   0.6252
     0.7843   0.8886   1.7449   1.7684   4.0211   4.1308   4.1895   4.2247
     4.3245   4.3382   4.4817   4.6036   4.7408   4.7753   5.9038   5.9052
     6.0334   6.0410   6.6066   6.9023   7.2686   7.5086   7.7490   7.7528
     7.9252   7.9749   8.1005   8.1938   8.4442   8.4491   8.5361   8.5569
     8.6686   8.7410   8.9001   8.9088   8.9963   9.0146   9.2537   9.2835

          k =-0.5000 0.4389-0.2173 (105336 PWs)   bands (ev):

   -24.7070 -24.7011 -24.5512 -24.5473 -24.4597 -24.4565 -24.3060 -24.3041
   -24.3013 -24.2995 -20.1028 -20.0923 -20.0677 -20.0616 -19.9107 -19.9035
   -19.8604 -19.8556 -19.7403 -19.7378 -19.5855 -19.5823 -19.2473 -19.2331
   -18.6428 -18.6405 -18.4161 -18.4130 -18.0207 -18.0173 -17.4725 -17.4666
   -16.7252 -16.7219 -16.3421 -16.3379 -13.4447 -13.4140 -13.2501 -13.2403
   -12.9135 -12.8931 -11.6942 -11.6822 -11.3206 -11.3004 -11.2684 -11.2401
   -11.0920 -11.0681  -9.9014  -9.8909  -9.6353  -9.6291  -9.1935  -9.1432
    -8.5994  -8.5613  -8.4038  -8.3752  -8.2821  -8.2468  -7.8269  -7.8050
    -7.6184  -7.5906  -7.4399  -7.3264  -7.2263  -7.1647  -7.1063  -7.0727
    -6.9840  -6.9445  -6.8499  -6.8391  -6.7704  -6.7668  -6.7234  -6.6831
    -6.5993  -6.5771  -6.4509  -6.4302  -6.3371  -6.3125  -6.1805  -6.1409
    -6.1219  -5.9553  -5.7712  -5.7053  -5.6974  -5.5847  -5.5711  -5.4931
    -5.4014  -5.3500  -5.2716  -5.2595  -5.0901  -5.0866  -4.8493  -4.8280
    -4.4849  -4.4763  -4.3512  -4.3223  -4.1110  -4.1066  -3.8215  -3.7710
    -3.5144  -3.5123  -3.4692  -3.4638  -3.4365  -3.4293  -3.3783  -3.3746
    -3.1667  -3.1424  -2.9343  -2.9235  -2.8265  -2.8174  -1.8616  -1.8611
    -1.7886  -1.7531  -1.5620  -1.5388  -1.4248  -1.3611  -1.3000  -1.2957
    -1.2129  -1.1841  -1.1134  -1.0849  -1.0348  -0.9726  -0.9508  -0.9366
    -0.8580  -0.8050  -0.7802  -0.7657  -0.7077  -0.7024  -0.6645  -0.6606
    -0.5751  -0.5732  -0.5371  -0.5113  -0.4526  -0.4508  -0.4262  -0.3874
    -0.2423  -0.1968  -0.1214  -0.1197  -0.0124   0.0142   0.1089   0.1443
     0.1913   0.2082   0.3146   0.3474   0.4943   0.5068   0.5908   0.6360
     0.8031   0.8494   1.7447   1.7572   4.0293   4.0819   4.1911   4.2239
     4.3221   4.3505   4.5058   4.5613   4.7897   4.8203   5.8866   5.9428
     5.9692   6.0049   6.7723   6.7833   7.4788   7.5050   7.7023   7.7625
     7.7967   7.9595   8.3009   8.3336   8.3997   8.4164   8.5552   8.5813
     8.7566   8.7980   8.8268   8.8538   8.9578   9.0357   9.1147   9.1912

          k =-0.5000 0.4389-0.6839 (105308 PWs)   bands (ev):

   -24.7070 -24.7010 -24.5511 -24.5474 -24.4599 -24.4564 -24.3061 -24.3044
   -24.3010 -24.2994 -20.1036 -20.0916 -20.0678 -20.0614 -19.9096 -19.9033
   -19.8612 -19.8561 -19.7403 -19.7378 -19.5856 -19.5823 -19.2468 -19.2334
   -18.6428 -18.6406 -18.4161 -18.4131 -18.0224 -18.0157 -17.4729 -17.4662
   -16.7252 -16.7219 -16.3425 -16.3371 -13.4464 -13.4114 -13.2637 -13.2265
   -12.9107 -12.8994 -11.6902 -11.6823 -11.3176 -11.3061 -11.2605 -11.2477
   -11.0830 -11.0758  -9.8973  -9.8916  -9.6350  -9.6299  -9.1810  -9.1527
    -8.6250  -8.5796  -8.3675  -8.3618  -8.2920  -8.2506  -7.8176  -7.8064
    -7.6215  -7.6041  -7.4356  -7.3057  -7.2454  -7.1846  -7.0807  -7.0619
    -7.0273  -6.9409  -6.8380  -6.8374  -6.7989  -6.7493  -6.7049  -6.6939
    -6.5857  -6.5578  -6.4527  -6.4439  -6.3300  -6.3085  -6.1774  -6.1487
    -6.0696  -6.0263  -5.7578  -5.7453  -5.6980  -5.6172  -5.4936  -5.4715
    -5.3554  -5.3355  -5.2959  -5.2827  -5.0874  -5.0777  -4.8834  -4.8615
    -4.5153  -4.4546  -4.3454  -4.3178  -4.1100  -4.1084  -3.7969  -3.7939
    -3.5130  -3.4918  -3.4715  -3.4511  -3.4481  -3.4216  -3.3936  -3.3682
    -3.1799  -3.1502  -2.9378  -2.9165  -2.8226  -2.8110  -1.8740  -1.8716
    -1.7944  -1.7562  -1.5412  -1.5231  -1.3897  -1.3674  -1.3137  -1.2948
    -1.2281  -1.1731  -1.1121  -1.0704  -1.0222  -0.9862  -0.9534  -0.9471
    -0.8544  -0.8214  -0.7725  -0.7606  -0.7163  -0.7015  -0.6721  -0.6549
    -0.5650  -0.5620  -0.5339  -0.5069  -0.4772  -0.4664  -0.4326  -0.4056
    -0.2128  -0.1966  -0.1231  -0.1224   0.0073   0.0086   0.1154   0.1194
     0.1963   0.2109   0.3284   0.3415   0.4939   0.4999   0.6075   0.6140
     0.8011   0.8538   1.7452   1.7569   4.0313   4.0862   4.1937   4.2160
     4.3237   4.3360   4.5061   4.5632   4.7990   4.8144   5.8923   5.8960
     6.0086   6.0188   6.7164   6.8594   7.4661   7.5105   7.7106   7.7378
     7.8704   7.9541   8.2320   8.3318   8.3767   8.4749   8.5106   8.5555
     8.6781   8.7491   8.7986   8.9333   8.9737   9.0608   9.1430   9.1858

     highest occupied, lowest unoccupied level (ev):     1.7697    4.0129

!    total energy              =   -2017.98606359 Ry
     Harris-Foulkes estimate   =   -2017.98606360 Ry
     estimated scf accuracy    <          8.2E-09 Ry

     total all-electron energy =     -7574.167022 Ry

     The total energy is the sum of the following terms:

     one-electron contribution =   -1385.12934215 Ry
     hartree contribution      =     838.85396700 Ry
     xc contribution           =    -397.72839389 Ry
     ewald contribution        =    -529.91248151 Ry
     Dispersion Correction     =      -0.44347747 Ry
     one-center paw contrib.   =    -543.62633559 Ry

     convergence has been achieved in  15 iterations

     Forces acting on atoms (cartesian axes, Ry/au):

     atom    1 type  4   force =     0.00032104    0.00014298   -0.00008923
     atom    2 type  4   force =    -0.00035063    0.00028145   -0.00009756
     atom    3 type  4   force =    -0.00048473    0.00035892    0.00042487
     atom    4 type  4   force =     0.00021032    0.00131115   -0.00096146
     atom    5 type  4   force =     0.00014250   -0.00000637    0.00069058
     atom    6 type  4   force =    -0.00023443   -0.00003782   -0.00092469
     atom    7 type  4   force =    -0.00152645    0.00068591   -0.00057691
     atom    8 type  4   force =     0.00083757    0.00051146    0.00018518
     atom    9 type  4   force =     0.00053646    0.00017938    0.00073947
     atom   10 type  4   force =    -0.00045663    0.00023990   -0.00070701
     atom   11 type  4   force =     0.00075262   -0.00069345   -0.00051006
     atom   12 type  4   force =    -0.00039850   -0.00027902    0.00001475
     atom   13 type  4   force =    -0.00052861    0.00081847    0.00037393
     atom   14 type  4   force =     0.00076006    0.00070114    0.00002841
     atom   15 type  4   force =    -0.00057082    0.00052804    0.00016954
     atom   16 type  4   force =     0.00056948    0.00028397   -0.00035955
     atom   17 type  4   force =     0.00027185    0.00002692   -0.00021374
     atom   18 type  4   force =    -0.00042953    0.00010528    0.00030829
     atom   19 type  4   force =    -0.00112117    0.00001587    0.00002460
     atom   20 type  4   force =     0.00104262   -0.00005066   -0.00005184
     atom   21 type  4   force =     0.00095366    0.00090251   -0.00130034
     atom   22 type  4   force =    -0.00066153    0.00043790    0.00096631
     atom   23 type  4   force =     0.00070911   -0.00016885    0.00005447
     atom   24 type  4   force =    -0.00112614    0.00021337    0.00027324
     atom   25 type  2   force =    -0.00018627   -0.00051460   -0.00035893
     atom   26 type  2   force =     0.00011933   -0.00028105    0.00027511
     atom   27 type  2   force =    -0.00208017   -0.00109419    0.00029662
     atom   28 type  2   force =     0.00208532   -0.00112744   -0.00037156
     atom   29 type  2   force =     0.00070094   -0.00070000    0.00063664
     atom   30 type  2   force =    -0.00045553   -0.00056045   -0.00062227
     atom   31 type  2   force =    -0.00000165    0.00008239   -0.00132245
     atom   32 type  2   force =     0.00000843    0.00005960    0.00139962
     atom   33 type  2   force =    -0.00046160   -0.00049967   -0.00075971
     atom   34 type  2   force =     0.00042211    0.00020807    0.00015033
     atom   35 type  2   force =    -0.00081044    0.00016343   -0.00044667
     atom   36 type  2   force =     0.00089316    0.00015694    0.00043554
     atom   37 type  2   force =     0.00021220    0.00178532    0.00017060
     atom   38 type  2   force =     0.00013204    0.00055398    0.00063755
     atom   39 type  2   force =     0.00219720    0.00021199    0.00000985
     atom   40 type  2   force =    -0.00137902    0.00042553    0.00064703
     atom   41 type  2   force =    -0.00089317    0.00090221   -0.00045481
     atom   42 type  2   force =     0.00032081    0.00034155    0.00092177
     atom   43 type  2   force =     0.00069911   -0.00113577   -0.00024794
     atom   44 type  2   force =    -0.00095810   -0.00073787    0.00000664
     atom   45 type  2   force =     0.00040533   -0.00124966    0.00037701
     atom   46 type  2   force =    -0.00063271   -0.00066765   -0.00000635
     atom   47 type  1   force =     0.00129144    0.00100079    0.00041221
     atom   48 type  1   force =    -0.00136322    0.00113859   -0.00034240
     atom   49 type  3   force =    -0.00040787   -0.00002648    0.00029699
     atom   50 type  3   force =     0.00040407   -0.00000561   -0.00031449
     atom   51 type  1   force =    -0.00027106   -0.00012980    0.00006696
     atom   52 type  1   force =     0.00055487   -0.00063107    0.00018178
     atom   53 type  3   force =    -0.00008902    0.00073925    0.00021997
     atom   54 type  3   force =    -0.00005322    0.00092548   -0.00029308
     atom   55 type  1   force =    -0.00023459    0.00025522   -0.00011099
     atom   56 type  1   force =     0.00002358    0.00031016    0.00008206
     atom   57 type  3   force =    -0.00047855   -0.00025807    0.00001666
     atom   58 type  3   force =     0.00057469   -0.00026869    0.00000225
     atom   59 type  1   force =     0.00046379   -0.00133685    0.00174437
     atom   60 type  1   force =    -0.00051659   -0.00127890   -0.00189596
     atom   61 type  3   force =     0.00010531   -0.00057479   -0.00017405
     atom   62 type  3   force =    -0.00006002   -0.00056971    0.00022309
     atom   63 type  1   force =    -0.00044952    0.00112296    0.00003423
     atom   64 type  1   force =     0.00026548    0.00089415    0.00025058
     atom   65 type  3   force =     0.00001338    0.00036252    0.00017890
     atom   66 type  3   force =     0.00007933    0.00037934   -0.00029175
     atom   67 type  1   force =     0.00086361    0.00004430   -0.00033121
     atom   68 type  1   force =    -0.00082161   -0.00013965    0.00023649
     atom   69 type  3   force =     0.00032757    0.00009037    0.00002811
     atom   70 type  3   force =    -0.00034129    0.00013461    0.00001286
     atom   71 type  1   force =     0.00041784    0.00027925   -0.00031259
     atom   72 type  1   force =    -0.00009933   -0.00049401    0.00055693
     atom   73 type  3   force =    -0.00092449   -0.00058949   -0.00039012
     atom   74 type  3   force =     0.00075370   -0.00039852    0.00038826
     atom   75 type  1   force =     0.00034074   -0.00028575   -0.00007501
     atom   76 type  1   force =    -0.00035711   -0.00021910    0.00008364
     atom   77 type  3   force =    -0.00039308   -0.00059001    0.00004470
     atom   78 type  3   force =     0.00039647   -0.00059621   -0.00006744
     atom   79 type  3   force =     0.00003109    0.00028169    0.00009414
     atom   80 type  3   force =    -0.00003218    0.00028071   -0.00009121
     atom   81 type  3   force =     0.00012204    0.00000035    0.00008519
     atom   82 type  3   force =    -0.00013245   -0.00000474   -0.00006999
     atom   83 type  1   force =    -0.00051451   -0.00011425   -0.00054690
     atom   84 type  1   force =     0.00097572   -0.00047772    0.00020728
     atom   85 type  1   force =     0.00045411    0.00015155   -0.00006739
     atom   86 type  1   force =    -0.00047829    0.00007691    0.00006369
     atom   87 type  3   force =    -0.00037739   -0.00045950    0.00023898
     atom   88 type  3   force =     0.00038768   -0.00046115   -0.00022372
     atom   89 type  3   force =    -0.00012448   -0.00039647   -0.00014839
     atom   90 type  3   force =     0.00011918   -0.00039703    0.00015733
     atom   91 type  3   force =     0.00004199   -0.00030121   -0.00019569
     atom   92 type  3   force =    -0.00004329   -0.00029456    0.00019983

     Total force =     0.010056     Total SCF correction =     0.000254


     Computing stress (Cartesian axis) and pressure

          total   stress  (Ry/bohr**3)                   (kbar)     P=    1.28
   0.00000420  -0.00000007   0.00000295          0.62     -0.01      0.43
  -0.00000007   0.00000845   0.00000005         -0.01      1.24      0.01
   0.00000295   0.00000005   0.00001339          0.43      0.01      1.97


     Writing output data file scf.save
 
     init_run     :     53.36s CPU     55.50s WALL (       1 calls)
     electrons    :   1847.09s CPU   1916.47s WALL (       1 calls)
     forces       :     28.43s CPU     28.63s WALL (       1 calls)
     stress       :    125.57s CPU    125.92s WALL (       1 calls)

     Called by init_run:
     wfcinit      :     42.91s CPU     44.93s WALL (       1 calls)
     potinit      :      3.70s CPU      3.72s WALL (       1 calls)

     Called by electrons:
     c_bands      :   1672.94s CPU   1732.32s WALL (      15 calls)
     sum_band     :    161.10s CPU    169.82s WALL (      15 calls)
     v_of_rho     :      1.93s CPU      2.11s WALL (      16 calls)
     newd         :      4.68s CPU      5.77s WALL (      16 calls)
     PAW_pot      :      5.99s CPU      5.99s WALL (      16 calls)
     mix_rho      :      0.45s CPU      0.48s WALL (      15 calls)

     Called by c_bands:
     init_us_2    :      8.09s CPU      8.13s WALL (     264 calls)
     cegterg      :   1640.18s CPU   1699.48s WALL (     120 calls)

     Called by sum_band:
     sum_band:bec :      0.10s CPU      0.10s WALL (     120 calls)
     addusdens    :      4.58s CPU      5.69s WALL (      15 calls)

     Called by *egterg:
     h_psi        :    831.39s CPU    877.58s WALL (     693 calls)
     s_psi        :    202.18s CPU    202.22s WALL (     693 calls)
     g_psi        :      3.84s CPU      3.84s WALL (     565 calls)
     cdiaghg      :    138.62s CPU    138.83s WALL (     685 calls)

     Called by h_psi:
     h_psi:pot    :    825.38s CPU    871.46s WALL (     693 calls)
     h_psi:calbec :    195.34s CPU    195.63s WALL (     693 calls)
     vloc_psi     :    427.40s CPU    473.16s WALL (     693 calls)
     add_vuspsi   :    202.63s CPU    202.67s WALL (     693 calls)

     General routines
     calbec       :    287.12s CPU    287.54s WALL (     853 calls)
     fft          :      1.35s CPU      1.65s WALL (     232 calls)
     fftw         :    457.42s CPU    508.27s WALL (  169356 calls)
 
     Parallel routines
     fft_scatter  :     93.63s CPU    137.37s WALL (  169588 calls)
 
     PWSCF        : 34m27.20s CPU    36m35.58s WALL

 
   This run was terminated on:  23:31:23  12Dec2017            

=------------------------------------------------------------------------------=
   JOB DONE.
=------------------------------------------------------------------------------=
