
     Program PWSCF v.6.1 (svn rev. 13369) starts on  4Nov2017 at  0:39: 2 

     This program is part of the open-source Quantum ESPRESSO suite
     for quantum simulation of materials; please cite
         "P. Giannozzi et al., J. Phys.:Condens. Matter 21 395502 (2009);
          URL http://www.quantum-espresso.org", 
     in publications or presentations arising from this work. More details at
     http://www.quantum-espresso.org/quote

     Parallel version (MPI), running on     8 processors
     R & G space division:  proc/nbgrp/npool/nimage =       8
     Waiting for input...
     Reading input from standard input

     Current dimensions of program PWSCF are:
     Max number of different atomic species (ntypx) = 10
     Max number of k-points (npk) =  40000
     Max angular momentum in pseudopotentials (lmaxx) =  3
               file C.pbe-n-kjpaw_psl.0.1.UPF: wavefunction(s)  2P renormalized
               file N.pbe-n-kjpaw_psl.0.1.UPF: wavefunction(s)  2P renormalized
               file H.pbe-kjpaw_psl.0.1.UPF: wavefunction(s)  1S renormalized
               file O.pbe-n-kjpaw_psl.0.1.UPF: wavefunction(s)  2P renormalized

     -------------------------------------
     Parameters for Dispersion Correction:
     -------------------------------------
       atom      VdW radius       C_6     

        C          2.744         60.710
        N          2.640         42.670
        H          1.892          4.857
        O          2.536         24.284

     Subspace diagonalization in iterative solution of the eigenvalue problem:
     a serial algorithm will be used

 
     Parallelization info
     --------------------
     sticks:   dense  smooth     PW     G-vecs:    dense   smooth      PW
     Min         783     783    210                48099    48099    6703
     Max         784     784    211                48100    48100    6704
     Sum        6265    6265   1683               384797   384797   53625
 


     bravais-lattice index     =            0
     lattice parameter (alat)  =      12.3118  a.u.
     unit-cell volume          =    2848.2517 (a.u.)^3
     number of atoms/cell      =           48
     number of atomic types    =            4
     number of electrons       =       128.00
     number of Kohn-Sham states=           76
     kinetic-energy cutoff     =     100.0000  Ry
     charge density cutoff     =     400.0000  Ry
     convergence threshold     =      1.0E-08
     mixing beta               =       0.5000
     number of iterations used =            8  plain     mixing
     Exchange-correlation      =  SLA  PW   PBX  PBC ( 1  4  3  4 0 0)

     celldm(1)=  12.311755  celldm(2)=   0.000000  celldm(3)=   0.000000
     celldm(4)=   0.000000  celldm(5)=   0.000000  celldm(6)=   0.000000

     crystal axes: (cart. coord. in units of alat)
               a(1) = (   1.000000   0.000000   0.000000 )  
               a(2) = (  -0.306543   1.296465   0.000000 )  
               a(3) = (  -0.460519  -0.574791   1.177220 )  

     reciprocal axes: (cart. coord. in units 2 pi/alat)
               b(1) = (  1.000000  0.236445  0.506639 )  
               b(2) = (  0.000000  0.771328  0.376610 )  
               b(3) = (  0.000000  0.000000  0.849459 )  


     PseudoPot. # 1 for  C read from file:
     /scratch/ahofstet/pseudo/C.pbe-n-kjpaw_psl.0.1.UPF
     MD5 check sum: 430fe95172b1e11ef3f8ed03bac87931
     Pseudo is Projector augmented-wave + core cor, Zval =  4.0
     Generated using "atomic" code by A. Dal Corso  v.5.0.99 svn rev. 10869
     Shape of augmentation charge: BESSEL
     Using radial grid of 1073 points,  4 beta functions with: 
                l(1) =   0
                l(2) =   0
                l(3) =   1
                l(4) =   1
     Q(r) pseudized with 0 coefficients 


     PseudoPot. # 2 for  N read from file:
     /scratch/ahofstet/pseudo/N.pbe-n-kjpaw_psl.0.1.UPF
     MD5 check sum: f73187c8b701007e77325f868c9291d7
     Pseudo is Projector augmented-wave + core cor, Zval =  5.0
     Generated using "atomic" code by A. Dal Corso  v.5.0.99 svn rev. 10869
     Shape of augmentation charge: PSQ
     Using radial grid of 1085 points,  4 beta functions with: 
                l(1) =   0
                l(2) =   0
                l(3) =   1
                l(4) =   1
     Q(r) pseudized with 0 coefficients 


     PseudoPot. # 3 for  H read from file:
     /scratch/ahofstet/pseudo/H.pbe-kjpaw_psl.0.1.UPF
     MD5 check sum: 94e484f906d9e9773b2f6e52662335b2
     Pseudo is Projector augmented-wave, Zval =  1.0
     Generated using "atomic" code by A. Dal Corso  v.5.0.99 svn rev. 10869
     Shape of augmentation charge: PSQ
     Using radial grid of  929 points,  2 beta functions with: 
                l(1) =   0
                l(2) =   0
     Q(r) pseudized with 0 coefficients 


     PseudoPot. # 4 for  O read from file:
     /scratch/ahofstet/pseudo/O.pbe-n-kjpaw_psl.0.1.UPF
     MD5 check sum: 3f94a2996a3169367d6eb21d9b593f20
     Pseudo is Projector augmented-wave + core cor, Zval =  6.0
     Generated using "atomic" code by A. Dal Corso  v.5.0.99 svn rev. 10869
     Shape of augmentation charge: BESSEL
     Using radial grid of 1095 points,  4 beta functions with: 
                l(1) =   0
                l(2) =   0
                l(3) =   1
                l(4) =   1
     Q(r) pseudized with 0 coefficients 


     atomic species   valence    mass     pseudopotential
        C              4.00    12.01070      C( 1.00)
        N              5.00    14.00670      N( 1.00)
        H              1.00     1.00794      H( 1.00)
        O              6.00    15.99940      O( 1.00)

      2 Sym. Ops., with inversion, found



   Cartesian axes

     site n.     atom                  positions (alat units)
         1           O   tau(   1) = (  -0.3770743   0.2902011   0.9939998  )
         2           O   tau(   2) = (   0.6100120   0.4314735   0.1832201  )
         3           C   tau(   3) = (  -0.3815397   0.3229804   0.8064987  )
         4           C   tau(   4) = (   0.6144774   0.3986942   0.3707212  )
         5           C   tau(   5) = (   0.6127878   0.1496277   0.6585439  )
         6           C   tau(   6) = (  -0.3798501   0.5720469   0.5186759  )
         7           C   tau(   7) = (   0.6131227   0.1858079   0.4516157  )
         8           C   tau(   8) = (  -0.3801850   0.5358666   0.7256042  )
         9           C   tau(   9) = (   0.6130393  -0.0636827   0.7402258  )
        10           C   tau(  10) = (  -0.3801016   0.7853573   0.4369941  )
        11           C   tau(  11) = (   0.6160684   0.0121186   0.3022562  )
        12           C   tau(  12) = (  -0.3831306   0.7095560   0.8749637  )
        13           H   tau(  13) = (  -0.2468932  -0.1439070   0.6884985  )
        14           H   tau(  14) = (   0.4798310   0.8655816   0.4887213  )
        15           H   tau(  15) = (  -0.3919555  -0.0637811   0.9083986  )
        16           H   tau(  16) = (   0.6248932   0.7854557   0.2688212  )
        17           H   tau(  17) = (   0.4828908  -0.1527687   0.6796271  )
        18           H   tau(  18) = (  -0.2499530   0.8744433   0.4975928  )
        19           H   tau(  19) = (   0.6065954   0.0684354   0.1441031  )
        20           H   tau(  20) = (  -0.3736577   0.6532392   1.0331168  )
        21           H   tau(  21) = (   0.7591359  -0.0764114   0.3211997  )
        22           H   tau(  22) = (  -0.5261981   0.7980860   0.8560201  )
        23           H   tau(  23) = (   0.4882923  -0.0946340   0.3330079  )
        24           H   tau(  24) = (  -0.2553546   0.8163086   0.8442120  )
        25           O   tau(  25) = (   0.0995421  -0.0425907   0.5114914  )
        26           O   tau(  26) = (   0.1333956   0.7642653   0.6657284  )
        27           C   tau(  27) = (   0.1119306   0.1438266   0.5471995  )
        28           C   tau(  28) = (   0.1210071   0.5778480   0.6300204  )
        29           C   tau(  29) = (   0.1185930   0.2207023   0.7618960  )
        30           C   tau(  30) = (   0.1143447   0.5009723   0.4153239  )
        31           C   tau(  31) = (   0.1171772   0.4271503   0.8008006  )
        32           C   tau(  32) = (   0.1157605   0.2945243   0.3764192  )
        33           C   tau(  33) = (   0.1218892   0.0690101   0.9324273  )
        34           C   tau(  34) = (   0.1110485   0.6526645   0.2447925  )
        35           C   tau(  35) = (   0.1133572   0.5057587   1.0158810  )
        36           C   tau(  36) = (   0.1195805   0.2159159   0.1613389  )
        37           H   tau(  37) = (  -0.0149972   0.0863924   1.0308082  )
        38           H   tau(  38) = (   0.2479349   0.6352822   0.1464117  )
        39           H   tau(  39) = (   0.1286924  -0.0886439   0.8743930  )
        40           H   tau(  40) = (   0.1042453   0.8103185   0.3028268  )
        41           H   tau(  41) = (   0.2544308   0.0963524   1.0340552  )
        42           H   tau(  42) = (  -0.0214931   0.6253222   0.1431647  )
        43           H   tau(  43) = (   0.1097349   0.6738179   1.0191857  )
        44           H   tau(  44) = (   0.1232029   0.0478567   0.1580341  )
        45           H   tau(  45) = (  -0.0224747   0.4445428   1.0961118  )
        46           H   tau(  46) = (   0.2554124   0.2771317   0.0811081  )
        47           H   tau(  47) = (   0.2493894   0.4510996   1.1007744  )
        48           H   tau(  48) = (  -0.0164517   0.2705750   0.0764455  )

     number of k points=     8
                       cart. coord. in units 2pi/alat
        k(    1) = (   0.0000000   0.0000000   0.0000000), wk =   0.1666667
        k(    2) = (   0.0000000   0.0000000  -0.4247295), wk =   0.1666667
        k(    3) = (   0.0000000  -0.3856640  -0.1883048), wk =   0.1666667
        k(    4) = (   0.0000000  -0.3856640  -0.6130343), wk =   0.1666667
        k(    5) = (   0.3333333   0.0788151   0.1688797), wk =   0.3333333
        k(    6) = (   0.3333333   0.0788151  -0.2558498), wk =   0.3333333
        k(    7) = (   0.3333333  -0.3068489  -0.0194250), wk =   0.3333333
        k(    8) = (   0.3333333  -0.3068489  -0.4441545), wk =   0.3333333

     Dense  grid:   384797 G-vectors     FFT dimensions: (  80, 108, 120)

     Estimated max dynamical RAM per process >     174.00MB

     Estimated total allocated dynamical RAM >    1392.04MB

     Check: negative/imaginary core charge=   -0.000002    0.000000

     Initial potential from superposition of free atoms

     starting charge  127.99893, renormalised to  128.00000
     Starting wfc are  120 randomized atomic wfcs
     Checking if some PAW data can be deallocated... 

     total cpu time spent up to now is       12.2 secs

     per-process dynamical memory:   191.6 Mb

     Self-consistent Calculation

     iteration #  1     ecut=   100.00 Ry     beta=0.50
     Davidson diagonalization with overlap
     ethr =  1.00E-02,  avg # of iterations =  4.0

     total cpu time spent up to now is       30.2 secs

     total energy              =    -563.03704024 Ry
     Harris-Foulkes estimate   =    -565.77903516 Ry
     estimated scf accuracy    <       5.20423769 Ry

     iteration #  2     ecut=   100.00 Ry     beta=0.50
     Davidson diagonalization with overlap
     ethr =  4.07E-03,  avg # of iterations =  2.0

     total cpu time spent up to now is       40.6 secs

     total energy              =    -563.17196004 Ry
     Harris-Foulkes estimate   =    -563.55439328 Ry
     estimated scf accuracy    <       0.71878777 Ry

     iteration #  3     ecut=   100.00 Ry     beta=0.50
     Davidson diagonalization with overlap
     ethr =  5.62E-04,  avg # of iterations =  5.0

     total cpu time spent up to now is       60.5 secs

     total energy              =    -563.88615373 Ry
     Harris-Foulkes estimate   =    -564.31632472 Ry
     estimated scf accuracy    <       1.36470041 Ry

     iteration #  4     ecut=   100.00 Ry     beta=0.50
     Davidson diagonalization with overlap
     ethr =  5.62E-04,  avg # of iterations =  1.1

     total cpu time spent up to now is       70.1 secs

     total energy              =    -563.60689252 Ry
     Harris-Foulkes estimate   =    -563.95052025 Ry
     estimated scf accuracy    <       0.47932153 Ry

     iteration #  5     ecut=   100.00 Ry     beta=0.50
     Davidson diagonalization with overlap
     ethr =  3.74E-04,  avg # of iterations =  4.1

     total cpu time spent up to now is       89.3 secs

     total energy              =    -563.82264977 Ry
     Harris-Foulkes estimate   =    -564.20988053 Ry
     estimated scf accuracy    <       0.87815613 Ry

     iteration #  6     ecut=   100.00 Ry     beta=0.50
     Davidson diagonalization with overlap
     ethr =  3.74E-04,  avg # of iterations =  2.0

     total cpu time spent up to now is       99.4 secs

     total energy              =    -563.74580794 Ry
     Harris-Foulkes estimate   =    -563.86492079 Ry
     estimated scf accuracy    <       0.20493077 Ry

     iteration #  7     ecut=   100.00 Ry     beta=0.50
     Davidson diagonalization with overlap
     ethr =  1.60E-04,  avg # of iterations =  5.0

     total cpu time spent up to now is      117.8 secs

     total energy              =    -563.95230370 Ry
     Harris-Foulkes estimate   =    -563.98560904 Ry
     estimated scf accuracy    <       0.17112353 Ry

     iteration #  8     ecut=   100.00 Ry     beta=0.50
     Davidson diagonalization with overlap
     ethr =  1.34E-04,  avg # of iterations =  1.0

     total cpu time spent up to now is      127.4 secs

     total energy              =    -563.89993361 Ry
     Harris-Foulkes estimate   =    -563.95362481 Ry
     estimated scf accuracy    <       0.11267361 Ry

     iteration #  9     ecut=   100.00 Ry     beta=0.50
     Davidson diagonalization with overlap
     ethr =  8.80E-05,  avg # of iterations =  2.8

     total cpu time spent up to now is      137.6 secs

     total energy              =    -563.90788573 Ry
     Harris-Foulkes estimate   =    -563.90953742 Ry
     estimated scf accuracy    <       0.01722618 Ry

     iteration # 10     ecut=   100.00 Ry     beta=0.50
     Davidson diagonalization with overlap
     ethr =  1.35E-05,  avg # of iterations =  4.9

     total cpu time spent up to now is      156.2 secs

     total energy              =    -563.93094931 Ry
     Harris-Foulkes estimate   =    -563.93264862 Ry
     estimated scf accuracy    <       0.00392051 Ry

     iteration # 11     ecut=   100.00 Ry     beta=0.50
     Davidson diagonalization with overlap
     ethr =  3.06E-06,  avg # of iterations =  1.6

     total cpu time spent up to now is      165.9 secs

     total energy              =    -563.93073559 Ry
     Harris-Foulkes estimate   =    -563.93114438 Ry
     estimated scf accuracy    <       0.00106198 Ry

     iteration # 12     ecut=   100.00 Ry     beta=0.50
     Davidson diagonalization with overlap
     ethr =  8.30E-07,  avg # of iterations =  4.9

     total cpu time spent up to now is      182.7 secs

     total energy              =    -563.93143215 Ry
     Harris-Foulkes estimate   =    -563.93155660 Ry
     estimated scf accuracy    <       0.00029019 Ry

     iteration # 13     ecut=   100.00 Ry     beta=0.50
     Davidson diagonalization with overlap
     ethr =  2.27E-07,  avg # of iterations =  1.5

     total cpu time spent up to now is      192.5 secs

     total energy              =    -563.93138155 Ry
     Harris-Foulkes estimate   =    -563.93144683 Ry
     estimated scf accuracy    <       0.00008772 Ry

     iteration # 14     ecut=   100.00 Ry     beta=0.50
     Davidson diagonalization with overlap
     ethr =  6.85E-08,  avg # of iterations =  4.0

     total cpu time spent up to now is      210.7 secs

     total energy              =    -563.93150507 Ry
     Harris-Foulkes estimate   =    -563.93154107 Ry
     estimated scf accuracy    <       0.00023475 Ry

     iteration # 15     ecut=   100.00 Ry     beta=0.50
     Davidson diagonalization with overlap
     ethr =  6.85E-08,  avg # of iterations =  1.0

     total cpu time spent up to now is      220.2 secs

     total energy              =    -563.93143729 Ry
     Harris-Foulkes estimate   =    -563.93150607 Ry
     estimated scf accuracy    <       0.00016953 Ry

     iteration # 16     ecut=   100.00 Ry     beta=0.50
     Davidson diagonalization with overlap
     ethr =  6.85E-08,  avg # of iterations =  3.8

     total cpu time spent up to now is      231.0 secs

     total energy              =    -563.93144619 Ry
     Harris-Foulkes estimate   =    -563.93144983 Ry
     estimated scf accuracy    <       0.00003375 Ry

     iteration # 17     ecut=   100.00 Ry     beta=0.50
     Davidson diagonalization with overlap
     ethr =  2.64E-08,  avg # of iterations =  5.0

     total cpu time spent up to now is      246.8 secs

     total energy              =    -563.93146764 Ry
     Harris-Foulkes estimate   =    -563.93146750 Ry
     estimated scf accuracy    <       0.00000076 Ry

     iteration # 18     ecut=   100.00 Ry     beta=0.50
     Davidson diagonalization with overlap
     ethr =  5.97E-10,  avg # of iterations =  3.9

     total cpu time spent up to now is      260.1 secs

     total energy              =    -563.93146820 Ry
     Harris-Foulkes estimate   =    -563.93146791 Ry
     estimated scf accuracy    <       0.00000108 Ry

     iteration # 19     ecut=   100.00 Ry     beta=0.50
     Davidson diagonalization with overlap
     ethr =  5.97E-10,  avg # of iterations =  4.0

     total cpu time spent up to now is      272.8 secs

     total energy              =    -563.93146690 Ry
     Harris-Foulkes estimate   =    -563.93146842 Ry
     estimated scf accuracy    <       0.00000259 Ry

     iteration # 20     ecut=   100.00 Ry     beta=0.50
     Davidson diagonalization with overlap
     ethr =  5.97E-10,  avg # of iterations =  4.0

     total cpu time spent up to now is      289.9 secs

     total energy              =    -563.93146759 Ry
     Harris-Foulkes estimate   =    -563.93146763 Ry
     estimated scf accuracy    <       0.00000018 Ry

     iteration # 21     ecut=   100.00 Ry     beta=0.50
     Davidson diagonalization with overlap
     ethr =  1.44E-10,  avg # of iterations =  1.0

     total cpu time spent up to now is      299.4 secs

     total energy              =    -563.93146756 Ry
     Harris-Foulkes estimate   =    -563.93146760 Ry
     estimated scf accuracy    <       0.00000011 Ry

     iteration # 22     ecut=   100.00 Ry     beta=0.50
     Davidson diagonalization with overlap
     ethr =  8.91E-11,  avg # of iterations =  3.0

     total cpu time spent up to now is      310.1 secs

     total energy              =    -563.93146757 Ry
     Harris-Foulkes estimate   =    -563.93146757 Ry
     estimated scf accuracy    <       0.00000003 Ry

     iteration # 23     ecut=   100.00 Ry     beta=0.50
     Davidson diagonalization with overlap
     ethr =  2.41E-11,  avg # of iterations =  4.0

     total cpu time spent up to now is      322.2 secs

     total energy              =    -563.93146758 Ry
     Harris-Foulkes estimate   =    -563.93146758 Ry
     estimated scf accuracy    <       0.00000002 Ry

     iteration # 24     ecut=   100.00 Ry     beta=0.50
     Davidson diagonalization with overlap
     ethr =  1.74E-11,  avg # of iterations =  1.4

     total cpu time spent up to now is      331.9 secs

     total energy              =    -563.93146758 Ry
     Harris-Foulkes estimate   =    -563.93146758 Ry
     estimated scf accuracy    <       0.00000002 Ry

     iteration # 25     ecut=   100.00 Ry     beta=0.50
     Davidson diagonalization with overlap
     ethr =  1.58E-11,  avg # of iterations =  1.6

     total cpu time spent up to now is      341.5 secs

     total energy              =    -563.93146757 Ry
     Harris-Foulkes estimate   =    -563.93146758 Ry
     estimated scf accuracy    <       0.00000001 Ry

     iteration # 26     ecut=   100.00 Ry     beta=0.50
     Davidson diagonalization with overlap
     ethr =  1.03E-11,  avg # of iterations =  4.5

     total cpu time spent up to now is      355.2 secs

     End of self-consistent calculation

          k = 0.0000 0.0000 0.0000 ( 48115 PWs)   bands (ev):

   -19.8935 -19.8385 -19.8223 -19.7973 -15.1768 -14.9474 -14.1119 -14.0977
   -12.0906 -12.0855 -12.0075 -11.7544 -11.5606 -11.2460  -9.7580  -9.6770
    -9.6117  -9.5543  -7.6958  -7.6777  -7.5330  -7.5056  -6.7500  -6.7028
    -5.9321  -5.5392  -5.0165  -4.9369  -4.8925  -4.7912  -4.5876  -4.4472
    -4.0221  -3.9682  -3.7672  -3.7167  -3.5965  -3.5467  -3.5455  -3.5164
    -3.4881  -3.4797  -3.4078  -3.3260  -3.0485  -2.9715  -2.9520  -2.8899
    -2.8824  -2.8352  -2.7569  -2.6057  -2.5736  -2.4424  -2.2446  -2.0924
    -1.0548  -0.2042  -0.1232  -0.0457  -0.0200   0.0821   0.3461   0.3874
     2.4097   2.4573   4.3180   5.1922   5.7104   5.7733   6.2080   7.3093
     7.5862   7.8085   7.8484   7.9171

          k = 0.0000 0.0000-0.4247 ( 48090 PWs)   bands (ev):

   -19.8921 -19.8384 -19.8224 -19.7987 -15.1782 -14.9420 -14.1267 -14.1027
   -12.0731 -12.0604 -12.0266 -11.7544 -11.4492 -11.2700  -9.9601  -9.7666
    -9.5840  -9.5043  -7.6776  -7.5889  -7.5261  -7.4730  -6.7533  -6.7225
    -5.9772  -5.2840  -5.1301  -4.9130  -4.7933  -4.6699  -4.6141  -4.3600
    -4.0906  -4.0815  -3.9862  -3.7637  -3.6965  -3.6739  -3.5348  -3.4566
    -3.4387  -3.3460  -3.3255  -3.2637  -3.1172  -3.0384  -2.9737  -2.9440
    -2.9096  -2.8906  -2.8310  -2.6698  -2.5758  -2.3331  -2.1232  -2.1109
    -1.1304  -0.1396  -0.0386  -0.0111   0.0203   0.0804   0.3439   0.3786
     2.4017   2.4534   4.3137   5.1045   5.6006   6.2399   6.4056   6.5334
     7.2988   7.6352   7.9485   8.1658

          k = 0.0000-0.3857-0.1883 ( 48134 PWs)   bands (ev):

   -19.8905 -19.8384 -19.8253 -19.7974 -15.1765 -14.9398 -14.1233 -14.1165
   -12.0657 -12.0515 -12.0469 -11.7609 -11.4353 -11.2356  -9.9611  -9.7597
    -9.5989  -9.5291  -7.6836  -7.6014  -7.5380  -7.4909  -6.7546  -6.7335
    -5.9535  -5.2910  -5.0776  -4.9513  -4.7910  -4.6802  -4.5834  -4.3311
    -4.1227  -4.0154  -3.9763  -3.7774  -3.6903  -3.6028  -3.5357  -3.4505
    -3.4319  -3.3654  -3.3175  -3.2635  -3.1015  -3.0834  -2.9655  -2.9132
    -2.9123  -2.9000  -2.7996  -2.7248  -2.4689  -2.4280  -2.2277  -2.1152
    -1.0941  -0.1994  -0.0347  -0.0299  -0.0056   0.0396   0.3483   0.3847
     2.4328   2.4518   4.3467   5.1457   5.6857   6.2043   6.4456   6.4914
     7.3452   7.7534   7.9392   8.0985

          k = 0.0000-0.3857-0.6130 ( 48114 PWs)   bands (ev):

   -19.8895 -19.8384 -19.8253 -19.7986 -15.1832 -14.9324 -14.1273 -14.1064
   -12.1045 -12.0584 -12.0373 -11.7491 -11.4218 -11.2529  -9.9104  -9.7782
    -9.6037  -9.4950  -7.6705  -7.6363  -7.6039  -7.4736  -6.7681  -6.7162
    -5.9983  -5.2468  -5.1066  -4.8302  -4.7963  -4.7479  -4.5263  -4.2037
    -4.1471  -4.0681  -3.8457  -3.7577  -3.6676  -3.6375  -3.5832  -3.5758
    -3.4739  -3.4033  -3.3834  -3.2237  -3.1468  -3.0429  -2.9773  -2.9518
    -2.8797  -2.8694  -2.7764  -2.7163  -2.7140  -2.3452  -2.1509  -2.0865
    -1.1650  -0.0418  -0.0192  -0.0126   0.0250   0.0644   0.3384   0.3835
     2.3949   2.4623   4.3227   5.0454   5.6232   6.2291   6.5161   6.5901
     7.5218   7.5487   7.8599   7.9987

          k = 0.3333 0.0788 0.1689 ( 48074 PWs)   bands (ev):

   -19.8831 -19.8474 -19.8220 -19.7974 -15.1241 -15.0096 -14.1198 -14.1015
   -12.0912 -12.0632 -11.9707 -11.8185 -11.4665 -11.3053  -9.7750  -9.7003
    -9.6647  -9.5994  -7.6393  -7.6000  -7.5512  -7.5247  -6.7618  -6.7324
    -5.5507  -5.4085  -5.0707  -4.7473  -4.7017  -4.5817  -4.5533  -4.4990
    -4.4110  -4.2028  -3.8307  -3.7326  -3.6922  -3.6866  -3.5793  -3.5356
    -3.5181  -3.4848  -3.3588  -3.3044  -3.1529  -3.0463  -3.0108  -2.9712
    -2.9542  -2.9049  -2.6460  -2.6175  -2.4440  -2.3713  -2.2092  -2.1246
    -0.8706  -0.3171  -0.0620  -0.0270  -0.0103   0.0341   0.3553   0.3770
     2.2081   2.2348   4.6165   5.2338   5.4159   5.8804   6.4405   7.0622
     7.6433   7.7486   7.8198   8.0527

          k = 0.3333 0.0788-0.2558 ( 48101 PWs)   bands (ev):

   -19.8827 -19.8474 -19.8219 -19.7978 -15.1257 -15.0081 -14.1203 -14.0997
   -12.0724 -12.0604 -11.9775 -11.8463 -11.4336 -11.3390  -9.8107  -9.7026
    -9.6142  -9.5739  -7.6578  -7.6007  -7.5564  -7.5429  -6.7562  -6.7325
    -5.5979  -5.3045  -5.1447  -4.7888  -4.7473  -4.5769  -4.4754  -4.4275
    -4.3290  -4.2229  -3.8535  -3.8229  -3.7459  -3.6411  -3.6101  -3.5553
    -3.5105  -3.4602  -3.4183  -3.2014  -3.0806  -3.0634  -3.0360  -2.9691
    -2.9301  -2.9105  -2.6553  -2.6221  -2.5029  -2.4125  -2.1521  -2.1432
    -0.9213  -0.2961  -0.0466  -0.0139   0.0080   0.0746   0.3541   0.3799
     2.2079   2.2331   4.5916   5.2286   5.3421   5.9037   6.5645   7.0692
     7.4760   7.6473   7.8231   8.0155

          k = 0.3333-0.3068-0.0194 ( 48086 PWs)   bands (ev):

   -19.8807 -19.8473 -19.8246 -19.7973 -15.1236 -15.0053 -14.1189 -14.1155
   -12.0667 -12.0541 -11.9896 -11.8547 -11.4098 -11.2960  -9.8245  -9.7161
    -9.6249  -9.6078  -7.6544  -7.6036  -7.5663  -7.5599  -6.7548  -6.7456
    -5.5566  -5.2705  -5.1222  -4.8455  -4.7764  -4.5831  -4.4612  -4.3638
    -4.2582  -4.1300  -3.8806  -3.7833  -3.7587  -3.6637  -3.5989  -3.5798
    -3.5106  -3.4510  -3.4351  -3.1892  -3.1123  -3.0727  -3.0512  -2.9696
    -2.9205  -2.9052  -2.7131  -2.6851  -2.4538  -2.4479  -2.1807  -2.1442
    -0.9133  -0.3445  -0.0334  -0.0262  -0.0090   0.0991   0.3532   0.3815
     2.2262   2.2452   4.6035   5.2519   5.3614   5.8697   6.6453   7.0720
     7.5021   7.7599   7.8551   7.9243

          k = 0.3333-0.3068-0.4442 ( 48101 PWs)   bands (ev):

   -19.8803 -19.8472 -19.8245 -19.7978 -15.1260 -15.0008 -14.1266 -14.1163
   -12.0755 -12.0577 -11.9972 -11.8215 -11.3755 -11.2865  -9.8160  -9.7882
    -9.6934  -9.5898  -7.6190  -7.5860  -7.5786  -7.5235  -6.7722  -6.7449
    -5.5725  -5.1841  -5.1618  -4.8066  -4.6819  -4.6063  -4.4326  -4.3657
    -4.2743  -4.1593  -3.8959  -3.8021  -3.7154  -3.6824  -3.5946  -3.5533
    -3.4998  -3.4536  -3.4303  -3.2736  -3.1622  -3.1074  -3.0839  -2.9974
    -2.9629  -2.9380  -2.7300  -2.6621  -2.4797  -2.3354  -2.1744  -2.1390
    -0.9647  -0.3388  -0.0365  -0.0099   0.0804   0.1047   0.3571   0.3788
     2.2152   2.2640   4.6059   5.2061   5.2898   5.8854   6.9458   6.9963
     7.5334   7.6390   7.8251   8.0060

     highest occupied, lowest unoccupied level (ev):     0.3874    2.2079

!    total energy              =    -563.93146757 Ry
     Harris-Foulkes estimate   =    -563.93146757 Ry
     estimated scf accuracy    <          4.8E-10 Ry

     total all-electron energy =     -2154.600962 Ry

     The total energy is the sum of the following terms:

     one-electron contribution =    -336.05904085 Ry
     hartree contribution      =     215.68058893 Ry
     xc contribution           =    -129.37435905 Ry
     ewald contribution        =    -142.79176492 Ry
     Dispersion Correction     =      -0.24037105 Ry
     one-center paw contrib.   =    -171.14652063 Ry

     convergence has been achieved in  26 iterations

     Forces acting on atoms (cartesian axes, Ry/au):

     atom    1 type  4   force =    -0.00107425    0.00116433   -0.00298412
     atom    2 type  4   force =     0.00107425   -0.00116433    0.00298412
     atom    3 type  1   force =    -0.00095278    0.00079218   -0.00114798
     atom    4 type  1   force =     0.00095278   -0.00079218    0.00114798
     atom    5 type  1   force =     0.00110826    0.00253033   -0.00751767
     atom    6 type  1   force =    -0.00110826   -0.00253033    0.00751767
     atom    7 type  1   force =     0.00060305   -0.00235352    0.00592327
     atom    8 type  1   force =    -0.00060305    0.00235352   -0.00592327
     atom    9 type  1   force =     0.00241290   -0.00311624    0.00287011
     atom   10 type  1   force =    -0.00241290    0.00311624   -0.00287011
     atom   11 type  1   force =    -0.00153004   -0.00087767   -0.00138613
     atom   12 type  1   force =     0.00153004    0.00087767    0.00138613
     atom   13 type  3   force =    -0.00091001    0.00077901    0.00140548
     atom   14 type  3   force =     0.00091001   -0.00077901   -0.00140548
     atom   15 type  3   force =     0.00016948   -0.00111571   -0.00093936
     atom   16 type  3   force =    -0.00016948    0.00111571    0.00093936
     atom   17 type  3   force =     0.00005870    0.00086108    0.00035629
     atom   18 type  3   force =    -0.00005870   -0.00086108   -0.00035629
     atom   19 type  3   force =    -0.00039805   -0.00093671    0.00021588
     atom   20 type  3   force =     0.00039805    0.00093671   -0.00021588
     atom   21 type  3   force =     0.00000713   -0.00025451   -0.00019509
     atom   22 type  3   force =    -0.00000713    0.00025451    0.00019509
     atom   23 type  3   force =     0.00063416    0.00125316   -0.00073102
     atom   24 type  3   force =    -0.00063416   -0.00125316    0.00073102
     atom   25 type  4   force =     0.00297931   -0.00001771    0.00004579
     atom   26 type  4   force =    -0.00297931    0.00001771   -0.00004579
     atom   27 type  1   force =     0.00049414    0.00331378    0.00121070
     atom   28 type  1   force =    -0.00049414   -0.00331378   -0.00121070
     atom   29 type  1   force =    -0.00124075    0.00827623   -0.00164961
     atom   30 type  1   force =     0.00124075   -0.00827623    0.00164961
     atom   31 type  1   force =     0.00012169   -0.00641517   -0.00045715
     atom   32 type  1   force =    -0.00012169    0.00641517    0.00045715
     atom   33 type  1   force =    -0.00036050   -0.00305259    0.00447488
     atom   34 type  1   force =     0.00036050    0.00305259   -0.00447488
     atom   35 type  1   force =     0.00169942    0.00053203    0.00142789
     atom   36 type  1   force =    -0.00169942   -0.00053203   -0.00142789
     atom   37 type  3   force =     0.00098113   -0.00035012   -0.00259318
     atom   38 type  3   force =    -0.00098113    0.00035012    0.00259318
     atom   39 type  3   force =    -0.00074893    0.00062081    0.00079820
     atom   40 type  3   force =     0.00074893   -0.00062081   -0.00079820
     atom   41 type  3   force =    -0.00096128   -0.00005358   -0.00183904
     atom   42 type  3   force =     0.00096128    0.00005358    0.00183904
     atom   43 type  3   force =     0.00013009   -0.00071457    0.00033088
     atom   44 type  3   force =    -0.00013009    0.00071457   -0.00033088
     atom   45 type  3   force =     0.00011751    0.00056800    0.00062844
     atom   46 type  3   force =    -0.00011751   -0.00056800   -0.00062844
     atom   47 type  3   force =    -0.00056137    0.00044937   -0.00048308
     atom   48 type  3   force =     0.00056137   -0.00044937    0.00048308

     Total force =     0.026250     Total SCF correction =     0.000039


     Computing stress (Cartesian axis) and pressure

          total   stress  (Ry/bohr**3)                   (kbar)     P=   -7.69
  -0.00010335  -0.00000275   0.00000028        -15.20     -0.40      0.04
  -0.00000275  -0.00001978  -0.00000708         -0.40     -2.91     -1.04
   0.00000028  -0.00000708  -0.00003371          0.04     -1.04     -4.96


     Writing output data file scf.save
 
     init_run     :     11.16s CPU     11.52s WALL (       1 calls)
     electrons    :    329.54s CPU    343.29s WALL (       1 calls)
     forces       :      6.17s CPU      6.21s WALL (       1 calls)
     stress       :     15.60s CPU     15.61s WALL (       1 calls)

     Called by init_run:
     wfcinit      :      5.37s CPU      5.64s WALL (       1 calls)
     potinit      :      2.06s CPU      2.10s WALL (       1 calls)

     Called by electrons:
     c_bands      :    277.57s CPU    290.26s WALL (      26 calls)
     sum_band     :     41.10s CPU     41.80s WALL (      26 calls)
     v_of_rho     :      1.79s CPU      1.96s WALL (      27 calls)
     newd         :      2.96s CPU      3.01s WALL (      27 calls)
     PAW_pot      :      5.51s CPU      5.51s WALL (      27 calls)
     mix_rho      :      0.42s CPU      0.45s WALL (      26 calls)

     Called by c_bands:
     init_us_2    :      3.50s CPU      3.50s WALL (     440 calls)
     cegterg      :    266.49s CPU    279.15s WALL (     208 calls)

     Called by sum_band:
     sum_band:bec :      0.03s CPU      0.03s WALL (     208 calls)
     addusdens    :      3.20s CPU      3.25s WALL (      26 calls)

     Called by *egterg:
     h_psi        :    193.48s CPU    205.32s WALL (     864 calls)
     s_psi        :     18.18s CPU     18.18s WALL (     864 calls)
     g_psi        :      1.42s CPU      1.43s WALL (     648 calls)
     cdiaghg      :     11.54s CPU     11.54s WALL (     856 calls)

     Called by h_psi:
     h_psi:pot    :    191.98s CPU    203.80s WALL (     864 calls)
     h_psi:calbec :     16.35s CPU     16.45s WALL (     864 calls)
     vloc_psi     :    157.52s CPU    169.25s WALL (     864 calls)
     add_vuspsi   :     18.11s CPU     18.11s WALL (     864 calls)

     General routines
     calbec       :     23.22s CPU     23.34s WALL (    1112 calls)
     fft          :      0.96s CPU      1.24s WALL (     375 calls)
     fftw         :    170.83s CPU    182.31s WALL (  104860 calls)
 
     Parallel routines
     fft_scatter  :     37.24s CPU     44.67s WALL (  105235 calls)
 
     PWSCF        :  6m 5.21s CPU     6m20.06s WALL

 
   This run was terminated on:   0:45:22   4Nov2017            

=------------------------------------------------------------------------------=
   JOB DONE.
=------------------------------------------------------------------------------=
