
     Program PWSCF v.6.1 (svn rev. 13369) starts on 12Nov2017 at  0: 0:16 

     This program is part of the open-source Quantum ESPRESSO suite
     for quantum simulation of materials; please cite
         "P. Giannozzi et al., J. Phys.:Condens. Matter 21 395502 (2009);
          URL http://www.quantum-espresso.org", 
     in publications or presentations arising from this work. More details at
     http://www.quantum-espresso.org/quote

     Parallel version (MPI), running on     8 processors
     R & G space division:  proc/nbgrp/npool/nimage =       8
     Waiting for input...
     Reading input from standard input

     Current dimensions of program PWSCF are:
     Max number of different atomic species (ntypx) = 10
     Max number of k-points (npk) =  40000
     Max angular momentum in pseudopotentials (lmaxx) =  3
               file C.pbe-n-kjpaw_psl.0.1.UPF: wavefunction(s)  2P renormalized
               file N.pbe-n-kjpaw_psl.0.1.UPF: wavefunction(s)  2P renormalized
               file H.pbe-kjpaw_psl.0.1.UPF: wavefunction(s)  1S renormalized
               file O.pbe-n-kjpaw_psl.0.1.UPF: wavefunction(s)  2P renormalized

     -------------------------------------
     Parameters for Dispersion Correction:
     -------------------------------------
       atom      VdW radius       C_6     

        C          2.744         60.710
        N          2.640         42.670
        H          1.892          4.857
        O          2.536         24.284

     Subspace diagonalization in iterative solution of the eigenvalue problem:
     a serial algorithm will be used

 
     Parallelization info
     --------------------
     sticks:   dense  smooth     PW     G-vecs:    dense   smooth      PW
     Min         533     533    144                42718    42718    5980
     Max         534     534    145                42720    42720    5982
     Sum        4271    4271   1157               341753   341753   47849
 


     bravais-lattice index     =            0
     lattice parameter (alat)  =      10.4823  a.u.
     unit-cell volume          =    2529.6048 (a.u.)^3
     number of atoms/cell      =           44
     number of atomic types    =            4
     number of electrons       =       124.00
     number of Kohn-Sham states=           74
     kinetic-energy cutoff     =     100.0000  Ry
     charge density cutoff     =     400.0000  Ry
     convergence threshold     =      1.0E-08
     mixing beta               =       0.5000
     number of iterations used =            8  plain     mixing
     Exchange-correlation      =  SLA  PW   PBX  PBC ( 1  4  3  4 0 0)

     celldm(1)=  10.482311  celldm(2)=   0.000000  celldm(3)=   0.000000
     celldm(4)=   0.000000  celldm(5)=   0.000000  celldm(6)=   0.000000

     crystal axes: (cart. coord. in units of alat)
               a(1) = (   1.000000   0.000000   0.000000 )  
               a(2) = (   0.000000   1.219578   0.000000 )  
               a(3) = (  -0.049767   0.000000   1.800827 )  

     reciprocal axes: (cart. coord. in units 2 pi/alat)
               b(1) = (  1.000000  0.000000  0.027636 )  
               b(2) = (  0.000000  0.819956  0.000000 )  
               b(3) = (  0.000000  0.000000  0.555300 )  


     PseudoPot. # 1 for  C read from file:
     /scratch/ahofstet/pseudo/C.pbe-n-kjpaw_psl.0.1.UPF
     MD5 check sum: 430fe95172b1e11ef3f8ed03bac87931
     Pseudo is Projector augmented-wave + core cor, Zval =  4.0
     Generated using "atomic" code by A. Dal Corso  v.5.0.99 svn rev. 10869
     Shape of augmentation charge: BESSEL
     Using radial grid of 1073 points,  4 beta functions with: 
                l(1) =   0
                l(2) =   0
                l(3) =   1
                l(4) =   1
     Q(r) pseudized with 0 coefficients 


     PseudoPot. # 2 for  N read from file:
     /scratch/ahofstet/pseudo/N.pbe-n-kjpaw_psl.0.1.UPF
     MD5 check sum: f73187c8b701007e77325f868c9291d7
     Pseudo is Projector augmented-wave + core cor, Zval =  5.0
     Generated using "atomic" code by A. Dal Corso  v.5.0.99 svn rev. 10869
     Shape of augmentation charge: PSQ
     Using radial grid of 1085 points,  4 beta functions with: 
                l(1) =   0
                l(2) =   0
                l(3) =   1
                l(4) =   1
     Q(r) pseudized with 0 coefficients 


     PseudoPot. # 3 for  H read from file:
     /scratch/ahofstet/pseudo/H.pbe-kjpaw_psl.0.1.UPF
     MD5 check sum: 94e484f906d9e9773b2f6e52662335b2
     Pseudo is Projector augmented-wave, Zval =  1.0
     Generated using "atomic" code by A. Dal Corso  v.5.0.99 svn rev. 10869
     Shape of augmentation charge: PSQ
     Using radial grid of  929 points,  2 beta functions with: 
                l(1) =   0
                l(2) =   0
     Q(r) pseudized with 0 coefficients 


     PseudoPot. # 4 for  O read from file:
     /scratch/ahofstet/pseudo/O.pbe-n-kjpaw_psl.0.1.UPF
     MD5 check sum: 3f94a2996a3169367d6eb21d9b593f20
     Pseudo is Projector augmented-wave + core cor, Zval =  6.0
     Generated using "atomic" code by A. Dal Corso  v.5.0.99 svn rev. 10869
     Shape of augmentation charge: BESSEL
     Using radial grid of 1095 points,  4 beta functions with: 
                l(1) =   0
                l(2) =   0
                l(3) =   1
                l(4) =   1
     Q(r) pseudized with 0 coefficients 


     atomic species   valence    mass     pseudopotential
        C              4.00    12.01070      C( 1.00)
        N              5.00    14.00670      N( 1.00)
        H              1.00     1.00794      H( 1.00)
        O              6.00    15.99940      O( 1.00)

     No symmetry found
          (note:  1 additional sym.ops. were found but ignored
           their fractional translations are incommensurate with FFT grid)


   Cartesian axes

     site n.     atom                  positions (alat units)
         1           C   tau(   1) = (   0.6637192   0.9707284   0.1297222  )
         2           C   tau(   2) = (   0.2865138   0.3609393   1.6711046  )
         3           C   tau(   3) = (   0.4556096   0.9337161   0.4777048  )
         4           C   tau(   4) = (   0.4946235   0.3239270   1.3231220  )
         5           H   tau(   5) = (   0.4662376   0.7726358   0.5914177  )
         6           H   tau(   6) = (   0.4839955   0.1628467   1.2094091  )
         7           H   tau(   7) = (   0.2816880   1.0261970   0.5055182  )
         8           H   tau(   8) = (   0.6685451   0.4164080   1.2953086  )
         9           C   tau(   9) = (   0.6743562   1.1037669   0.5046935  )
        10           C   tau(  10) = (   0.2758769   0.4939778   1.2961333  )
        11           H   tau(  11) = (   0.6179466   0.0660708   0.5584712  )
        12           H   tau(  12) = (   0.3322865   0.6758598   1.2423556  )
        13           H   tau(  13) = (   0.8067013   1.0354989   0.6368290  )
        14           H   tau(  14) = (   0.1435317   0.4257098   1.1639978  )
        15           O   tau(  15) = (   0.1329545   1.0904195   1.2355666  )
        16           O   tau(  16) = (   0.8172786   0.4806304   0.5652602  )
        17           O   tau(  17) = (   0.4681334   0.8554395   0.2270590  )
        18           O   tau(  18) = (   0.4820996   0.2456504   1.5737678  )
        19           O   tau(  19) = (   0.7735964   0.9074095   1.1715411  )
        20           O   tau(  20) = (   0.1766367   0.2976204   0.6292857  )
        21           N   tau(  21) = (   0.7871087   1.1116835   0.2641145  )
        22           N   tau(  22) = (   0.1631244   0.5018945   1.5367123  )
        23           C   tau(  23) = (   0.6578398   0.9169329   1.6708413  )
        24           C   tau(  24) = (   0.2923933   0.3071438   0.1299855  )
        25           H   tau(  25) = (   0.4956235   0.9761523   1.5696305  )
        26           H   tau(  26) = (   0.4546096   0.3663632   0.2311963  )
        27           H   tau(  27) = (   0.6718782   0.7202072   1.6479060  )
        28           H   tau(  28) = (   0.2783549   0.1104181   0.1529208  )
        29           C   tau(  29) = (   0.8838033   1.0403204   1.5751213  )
        30           C   tau(  30) = (   0.0664298   0.4305313   0.2257055  )
        31           H   tau(  31) = (   0.8778243   1.2353294   1.6113314  )
        32           H   tau(  32) = (   0.0724088   0.6255403   0.1894954  )
        33           H   tau(  33) = (   0.0476605   0.9702626   1.6655872  )
        34           H   tau(  34) = (   0.9025725   0.3604735   0.1352396  )
        35           C   tau(  35) = (   0.1908890   1.0565975   0.9839249  )
        36           C   tau(  36) = (   0.7593441   0.4468084   0.8169019  )
        37           H   tau(  37) = (   0.1600424   0.8685593   0.9308966  )
        38           H   tau(  38) = (   0.7901907   0.2587702   0.8699302  )
        39           H   tau(  39) = (   0.3826018   1.0992144   0.9669650  )
        40           H   tau(  40) = (   0.5676313   0.4894253   0.8338618  )
        41           H   tau(  41) = (   0.0834132   1.1775750   0.8714730  )
        42           H   tau(  42) = (   0.8668199   0.5677859   0.9293538  )
        43           C   tau(  43) = (   0.9173519   1.0031231   1.3085237  )
        44           C   tau(  44) = (   0.0328812   0.3933340   0.4923031  )

     number of k points=    14
                       cart. coord. in units 2pi/alat
        k(    1) = (   0.0000000   0.0000000   0.0000000), wk =   0.0833333
        k(    2) = (   0.0000000   0.0000000  -0.2776502), wk =   0.0833333
        k(    3) = (   0.0000000   0.2733186   0.0000000), wk =   0.1666667
        k(    4) = (   0.0000000   0.2733186  -0.2776502), wk =   0.1666667
        k(    5) = (   0.2500000   0.0000000   0.0069089), wk =   0.1666667
        k(    6) = (   0.2500000   0.0000000  -0.2707413), wk =   0.1666667
        k(    7) = (   0.2500000   0.2733186   0.0069089), wk =   0.1666667
        k(    8) = (   0.2500000   0.2733186  -0.2707413), wk =   0.1666667
        k(    9) = (  -0.5000000   0.0000000  -0.0138178), wk =   0.0833333
        k(   10) = (  -0.5000000   0.0000000  -0.2914680), wk =   0.0833333
        k(   11) = (  -0.5000000   0.2733186  -0.0138178), wk =   0.1666667
        k(   12) = (  -0.5000000   0.2733186  -0.2914680), wk =   0.1666667
        k(   13) = (  -0.2500000   0.2733186  -0.0069089), wk =   0.1666667
        k(   14) = (  -0.2500000   0.2733186   0.2707413), wk =   0.1666667

     Dense  grid:   341753 G-vectors     FFT dimensions: (  72,  81, 125)

     Estimated max dynamical RAM per process >     184.98MB

     Estimated total allocated dynamical RAM >    1479.80MB

     Check: negative/imaginary core charge=   -0.000002    0.000000

     Initial potential from superposition of free atoms

     starting charge  123.99918, renormalised to  124.00000
     Starting wfc are  110 randomized atomic wfcs
     Checking if some PAW data can be deallocated... 

     total cpu time spent up to now is       13.0 secs

     per-process dynamical memory:   206.9 Mb

     Self-consistent Calculation

     iteration #  1     ecut=   100.00 Ry     beta=0.50
     Davidson diagonalization with overlap
     ethr =  1.00E-02,  avg # of iterations =  3.0

     total cpu time spent up to now is       37.3 secs

     total energy              =    -590.00291400 Ry
     Harris-Foulkes estimate   =    -592.11865707 Ry
     estimated scf accuracy    <       4.17799173 Ry

     iteration #  2     ecut=   100.00 Ry     beta=0.50
     Davidson diagonalization with overlap
     ethr =  3.37E-03,  avg # of iterations =  2.0

     total cpu time spent up to now is       50.8 secs

     total energy              =    -590.23697454 Ry
     Harris-Foulkes estimate   =    -590.53423329 Ry
     estimated scf accuracy    <       0.61862344 Ry

     iteration #  3     ecut=   100.00 Ry     beta=0.50
     Davidson diagonalization with overlap
     ethr =  4.99E-04,  avg # of iterations =  5.9

     total cpu time spent up to now is       77.6 secs

     total energy              =    -590.65710713 Ry
     Harris-Foulkes estimate   =    -590.86957713 Ry
     estimated scf accuracy    <       0.58004153 Ry

     iteration #  4     ecut=   100.00 Ry     beta=0.50
     Davidson diagonalization with overlap
     ethr =  4.68E-04,  avg # of iterations =  1.0

     total cpu time spent up to now is       90.2 secs

     total energy              =    -590.56742746 Ry
     Harris-Foulkes estimate   =    -590.68939070 Ry
     estimated scf accuracy    <       0.18453658 Ry

     iteration #  5     ecut=   100.00 Ry     beta=0.50
     Davidson diagonalization with overlap
     ethr =  1.49E-04,  avg # of iterations =  5.6

     total cpu time spent up to now is      116.4 secs

     total energy              =    -590.71533193 Ry
     Harris-Foulkes estimate   =    -590.78345403 Ry
     estimated scf accuracy    <       0.26528393 Ry

     iteration #  6     ecut=   100.00 Ry     beta=0.50
     Davidson diagonalization with overlap
     ethr =  1.49E-04,  avg # of iterations =  1.0

     total cpu time spent up to now is      129.0 secs

     total energy              =    -590.64589123 Ry
     Harris-Foulkes estimate   =    -590.71956194 Ry
     estimated scf accuracy    <       0.14623732 Ry

     iteration #  7     ecut=   100.00 Ry     beta=0.50
     Davidson diagonalization with overlap
     ethr =  1.18E-04,  avg # of iterations =  4.4

     total cpu time spent up to now is      148.4 secs

     total energy              =    -590.69904720 Ry
     Harris-Foulkes estimate   =    -590.69977126 Ry
     estimated scf accuracy    <       0.00710125 Ry

     iteration #  8     ecut=   100.00 Ry     beta=0.50
     Davidson diagonalization with overlap
     ethr =  5.73E-06,  avg # of iterations = 11.0

     total cpu time spent up to now is      168.8 secs

     total energy              =    -590.69675822 Ry
     Harris-Foulkes estimate   =    -590.69981830 Ry
     estimated scf accuracy    <       0.00567279 Ry

     iteration #  9     ecut=   100.00 Ry     beta=0.50
     Davidson diagonalization with overlap
     ethr =  4.57E-06,  avg # of iterations =  3.7

     total cpu time spent up to now is      183.8 secs

     total energy              =    -590.69742747 Ry
     Harris-Foulkes estimate   =    -590.69755519 Ry
     estimated scf accuracy    <       0.00030459 Ry

     iteration # 10     ecut=   100.00 Ry     beta=0.50
     Davidson diagonalization with overlap
     ethr =  2.46E-07,  avg # of iterations =  4.1

     total cpu time spent up to now is      208.8 secs

     total energy              =    -590.69801880 Ry
     Harris-Foulkes estimate   =    -590.69815961 Ry
     estimated scf accuracy    <       0.00033678 Ry

     iteration # 11     ecut=   100.00 Ry     beta=0.50
     Davidson diagonalization with overlap
     ethr =  2.46E-07,  avg # of iterations =  1.0

     total cpu time spent up to now is      221.3 secs

     total energy              =    -590.69797215 Ry
     Harris-Foulkes estimate   =    -590.69803239 Ry
     estimated scf accuracy    <       0.00009799 Ry

     iteration # 12     ecut=   100.00 Ry     beta=0.50
     Davidson diagonalization with overlap
     ethr =  7.90E-08,  avg # of iterations =  4.0

     total cpu time spent up to now is      244.2 secs

     total energy              =    -590.69804291 Ry
     Harris-Foulkes estimate   =    -590.69807977 Ry
     estimated scf accuracy    <       0.00008580 Ry

     iteration # 13     ecut=   100.00 Ry     beta=0.50
     Davidson diagonalization with overlap
     ethr =  6.92E-08,  avg # of iterations =  1.0

     total cpu time spent up to now is      256.8 secs

     total energy              =    -590.69803187 Ry
     Harris-Foulkes estimate   =    -590.69804621 Ry
     estimated scf accuracy    <       0.00002581 Ry

     iteration # 14     ecut=   100.00 Ry     beta=0.50
     Davidson diagonalization with overlap
     ethr =  2.08E-08,  avg # of iterations =  4.0

     total cpu time spent up to now is      278.8 secs

     total energy              =    -590.69805243 Ry
     Harris-Foulkes estimate   =    -590.69805744 Ry
     estimated scf accuracy    <       0.00001506 Ry

     iteration # 15     ecut=   100.00 Ry     beta=0.50
     Davidson diagonalization with overlap
     ethr =  1.21E-08,  avg # of iterations =  1.0

     total cpu time spent up to now is      291.3 secs

     total energy              =    -590.69804977 Ry
     Harris-Foulkes estimate   =    -590.69805274 Ry
     estimated scf accuracy    <       0.00000669 Ry

     iteration # 16     ecut=   100.00 Ry     beta=0.50
     Davidson diagonalization with overlap
     ethr =  5.40E-09,  avg # of iterations =  3.0

     total cpu time spent up to now is      310.8 secs

     total energy              =    -590.69805268 Ry
     Harris-Foulkes estimate   =    -590.69805275 Ry
     estimated scf accuracy    <       0.00000032 Ry

     iteration # 17     ecut=   100.00 Ry     beta=0.50
     Davidson diagonalization with overlap
     ethr =  2.55E-10,  avg # of iterations =  1.2

     total cpu time spent up to now is      323.4 secs

     total energy              =    -590.69805260 Ry
     Harris-Foulkes estimate   =    -590.69805270 Ry
     estimated scf accuracy    <       0.00000021 Ry

     iteration # 18     ecut=   100.00 Ry     beta=0.50
     Davidson diagonalization with overlap
     ethr =  1.65E-10,  avg # of iterations =  3.0

     total cpu time spent up to now is      341.2 secs

     End of self-consistent calculation

          k = 0.0000 0.0000 0.0000 ( 42715 PWs)   bands (ev):

   -21.3046 -21.2940 -20.5971 -20.5741 -19.0090 -18.9967 -15.8696 -15.8533
   -13.5905 -13.5370 -12.3447 -12.3007 -11.6633 -11.4367  -9.6896  -9.6386
    -9.0814  -9.0586  -7.6486  -7.6274  -6.8014  -6.7920  -6.1657  -6.1204
    -5.9947  -5.7305  -5.5940  -5.5005  -5.3965  -5.3585  -5.1772  -5.1556
    -4.7151  -4.5491  -4.3088  -4.1493  -3.7220  -3.6089  -3.4644  -3.3559
    -3.1064  -3.0487  -2.8544  -2.7379  -2.6546  -2.5075  -2.3910  -2.2775
    -2.1975  -2.1602  -1.9136  -1.9051  -1.5624  -1.4997  -1.0799  -0.6774
    -0.1332  -0.0939   0.1550   0.1590   0.7044   0.7450   5.3042   5.4220
     5.9247   6.1381   6.1868   6.6531   6.8945   7.7284   8.0140   8.1086
     8.4214   8.6851

          k = 0.0000 0.0000-0.2777 ( 42726 PWs)   bands (ev):

   -21.3038 -21.2947 -20.5972 -20.5740 -19.0091 -18.9966 -15.8698 -15.8537
   -13.5532 -13.5207 -12.5367 -12.3974 -11.3910 -11.2609  -9.8781  -9.8158
    -9.1011  -9.0854  -7.4969  -7.3977  -6.8516  -6.8431  -6.1770  -6.0736
    -5.9004  -5.8401  -5.5115  -5.5113  -5.3819  -5.2684  -5.2178  -5.1825
    -4.7570  -4.6995  -4.4747  -4.2058  -3.7454  -3.6319  -3.3619  -3.3443
    -3.1623  -3.1435  -2.7541  -2.6805  -2.6042  -2.4648  -2.3064  -2.3057
    -2.1913  -2.1486  -1.9062  -1.8875  -1.5599  -1.5171  -1.1071  -0.6726
    -0.1236  -0.0985   0.1643   0.1655   0.6978   0.7406   5.1759   5.5401
     5.9208   6.2175   6.2606   6.3344   7.1073   7.2946   7.9171   8.2507
     8.3170   8.8320

          k = 0.0000 0.2733 0.0000 ( 42703 PWs)   bands (ev):

   -21.3015 -21.2962 -20.5917 -20.5802 -19.0060 -18.9998 -15.8663 -15.8581
   -13.5765 -13.5497 -12.3340 -12.3120 -11.6116 -11.4988  -9.6800  -9.6550
    -9.0631  -9.0521  -7.6537  -7.6426  -6.7884  -6.7803  -6.1958  -6.1929
    -6.0089  -5.8541  -5.5474  -5.4493  -5.2872  -5.2712  -5.1601  -5.1375
    -4.6809  -4.6124  -4.2784  -4.1942  -3.6880  -3.6323  -3.4248  -3.4019
    -3.1040  -3.0632  -2.8083  -2.7444  -2.6210  -2.5442  -2.3765  -2.3359
    -2.1595  -2.1560  -1.8881  -1.8815  -1.5814  -1.5426  -0.9849  -0.7876
    -0.1416  -0.1206   0.1186   0.1211   0.7020   0.7196   5.3279   5.3866
     5.9296   6.0625   6.4708   6.8859   7.1503   7.6092   7.6868   7.9309
     8.5019   8.5288

          k = 0.0000 0.2733-0.2777 ( 42752 PWs)   bands (ev):

   -21.3011 -21.2966 -20.5918 -20.5802 -19.0060 -18.9997 -15.8666 -15.8585
   -13.5446 -13.5283 -12.5024 -12.4327 -11.3620 -11.2969  -9.8671  -9.8368
    -9.0865  -9.0797  -7.4814  -7.4306  -6.8388  -6.8344  -6.1670  -6.0863
    -5.9255  -5.8006  -5.7438  -5.6528  -5.2435  -5.2293  -5.0899  -5.0730
    -4.7562  -4.6922  -4.3571  -4.2357  -3.6959  -3.6484  -3.4542  -3.4445
    -3.1486  -3.1398  -2.7276  -2.6879  -2.5378  -2.4753  -2.3308  -2.3038
    -2.1645  -2.1632  -1.8704  -1.8635  -1.5801  -1.5611  -1.0084  -0.7954
    -0.1345  -0.1194   0.1290   0.1302   0.6950   0.7125   5.2556   5.4284
     5.9655   6.1149   6.5736   6.6272   7.1699   7.2683   7.7208   7.8080
     8.5238   8.7200

          k = 0.2500 0.0000 0.0069 ( 42731 PWs)   bands (ev):

   -21.3000 -21.2899 -20.5962 -20.5731 -19.0175 -19.0050 -15.8817 -15.8500
   -13.5784 -13.5075 -12.4166 -12.3353 -11.5384 -11.3635  -9.8118  -9.6949
    -9.1433  -9.0847  -7.5728  -7.5112  -6.8727  -6.8087  -6.2483  -6.0986
    -6.0788  -5.7834  -5.6365  -5.5280  -5.3845  -5.2430  -5.2062  -4.9819
    -4.7827  -4.5067  -4.3474  -4.1278  -3.8735  -3.7565  -3.4871  -3.2882
    -3.0541  -2.9628  -2.7642  -2.6780  -2.5066  -2.4366  -2.3772  -2.2270
    -2.1401  -2.0721  -1.9119  -1.8554  -1.6176  -1.4027  -1.0814  -0.7033
    -0.2254  -0.1256   0.0876   0.1188   0.7095   0.7501   5.3155   5.4132
     5.9516   6.1300   6.4291   6.6498   7.1690   7.6377   7.9332   8.0592
     8.2556   8.3932

          k = 0.2500 0.0000-0.2707 ( 42731 PWs)   bands (ev):

   -21.2995 -21.2905 -20.5963 -20.5731 -19.0178 -19.0047 -15.8820 -15.8502
   -13.5611 -13.5045 -12.4844 -12.3382 -11.4667 -11.3552  -9.8547  -9.7306
    -9.0957  -9.0683  -7.5975  -7.5272  -6.8649  -6.7945  -6.2073  -6.1337
    -5.9989  -5.8157  -5.6839  -5.4523  -5.3802  -5.3036  -5.1175  -5.0867
    -4.7425  -4.6000  -4.4571  -4.2159  -3.7463  -3.6154  -3.3801  -3.2650
    -3.1122  -2.9899  -2.7637  -2.7372  -2.5525  -2.4249  -2.3270  -2.2443
    -2.1697  -2.0488  -1.9293  -1.8297  -1.6285  -1.4179  -1.0704  -0.6969
    -0.2130  -0.1310   0.0906   0.1206   0.7029   0.7504   5.2057   5.5282
     5.9525   6.1462   6.5022   6.5655   7.1557   7.5555   7.8705   8.0182
     8.1816   8.5218

          k = 0.2500 0.2733 0.0069 ( 42670 PWs)   bands (ev):

   -21.2972 -21.2922 -20.5906 -20.5790 -19.0144 -19.0082 -15.8743 -15.8584
   -13.5614 -13.5259 -12.3966 -12.3560 -11.4986 -11.4115  -9.7862  -9.7278
    -9.1253  -9.0943  -7.5625  -7.5304  -6.8533  -6.8120  -6.2446  -6.1698
    -6.0085  -5.7864  -5.5924  -5.5383  -5.3308  -5.2127  -5.1914  -5.0567
    -4.7127  -4.5717  -4.3326  -4.2104  -3.8196  -3.7647  -3.4406  -3.3282
    -3.0375  -2.9875  -2.7354  -2.6879  -2.5059  -2.4459  -2.3597  -2.2949
    -2.1062  -2.0643  -1.9014  -1.8624  -1.5847  -1.4730  -1.0132  -0.8169
    -0.1947  -0.1351   0.0842   0.1302   0.7033   0.7274   5.3311   5.3790
     5.9576   6.0557   6.6856   6.8901   7.3340   7.5161   7.7335   7.9794
     8.1512   8.3307

          k = 0.2500 0.2733-0.2707 ( 42724 PWs)   bands (ev):

   -21.2970 -21.2925 -20.5906 -20.5790 -19.0146 -19.0080 -15.8746 -15.8587
   -13.5477 -13.5193 -12.4490 -12.3759 -11.4410 -11.3852  -9.8292  -9.7679
    -9.0847  -9.0698  -7.5795  -7.5426  -6.8608  -6.8160  -6.1712  -6.0749
    -5.9673  -5.8244  -5.7321  -5.5389  -5.3698  -5.2416  -5.1687  -5.0767
    -4.6949  -4.5962  -4.3731  -4.2495  -3.6933  -3.6210  -3.4043  -3.3362
    -3.1115  -3.0379  -2.7555  -2.7366  -2.5066  -2.4511  -2.3112  -2.2862
    -2.1212  -2.0723  -1.8972  -1.8411  -1.5967  -1.4818  -1.0098  -0.8158
    -0.1865  -0.1339   0.0889   0.1335   0.6971   0.7251   5.2750   5.4277
     5.9727   6.0766   6.7617   6.8134   7.2595   7.4765   7.7194   7.8453
     8.2070   8.3688

          k =-0.5000 0.0000-0.0138 ( 42712 PWs)   bands (ev):

   -21.2955 -21.2859 -20.5954 -20.5721 -19.0260 -19.0133 -15.8912 -15.8493
   -13.5640 -13.4783 -12.4737 -12.3725 -11.4136 -11.2890  -9.9328  -9.7739
    -9.1810  -9.1177  -7.4868  -7.3916  -6.9269  -6.8736  -6.2130  -6.1620
    -6.0343  -6.0203  -5.7538  -5.5895  -5.1798  -5.1222  -5.0397  -4.9785
    -4.8112  -4.5308  -4.4161  -4.1203  -3.9812  -3.8988  -3.6006  -3.1569
    -3.0174  -2.8932  -2.6762  -2.6213  -2.3854  -2.3654  -2.2556  -2.2281
    -2.0839  -2.0565  -1.8788  -1.7900  -1.6166  -1.2752  -1.1442  -0.7335
    -0.3196  -0.1654   0.0199   0.0766   0.7164   0.7529   5.3422   5.3972
     6.0037   6.0308   6.6242   7.0318   7.3771   7.5236   7.7635   7.8093
     7.9639   8.2564

          k =-0.5000 0.0000-0.2915 ( 42712 PWs)   bands (ev):

   -21.2951 -21.2862 -20.5953 -20.5721 -19.0265 -19.0128 -15.8915 -15.8495
   -13.5652 -13.4918 -12.4263 -12.2667 -11.5396 -11.4671  -9.8193  -9.6621
    -9.0919  -9.0374  -7.6833  -7.6691  -6.8571  -6.7923  -6.1968  -6.1688
    -6.0115  -5.9938  -5.6848  -5.5233  -5.2956  -5.2347  -5.0988  -5.0495
    -4.7096  -4.6674  -4.3373  -4.1700  -3.6817  -3.6755  -3.4191  -3.2043
    -2.9558  -2.9153  -2.8166  -2.7869  -2.5043  -2.4168  -2.3250  -2.2012
    -2.0897  -1.9794  -1.9007  -1.7836  -1.6265  -1.3727  -1.0299  -0.7308
    -0.3049  -0.1683   0.0155   0.0738   0.7034   0.7624   5.2277   5.5193
     6.0161   6.0509   6.8729   7.0225   7.0931   7.5136   7.7110   7.7493
     8.1000   8.2583

          k =-0.5000 0.2733-0.0138 ( 42704 PWs)   bands (ev):

   -21.2929 -21.2881 -20.5895 -20.5779 -19.0229 -19.0165 -15.8809 -15.8600
   -13.5446 -13.5018 -12.4492 -12.3986 -11.3848 -11.3225  -9.8971  -9.8178
    -9.1683  -9.1365  -7.4575  -7.4082  -6.9238  -6.8877  -6.2487  -6.1797
    -5.9099  -5.8508  -5.6525  -5.6163  -5.2771  -5.2027  -5.1257  -5.0545
    -4.6910  -4.5645  -4.4104  -4.2458  -3.9451  -3.8690  -3.4709  -3.2540
    -2.9890  -2.9225  -2.6499  -2.6301  -2.4147  -2.4114  -2.2523  -2.2408
    -2.0373  -2.0329  -1.8907  -1.8427  -1.5577  -1.3895  -1.0656  -0.8537
    -0.2355  -0.1635   0.0748   0.1003   0.7101   0.7310   5.3459   5.3723
     5.9946   6.0058   6.8925   7.1696   7.3706   7.5096   7.7416   7.7688
     7.9263   8.1507

          k =-0.5000 0.2733-0.2915 ( 42700 PWs)   bands (ev):

   -21.2928 -21.2883 -20.5895 -20.5779 -19.0232 -19.0163 -15.8812 -15.8602
   -13.5487 -13.5120 -12.3884 -12.3087 -11.5221 -11.4859  -9.7859  -9.7080
    -9.0792  -9.0526  -7.6742  -7.6661  -6.8642  -6.8241  -6.0984  -6.0975
    -5.9470  -5.9062  -5.6421  -5.5304  -5.4487  -5.3688  -5.1701  -5.1062
    -4.6033  -4.5553  -4.3521  -4.2375  -3.6505  -3.6453  -3.3762  -3.2744
    -2.9883  -2.9546  -2.7970  -2.7860  -2.4882  -2.4636  -2.3162  -2.2576
    -2.0571  -1.9708  -1.8926  -1.8242  -1.5664  -1.4172  -1.0187  -0.8461
    -0.2242  -0.1602   0.0702   0.0983   0.7032   0.7351   5.2883   5.4296
     5.9959   6.0231   7.0630   7.1659   7.3352   7.5853   7.6995   7.7915
     7.9249   8.0293

          k =-0.2500 0.2733-0.0069 ( 42670 PWs)   bands (ev):

   -21.2972 -21.2922 -20.5906 -20.5790 -19.0144 -19.0082 -15.8743 -15.8584
   -13.5614 -13.5259 -12.3966 -12.3560 -11.4986 -11.4115  -9.7862  -9.7278
    -9.1253  -9.0943  -7.5625  -7.5304  -6.8533  -6.8120  -6.2446  -6.1698
    -6.0085  -5.7864  -5.5924  -5.5383  -5.3308  -5.2127  -5.1914  -5.0567
    -4.7127  -4.5717  -4.3326  -4.2104  -3.8196  -3.7647  -3.4406  -3.3282
    -3.0375  -2.9875  -2.7354  -2.6879  -2.5059  -2.4458  -2.3597  -2.2948
    -2.1062  -2.0643  -1.9014  -1.8624  -1.5847  -1.4730  -1.0132  -0.8169
    -0.1947  -0.1351   0.0841   0.1302   0.7033   0.7274   5.3311   5.3790
     5.9576   6.0557   6.6856   6.8901   7.3340   7.5161   7.7335   7.9794
     8.1512   8.3307

          k =-0.2500 0.2733 0.2707 ( 42724 PWs)   bands (ev):

   -21.2970 -21.2925 -20.5906 -20.5790 -19.0146 -19.0080 -15.8746 -15.8587
   -13.5477 -13.5193 -12.4490 -12.3759 -11.4410 -11.3852  -9.8292  -9.7679
    -9.0847  -9.0698  -7.5795  -7.5426  -6.8608  -6.8160  -6.1712  -6.0749
    -5.9673  -5.8244  -5.7321  -5.5389  -5.3698  -5.2416  -5.1687  -5.0767
    -4.6949  -4.5962  -4.3731  -4.2495  -3.6933  -3.6210  -3.4043  -3.3362
    -3.1115  -3.0379  -2.7555  -2.7366  -2.5066  -2.4511  -2.3112  -2.2862
    -2.1212  -2.0723  -1.8972  -1.8411  -1.5967  -1.4818  -1.0098  -0.8158
    -0.1865  -0.1339   0.0889   0.1335   0.6971   0.7251   5.2750   5.4277
     5.9727   6.0766   6.7617   6.8134   7.2595   7.4765   7.7194   7.8453
     8.2070   8.3687

     highest occupied, lowest unoccupied level (ev):     0.7624    5.1759

!    total energy              =    -590.69805266 Ry
     Harris-Foulkes estimate   =    -590.69805266 Ry
     estimated scf accuracy    <          4.0E-09 Ry

     total all-electron energy =     -2215.074334 Ry

     The total energy is the sum of the following terms:

     one-electron contribution =    -297.60343749 Ry
     hartree contribution      =     196.98367339 Ry
     xc contribution           =    -129.06176941 Ry
     ewald contribution        =    -194.03385128 Ry
     Dispersion Correction     =      -0.20315546 Ry
     one-center paw contrib.   =    -166.77951240 Ry

     convergence has been achieved in  18 iterations

     Forces acting on atoms (cartesian axes, Ry/au):

     atom    1 type  1   force =     0.00291485    0.00038155   -0.00354279
     atom    2 type  1   force =    -0.00291589    0.00036843    0.00354201
     atom    3 type  1   force =    -0.00516497    0.00345566   -0.00108686
     atom    4 type  1   force =     0.00516482    0.00345265    0.00108716
     atom    5 type  3   force =    -0.00108537   -0.00027382   -0.00049817
     atom    6 type  3   force =     0.00108513   -0.00027410    0.00049762
     atom    7 type  3   force =     0.00442597   -0.00261313   -0.00425411
     atom    8 type  3   force =    -0.00442623   -0.00261283    0.00425390
     atom    9 type  1   force =     0.00437279   -0.00175999    0.00220624
     atom   10 type  1   force =    -0.00437250   -0.00177531   -0.00220696
     atom   11 type  3   force =    -0.00012536    0.00002988    0.00046552
     atom   12 type  3   force =     0.00012488    0.00002970   -0.00046541
     atom   13 type  3   force =    -0.00575839    0.00271538   -0.00172492
     atom   14 type  3   force =     0.00575828    0.00271499    0.00172448
     atom   15 type  4   force =     0.00408271   -0.00016881   -0.00055715
     atom   16 type  4   force =    -0.00408006   -0.00016768    0.00055732
     atom   17 type  4   force =     0.00013374    0.00182474   -0.00203396
     atom   18 type  4   force =    -0.00013369    0.00181632    0.00203371
     atom   19 type  4   force =     0.00043545    0.00368496   -0.00018998
     atom   20 type  4   force =    -0.00043549    0.00368938    0.00019234
     atom   21 type  2   force =     0.00013010   -0.00283521    0.00605726
     atom   22 type  2   force =    -0.00012903   -0.00283628   -0.00605654
     atom   23 type  1   force =    -0.00854977    0.00426408   -0.00357224
     atom   24 type  1   force =     0.00855006    0.00425716    0.00357144
     atom   25 type  3   force =     0.01025900   -0.00466398    0.00227255
     atom   26 type  3   force =    -0.01025809   -0.00466330   -0.00227226
     atom   27 type  3   force =    -0.00005289    0.00101781   -0.00070555
     atom   28 type  3   force =     0.00005279    0.00101561    0.00070550
     atom   29 type  1   force =     0.00851617   -0.00413655    0.00441827
     atom   30 type  1   force =    -0.00851649   -0.00412866   -0.00441843
     atom   31 type  3   force =    -0.00043355   -0.00031566   -0.00015490
     atom   32 type  3   force =     0.00043336   -0.00031382    0.00015451
     atom   33 type  3   force =    -0.00989743    0.00321320   -0.00249853
     atom   34 type  3   force =     0.00989677    0.00321318    0.00249812
     atom   35 type  1   force =     0.00033613   -0.00330334    0.00260262
     atom   36 type  1   force =    -0.00033673   -0.00331152   -0.00260288
     atom   37 type  3   force =    -0.00160947   -0.00056033   -0.00018520
     atom   38 type  3   force =     0.00160946   -0.00056113    0.00018542
     atom   39 type  3   force =     0.00121242    0.00065090    0.00071958
     atom   40 type  3   force =    -0.00121257    0.00065081   -0.00071969
     atom   41 type  3   force =    -0.00050191    0.00235586   -0.00138377
     atom   42 type  3   force =     0.00050163    0.00235627    0.00138355
     atom   43 type  1   force =    -0.00590499   -0.00294912    0.00252690
     atom   44 type  1   force =     0.00590434   -0.00293394   -0.00252574

     Total force =     0.040083     Total SCF correction =     0.000150


     Computing stress (Cartesian axis) and pressure

          total   stress  (Ry/bohr**3)                   (kbar)     P=   -6.28
  -0.00008603  -0.00000000   0.00000119        -12.66     -0.00      0.18
  -0.00000000  -0.00003324   0.00000000         -0.00     -4.89      0.00
   0.00000119   0.00000000  -0.00000890          0.18      0.00     -1.31


     Writing output data file scf.save
 
     init_run     :     11.77s CPU     12.22s WALL (       1 calls)
     electrons    :    315.43s CPU    328.57s WALL (       1 calls)
     forces       :      5.75s CPU      5.77s WALL (       1 calls)
     stress       :     15.84s CPU     15.85s WALL (       1 calls)

     Called by init_run:
     wfcinit      :      6.74s CPU      7.10s WALL (       1 calls)
     potinit      :      1.84s CPU      1.88s WALL (       1 calls)

     Called by electrons:
     c_bands      :    272.59s CPU    283.77s WALL (      18 calls)
     sum_band     :     35.77s CPU     37.28s WALL (      18 calls)
     v_of_rho     :      0.91s CPU      0.99s WALL (      19 calls)
     newd         :      1.87s CPU      1.90s WALL (      19 calls)
     PAW_pot      :      3.87s CPU      3.88s WALL (      19 calls)
     mix_rho      :      0.23s CPU      0.24s WALL (      18 calls)

     Called by c_bands:
     init_us_2    :      3.59s CPU      3.60s WALL (     546 calls)
     cegterg      :    261.48s CPU    272.62s WALL (     252 calls)

     Called by sum_band:
     sum_band:bec :      0.03s CPU      0.03s WALL (     252 calls)
     addusdens    :      1.97s CPU      2.00s WALL (      18 calls)

     Called by *egterg:
     h_psi        :    181.18s CPU    191.53s WALL (    1106 calls)
     s_psi        :     18.20s CPU     18.21s WALL (    1106 calls)
     g_psi        :      1.57s CPU      1.57s WALL (     840 calls)
     cdiaghg      :     14.67s CPU     14.67s WALL (    1092 calls)

     Called by h_psi:
     h_psi:pot    :    179.62s CPU    189.94s WALL (    1106 calls)
     h_psi:calbec :     16.55s CPU     16.66s WALL (    1106 calls)
     vloc_psi     :    145.05s CPU    155.25s WALL (    1106 calls)
     add_vuspsi   :     18.01s CPU     18.03s WALL (    1106 calls)

     General routines
     calbec       :     23.63s CPU     23.76s WALL (    1428 calls)
     fft          :      0.76s CPU      0.93s WALL (     271 calls)
     fftw         :    156.36s CPU    167.44s WALL (  127974 calls)
 
     Parallel routines
     fft_scatter  :     33.89s CPU     39.67s WALL (  128245 calls)
 
     PWSCF        :  5m52.62s CPU     6m10.63s WALL

 
   This run was terminated on:   0: 6:27  12Nov2017            

=------------------------------------------------------------------------------=
   JOB DONE.
=------------------------------------------------------------------------------=
