
     Program PWSCF v.6.1 (svn rev. 13369) starts on  4Nov2017 at 16: 6:50 

     This program is part of the open-source Quantum ESPRESSO suite
     for quantum simulation of materials; please cite
         "P. Giannozzi et al., J. Phys.:Condens. Matter 21 395502 (2009);
          URL http://www.quantum-espresso.org", 
     in publications or presentations arising from this work. More details at
     http://www.quantum-espresso.org/quote

     Parallel version (MPI), running on     8 processors
     R & G space division:  proc/nbgrp/npool/nimage =       8
     Waiting for input...
     Reading input from standard input

     Current dimensions of program PWSCF are:
     Max number of different atomic species (ntypx) = 10
     Max number of k-points (npk) =  40000
     Max angular momentum in pseudopotentials (lmaxx) =  3
               file C.pbe-n-kjpaw_psl.0.1.UPF: wavefunction(s)  2P renormalized
               file N.pbe-n-kjpaw_psl.0.1.UPF: wavefunction(s)  2P renormalized
               file H.pbe-kjpaw_psl.0.1.UPF: wavefunction(s)  1S renormalized
               file O.pbe-n-kjpaw_psl.0.1.UPF: wavefunction(s)  2P renormalized

     -------------------------------------
     Parameters for Dispersion Correction:
     -------------------------------------
       atom      VdW radius       C_6     

        C          2.744         60.710
        N          2.640         42.670
        H          1.892          4.857
        O          2.536         24.284

     Subspace diagonalization in iterative solution of the eigenvalue problem:
     a serial algorithm will be used

 
     Parallelization info
     --------------------
     sticks:   dense  smooth     PW     G-vecs:    dense   smooth      PW
     Min        1480    1480    386               169222   169222   22602
     Max        1481    1481    387               169225   169225   22605
     Sum       11845   11845   3095              1353791  1353791  180837
 


     bravais-lattice index     =            0
     lattice parameter (alat)  =      14.1777  a.u.
     unit-cell volume          =   10022.9006 (a.u.)^3
     number of atoms/cell      =          164
     number of atomic types    =            4
     number of electrons       =       528.00
     number of Kohn-Sham states=          316
     kinetic-energy cutoff     =     100.0000  Ry
     charge density cutoff     =     400.0000  Ry
     convergence threshold     =      1.0E-08
     mixing beta               =       0.5000
     number of iterations used =            8  plain     mixing
     Exchange-correlation      =  SLA  PW   PBX  PBC ( 1  4  3  4 0 0)

     celldm(1)=  14.177670  celldm(2)=   0.000000  celldm(3)=   0.000000
     celldm(4)=   0.000000  celldm(5)=   0.000000  celldm(6)=   0.000000

     crystal axes: (cart. coord. in units of alat)
               a(1) = (   1.000000   0.000000   0.000000 )  
               a(2) = (   0.000000   1.851996   0.000000 )  
               a(3) = (   0.000000   0.000000   1.899060 )  

     reciprocal axes: (cart. coord. in units 2 pi/alat)
               b(1) = (  1.000000  0.000000  0.000000 )  
               b(2) = (  0.000000  0.539958  0.000000 )  
               b(3) = (  0.000000  0.000000  0.526576 )  


     PseudoPot. # 1 for  C read from file:
     /scratch/ahofstet/pseudo/C.pbe-n-kjpaw_psl.0.1.UPF
     MD5 check sum: 430fe95172b1e11ef3f8ed03bac87931
     Pseudo is Projector augmented-wave + core cor, Zval =  4.0
     Generated using "atomic" code by A. Dal Corso  v.5.0.99 svn rev. 10869
     Shape of augmentation charge: BESSEL
     Using radial grid of 1073 points,  4 beta functions with: 
                l(1) =   0
                l(2) =   0
                l(3) =   1
                l(4) =   1
     Q(r) pseudized with 0 coefficients 


     PseudoPot. # 2 for  N read from file:
     /scratch/ahofstet/pseudo/N.pbe-n-kjpaw_psl.0.1.UPF
     MD5 check sum: f73187c8b701007e77325f868c9291d7
     Pseudo is Projector augmented-wave + core cor, Zval =  5.0
     Generated using "atomic" code by A. Dal Corso  v.5.0.99 svn rev. 10869
     Shape of augmentation charge: PSQ
     Using radial grid of 1085 points,  4 beta functions with: 
                l(1) =   0
                l(2) =   0
                l(3) =   1
                l(4) =   1
     Q(r) pseudized with 0 coefficients 


     PseudoPot. # 3 for  H read from file:
     /scratch/ahofstet/pseudo/H.pbe-kjpaw_psl.0.1.UPF
     MD5 check sum: 94e484f906d9e9773b2f6e52662335b2
     Pseudo is Projector augmented-wave, Zval =  1.0
     Generated using "atomic" code by A. Dal Corso  v.5.0.99 svn rev. 10869
     Shape of augmentation charge: PSQ
     Using radial grid of  929 points,  2 beta functions with: 
                l(1) =   0
                l(2) =   0
     Q(r) pseudized with 0 coefficients 


     PseudoPot. # 4 for  O read from file:
     /scratch/ahofstet/pseudo/O.pbe-n-kjpaw_psl.0.1.UPF
     MD5 check sum: 3f94a2996a3169367d6eb21d9b593f20
     Pseudo is Projector augmented-wave + core cor, Zval =  6.0
     Generated using "atomic" code by A. Dal Corso  v.5.0.99 svn rev. 10869
     Shape of augmentation charge: BESSEL
     Using radial grid of 1095 points,  4 beta functions with: 
                l(1) =   0
                l(2) =   0
                l(3) =   1
                l(4) =   1
     Q(r) pseudized with 0 coefficients 


     atomic species   valence    mass     pseudopotential
        C              4.00    12.01070      C( 1.00)
        N              5.00    14.00670      N( 1.00)
        H              1.00     1.00794      H( 1.00)
        O              6.00    15.99940      O( 1.00)

     No symmetry found



   Cartesian axes

     site n.     atom                  positions (alat units)
         1           N   tau(   1) = (   0.6004676   0.4270726   1.3785654  )
         2           N   tau(   2) = (   0.8995151   1.4249323   0.4291567  )
         3           N   tau(   3) = (   0.1004410   0.4988463   0.5205255  )
         4           N   tau(   4) = (   0.3995425   1.3531413   1.4699479  )
         5           N   tau(   5) = (   0.5973652   0.3567465   1.2073019  )
         6           N   tau(   6) = (   0.9026749   1.4952457   0.2578890  )
         7           N   tau(   7) = (   0.0973454   0.5691500   0.6917975  )
         8           N   tau(   8) = (   0.4026924   1.2828484   1.6412232  )
         9           N   tau(   9) = (   0.6656192   0.7322239   1.4517981  )
        10           N   tau(  10) = (   0.8343863   1.1197426   0.5022492  )
        11           N   tau(  11) = (   0.1656392   0.1937384   0.4472083  )
        12           N   tau(  12) = (   0.3343676   1.6582879   1.3967670  )
        13           H   tau(  13) = (   0.7627916   0.8221054   1.4889938  )
        14           H   tau(  14) = (   0.7372190   1.0298448   0.5394122  )
        15           H   tau(  15) = (   0.2628220   0.1038689   0.4100085  )
        16           H   tau(  16) = (   0.2371903   1.7481728   1.3595955  )
        17           N   tau(  17) = (   0.5582037   0.8020575   1.3169577  )
        18           N   tau(  18) = (   0.9417905   1.0499685   0.3673633  )
        19           N   tau(  19) = (   0.0582281   0.1238800   0.5820379  )
        20           N   tau(  20) = (   0.4417647   1.7280921   1.5316447  )
        21           H   tau(  21) = (   0.6106587   0.8339060   1.1945063  )
        22           H   tau(  22) = (   0.8893131   1.0181362   0.2449047  )
        23           H   tau(  23) = (   0.1106818   0.0920428   0.7044955  )
        24           H   tau(  24) = (   0.3892898   1.7599114   1.6541048  )
        25           N   tau(  25) = (   0.3159984   0.8179710   1.5119322  )
        26           N   tau(  26) = (   0.1839981   1.0340407   0.5623223  )
        27           N   tau(  27) = (   0.8159847   0.1080302   0.3870957  )
        28           N   tau(  28) = (   0.6840082   1.7439568   1.3367255  )
        29           H   tau(  29) = (   0.1921652   0.8681043   1.5416395  )
        30           H   tau(  30) = (   0.3078202   0.9838921   0.5920320  )
        31           H   tau(  31) = (   0.6921492   0.0578903   0.3574114  )
        32           H   tau(  32) = (   0.8078359   1.7941082   1.3070236  )
        33           H   tau(  33) = (   0.3954313   0.7803401   1.6158432  )
        34           H   tau(  34) = (   0.1045513   1.0716734   0.6662114  )
        35           H   tau(  35) = (   0.8954063   0.1456429   0.2831842  )
        36           H   tau(  36) = (   0.6045725   1.7063373   1.2328205  )
        37           N   tau(  37) = (   0.2947854   0.9302509   1.2245206  )
        38           N   tau(  38) = (   0.2052168   0.9217814   0.2748998  )
        39           N   tau(  39) = (   0.7948090   1.8477250   0.6745023  )
        40           N   tau(  40) = (   0.7051991   0.0042459   1.6241376  )
        41           H   tau(  41) = (   0.1605283   0.9506189   1.2379150  )
        42           H   tau(  42) = (   0.3394601   0.9013856   0.2883102  )
        43           H   tau(  43) = (   0.6605427   1.8273593   0.6611300  )
        44           H   tau(  44) = (   0.8394458   0.0246322   1.6107364  )
        45           H   tau(  45) = (   0.3503968   0.9520365   1.1008164  )
        46           H   tau(  46) = (   0.1495932   0.8999543   0.1512007  )
        47           H   tau(  47) = (   0.8504255   1.8259224   0.7982093  )
        48           H   tau(  48) = (   0.6495692   0.0260832   1.7478294  )
        49           N   tau(  49) = (   0.3326216   0.2800890   1.4234858  )
        50           N   tau(  50) = (   0.1673471   1.5719212   0.4741290  )
        51           N   tau(  51) = (   0.8326395   0.6458984   0.4755842  )
        52           N   tau(  52) = (   0.6673295   1.2060800   1.4249562  )
        53           H   tau(  53) = (   0.2397830   0.2250105   1.5083929  )
        54           H   tau(  54) = (   0.2601807   1.6269962   0.5590235  )
        55           H   tau(  55) = (   0.7398027   0.7009824   0.3906802  )
        56           H   tau(  56) = (   0.7601603   1.1509998   1.3400642  )
        57           H   tau(  57) = (   0.3405318   0.2362666   1.2955244  )
        58           H   tau(  58) = (   0.1594282   1.6157206   0.3461629  )
        59           H   tau(  59) = (   0.8405380   0.6896989   0.6035569  )
        60           H   tau(  60) = (   0.6594207   1.1623019   1.5529319  )
        61           N   tau(  61) = (   0.4602655   0.4314438   1.6586903  )
        62           N   tau(  62) = (   0.0396865   1.4205407   0.7093174  )
        63           N   tau(  63) = (   0.9602770   0.4945332   0.2403806  )
        64           N   tau(  64) = (   0.5396782   1.3574721   1.1897688  )
        65           H   tau(  65) = (   0.3551711   0.3875467   1.7350377  )
        66           H   tau(  66) = (   0.1447697   1.4644395   0.7856500  )
        67           H   tau(  67) = (   0.8551899   0.5384429   0.1640316  )
        68           H   tau(  68) = (   0.6447526   1.3135596   1.1134331  )
        69           H   tau(  69) = (   0.5520723   0.5132460   1.7167782  )
        70           H   tau(  70) = (   0.9478810   1.3387149   0.7673947  )
        71           H   tau(  71) = (   0.0520600   0.4126963   0.1823087  )
        72           H   tau(  72) = (   0.4478963   1.4393335   1.1317051  )
        73           C   tau(  73) = (   0.7464924   0.5600100   1.4069110  )
        74           C   tau(  74) = (   0.7535011   1.2919770   0.4574508  )
        75           C   tau(  75) = (   0.2464918   0.3659503   0.4921411  )
        76           C   tau(  76) = (   0.2535029   1.4860563   1.4416128  )
        77           C   tau(  77) = (   0.8406682   0.5499452   1.2222934  )
        78           C   tau(  78) = (   0.6593204   1.3020979   0.2728503  )
        79           C   tau(  79) = (   0.3406672   0.3759766   0.6767614  )
        80           C   tau(  80) = (   0.1593209   1.4759719   1.6262153  )
        81           H   tau(  81) = (   0.8512251   0.6809989   1.1573271  )
        82           H   tau(  82) = (   0.6487026   1.1710463   0.2078882  )
        83           H   tau(  83) = (   0.3512176   0.2449093   0.7417027  )
        84           H   tau(  84) = (   0.1487125   1.6070362   1.6911547  )
        85           H   tau(  85) = (   0.9772108   0.4981945   1.2360544  )
        86           H   tau(  86) = (   0.5227997   1.3539095   0.2866155  )
        87           H   tau(  87) = (   0.4772131   0.4277205   0.6630145  )
        88           H   tau(  88) = (   0.0227958   1.4241710   1.6124618  )
        89           C   tau(  89) = (   0.7284975   0.4223980   1.1177522  )
        90           C   tau(  90) = (   0.7715308   1.4295964   0.1682958  )
        91           C   tau(  91) = (   0.2284942   0.5034978   0.7813270  )
        92           C   tau(  92) = (   0.2715313   1.3484961   1.7307947  )
        93           C   tau(  93) = (   0.7626335   0.3698744   0.9304698  )
        94           C   tau(  94) = (   0.7374612   1.4820957   1.8800572  )
        95           C   tau(  95) = (   0.2626551   0.5560164   0.9686049  )
        96           C   tau(  96) = (   0.2374381   1.2960065   0.0190316  )
        97           H   tau(  97) = (   0.6710418   0.2636114   0.8899203  )
        98           H   tau(  98) = (   0.8290646   1.5883530   1.8395216  )
        99           H   tau(  99) = (   0.1710470   0.6622554   1.0091808  )
       100           H   tau( 100) = (   0.3290587   1.1897739   0.0595942  )
       101           H   tau( 101) = (   0.9009698   0.3234680   0.9155012  )
       102           H   tau( 102) = (   0.5991285   1.5285043   1.8650451  )
       103           H   tau( 103) = (   0.4009823   0.6024621   0.9835426  )
       104           H   tau( 104) = (   0.0991148   1.2495591   0.0340163  )
       105           H   tau( 105) = (   0.7486038   0.4866284   0.8428485  )
       106           H   tau( 106) = (   0.7515127   1.3653255   1.7924578  )
       107           H   tau( 107) = (   0.2486742   0.4392559   1.0562234  )
       108           H   tau( 108) = (   0.2514435   1.4127858   0.1066243  )
       109           C   tau( 109) = (   0.4652148   0.3801346   1.4890351  )
       110           C   tau( 110) = (   0.0347319   1.4718562   0.5396600  )
       111           C   tau( 111) = (   0.9652135   0.5458259   0.4100472  )
       112           C   tau( 112) = (   0.5347344   1.3061754   1.3594351  )
       113           C   tau( 113) = (   0.8766055   0.5088393   1.5548531  )
       114           C   tau( 114) = (   0.6233928   1.3430860   0.6054147  )
       115           C   tau( 115) = (   0.3765925   0.4172316   0.3442239  )
       116           C   tau( 116) = (   0.1234080   1.4348362   1.2936722  )
       117           H   tau( 117) = (   0.9905285   0.6008310   1.5517556  )
       118           H   tau( 118) = (   0.5094752   1.2510898   0.6023005  )
       119           H   tau( 119) = (   0.4905466   0.3252764   0.3472764  )
       120           H   tau( 120) = (   0.0094592   1.5267958   1.2967399  )
       121           H   tau( 121) = (   0.9255683   0.3735169   1.5296472  )
       122           H   tau( 122) = (   0.5744243   1.4784134   0.5802478  )
       123           H   tau( 123) = (   0.4255109   0.5525555   0.3695066  )
       124           H   tau( 124) = (   0.0744836   1.2995072   1.3189163  )
       125           H   tau( 125) = (   0.8177580   0.5162353   1.6880140  )
       126           H   tau( 126) = (   0.6822469   1.3356545   0.7385695  )
       127           H   tau( 127) = (   0.3177517   0.4098931   0.2110575  )
       128           H   tau( 128) = (   0.1822569   1.4422086   1.1605122  )
       129           C   tau( 129) = (   0.3879567   0.8506395   1.3532359  )
       130           C   tau( 130) = (   0.1120270   1.0013783   0.4036056  )
       131           C   tau( 131) = (   0.8879647   0.0753285   0.5457996  )
       132           C   tau( 132) = (   0.6120182   1.7766458   1.4954197  )
       133           N   tau( 133) = (   0.0692705   0.1649486   1.8162338  )
       134           N   tau( 134) = (   0.4307521   1.6870968   0.8666958  )
       135           N   tau( 135) = (   0.5692826   0.7610399   0.0828335  )
       136           N   tau( 136) = (   0.9307343   1.0909035   1.0323782  )
       137           O   tau( 137) = (   0.0888861   0.0997441   1.6596629  )
       138           O   tau( 138) = (   0.4111317   1.7523061   0.7101220  )
       139           O   tau( 139) = (   0.5889127   0.8262696   0.2393929  )
       140           O   tau( 140) = (   0.9111047   1.0256683   1.1889395  )
       141           O   tau( 141) = (   0.1619078   0.2989561   1.8620191  )
       142           O   tau( 142) = (   0.3381019   1.5530933   0.9124712  )
       143           O   tau( 143) = (   0.6619072   0.6270121   0.0370701  )
       144           O   tau( 144) = (   0.8380988   1.2249248   0.9866246  )
       145           N   tau( 145) = (   0.9503847   0.9518771   1.7616372  )
       146           N   tau( 146) = (   0.5496016   0.9001105   0.8120797  )
       147           N   tau( 147) = (   0.4503890   1.8261422   0.1373969  )
       148           N   tau( 148) = (   0.0495953   0.0258561   1.0869534  )
       149           O   tau( 149) = (   0.9580723   0.0985552   0.0209864  )
       150           O   tau( 150) = (   0.5419542   1.7534731   0.9705037  )
       151           O   tau( 151) = (   0.4580891   0.8274224   1.8780740  )
       152           O   tau( 152) = (   0.0419324   1.0245345   0.9285587  )
       153           O   tau( 153) = (   0.0528085   0.8418360   1.8362874  )
       154           O   tau( 154) = (   0.4471755   1.0101199   0.8867810  )
       155           O   tau( 155) = (   0.5528123   0.0841945   0.0627565  )
       156           O   tau( 156) = (   0.9471724   1.7678409   1.0122599  )
       157           O   tau( 157) = (   0.9536986   0.9655471   1.5915460  )
       158           O   tau( 158) = (   0.5462414   0.8864702   0.6419891  )
       159           O   tau( 159) = (   0.4537116   1.8124518   0.3074882  )
       160           O   tau( 160) = (   0.0462290   0.0395165   1.2570440  )
       161           O   tau( 161) = (   0.8459501   1.0482674   1.8509908  )
       162           O   tau( 162) = (   0.6540788   0.8037252   0.9013873  )
       163           O   tau( 163) = (   0.3459491   1.7297669   0.0480386  )
       164           O   tau( 164) = (   0.1540813   0.1222312   0.9976420  )

     number of k points=     8
                       cart. coord. in units 2pi/alat
        k(    1) = (   0.0000000   0.0000000   0.0000000), wk =   0.1666667
        k(    2) = (   0.0000000   0.0000000  -0.2632881), wk =   0.1666667
        k(    3) = (   0.0000000  -0.2699790   0.0000000), wk =   0.1666667
        k(    4) = (   0.0000000  -0.2699790  -0.2632881), wk =   0.1666667
        k(    5) = (   0.3333333   0.0000000   0.0000000), wk =   0.3333333
        k(    6) = (   0.3333333   0.0000000  -0.2632881), wk =   0.3333333
        k(    7) = (   0.3333333  -0.2699790   0.0000000), wk =   0.3333333
        k(    8) = (   0.3333333  -0.2699790  -0.2632881), wk =   0.3333333

     Dense  grid:  1353791 G-vectors     FFT dimensions: (  96, 180, 180)

     Estimated max dynamical RAM per process >    2174.06MB

     Estimated total allocated dynamical RAM >   17392.47MB

     Check: negative/imaginary core charge=   -0.000002    0.000000

     Initial potential from superposition of free atoms

     starting charge  527.99782, renormalised to  528.00000
     Starting wfc are  440 randomized atomic wfcs
     Checking if some PAW data can be deallocated... 

     total cpu time spent up to now is      150.2 secs

     per-process dynamical memory:  1370.7 Mb

     Self-consistent Calculation

     iteration #  1     ecut=   100.00 Ry     beta=0.50
     Davidson diagonalization with overlap
     ethr =  1.00E-02,  avg # of iterations =  3.8

     total cpu time spent up to now is      651.7 secs

     total energy              =   -2725.10294734 Ry
     Harris-Foulkes estimate   =   -2735.08392978 Ry
     estimated scf accuracy    <      18.21473059 Ry

     iteration #  2     ecut=   100.00 Ry     beta=0.50
     Davidson diagonalization with overlap
     ethr =  3.45E-03,  avg # of iterations =  3.1

     total cpu time spent up to now is     1013.8 secs

     total energy              =   -2728.44456290 Ry
     Harris-Foulkes estimate   =   -2730.01587182 Ry
     estimated scf accuracy    <       3.35875734 Ry

     iteration #  3     ecut=   100.00 Ry     beta=0.50
     Davidson diagonalization with overlap
     ethr =  6.36E-04,  avg # of iterations =  6.9

     total cpu time spent up to now is     1484.7 secs

     total energy              =   -2729.36512778 Ry
     Harris-Foulkes estimate   =   -2729.62880723 Ry
     estimated scf accuracy    <       0.71351345 Ry

     iteration #  4     ecut=   100.00 Ry     beta=0.50
     Davidson diagonalization with overlap
     ethr =  1.35E-04,  avg # of iterations =  3.5

     total cpu time spent up to now is     1771.2 secs

     total energy              =   -2729.39607148 Ry
     Harris-Foulkes estimate   =   -2729.44978659 Ry
     estimated scf accuracy    <       0.13724223 Ry

     iteration #  5     ecut=   100.00 Ry     beta=0.50
     Davidson diagonalization with overlap
     ethr =  2.60E-05,  avg # of iterations =  8.0

     total cpu time spent up to now is     2349.0 secs

     total energy              =   -2729.44554509 Ry
     Harris-Foulkes estimate   =   -2729.49396099 Ry
     estimated scf accuracy    <       0.15441439 Ry

     iteration #  6     ecut=   100.00 Ry     beta=0.50
     Davidson diagonalization with overlap
     ethr =  2.60E-05,  avg # of iterations =  2.0

     total cpu time spent up to now is     2622.8 secs

     total energy              =   -2729.45081804 Ry
     Harris-Foulkes estimate   =   -2729.46169857 Ry
     estimated scf accuracy    <       0.03494575 Ry

     iteration #  7     ecut=   100.00 Ry     beta=0.50
     Davidson diagonalization with overlap
     ethr =  6.62E-06,  avg # of iterations =  4.5

     total cpu time spent up to now is     2938.8 secs

     total energy              =   -2729.45513065 Ry
     Harris-Foulkes estimate   =   -2729.45703653 Ry
     estimated scf accuracy    <       0.00378003 Ry

     iteration #  8     ecut=   100.00 Ry     beta=0.50
     Davidson diagonalization with overlap
     ethr =  7.16E-07,  avg # of iterations =  7.5

     total cpu time spent up to now is     3491.7 secs

     total energy              =   -2729.45672345 Ry
     Harris-Foulkes estimate   =   -2729.45693317 Ry
     estimated scf accuracy    <       0.00076921 Ry

     iteration #  9     ecut=   100.00 Ry     beta=0.50
     Davidson diagonalization with overlap
     ethr =  1.46E-07,  avg # of iterations =  1.1

     total cpu time spent up to now is     3744.9 secs

     total energy              =   -2729.45670296 Ry
     Harris-Foulkes estimate   =   -2729.45679196 Ry
     estimated scf accuracy    <       0.00020167 Ry

     iteration # 10     ecut=   100.00 Ry     beta=0.50
     Davidson diagonalization with overlap
     ethr =  3.82E-08,  avg # of iterations =  3.8

     total cpu time spent up to now is     4166.1 secs

     total energy              =   -2729.45678039 Ry
     Harris-Foulkes estimate   =   -2729.45678672 Ry
     estimated scf accuracy    <       0.00002718 Ry

     iteration # 11     ecut=   100.00 Ry     beta=0.50
     Davidson diagonalization with overlap
     ethr =  5.15E-09,  avg # of iterations =  1.8

     total cpu time spent up to now is     4423.1 secs

     total energy              =   -2729.45677713 Ry
     Harris-Foulkes estimate   =   -2729.45678256 Ry
     estimated scf accuracy    <       0.00001303 Ry

     iteration # 12     ecut=   100.00 Ry     beta=0.50
     Davidson diagonalization with overlap
     ethr =  2.47E-09,  avg # of iterations =  3.9

     total cpu time spent up to now is     4818.9 secs

     total energy              =   -2729.45678084 Ry
     Harris-Foulkes estimate   =   -2729.45678196 Ry
     estimated scf accuracy    <       0.00000374 Ry

     iteration # 13     ecut=   100.00 Ry     beta=0.50
     Davidson diagonalization with overlap
     ethr =  7.09E-10,  avg # of iterations =  2.0

     total cpu time spent up to now is     5081.6 secs

     total energy              =   -2729.45678047 Ry
     Harris-Foulkes estimate   =   -2729.45678113 Ry
     estimated scf accuracy    <       0.00000130 Ry

     iteration # 14     ecut=   100.00 Ry     beta=0.50
     Davidson diagonalization with overlap
     ethr =  2.46E-10,  avg # of iterations =  4.0

     total cpu time spent up to now is     5487.0 secs

     total energy              =   -2729.45678103 Ry
     Harris-Foulkes estimate   =   -2729.45678109 Ry
     estimated scf accuracy    <       0.00000024 Ry

     iteration # 15     ecut=   100.00 Ry     beta=0.50
     Davidson diagonalization with overlap
     ethr =  4.63E-11,  avg # of iterations =  2.0

     total cpu time spent up to now is     5759.4 secs

     total energy              =   -2729.45678102 Ry
     Harris-Foulkes estimate   =   -2729.45678106 Ry
     estimated scf accuracy    <       0.00000015 Ry

     iteration # 16     ecut=   100.00 Ry     beta=0.50
     Davidson diagonalization with overlap
     ethr =  2.89E-11,  avg # of iterations =  3.0

     total cpu time spent up to now is     6041.3 secs

     total energy              =   -2729.45678101 Ry
     Harris-Foulkes estimate   =   -2729.45678103 Ry
     estimated scf accuracy    <       0.00000004 Ry

     iteration # 17     ecut=   100.00 Ry     beta=0.50
     Davidson diagonalization with overlap
     ethr =  7.59E-12,  avg # of iterations =  3.8

     total cpu time spent up to now is     6434.8 secs

     End of self-consistent calculation

          k = 0.0000 0.0000 0.0000 (169339 PWs)   bands (ev):

   -24.5182 -24.5177 -24.5174 -24.5170 -24.3454 -24.3453 -24.3451 -24.3447
   -20.1278 -20.1277 -20.1120 -20.1099 -19.4072 -19.3978 -19.3736 -19.3688
   -19.1378 -19.1371 -19.1368 -19.1364 -18.9534 -18.9531 -18.9527 -18.9522
   -18.8998 -18.8973 -18.8960 -18.8954 -18.7444 -18.7442 -18.7345 -18.7337
   -17.8517 -17.8499 -17.8429 -17.8421 -17.4639 -17.4624 -17.4615 -17.4571
   -15.6194 -15.6142 -15.6049 -15.6045 -15.5089 -15.5069 -15.4984 -15.4967
   -14.9114 -14.9094 -14.9036 -14.8997 -14.3744 -14.3595 -14.3552 -14.3380
   -12.5821 -12.5818 -12.5747 -12.5715 -11.6564 -11.6519 -11.5853 -11.5836
   -10.9254 -10.9209 -10.8929 -10.8807  -9.7340  -9.6549  -9.6316  -9.5774
    -9.4339  -9.2749  -9.2457  -9.2159  -8.8807  -8.8679  -8.7991  -8.7658
    -8.6718  -8.5794  -8.4345  -8.4041  -8.3987  -8.3969  -8.3555  -8.3142
    -8.1868  -8.1173  -8.1121  -8.1105  -7.9934  -7.9760  -7.9577  -7.9504
    -7.7723  -7.7430  -7.7220  -7.7176  -7.2280  -7.2117  -7.1216  -7.0719
    -6.7538  -6.7399  -6.7237  -6.6927  -6.6841  -6.6500  -6.6438  -6.5989
    -6.5461  -6.4902  -6.4672  -6.4290  -6.3985  -6.3506  -6.2271  -6.2233
    -6.2027  -6.1747  -6.1449  -6.1341  -6.1064  -6.0487  -6.0036  -5.9769
    -5.9501  -5.9489  -5.9422  -5.9039  -5.9008  -5.8918  -5.8786  -5.8292
    -5.7855  -5.7784  -5.7763  -5.7486  -5.5806  -5.5716  -5.5250  -5.4464
    -5.2919  -5.2725  -5.2723  -5.2643  -5.1970  -5.1944  -5.1377  -5.1102
    -4.9405  -4.9097  -4.8582  -4.8425  -4.8069  -4.7708  -4.7566  -4.7131
    -4.4103  -4.3392  -4.3321  -4.1776  -4.1453  -4.1179  -4.1026  -4.0910
    -4.0798  -3.8904  -3.8459  -3.8256  -3.7643  -3.7087  -3.5111  -3.5058
    -3.3178  -3.3040  -3.1865  -3.1741  -3.0029  -2.9912  -2.9791  -2.9723
    -2.9030  -2.8915  -2.8743  -2.8196  -2.7741  -2.7294  -2.6118  -2.5964
    -2.1448  -2.1289  -2.1276  -2.1252  -2.0647  -2.0565  -2.0493  -2.0483
    -1.2337  -1.1925  -1.1109  -1.1054  -1.0462  -1.0373  -1.0029  -0.9990
    -0.9227  -0.9086  -0.8965  -0.8935  -0.8686  -0.8609  -0.8491  -0.8487
    -0.7702  -0.7552  -0.7466  -0.7464  -0.6618  -0.6596  -0.6512  -0.6341
    -0.6250  -0.6013  -0.5943  -0.5923  -0.5343  -0.5201  -0.5191  -0.5096
    -0.4755  -0.4714  -0.4623  -0.4614  -0.1381  -0.0993  -0.0933  -0.0702
     0.0427   0.0689   0.0784   0.0861   0.1244   0.1458   0.3148   0.3195
     0.4067   0.4178   0.4809   0.5166   0.7137   0.7146   0.7237   0.7418
     0.8943   0.8978   0.9390   0.9442   0.9564   0.9849   0.9937   0.9995
     4.3686   4.4355   4.4655   4.4663   4.5465   4.6240   4.6347   4.6998
     5.1230   5.1588   5.2683   5.2982   6.1437   6.1687   6.1747   6.1854
     6.2470   6.2856   6.3747   6.3919   6.4630   6.9165   6.9887   7.2376
     7.4608   7.6168   7.6742   7.6769   7.7142   7.8515   8.0947   8.2080
     8.2545   8.3156   8.3775   8.4405   8.4710   8.5182   8.5423   8.5853
     8.6043   8.6313   8.7634   8.8156   8.8664   8.9194   8.9334   8.9707
     8.9784   9.0192   9.0894   9.0919

          k = 0.0000 0.0000-0.2633 (169334 PWs)   bands (ev):

   -24.5182 -24.5177 -24.5174 -24.5171 -24.3453 -24.3452 -24.3451 -24.3447
   -20.1278 -20.1278 -20.1109 -20.1109 -19.4026 -19.4026 -19.3712 -19.3712
   -19.1378 -19.1372 -19.1369 -19.1365 -18.9533 -18.9530 -18.9528 -18.9523
   -18.8987 -18.8987 -18.8956 -18.8956 -18.7395 -18.7394 -18.7389 -18.7387
   -17.8509 -17.8508 -17.8425 -17.8424 -17.4635 -17.4631 -17.4593 -17.4589
   -15.6176 -15.6172 -15.6042 -15.6038 -15.5080 -15.5079 -15.4977 -15.4975
   -14.9125 -14.9125 -14.8994 -14.8994 -14.3687 -14.3684 -14.3452 -14.3449
   -12.5820 -12.5819 -12.5732 -12.5731 -11.6494 -11.6488 -11.5903 -11.5897
   -10.9233 -10.9230 -10.8875 -10.8872  -9.6943  -9.6941  -9.5994  -9.5993
    -9.3319  -9.3319  -9.2628  -9.2627  -8.8808  -8.8807  -8.7894  -8.7890
    -8.6209  -8.6205  -8.4138  -8.4137  -8.3755  -8.3754  -8.3442  -8.3442
    -8.1566  -8.1565  -8.1245  -8.1243  -8.0438  -8.0433  -7.9301  -7.9299
    -7.7143  -7.7142  -7.7019  -7.7018  -7.2158  -7.2157  -7.0940  -7.0940
    -6.7530  -6.7529  -6.6946  -6.6946  -6.6825  -6.6820  -6.6122  -6.6118
    -6.5298  -6.5298  -6.4694  -6.4693  -6.2871  -6.2870  -6.2713  -6.2712
    -6.2162  -6.2161  -6.1781  -6.1780  -6.0839  -6.0836  -6.0139  -6.0137
    -5.9521  -5.9517  -5.9126  -5.9124  -5.8537  -5.8537  -5.8204  -5.8203
    -5.7951  -5.7951  -5.7645  -5.7643  -5.6014  -5.6012  -5.4910  -5.4908
    -5.2946  -5.2945  -5.2612  -5.2612  -5.2099  -5.2098  -5.0681  -5.0677
    -4.8959  -4.8958  -4.8698  -4.8698  -4.8081  -4.8079  -4.7281  -4.7280
    -4.4036  -4.4036  -4.2328  -4.2327  -4.1453  -4.1447  -4.1048  -4.1048
    -3.9764  -3.9764  -3.8232  -3.8229  -3.7347  -3.7347  -3.5133  -3.5131
    -3.3108  -3.3103  -3.1854  -3.1851  -3.0014  -3.0013  -2.9631  -2.9629
    -2.9040  -2.9034  -2.8529  -2.8527  -2.7455  -2.7453  -2.6032  -2.6031
    -2.1384  -2.1383  -2.1253  -2.1252  -2.0774  -2.0772  -2.0304  -2.0304
    -1.1980  -1.1977  -1.1092  -1.1090  -1.0015  -1.0014  -0.9977  -0.9977
    -0.9396  -0.9394  -0.9178  -0.9177  -0.8789  -0.8787  -0.8676  -0.8674
    -0.7598  -0.7597  -0.7361  -0.7360  -0.6677  -0.6676  -0.6250  -0.6249
    -0.6120  -0.6118  -0.5951  -0.5949  -0.5286  -0.5285  -0.5115  -0.5113
    -0.4833  -0.4832  -0.4560  -0.4559  -0.1078  -0.1077  -0.0927  -0.0925
     0.0581   0.0586   0.0839   0.0845   0.1277   0.1277   0.3197   0.3198
     0.4128   0.4129   0.5007   0.5008   0.7110   0.7113   0.7348   0.7350
     0.9005   0.9006   0.9448   0.9449   0.9640   0.9641   0.9940   0.9941
     4.4094   4.4095   4.4494   4.4494   4.5962   4.5962   4.6638   4.6639
     5.1305   5.1316   5.2952   5.2967   6.1612   6.1613   6.1789   6.1790
     6.2640   6.2641   6.4156   6.4157   6.5570   6.5572   7.3287   7.3288
     7.4413   7.4414   7.5533   7.5534   7.9059   7.9060   8.1087   8.1088
     8.3027   8.3027   8.3802   8.3806   8.5207   8.5208   8.5642   8.5643
     8.7545   8.7545   8.8149   8.8150   8.8324   8.8325   8.8406   8.8407
     8.9476   8.9477   9.0760   9.0760

          k = 0.0000-0.2700 0.0000 (169280 PWs)   bands (ev):

   -24.5182 -24.5178 -24.5173 -24.5171 -24.3454 -24.3453 -24.3451 -24.3447
   -20.1202 -20.1201 -20.1188 -20.1188 -19.3905 -19.3904 -19.3831 -19.3830
   -19.1378 -19.1371 -19.1368 -19.1364 -18.9535 -18.9531 -18.9526 -18.9522
   -18.8989 -18.8987 -18.8955 -18.8954 -18.7444 -18.7442 -18.7342 -18.7340
   -17.8477 -17.8469 -17.8463 -17.8454 -17.4633 -17.4631 -17.4594 -17.4591
   -15.6127 -15.6120 -15.6092 -15.6086 -15.5038 -15.5031 -15.5026 -15.5020
   -14.9105 -14.9105 -14.9017 -14.9017 -14.3671 -14.3667 -14.3466 -14.3462
   -12.5789 -12.5784 -12.5766 -12.5762 -11.6544 -11.6538 -11.5847 -11.5842
   -10.9235 -10.9231 -10.8869 -10.8866  -9.6917  -9.6914  -9.6182  -9.6179
    -9.3596  -9.3594  -9.2153  -9.2152  -8.8761  -8.8760  -8.7814  -8.7811
    -8.6291  -8.6287  -8.4216  -8.4215  -8.3947  -8.3946  -8.3334  -8.3332
    -8.1566  -8.1564  -8.1102  -8.1101  -7.9729  -7.9726  -7.9611  -7.9609
    -7.7560  -7.7558  -7.7195  -7.7194  -7.1681  -7.1680  -7.1585  -7.1583
    -6.7657  -6.7655  -6.7114  -6.7113  -6.6474  -6.6473  -6.6084  -6.6082
    -6.5301  -6.5298  -6.4493  -6.4491  -6.3802  -6.3800  -6.2211  -6.2209
    -6.1703  -6.1701  -6.1387  -6.1386  -6.0681  -6.0678  -5.9937  -5.9935
    -5.9617  -5.9616  -5.9375  -5.9372  -5.8750  -5.8749  -5.8641  -5.8640
    -5.7807  -5.7804  -5.7641  -5.7639  -5.5867  -5.5865  -5.4743  -5.4740
    -5.2906  -5.2903  -5.2410  -5.2409  -5.2236  -5.2235  -5.1216  -5.1213
    -4.9044  -4.9043  -4.8451  -4.8449  -4.7895  -4.7894  -4.7572  -4.7570
    -4.3914  -4.3913  -4.2532  -4.2530  -4.1442  -4.1437  -4.0894  -4.0891
    -3.9548  -3.9545  -3.8312  -3.8309  -3.7549  -3.7548  -3.5099  -3.5097
    -3.3108  -3.3104  -3.1798  -3.1794  -2.9795  -2.9793  -2.9660  -2.9658
    -2.9148  -2.9140  -2.8511  -2.8508  -2.7534  -2.7533  -2.6042  -2.6041
    -2.1369  -2.1367  -2.1258  -2.1257  -2.0615  -2.0613  -2.0484  -2.0483
    -1.2127  -1.2123  -1.1127  -1.1125  -1.0334  -1.0332  -1.0063  -1.0061
    -0.9191  -0.9189  -0.8903  -0.8902  -0.8659  -0.8658  -0.8491  -0.8489
    -0.7595  -0.7592  -0.7457  -0.7454  -0.6704  -0.6703  -0.6390  -0.6389
    -0.6164  -0.6162  -0.5991  -0.5991  -0.5148  -0.5146  -0.5018  -0.5017
    -0.4826  -0.4823  -0.4688  -0.4685  -0.1130  -0.1129  -0.0767  -0.0765
     0.0433   0.0437   0.0852   0.0857   0.1855   0.1857   0.2333   0.2333
     0.4597   0.4604   0.4838   0.4844   0.7148   0.7151   0.7318   0.7320
     0.9059   0.9060   0.9242   0.9243   0.9797   0.9798   0.9960   0.9961
     4.3934   4.3936   4.4741   4.4742   4.5827   4.5829   4.6682   4.6684
     5.1399   5.1410   5.2807   5.2823   6.1589   6.1590   6.1713   6.1714
     6.2878   6.2881   6.3730   6.3734   6.7018   6.7020   7.1507   7.1511
     7.2221   7.2222   7.8925   7.8926   8.0136   8.0139   8.0624   8.0626
     8.1746   8.1748   8.4255   8.4256   8.5032   8.5034   8.5935   8.5936
     8.7153   8.7155   8.7898   8.7903   8.8365   8.8365   8.8945   8.8948
     8.9937   8.9937   9.1008   9.1014

          k = 0.0000-0.2700-0.2633 (169204 PWs)   bands (ev):

   -24.5182 -24.5177 -24.5174 -24.5171 -24.3453 -24.3452 -24.3451 -24.3447
   -20.1203 -20.1202 -20.1188 -20.1187 -19.3877 -19.3876 -19.3859 -19.3858
   -19.1378 -19.1371 -19.1370 -19.1365 -18.9534 -18.9529 -18.9529 -18.9523
   -18.8987 -18.8986 -18.8957 -18.8956 -18.7393 -18.7393 -18.7389 -18.7388
   -17.8475 -17.8466 -17.8466 -17.8457 -17.4629 -17.4623 -17.4601 -17.4595
   -15.6139 -15.6131 -15.6081 -15.6073 -15.5038 -15.5031 -15.5027 -15.5021
   -14.9125 -14.9125 -14.8996 -14.8996 -14.3655 -14.3650 -14.3483 -14.3478
   -12.5779 -12.5777 -12.5774 -12.5771 -11.6493 -11.6487 -11.5903 -11.5898
   -10.9229 -10.9226 -10.8880 -10.8876  -9.6709  -9.6706  -9.6313  -9.6310
    -9.2982  -9.2980  -9.2886  -9.2883  -8.8794  -8.8794  -8.7902  -8.7899
    -8.6198  -8.6194  -8.4239  -8.4237  -8.3670  -8.3669  -8.3466  -8.3465
    -8.1515  -8.1512  -8.1286  -8.1285  -8.0408  -8.0403  -7.9294  -7.9292
    -7.7139  -7.7138  -7.7028  -7.7027  -7.1826  -7.1825  -7.1316  -7.1314
    -6.7609  -6.7607  -6.7266  -6.7263  -6.6488  -6.6486  -6.6139  -6.6134
    -6.5163  -6.5161  -6.4847  -6.4846  -6.2865  -6.2865  -6.2631  -6.2630
    -6.2192  -6.2190  -6.1507  -6.1506  -6.0833  -6.0828  -6.0325  -6.0323
    -5.9333  -5.9328  -5.9255  -5.9253  -5.8528  -5.8527  -5.8479  -5.8479
    -5.7764  -5.7764  -5.7676  -5.7673  -5.5956  -5.5953  -5.4947  -5.4945
    -5.3036  -5.3034  -5.2539  -5.2536  -5.2087  -5.2085  -5.0735  -5.0731
    -4.8815  -4.8814  -4.8489  -4.8487  -4.8105  -4.8104  -4.7620  -4.7617
    -4.3773  -4.3771  -4.2724  -4.2723  -4.1512  -4.1507  -4.0885  -4.0883
    -3.9369  -3.9368  -3.8425  -3.8422  -3.7502  -3.7502  -3.5156  -3.5154
    -3.3104  -3.3100  -3.1859  -3.1855  -2.9771  -2.9770  -2.9632  -2.9629
    -2.9139  -2.9131  -2.8553  -2.8551  -2.7515  -2.7514  -2.6036  -2.6035
    -2.1384  -2.1383  -2.1257  -2.1255  -2.0768  -2.0767  -2.0305  -2.0304
    -1.1946  -1.1942  -1.1160  -1.1158  -0.9997  -0.9997  -0.9981  -0.9981
    -0.9413  -0.9411  -0.9126  -0.9125  -0.8817  -0.8814  -0.8659  -0.8656
    -0.7495  -0.7494  -0.7449  -0.7449  -0.6519  -0.6518  -0.6477  -0.6476
    -0.6184  -0.6182  -0.5922  -0.5921  -0.5181  -0.5180  -0.5071  -0.5070
    -0.4813  -0.4811  -0.4673  -0.4670  -0.0955  -0.0954  -0.0885  -0.0885
     0.0571   0.0577   0.0608   0.0612   0.1962   0.1965   0.2270   0.2271
     0.4724   0.4731   0.4744   0.4751   0.7163   0.7166   0.7296   0.7298
     0.9179   0.9181   0.9199   0.9201   0.9764   0.9766   0.9902   0.9903
     4.4044   4.4045   4.4546   4.4546   4.6254   4.6256   4.6329   4.6330
     5.1313   5.1324   5.2922   5.2938   6.1654   6.1655   6.1659   6.1660
     6.3253   6.3257   6.3350   6.3354   6.8090   6.8091   6.8685   6.8687
     7.5527   7.5528   7.6933   7.6935   8.0017   8.0020   8.0309   8.0312
     8.2983   8.2986   8.3471   8.3474   8.5264   8.5266   8.6152   8.6154
     8.7881   8.7884   8.7925   8.7929   8.8370   8.8373   8.9006   8.9009
     8.9260   8.9263   9.0372   9.0377

          k = 0.3333 0.0000 0.0000 (169279 PWs)   bands (ev):

   -24.5178 -24.5172 -24.5171 -24.5168 -24.3458 -24.3456 -24.3455 -24.3451
   -20.1272 -20.1271 -20.1109 -20.1098 -19.4026 -19.3977 -19.3690 -19.3666
   -19.1391 -19.1387 -19.1363 -19.1355 -18.9528 -18.9525 -18.9517 -18.9513
   -18.9017 -18.8996 -18.8995 -18.8986 -18.7465 -18.7463 -18.7394 -18.7390
   -17.8523 -17.8515 -17.8432 -17.8427 -17.4616 -17.4607 -17.4585 -17.4561
   -15.6194 -15.6168 -15.6047 -15.6044 -15.5079 -15.5068 -15.5004 -15.4997
   -14.9099 -14.9058 -14.9057 -14.9010 -14.3604 -14.3509 -14.3454 -14.3347
   -12.5858 -12.5854 -12.5773 -12.5756 -11.6370 -11.6331 -11.6008 -11.5988
   -10.9205 -10.9132 -10.9039 -10.8931  -9.7199  -9.6937  -9.6467  -9.6210
    -9.3703  -9.3256  -9.2267  -9.2129  -8.9125  -8.8512  -8.8503  -8.7954
    -8.6124  -8.5603  -8.5047  -8.4632  -8.4180  -8.4158  -8.2671  -8.2600
    -8.1836  -8.1114  -8.1046  -8.0850  -7.9752  -7.9683  -7.9307  -7.9135
    -7.8017  -7.7824  -7.7035  -7.6928  -7.2413  -7.2275  -7.1041  -7.0801
    -6.8054  -6.7969  -6.7589  -6.7148  -6.6906  -6.6558  -6.6231  -6.6063
    -6.5034  -6.4995  -6.3791  -6.3740  -6.3473  -6.3265  -6.2390  -6.2170
    -6.2082  -6.1699  -6.1560  -6.1061  -6.0771  -6.0663  -6.0483  -6.0351
    -5.9935  -5.9667  -5.9467  -5.9259  -5.9059  -5.8648  -5.8287  -5.8208
    -5.7848  -5.7823  -5.7671  -5.7444  -5.5460  -5.5361  -5.5282  -5.4758
    -5.2988  -5.2813  -5.2702  -5.2302  -5.1911  -5.1611  -5.1579  -5.1158
    -4.9439  -4.9123  -4.8555  -4.8537  -4.8027  -4.7843  -4.7559  -4.7243
    -4.3458  -4.3182  -4.2628  -4.1816  -4.1450  -4.1099  -4.1051  -4.1042
    -4.0147  -3.9290  -3.8318  -3.8212  -3.7153  -3.6902  -3.5954  -3.5768
    -3.2776  -3.2652  -3.2308  -3.2180  -3.0061  -2.9960  -2.9953  -2.9646
    -2.9600  -2.9456  -2.8904  -2.8873  -2.7666  -2.7554  -2.6612  -2.6395
    -2.1372  -2.1247  -2.1091  -2.1076  -2.0567  -2.0560  -2.0530  -2.0513
    -1.1974  -1.1535  -1.1383  -1.1151  -1.0645  -1.0552  -1.0077  -0.9968
    -0.9243  -0.9094  -0.8897  -0.8869  -0.8735  -0.8616  -0.8592  -0.8542
    -0.7666  -0.7552  -0.7517  -0.7492  -0.6896  -0.6842  -0.6754  -0.6632
    -0.6437  -0.6378  -0.6115  -0.6095  -0.5444  -0.5125  -0.5073  -0.5070
    -0.4346  -0.4339  -0.4286  -0.4235  -0.1076  -0.0959  -0.0926  -0.0709
     0.0503   0.0676   0.0748   0.0941   0.1472   0.1621   0.3160   0.3177
     0.4074   0.4143   0.4912   0.5080   0.7086   0.7168   0.7176   0.7353
     0.9196   0.9232   0.9435   0.9493   0.9853   0.9945   1.0164   1.0230
     4.4017   4.4374   4.4821   4.4825   4.5365   4.5671   4.5983   4.6455
     5.1261   5.1642   5.1997   5.2342   6.1206   6.1325   6.1657   6.1762
     6.3088   6.3289   6.4767   6.5151   6.7241   7.1633   7.2377   7.4049
     7.5642   7.6065   7.6766   7.6810   7.7573   7.8157   7.9028   8.0264
     8.1224   8.2284   8.2408   8.3052   8.3882   8.3994   8.4661   8.5073
     8.5637   8.5732   8.6264   8.6955   8.7090   8.7930   8.8593   8.9433
     9.0112   9.0396   9.0412   9.0578

          k = 0.3333 0.0000-0.2633 (169246 PWs)   bands (ev):

   -24.5177 -24.5172 -24.5171 -24.5169 -24.3457 -24.3456 -24.3455 -24.3451
   -20.1272 -20.1271 -20.1104 -20.1103 -19.4000 -19.4000 -19.3679 -19.3679
   -19.1386 -19.1381 -19.1366 -19.1364 -18.9525 -18.9523 -18.9520 -18.9516
   -18.9008 -18.9007 -18.8991 -18.8990 -18.7430 -18.7429 -18.7426 -18.7424
   -17.8519 -17.8518 -17.8430 -17.8430 -17.4612 -17.4609 -17.4576 -17.4573
   -15.6183 -15.6181 -15.6045 -15.6044 -15.5074 -15.5073 -15.5001 -15.5000
   -14.9095 -14.9095 -14.9017 -14.9017 -14.3569 -14.3567 -14.3391 -14.3389
   -12.5857 -12.5857 -12.5765 -12.5764 -11.6322 -11.6316 -11.6022 -11.6016
   -10.9186 -10.9183 -10.8991 -10.8988  -9.7048  -9.7047  -9.6321  -9.6320
    -9.3006  -9.3005  -9.2758  -9.2757  -8.8999  -8.8999  -8.8185  -8.8183
    -8.5788  -8.5787  -8.4746  -8.4745  -8.3445  -8.3444  -8.3241  -8.3240
    -8.1449  -8.1449  -8.1230  -8.1229  -7.9987  -7.9983  -7.9244  -7.9242
    -7.7289  -7.7289  -7.7115  -7.7114  -7.2330  -7.2329  -7.0992  -7.0992
    -6.7827  -6.7826  -6.7353  -6.7352  -6.6681  -6.6680  -6.6388  -6.6386
    -6.4363  -6.4362  -6.4230  -6.4230  -6.2997  -6.2996  -6.2892  -6.2891
    -6.1921  -6.1921  -6.1630  -6.1629  -6.0899  -6.0896  -6.0226  -6.0225
    -5.9718  -5.9716  -5.9622  -5.9621  -5.8403  -5.8402  -5.8199  -5.8199
    -5.7724  -5.7723  -5.7527  -5.7526  -5.5457  -5.5456  -5.4903  -5.4901
    -5.2987  -5.2986  -5.2549  -5.2548  -5.2025  -5.2023  -5.1264  -5.1261
    -4.8914  -4.8912  -4.8617  -4.8616  -4.8125  -4.8124  -4.7391  -4.7391
    -4.3403  -4.3403  -4.2133  -4.2132  -4.1380  -4.1377  -4.1017  -4.1017
    -3.9707  -3.9707  -3.8215  -3.8214  -3.7018  -3.7016  -3.5879  -3.5877
    -3.2684  -3.2680  -3.2214  -3.2211  -3.0046  -3.0045  -2.9877  -2.9875
    -2.9485  -2.9484  -2.8857  -2.8856  -2.7618  -2.7614  -2.6500  -2.6498
    -2.1301  -2.1300  -2.1117  -2.1116  -2.0614  -2.0613  -2.0449  -2.0448
    -1.1708  -1.1706  -1.1256  -1.1254  -1.0082  -1.0081  -1.0029  -1.0028
    -0.9434  -0.9433  -0.9276  -0.9275  -0.8696  -0.8695  -0.8651  -0.8650
    -0.7644  -0.7643  -0.7401  -0.7400  -0.6845  -0.6844  -0.6602  -0.6600
    -0.6345  -0.6345  -0.6157  -0.6156  -0.5268  -0.5267  -0.5100  -0.5099
    -0.4340  -0.4338  -0.4299  -0.4297  -0.0949  -0.0947  -0.0831  -0.0829
     0.0675   0.0677   0.0772   0.0775   0.1501   0.1502   0.3145   0.3146
     0.4137   0.4138   0.5001   0.5002   0.7157   0.7159   0.7306   0.7308
     0.9214   0.9215   0.9446   0.9447   0.9872   0.9873   1.0157   1.0157
     4.4331   4.4332   4.4661   4.4662   4.5633   4.5635   4.6127   4.6128
     5.1385   5.1397   5.2235   5.2250   6.1271   6.1272   6.1711   6.1712
     6.3212   6.3213   6.4933   6.4934   6.8654   6.8655   7.4486   7.4486
     7.5502   7.5502   7.6739   7.6739   7.8533   7.8533   7.9413   7.9415
     8.0869   8.0871   8.2407   8.2411   8.4187   8.4189   8.5276   8.5277
     8.5801   8.5802   8.6378   8.6379   8.7725   8.7727   8.8878   8.8878
     8.9402   8.9404   9.0297   9.0301

          k = 0.3333-0.2700 0.0000 (169258 PWs)   bands (ev):

   -24.5177 -24.5173 -24.5171 -24.5168 -24.3458 -24.3456 -24.3455 -24.3451
   -20.1194 -20.1193 -20.1185 -20.1184 -19.3868 -19.3867 -19.3811 -19.3810
   -19.1389 -19.1385 -19.1361 -19.1359 -18.9528 -18.9525 -18.9517 -18.9513
   -18.9011 -18.9008 -18.8989 -18.8986 -18.7465 -18.7464 -18.7393 -18.7391
   -17.8485 -17.8481 -17.8467 -17.8463 -17.4608 -17.4606 -17.4580 -17.4578
   -15.6126 -15.6120 -15.6106 -15.6100 -15.5045 -15.5040 -15.5037 -15.5032
   -14.9079 -14.9079 -14.9034 -14.9034 -14.3531 -14.3526 -14.3429 -14.3424
   -12.5819 -12.5814 -12.5806 -12.5801 -11.6354 -11.6348 -11.6001 -11.5995
   -10.9171 -10.9168 -10.8986 -10.8983  -9.6876  -9.6874  -9.6564  -9.6562
    -9.3495  -9.3495  -9.2174  -9.2173  -8.8830  -8.8829  -8.8204  -8.8203
    -8.5870  -8.5868  -8.4841  -8.4839  -8.4175  -8.4172  -8.2594  -8.2593
    -8.1559  -8.1558  -8.0917  -8.0916  -7.9592  -7.9591  -7.9310  -7.9309
    -7.7935  -7.7934  -7.6969  -7.6969  -7.1757  -7.1757  -7.1666  -7.1665
    -6.7711  -6.7708  -6.7579  -6.7578  -6.6828  -6.6827  -6.6000  -6.5999
    -6.5052  -6.5049  -6.3837  -6.3836  -6.3297  -6.3295  -6.2252  -6.2251
    -6.2028  -6.2027  -6.1132  -6.1131  -6.0616  -6.0616  -6.0319  -6.0317
    -6.0022  -6.0019  -5.9293  -5.9293  -5.8885  -5.8883  -5.8342  -5.8341
    -5.7824  -5.7822  -5.7547  -5.7545  -5.5446  -5.5444  -5.4983  -5.4981
    -5.2841  -5.2839  -5.2508  -5.2505  -5.1871  -5.1868  -5.1321  -5.1318
    -4.9265  -4.9264  -4.8348  -4.8347  -4.7883  -4.7882  -4.7693  -4.7691
    -4.3144  -4.3142  -4.2435  -4.2433  -4.1390  -4.1387  -4.0992  -4.0990
    -3.9323  -3.9322  -3.8509  -3.8508  -3.7117  -3.7115  -3.5847  -3.5845
    -3.2722  -3.2718  -3.2225  -3.2221  -3.0043  -3.0042  -2.9684  -2.9681
    -2.9276  -2.9274  -2.9182  -2.9179  -2.7625  -2.7622  -2.6498  -2.6496
    -2.1285  -2.1284  -2.1113  -2.1112  -2.0570  -2.0569  -2.0518  -2.0517
    -1.1780  -1.1777  -1.1255  -1.1253  -1.0593  -1.0591  -1.0055  -1.0052
    -0.9123  -0.9121  -0.8903  -0.8902  -0.8642  -0.8641  -0.8602  -0.8600
    -0.7561  -0.7558  -0.7496  -0.7494  -0.6858  -0.6856  -0.6700  -0.6697
    -0.6427  -0.6425  -0.6164  -0.6162  -0.5343  -0.5341  -0.5030  -0.5029
    -0.4305  -0.4304  -0.4285  -0.4283  -0.0928  -0.0926  -0.0804  -0.0802
     0.0646   0.0648   0.0858   0.0861   0.1924   0.1925   0.2252   0.2253
     0.4671   0.4677   0.4802   0.4808   0.7122   0.7125   0.7279   0.7281
     0.9239   0.9241   0.9392   0.9393   1.0009   1.0010   1.0135   1.0135
     4.4159   4.4161   4.4856   4.4858   4.5503   4.5504   4.6237   4.6239
     5.1421   5.1433   5.2155   5.2170   6.1371   6.1373   6.1450   6.1451
     6.3940   6.3944   6.4262   6.4266   6.9784   6.9785   7.3290   7.3292
     7.4088   7.4090   7.7097   7.7098   7.9576   7.9576   8.0364   8.0365
     8.0962   8.0964   8.1672   8.1674   8.3692   8.3693   8.4699   8.4701
     8.6399   8.6402   8.6959   8.6960   8.7977   8.7979   8.9118   8.9121
     8.9626   8.9627   9.0290   9.0292

          k = 0.3333-0.2700-0.2633 (169280 PWs)   bands (ev):

   -24.5177 -24.5172 -24.5171 -24.5169 -24.3457 -24.3456 -24.3455 -24.3451
   -20.1193 -20.1192 -20.1186 -20.1185 -19.3844 -19.3843 -19.3835 -19.3834
   -19.1380 -19.1374 -19.1372 -19.1369 -18.9525 -18.9522 -18.9520 -18.9516
   -18.9007 -18.9007 -18.8991 -18.8991 -18.7429 -18.7428 -18.7426 -18.7425
   -17.8481 -17.8476 -17.8471 -17.8467 -17.4603 -17.4597 -17.4589 -17.4582
   -15.6132 -15.6123 -15.6103 -15.6095 -15.5044 -15.5039 -15.5038 -15.5032
   -14.9089 -14.9089 -14.9024 -14.9024 -14.3523 -14.3518 -14.3437 -14.3432
   -12.5815 -12.5812 -12.5810 -12.5806 -11.6321 -11.6316 -11.6022 -11.6017
   -10.9177 -10.9173 -10.9001 -10.8998  -9.6821  -9.6818  -9.6576  -9.6573
    -9.2926  -9.2924  -9.2846  -9.2844  -8.8840  -8.8839  -8.8313  -8.8311
    -8.5770  -8.5769  -8.4780  -8.4779  -8.3350  -8.3349  -8.3305  -8.3304
    -8.1495  -8.1493  -8.1194  -8.1192  -7.9933  -7.9929  -7.9299  -7.9296
    -7.7226  -7.7225  -7.7181  -7.7180  -7.1792  -7.1791  -7.1644  -7.1643
    -6.7623  -6.7621  -6.7543  -6.7541  -6.6523  -6.6520  -6.6510  -6.6507
    -6.4343  -6.4341  -6.4231  -6.4230  -6.2989  -6.2988  -6.2885  -6.2884
    -6.1916  -6.1915  -6.1657  -6.1656  -6.0655  -6.0651  -6.0369  -6.0367
    -5.9715  -5.9714  -5.9598  -5.9596  -5.8402  -5.8400  -5.8296  -5.8294
    -5.7664  -5.7663  -5.7604  -5.7604  -5.5358  -5.5355  -5.4999  -5.4997
    -5.2910  -5.2906  -5.2569  -5.2566  -5.2031  -5.2027  -5.1304  -5.1300
    -4.8786  -4.8784  -4.8669  -4.8667  -4.7948  -4.7947  -4.7679  -4.7677
    -4.3048  -4.3046  -4.2581  -4.2579  -4.1317  -4.1312  -4.1068  -4.1064
    -3.9117  -3.9115  -3.8706  -3.8704  -3.7058  -3.7056  -3.5884  -3.5882
    -3.2681  -3.2676  -3.2204  -3.2200  -3.0032  -3.0031  -2.9769  -2.9766
    -2.9287  -2.9285  -2.9124  -2.9122  -2.7625  -2.7622  -2.6501  -2.6499
    -2.1248  -2.1247  -2.1164  -2.1164  -2.0612  -2.0610  -2.0461  -2.0461
    -1.1663  -1.1660  -1.1279  -1.1277  -1.0114  -1.0114  -1.0068  -1.0068
    -0.9394  -0.9392  -0.9274  -0.9272  -0.8707  -0.8706  -0.8644  -0.8643
    -0.7514  -0.7513  -0.7492  -0.7491  -0.6753  -0.6752  -0.6711  -0.6710
    -0.6333  -0.6332  -0.6211  -0.6210  -0.5242  -0.5240  -0.5155  -0.5152
    -0.4313  -0.4311  -0.4288  -0.4286  -0.0839  -0.0836  -0.0810  -0.0808
     0.0696   0.0701   0.0739   0.0743   0.2023   0.2026   0.2157   0.2159
     0.4733   0.4739   0.4751   0.4758   0.7183   0.7186   0.7287   0.7289
     0.9297   0.9300   0.9313   0.9315   1.0007   1.0007   1.0079   1.0080
     4.4314   4.4315   4.4650   4.4651   4.5833   4.5835   4.5958   4.5960
     5.1393   5.1406   5.2195   5.2210   6.1385   6.1386   6.1453   6.1454
     6.4044   6.4048   6.4144   6.4148   7.0699   7.0700   7.1154   7.1156
     7.6192   7.6192   7.7030   7.7032   7.9098   7.9100   7.9598   7.9600
     8.1347   8.1348   8.1633   8.1635   8.4026   8.4026   8.4588   8.4591
     8.6024   8.6027   8.6870   8.6871   8.7768   8.7771   8.8722   8.8726
     9.0092   9.0094   9.0290   9.0293

     highest occupied, lowest unoccupied level (ev):     1.0230    4.3686

!    total energy              =   -2729.45678103 Ry
     Harris-Foulkes estimate   =   -2729.45678103 Ry
     estimated scf accuracy    <          2.4E-09 Ry

     total all-electron energy =    -10211.128772 Ry

     The total energy is the sum of the following terms:

     one-electron contribution =   -1499.28886932 Ry
     hartree contribution      =     957.60790430 Ry
     xc contribution           =    -562.89332753 Ry
     ewald contribution        =    -878.42902365 Ry
     Dispersion Correction     =      -0.74595758 Ry
     one-center paw contrib.   =    -745.70750724 Ry

     convergence has been achieved in  17 iterations

     Forces acting on atoms (cartesian axes, Ry/au):

     atom    1 type  2   force =     0.00087587   -0.00062608    0.00022434
     atom    2 type  2   force =    -0.00098277    0.00056271    0.00017330
     atom    3 type  2   force =     0.00087856    0.00063711   -0.00019720
     atom    4 type  2   force =    -0.00098095   -0.00056996   -0.00016005
     atom    5 type  2   force =    -0.00050858   -0.00074860   -0.00149445
     atom    6 type  2   force =     0.00015531    0.00058479   -0.00178306
     atom    7 type  2   force =    -0.00048938    0.00074098    0.00150602
     atom    8 type  2   force =     0.00015203   -0.00058726    0.00178383
     atom    9 type  2   force =     0.00007476    0.00012748   -0.00080320
     atom   10 type  2   force =    -0.00005960   -0.00010570   -0.00078828
     atom   11 type  2   force =     0.00006878   -0.00012324    0.00078747
     atom   12 type  2   force =    -0.00006722    0.00010588    0.00079302
     atom   13 type  3   force =     0.00012924   -0.00019650   -0.00004662
     atom   14 type  3   force =    -0.00013925    0.00018462   -0.00003931
     atom   15 type  3   force =     0.00012908    0.00019752    0.00004462
     atom   16 type  3   force =    -0.00013860   -0.00019078    0.00004009
     atom   17 type  2   force =     0.00032672    0.00027626    0.00010491
     atom   18 type  2   force =    -0.00052516   -0.00028765   -0.00006006
     atom   19 type  2   force =     0.00033804   -0.00030782    0.00000067
     atom   20 type  2   force =    -0.00048125    0.00028604    0.00002074
     atom   21 type  3   force =     0.00047510   -0.00030137    0.00003754
     atom   22 type  3   force =    -0.00043547    0.00033311    0.00011952
     atom   23 type  3   force =     0.00047609    0.00031243   -0.00006875
     atom   24 type  3   force =    -0.00044150   -0.00032352   -0.00010211
     atom   25 type  2   force =    -0.00036273    0.00036816    0.00010512
     atom   26 type  2   force =     0.00024273   -0.00039803   -0.00018731
     atom   27 type  2   force =    -0.00036055   -0.00045697    0.00027523
     atom   28 type  2   force =     0.00030369    0.00039607    0.00007255
     atom   29 type  3   force =    -0.00046849   -0.00017991   -0.00047914
     atom   30 type  3   force =     0.00050859    0.00015868   -0.00045295
     atom   31 type  3   force =    -0.00046873    0.00018600    0.00045536
     atom   32 type  3   force =     0.00047897   -0.00017717    0.00046362
     atom   33 type  3   force =     0.00032492   -0.00015498    0.00004558
     atom   34 type  3   force =    -0.00034500    0.00016766    0.00011651
     atom   35 type  3   force =     0.00040217    0.00017923   -0.00014175
     atom   36 type  3   force =    -0.00034126   -0.00016167   -0.00009840
     atom   37 type  2   force =    -0.00038461   -0.00017087    0.00033768
     atom   38 type  2   force =     0.00021181    0.00017852    0.00023001
     atom   39 type  2   force =    -0.00056602    0.00001945   -0.00004514
     atom   40 type  2   force =     0.00022290   -0.00019311   -0.00029848
     atom   41 type  3   force =    -0.00013514    0.00062658   -0.00015618
     atom   42 type  3   force =     0.00021060   -0.00062776   -0.00013833
     atom   43 type  3   force =    -0.00007003   -0.00061438    0.00014470
     atom   44 type  3   force =     0.00019928    0.00062677    0.00014409
     atom   45 type  3   force =     0.00037020    0.00026261   -0.00005922
     atom   46 type  3   force =    -0.00033303   -0.00026429   -0.00000938
     atom   47 type  3   force =     0.00035271   -0.00025010   -0.00000236
     atom   48 type  3   force =    -0.00034788    0.00026411    0.00003068
     atom   49 type  2   force =     0.00071927   -0.00051653   -0.00036176
     atom   50 type  2   force =    -0.00105097    0.00027550   -0.00039813
     atom   51 type  2   force =     0.00069932    0.00055119    0.00042938
     atom   52 type  2   force =    -0.00104664   -0.00028755    0.00043792
     atom   53 type  3   force =     0.00037305    0.00001104   -0.00068318
     atom   54 type  3   force =    -0.00028204    0.00005035   -0.00059116
     atom   55 type  3   force =     0.00037058   -0.00001261    0.00067521
     atom   56 type  3   force =    -0.00027695   -0.00005231    0.00058262
     atom   57 type  3   force =    -0.00016811    0.00003002    0.00070588
     atom   58 type  3   force =     0.00018934   -0.00000613    0.00069305
     atom   59 type  3   force =    -0.00017669   -0.00003638   -0.00073661
     atom   60 type  3   force =     0.00019743    0.00000898   -0.00070867
     atom   61 type  2   force =     0.00012171   -0.00039763    0.00001437
     atom   62 type  2   force =    -0.00039751    0.00027523   -0.00016005
     atom   63 type  2   force =     0.00010933    0.00043505    0.00006654
     atom   64 type  2   force =    -0.00039729   -0.00027950    0.00019803
     atom   65 type  3   force =    -0.00016897   -0.00022516   -0.00007799
     atom   66 type  3   force =     0.00028575    0.00027778   -0.00000738
     atom   67 type  3   force =    -0.00017291    0.00022528    0.00007647
     atom   68 type  3   force =     0.00029198   -0.00028241    0.00000565
     atom   69 type  3   force =     0.00021124    0.00021244   -0.00031872
     atom   70 type  3   force =    -0.00013366   -0.00016050   -0.00032355
     atom   71 type  3   force =     0.00022464   -0.00022577    0.00031144
     atom   72 type  3   force =    -0.00013674    0.00016021    0.00032316
     atom   73 type  1   force =     0.00094267   -0.00006901    0.00142127
     atom   74 type  1   force =    -0.00094109    0.00005341    0.00143504
     atom   75 type  1   force =     0.00094077    0.00011126   -0.00142637
     atom   76 type  1   force =    -0.00094256   -0.00010317   -0.00144095
     atom   77 type  1   force =    -0.00002465    0.00007478    0.00028272
     atom   78 type  1   force =    -0.00000342   -0.00008669    0.00019534
     atom   79 type  1   force =    -0.00002640   -0.00010261   -0.00028656
     atom   80 type  1   force =     0.00000083    0.00011943   -0.00019668
     atom   81 type  3   force =     0.00021076    0.00027723   -0.00073444
     atom   82 type  3   force =    -0.00021896   -0.00027523   -0.00073760
     atom   83 type  3   force =     0.00021467   -0.00027393    0.00073316
     atom   84 type  3   force =    -0.00022467    0.00027126    0.00073646
     atom   85 type  3   force =    -0.00034423    0.00042981    0.00010165
     atom   86 type  3   force =     0.00034944   -0.00043212    0.00010732
     atom   87 type  3   force =    -0.00034404   -0.00042386   -0.00010214
     atom   88 type  3   force =     0.00034912    0.00042534   -0.00010642
     atom   89 type  1   force =    -0.00073154   -0.00094111   -0.00022073
     atom   90 type  1   force =     0.00114148    0.00111835    0.00010408
     atom   91 type  1   force =    -0.00075425    0.00098273    0.00020534
     atom   92 type  1   force =     0.00114690   -0.00114324   -0.00010907
     atom   93 type  1   force =    -0.00007597   -0.00029319    0.00047950
     atom   94 type  1   force =     0.00004277    0.00028675    0.00049784
     atom   95 type  1   force =    -0.00007621    0.00030355   -0.00047204
     atom   96 type  1   force =     0.00004261   -0.00029999   -0.00050142
     atom   97 type  3   force =    -0.00011713    0.00013817   -0.00029748
     atom   98 type  3   force =     0.00012148   -0.00013916   -0.00029780
     atom   99 type  3   force =    -0.00011549   -0.00013899    0.00029761
     atom  100 type  3   force =     0.00012124    0.00014157    0.00029841
     atom  101 type  3   force =    -0.00005574   -0.00015821    0.00008552
     atom  102 type  3   force =     0.00006504    0.00015463    0.00007508
     atom  103 type  3   force =    -0.00005683    0.00015475   -0.00008325
     atom  104 type  3   force =     0.00006566   -0.00014997   -0.00007358
     atom  105 type  3   force =    -0.00028529    0.00053489   -0.00016652
     atom  106 type  3   force =     0.00028236   -0.00052345   -0.00016240
     atom  107 type  3   force =    -0.00028379   -0.00053710    0.00016990
     atom  108 type  3   force =     0.00028081    0.00052525    0.00016603
     atom  109 type  1   force =    -0.00051566    0.00150775   -0.00045966
     atom  110 type  1   force =     0.00091792   -0.00130746   -0.00044902
     atom  111 type  1   force =    -0.00050153   -0.00153423    0.00035171
     atom  112 type  1   force =     0.00091324    0.00129930    0.00039816
     atom  113 type  1   force =    -0.00093184    0.00019699   -0.00060570
     atom  114 type  1   force =     0.00093081   -0.00019987   -0.00059106
     atom  115 type  1   force =    -0.00093220   -0.00025015    0.00060613
     atom  116 type  1   force =     0.00093196    0.00024722    0.00059447
     atom  117 type  3   force =    -0.00058280   -0.00017230    0.00049292
     atom  118 type  3   force =     0.00057877    0.00017004    0.00048467
     atom  119 type  3   force =    -0.00058437    0.00016761   -0.00049548
     atom  120 type  3   force =     0.00058188   -0.00016484   -0.00048641
     atom  121 type  3   force =     0.00061027   -0.00071279    0.00028228
     atom  122 type  3   force =    -0.00061648    0.00071385    0.00028814
     atom  123 type  3   force =     0.00061277    0.00071584   -0.00028316
     atom  124 type  3   force =    -0.00061833   -0.00071613   -0.00029075
     atom  125 type  3   force =    -0.00010746    0.00015285    0.00014293
     atom  126 type  3   force =     0.00010406   -0.00015392    0.00014136
     atom  127 type  3   force =    -0.00011012   -0.00015428   -0.00014218
     atom  128 type  3   force =     0.00010628    0.00015555   -0.00013990
     atom  129 type  1   force =    -0.00051856    0.00053826   -0.00049984
     atom  130 type  1   force =     0.00082942   -0.00051764   -0.00010723
     atom  131 type  1   force =    -0.00044883   -0.00033908   -0.00002669
     atom  132 type  1   force =     0.00076104    0.00054212    0.00024972
     atom  133 type  2   force =    -0.00048252    0.00019626    0.00030386
     atom  134 type  2   force =     0.00044423   -0.00018778    0.00022462
     atom  135 type  2   force =    -0.00043385   -0.00022775   -0.00026434
     atom  136 type  2   force =     0.00047230    0.00015701   -0.00023239
     atom  137 type  4   force =     0.00051437    0.00042810    0.00053032
     atom  138 type  4   force =    -0.00049011   -0.00043606    0.00057883
     atom  139 type  4   force =     0.00050783   -0.00043387   -0.00054452
     atom  140 type  4   force =    -0.00050103    0.00044724   -0.00058127
     atom  141 type  4   force =    -0.00025085   -0.00032770    0.00012191
     atom  142 type  4   force =     0.00025425    0.00032641    0.00014276
     atom  143 type  4   force =    -0.00026653    0.00034453   -0.00012428
     atom  144 type  4   force =     0.00024615   -0.00031094   -0.00014647
     atom  145 type  2   force =    -0.00029044    0.00005827   -0.00083826
     atom  146 type  2   force =     0.00023374   -0.00001448   -0.00077000
     atom  147 type  2   force =    -0.00026573   -0.00003003    0.00085142
     atom  148 type  2   force =     0.00028420    0.00006626    0.00077688
     atom  149 type  4   force =     0.00084014    0.00062519   -0.00064540
     atom  150 type  4   force =    -0.00080351   -0.00060675   -0.00060422
     atom  151 type  4   force =     0.00080996   -0.00060794    0.00061237
     atom  152 type  4   force =    -0.00082300    0.00062020    0.00061415
     atom  153 type  4   force =     0.00064508    0.00062971   -0.00036391
     atom  154 type  4   force =    -0.00061337   -0.00066294   -0.00038916
     atom  155 type  4   force =     0.00063645   -0.00063393    0.00036548
     atom  156 type  4   force =    -0.00064508    0.00063276    0.00036827
     atom  157 type  4   force =     0.00016304    0.00037438    0.00154882
     atom  158 type  4   force =    -0.00014886   -0.00037631    0.00150604
     atom  159 type  4   force =     0.00015358   -0.00038104   -0.00155440
     atom  160 type  4   force =    -0.00015498    0.00037207   -0.00151489
     atom  161 type  4   force =     0.00035258   -0.00029681    0.00017056
     atom  162 type  4   force =    -0.00033742    0.00028853    0.00015894
     atom  163 type  4   force =     0.00033893    0.00028489   -0.00018319
     atom  164 type  4   force =    -0.00035623   -0.00030997   -0.00014880

     Total force =     0.011104     Total SCF correction =     0.000089


     Computing stress (Cartesian axis) and pressure

          total   stress  (Ry/bohr**3)                   (kbar)     P=   -5.60
  -0.00004386  -0.00000002  -0.00000006         -6.45     -0.00     -0.01
  -0.00000002  -0.00003553  -0.00000005         -0.00     -5.23     -0.01
  -0.00000006  -0.00000005  -0.00003486         -0.01     -0.01     -5.13


     Writing output data file scf.save
 
     init_run     :    144.56s CPU    149.38s WALL (       1 calls)
     electrons    :   6106.66s CPU   6284.93s WALL (       1 calls)
     forces       :     73.77s CPU     74.26s WALL (       1 calls)
     stress       :    386.29s CPU    387.14s WALL (       1 calls)

     Called by init_run:
     wfcinit      :    135.65s CPU    140.20s WALL (       1 calls)
     potinit      :      3.15s CPU      3.18s WALL (       1 calls)

     Called by electrons:
     c_bands      :   5559.71s CPU   5714.16s WALL (      17 calls)
     sum_band     :    522.38s CPU    543.15s WALL (      17 calls)
     v_of_rho     :      3.57s CPU      3.91s WALL (      18 calls)
     newd         :      9.32s CPU     11.92s WALL (      18 calls)
     PAW_pot      :     10.85s CPU     10.86s WALL (      18 calls)
     mix_rho      :      0.76s CPU      0.86s WALL (      17 calls)

     Called by c_bands:
     init_us_2    :     19.28s CPU     19.35s WALL (     296 calls)
     cegterg      :   5479.70s CPU   5634.08s WALL (     136 calls)

     Called by sum_band:
     sum_band:bec :      0.25s CPU      0.25s WALL (     136 calls)
     addusdens    :      9.20s CPU     11.79s WALL (      17 calls)

     Called by *egterg:
     h_psi        :   2699.56s CPU   2820.40s WALL (     660 calls)
     s_psi        :    752.29s CPU    752.37s WALL (     660 calls)
     g_psi        :      9.84s CPU      9.85s WALL (     516 calls)
     cdiaghg      :    359.12s CPU    359.21s WALL (     652 calls)

     Called by h_psi:
     h_psi:pot    :   2685.44s CPU   2806.07s WALL (     660 calls)
     h_psi:calbec :    731.76s CPU    732.60s WALL (     660 calls)
     vloc_psi     :   1199.85s CPU   1319.52s WALL (     660 calls)
     add_vuspsi   :    753.83s CPU    753.94s WALL (     660 calls)

     General routines
     calbec       :   1073.10s CPU   1074.35s WALL (     836 calls)
     fft          :      2.30s CPU      2.95s WALL (     258 calls)
     fftw         :   1277.12s CPU   1414.26s WALL (  278582 calls)
 
     Parallel routines
     fft_scatter  :    217.77s CPU    352.25s WALL (  278840 calls)
 
     PWSCF        :     1h52m CPU        1h56m WALL

 
   This run was terminated on:  18: 3:19   4Nov2017            

=------------------------------------------------------------------------------=
   JOB DONE.
=------------------------------------------------------------------------------=
