
     Program PWSCF v.6.1 (svn rev. 13369) starts on  4Nov2017 at  0:26:31 

     This program is part of the open-source Quantum ESPRESSO suite
     for quantum simulation of materials; please cite
         "P. Giannozzi et al., J. Phys.:Condens. Matter 21 395502 (2009);
          URL http://www.quantum-espresso.org", 
     in publications or presentations arising from this work. More details at
     http://www.quantum-espresso.org/quote

     Parallel version (MPI), running on     8 processors
     R & G space division:  proc/nbgrp/npool/nimage =       8
     Waiting for input...
     Reading input from standard input

     Current dimensions of program PWSCF are:
     Max number of different atomic species (ntypx) = 10
     Max number of k-points (npk) =  40000
     Max angular momentum in pseudopotentials (lmaxx) =  3
               file C.pbe-n-kjpaw_psl.0.1.UPF: wavefunction(s)  2P renormalized
               file N.pbe-n-kjpaw_psl.0.1.UPF: wavefunction(s)  2P renormalized
               file H.pbe-kjpaw_psl.0.1.UPF: wavefunction(s)  1S renormalized
               file O.pbe-n-kjpaw_psl.0.1.UPF: wavefunction(s)  2P renormalized

     -------------------------------------
     Parameters for Dispersion Correction:
     -------------------------------------
       atom      VdW radius       C_6     

        C          2.744         60.710
        N          2.640         42.670
        H          1.892          4.857
        O          2.536         24.284

     Subspace diagonalization in iterative solution of the eigenvalue problem:
     a serial algorithm will be used

 
     Parallelization info
     --------------------
     sticks:   dense  smooth     PW     G-vecs:    dense   smooth      PW
     Min         790     790    215                44180    44180    6269
     Max         791     791    216                44182    44182    6272
     Sum        6323    6323   1723               353449   353449   50161
 


     bravais-lattice index     =            0
     lattice parameter (alat)  =      24.5371  a.u.
     unit-cell volume          =    2615.7818 (a.u.)^3
     number of atoms/cell      =           38
     number of atomic types    =            4
     number of electrons       =       128.00
     number of Kohn-Sham states=           76
     kinetic-energy cutoff     =     100.0000  Ry
     charge density cutoff     =     400.0000  Ry
     convergence threshold     =      1.0E-08
     mixing beta               =       0.5000
     number of iterations used =            8  plain     mixing
     Exchange-correlation      =  SLA  PW   PBX  PBC ( 1  4  3  4 0 0)

     celldm(1)=  24.537149  celldm(2)=   0.000000  celldm(3)=   0.000000
     celldm(4)=   0.000000  celldm(5)=   0.000000  celldm(6)=   0.000000

     crystal axes: (cart. coord. in units of alat)
               a(1) = (   1.000000   0.000000   0.000000 )  
               a(2) = (   0.000000   0.330132   0.000000 )  
               a(3) = (  -0.067585   0.000000   0.536342 )  

     reciprocal axes: (cart. coord. in units 2 pi/alat)
               b(1) = (  1.000000  0.000000  0.126010 )  
               b(2) = (  0.000000  3.029091  0.000000 )  
               b(3) = (  0.000000  0.000000  1.864483 )  


     PseudoPot. # 1 for  C read from file:
     /scratch/ahofstet/pseudo/C.pbe-n-kjpaw_psl.0.1.UPF
     MD5 check sum: 430fe95172b1e11ef3f8ed03bac87931
     Pseudo is Projector augmented-wave + core cor, Zval =  4.0
     Generated using "atomic" code by A. Dal Corso  v.5.0.99 svn rev. 10869
     Shape of augmentation charge: BESSEL
     Using radial grid of 1073 points,  4 beta functions with: 
                l(1) =   0
                l(2) =   0
                l(3) =   1
                l(4) =   1
     Q(r) pseudized with 0 coefficients 


     PseudoPot. # 2 for  N read from file:
     /scratch/ahofstet/pseudo/N.pbe-n-kjpaw_psl.0.1.UPF
     MD5 check sum: f73187c8b701007e77325f868c9291d7
     Pseudo is Projector augmented-wave + core cor, Zval =  5.0
     Generated using "atomic" code by A. Dal Corso  v.5.0.99 svn rev. 10869
     Shape of augmentation charge: PSQ
     Using radial grid of 1085 points,  4 beta functions with: 
                l(1) =   0
                l(2) =   0
                l(3) =   1
                l(4) =   1
     Q(r) pseudized with 0 coefficients 


     PseudoPot. # 3 for  H read from file:
     /scratch/ahofstet/pseudo/H.pbe-kjpaw_psl.0.1.UPF
     MD5 check sum: 94e484f906d9e9773b2f6e52662335b2
     Pseudo is Projector augmented-wave, Zval =  1.0
     Generated using "atomic" code by A. Dal Corso  v.5.0.99 svn rev. 10869
     Shape of augmentation charge: PSQ
     Using radial grid of  929 points,  2 beta functions with: 
                l(1) =   0
                l(2) =   0
     Q(r) pseudized with 0 coefficients 


     PseudoPot. # 4 for  O read from file:
     /scratch/ahofstet/pseudo/O.pbe-n-kjpaw_psl.0.1.UPF
     MD5 check sum: 3f94a2996a3169367d6eb21d9b593f20
     Pseudo is Projector augmented-wave + core cor, Zval =  6.0
     Generated using "atomic" code by A. Dal Corso  v.5.0.99 svn rev. 10869
     Shape of augmentation charge: BESSEL
     Using radial grid of 1095 points,  4 beta functions with: 
                l(1) =   0
                l(2) =   0
                l(3) =   1
                l(4) =   1
     Q(r) pseudized with 0 coefficients 


     atomic species   valence    mass     pseudopotential
        C              4.00    12.01070      C( 1.00)
        N              5.00    14.00670      N( 1.00)
        H              1.00     1.00794      H( 1.00)
        O              6.00    15.99940      O( 1.00)

      2 Sym. Ops. (no inversion) found ( 1 have fractional translation)



   Cartesian axes

     site n.     atom                  positions (alat units)
         1           C   tau(   1) = (   0.7502616   0.1700050   0.2260332  )
         2           C   tau(   2) = (   0.1821539   0.0049389   0.3103084  )
         3           C   tau(   3) = (   0.6354597   0.1550291   0.2323577  )
         4           C   tau(   4) = (   0.2969558  -0.0100370   0.3039839  )
         5           C   tau(   5) = (   0.5652621   0.2018617   0.1541431  )
         6           C   tau(   6) = (   0.3671534   0.0367956   0.3821985  )
         7           C   tau(   7) = (   0.6185380   0.2472175   0.0640235  )
         8           C   tau(   8) = (   0.3138775   0.0821515   0.4723181  )
         9           C   tau(   9) = (   0.6768069   0.0523330   0.5642004  )
        10           C   tau(  10) = (   0.2556085   0.2173990  -0.0278588  )
        11           C   tau(  11) = (   0.7721200   0.1009026   0.5813033  )
        12           C   tau(  12) = (   0.1602955   0.2659687  -0.0449617  )
        13           C   tau(  13) = (   0.9120911   0.0521051   0.1081728  )
        14           C   tau(  14) = (   0.0203244   0.2171712   0.4281688  )
        15           C   tau(  15) = (   0.8851132   0.2973382   0.1660073  )
        16           C   tau(  16) = (   0.0473022   0.1322722   0.3703343  )
        17           C   tau(  17) = (   0.7867484   0.2531370   0.1565954  )
        18           C   tau(  18) = (   0.1456671   0.0880710   0.3797462  )
        19           C   tau(  19) = (   0.7175371   0.2984001   0.0852469  )
        20           C   tau(  20) = (   0.2148784   0.1333341   0.4510947  )
        21           O   tau(  21) = (   0.8070780   0.1176376   0.2802224  )
        22           O   tau(  22) = (   0.1253375  -0.0474284   0.2561192  )
        23           O   tau(  23) = (   0.5190621   0.2327784   0.5124712  )
        24           O   tau(  24) = (   0.4133534   0.0677123   0.0238705  )
        25           O   tau(  25) = (   0.5811082   0.2494458   0.2540231  )
        26           O   tau(  26) = (   0.3513073   0.0843797   0.2823185  )
        27           H   tau(  27) = (   0.6074837   0.0831141   0.2694365  )
        28           H   tau(  28) = (   0.3249318   0.2481802   0.2669051  )
        29           H   tau(  29) = (   0.4902444   0.1659298   0.1418652  )
        30           H   tau(  30) = (   0.4421711   0.0008638   0.3944764  )
        31           H   tau(  31) = (   0.6223379   0.0819890   0.5075634  )
        32           H   tau(  32) = (   0.3100776   0.2470551   0.0287783  )
        33           H   tau(  33) = (   0.7939314   0.1668204   0.5344867  )
        34           H   tau(  34) = (   0.1384841   0.3318864   0.0018549  )
        35           H   tau(  35) = (   0.9889550   0.0842142   0.1175241  )
        36           H   tau(  36) = (  -0.0565396   0.2492802   0.4188175  )
        37           H   tau(  37) = (   0.9422107   0.2621756   0.2160660  )
        38           H   tau(  38) = (  -0.0097952   0.0971096   0.3202756  )

     number of k points=    12
                       cart. coord. in units 2pi/alat
        k(    1) = (   0.0000000   0.0000000   0.0000000), wk =   0.0833333
        k(    2) = (   0.0000000   0.0000000   0.6214945), wk =   0.1666667
        k(    3) = (   0.0000000   0.7572727   0.0000000), wk =   0.1666667
        k(    4) = (   0.0000000   0.7572727   0.6214945), wk =   0.3333333
        k(    5) = (   0.0000000  -1.5145453   0.0000000), wk =   0.0833333
        k(    6) = (   0.0000000  -1.5145453   0.6214945), wk =   0.1666667
        k(    7) = (  -0.5000000   0.0000000  -0.0630051), wk =   0.0833333
        k(    8) = (  -0.5000000   0.0000000   0.5584893), wk =   0.1666667
        k(    9) = (  -0.5000000   0.7572727  -0.0630051), wk =   0.1666667
        k(   10) = (  -0.5000000   0.7572727   0.5584893), wk =   0.3333333
        k(   11) = (  -0.5000000  -1.5145453  -0.0630051), wk =   0.0833333
        k(   12) = (  -0.5000000  -1.5145453   0.5584893), wk =   0.1666667

     Dense  grid:   353449 G-vectors     FFT dimensions: ( 160,  54,  90)

     Estimated max dynamical RAM per process >     183.93MB

     Estimated total allocated dynamical RAM >    1471.40MB

     Check: negative/imaginary core charge=   -0.000002    0.000000

     Initial potential from superposition of free atoms

     starting charge  127.99904, renormalised to  128.00000
     Starting wfc are  116 randomized atomic wfcs
     Checking if some PAW data can be deallocated... 

     total cpu time spent up to now is       10.1 secs

     per-process dynamical memory:   207.1 Mb

     Self-consistent Calculation

     iteration #  1     ecut=   100.00 Ry     beta=0.50
     Davidson diagonalization with overlap
     ethr =  1.00E-02,  avg # of iterations =  3.3

     total cpu time spent up to now is       28.9 secs

     total energy              =    -632.05092827 Ry
     Harris-Foulkes estimate   =    -633.94288093 Ry
     estimated scf accuracy    <       3.69669481 Ry

     iteration #  2     ecut=   100.00 Ry     beta=0.50
     Davidson diagonalization with overlap
     ethr =  2.89E-03,  avg # of iterations =  2.0

     total cpu time spent up to now is       39.6 secs

     total energy              =    -632.03970487 Ry
     Harris-Foulkes estimate   =    -632.44499082 Ry
     estimated scf accuracy    <       0.75695954 Ry

     iteration #  3     ecut=   100.00 Ry     beta=0.50
     Davidson diagonalization with overlap
     ethr =  5.91E-04,  avg # of iterations =  5.6

     total cpu time spent up to now is       60.4 secs

     total energy              =    -632.50249474 Ry
     Harris-Foulkes estimate   =    -632.80790344 Ry
     estimated scf accuracy    <       0.85487500 Ry

     iteration #  4     ecut=   100.00 Ry     beta=0.50
     Davidson diagonalization with overlap
     ethr =  5.91E-04,  avg # of iterations =  1.0

     total cpu time spent up to now is       70.4 secs

     total energy              =    -632.46217349 Ry
     Harris-Foulkes estimate   =    -632.56942148 Ry
     estimated scf accuracy    <       0.19287926 Ry

     iteration #  5     ecut=   100.00 Ry     beta=0.50
     Davidson diagonalization with overlap
     ethr =  1.51E-04,  avg # of iterations =  5.9

     total cpu time spent up to now is       90.3 secs

     total energy              =    -632.59306215 Ry
     Harris-Foulkes estimate   =    -632.62082060 Ry
     estimated scf accuracy    <       0.12858171 Ry

     iteration #  6     ecut=   100.00 Ry     beta=0.50
     Davidson diagonalization with overlap
     ethr =  1.00E-04,  avg # of iterations =  1.0

     total cpu time spent up to now is      100.2 secs

     total energy              =    -632.57206541 Ry
     Harris-Foulkes estimate   =    -632.60137707 Ry
     estimated scf accuracy    <       0.06542985 Ry

     iteration #  7     ecut=   100.00 Ry     beta=0.50
     Davidson diagonalization with overlap
     ethr =  5.11E-05,  avg # of iterations =  5.7

     total cpu time spent up to now is      112.9 secs

     total energy              =    -632.58135000 Ry
     Harris-Foulkes estimate   =    -632.58294048 Ry
     estimated scf accuracy    <       0.00353212 Ry

     iteration #  8     ecut=   100.00 Ry     beta=0.50
     Davidson diagonalization with overlap
     c_bands:  1 eigenvalues not converged
     ethr =  2.76E-06,  avg # of iterations =  6.2

     total cpu time spent up to now is      136.0 secs

     total energy              =    -632.58676294 Ry
     Harris-Foulkes estimate   =    -632.58776135 Ry
     estimated scf accuracy    <       0.00291473 Ry

     iteration #  9     ecut=   100.00 Ry     beta=0.50
     Davidson diagonalization with overlap
     c_bands:  1 eigenvalues not converged
     c_bands:  1 eigenvalues not converged
     ethr =  2.28E-06,  avg # of iterations =  4.8

     total cpu time spent up to now is      147.2 secs

     total energy              =    -632.58651663 Ry
     Harris-Foulkes estimate   =    -632.58689886 Ry
     estimated scf accuracy    <       0.00084208 Ry

     iteration # 10     ecut=   100.00 Ry     beta=0.50
     Davidson diagonalization with overlap
     ethr =  6.58E-07,  avg # of iterations =  5.7

     total cpu time spent up to now is      165.2 secs

     total energy              =    -632.58696315 Ry
     Harris-Foulkes estimate   =    -632.58702360 Ry
     estimated scf accuracy    <       0.00018549 Ry

     iteration # 11     ecut=   100.00 Ry     beta=0.50
     Davidson diagonalization with overlap
     ethr =  1.45E-07,  avg # of iterations =  1.1

     total cpu time spent up to now is      175.1 secs

     total energy              =    -632.58692360 Ry
     Harris-Foulkes estimate   =    -632.58696977 Ry
     estimated scf accuracy    <       0.00007591 Ry

     iteration # 12     ecut=   100.00 Ry     beta=0.50
     Davidson diagonalization with overlap
     ethr =  5.93E-08,  avg # of iterations =  4.0

     total cpu time spent up to now is      192.7 secs

     total energy              =    -632.58696232 Ry
     Harris-Foulkes estimate   =    -632.58698642 Ry
     estimated scf accuracy    <       0.00005188 Ry

     iteration # 13     ecut=   100.00 Ry     beta=0.50
     Davidson diagonalization with overlap
     ethr =  4.05E-08,  avg # of iterations =  1.0

     total cpu time spent up to now is      202.6 secs

     total energy              =    -632.58695871 Ry
     Harris-Foulkes estimate   =    -632.58696536 Ry
     estimated scf accuracy    <       0.00001098 Ry

     iteration # 14     ecut=   100.00 Ry     beta=0.50
     Davidson diagonalization with overlap
     ethr =  8.57E-09,  avg # of iterations =  4.0

     total cpu time spent up to now is      221.8 secs

     total energy              =    -632.58697143 Ry
     Harris-Foulkes estimate   =    -632.58697498 Ry
     estimated scf accuracy    <       0.00001479 Ry

     iteration # 15     ecut=   100.00 Ry     beta=0.50
     Davidson diagonalization with overlap
     ethr =  8.57E-09,  avg # of iterations =  1.0

     total cpu time spent up to now is      231.7 secs

     total energy              =    -632.58696866 Ry
     Harris-Foulkes estimate   =    -632.58697165 Ry
     estimated scf accuracy    <       0.00000812 Ry

     iteration # 16     ecut=   100.00 Ry     beta=0.50
     Davidson diagonalization with overlap
     ethr =  6.34E-09,  avg # of iterations =  3.1

     total cpu time spent up to now is      243.5 secs

     total energy              =    -632.58696981 Ry
     Harris-Foulkes estimate   =    -632.58696996 Ry
     estimated scf accuracy    <       0.00000068 Ry

     iteration # 17     ecut=   100.00 Ry     beta=0.50
     Davidson diagonalization with overlap
     ethr =  5.34E-10,  avg # of iterations =  4.1

     total cpu time spent up to now is      263.1 secs

     total energy              =    -632.58697063 Ry
     Harris-Foulkes estimate   =    -632.58697061 Ry
     estimated scf accuracy    <       0.00000005 Ry

     iteration # 18     ecut=   100.00 Ry     beta=0.50
     Davidson diagonalization with overlap
     ethr =  3.91E-11,  avg # of iterations =  4.3

     total cpu time spent up to now is      281.2 secs

     total energy              =    -632.58697057 Ry
     Harris-Foulkes estimate   =    -632.58697066 Ry
     estimated scf accuracy    <       0.00000023 Ry

     iteration # 19     ecut=   100.00 Ry     beta=0.50
     Davidson diagonalization with overlap
     ethr =  3.91E-11,  avg # of iterations =  4.1

     total cpu time spent up to now is      298.5 secs

     total energy              =    -632.58697059 Ry
     Harris-Foulkes estimate   =    -632.58697060 Ry
     estimated scf accuracy    <       0.00000001 Ry

     iteration # 20     ecut=   100.00 Ry     beta=0.50
     Davidson diagonalization with overlap
     ethr =  1.06E-11,  avg # of iterations =  1.0

     total cpu time spent up to now is      308.5 secs

     End of self-consistent calculation

          k = 0.0000 0.0000 0.0000 ( 44171 PWs)   bands (ev):

   -20.7892 -20.7620 -19.5371 -19.5192 -19.5145 -19.4304 -15.2790 -15.2680
   -12.8861 -12.8425 -12.1780 -12.1720 -11.0400 -10.9402 -10.6800 -10.6662
    -9.0794  -9.0688  -8.7766  -8.7228  -7.4867  -7.4313  -6.5299  -6.4462
    -6.3521  -6.3263  -6.0275  -5.8507  -5.3326  -5.1086  -4.6727  -4.6264
    -4.4983  -4.3924  -4.2749  -4.2218  -3.9971  -3.8690  -3.7874  -3.7503
    -3.5775  -3.4840  -3.2803  -3.1470  -2.9553  -2.7697  -2.2833  -2.1930
    -1.8411  -1.8164  -1.6974  -1.6784  -1.1350  -1.1324  -0.8679  -0.8555
    -0.6266  -0.5838   0.0989   0.1235   0.6959   0.7160   0.7708   0.8758
     3.7301   3.7334   4.2669   4.3577   5.6828   5.6973   6.4211   6.4345
     6.8334   7.4357   7.5093   8.0872

          k = 0.0000 0.0000 0.6215 ( 44134 PWs)   bands (ev):

   -20.7846 -20.7641 -19.5371 -19.5231 -19.5124 -19.4333 -15.2787 -15.2709
   -12.8755 -12.8462 -12.1780 -12.1662 -11.0096 -10.9531 -10.7025 -10.6409
    -9.0884  -9.0675  -8.8028  -8.6997  -7.4841  -7.4473  -6.5512  -6.4957
    -6.3900  -6.2773  -6.1195  -5.7805  -5.2654  -5.1309  -4.6998  -4.6285
    -4.5460  -4.4394  -4.2189  -4.1967  -4.0427  -3.8028  -3.7621  -3.7086
    -3.6082  -3.4394  -3.2904  -3.1162  -2.9639  -2.7971  -2.2404  -2.1988
    -1.8303  -1.8201  -1.7085  -1.6421  -1.1523  -1.1313  -0.9196  -0.9074
    -0.6284  -0.5648   0.0697   0.1359   0.6906   0.7284   0.7893   0.9208
     3.7080   3.7367   4.3384   4.3983   5.5926   5.8110   6.3428   6.3870
     7.0178   7.1289   7.6787   8.0067

          k = 0.0000 0.7573 0.0000 ( 44168 PWs)   bands (ev):

   -20.7681 -20.7487 -19.5217 -19.5075 -19.4928 -19.4346 -15.1529 -15.1444
   -12.9248 -12.9047 -12.3671 -12.3493 -11.1544 -11.0966 -10.6724 -10.6560
    -9.0140  -9.0034  -8.9415  -8.9114  -7.6455  -7.6164  -6.5319  -6.4353
    -6.3545  -6.2877  -5.7751  -5.7227  -5.2034  -5.0481  -4.6965  -4.6363
    -4.4813  -4.4636  -4.2173  -4.0963  -4.0508  -3.9559  -3.8586  -3.8286
    -3.7006  -3.5869  -3.3129  -3.2239  -2.8725  -2.8591  -2.2346  -2.2182
    -1.9184  -1.8213  -1.7473  -1.6609  -1.1793  -1.1734  -0.5864  -0.4833
     0.0197   0.0334   0.1088   0.1631   0.7133   0.7378   0.8021   0.8760
     3.6112   3.6418   4.4827   4.4852   5.6526   5.7774   6.0577   6.1638
     7.2125   7.6860   7.7372   8.2028

          k = 0.0000 0.7573 0.6215 ( 44177 PWs)   bands (ev):

   -20.7645 -20.7498 -19.5210 -19.5098 -19.4930 -19.4375 -15.1518 -15.1463
   -12.9182 -12.9070 -12.3696 -12.3467 -11.1313 -11.1020 -10.6913 -10.6329
    -9.0163  -9.0114  -8.9516  -8.8981  -7.6406  -7.6083  -6.5385  -6.4899
    -6.3594  -6.2759  -5.9080  -5.6607  -5.1626  -5.0753  -4.7270  -4.6498
    -4.5171  -4.4655  -4.2187  -4.1198  -4.0159  -3.9419  -3.8205  -3.7495
    -3.6327  -3.5759  -3.3317  -3.2490  -2.8652  -2.8266  -2.2403  -2.1728
    -1.9297  -1.8759  -1.7353  -1.6863  -1.1761  -1.1486  -0.5671  -0.5222
    -0.0233   0.0423   0.1068   0.1512   0.7343   0.7570   0.8084   0.9111
     3.6109   3.6407   4.4726   4.5547   5.6251   5.7270   6.0577   6.1269
     7.2403   7.4340   7.8301   8.2541

          k = 0.0000-1.5145 0.0000 ( 44214 PWs)   bands (ev):

   -20.7411 -20.7411 -19.5004 -19.5004 -19.4555 -19.4555 -14.9940 -14.9940
   -13.1098 -13.1098 -12.3963 -12.3963 -11.2806 -11.2806 -10.6360 -10.6360
    -9.0966  -9.0966  -8.9689  -8.9689  -7.7543  -7.7543  -6.4249  -6.4249
    -6.3305  -6.3305  -5.6235  -5.6235  -4.9687  -4.9687  -4.8563  -4.8563
    -4.5921  -4.5921  -4.2033  -4.2033  -4.0171  -4.0171  -3.7674  -3.7674
    -3.6323  -3.6323  -3.1833  -3.1833  -2.8188  -2.8188  -2.3557  -2.3557
    -1.9081  -1.9081  -1.7151  -1.7151  -1.2386  -1.2386  -0.3793  -0.3793
     0.0198   0.0198   0.7585   0.7585   0.8468   0.8468   1.2854   1.2854
     3.1409   3.1409   4.6369   4.6369   5.5329   5.5329   6.1292   6.1292
     7.9096   7.9096   8.0499   8.0499

          k = 0.0000-1.5145 0.6215 ( 44200 PWs)   bands (ev):

   -20.7398 -20.7398 -19.5001 -19.5001 -19.4581 -19.4581 -14.9930 -14.9930
   -13.1113 -13.1113 -12.3962 -12.3962 -11.2717 -11.2717 -10.6348 -10.6348
    -9.1031  -9.1031  -8.9617  -8.9617  -7.7464  -7.7464  -6.4717  -6.4717
    -6.2972  -6.2972  -5.6748  -5.6748  -4.9761  -4.9761  -4.8270  -4.8270
    -4.6404  -4.6404  -4.2855  -4.2855  -3.9685  -3.9685  -3.7535  -3.7535
    -3.5261  -3.5261  -3.1772  -3.1772  -2.7816  -2.7816  -2.3457  -2.3457
    -1.9192  -1.9192  -1.7636  -1.7636  -1.2291  -1.2291  -0.3888  -0.3888
    -0.0070  -0.0070   0.8012   0.8012   0.8545   0.8545   1.3120   1.3120
     3.1032   3.1032   4.6388   4.6388   5.5733   5.5733   6.0473   6.0473
     7.7955   7.7955   8.0302   8.0302

          k =-0.5000 0.0000-0.0630 ( 44132 PWs)   bands (ev):

   -20.7891 -20.7621 -19.5354 -19.5237 -19.5116 -19.4305 -15.2776 -15.2695
   -12.8969 -12.8305 -12.1774 -12.1725 -11.0533 -10.9300 -10.7044 -10.6390
    -9.0762  -9.0747  -8.7536  -8.7435  -7.4760  -7.4356  -6.5443  -6.4749
    -6.3873  -6.2669  -6.0238  -5.8588  -5.2279  -5.1780  -4.6304  -4.5861
    -4.5222  -4.5010  -4.2623  -4.1565  -4.1434  -3.8177  -3.7435  -3.7085
    -3.6550  -3.4409  -3.2916  -3.1319  -2.9399  -2.7800  -2.2768  -2.2220
    -1.8425  -1.8119  -1.7099  -1.6570  -1.1555  -1.1155  -0.8703  -0.8555
    -0.6436  -0.5384  -0.0286   0.2327   0.7131   0.7131   0.7697   0.8568
     3.7228   3.7419   4.2313   4.3985   5.5596   5.8325   6.4157   6.4624
     6.8052   7.3059   7.6469   8.1516

          k =-0.5000 0.0000 0.5585 ( 44181 PWs)   bands (ev):

   -20.7845 -20.7641 -19.5377 -19.5209 -19.5140 -19.4333 -15.2777 -15.2719
   -12.8774 -12.8441 -12.1777 -12.1666 -11.0201 -10.9400 -10.6924 -10.6547
    -9.0958  -9.0583  -8.7731  -8.7315  -7.4938  -7.4350  -6.5470  -6.4932
    -6.4156  -6.2500  -6.1454  -5.7570  -5.2436  -5.1514  -4.6996  -4.6407
    -4.5211  -4.4783  -4.2715  -4.1672  -3.9904  -3.7827  -3.7603  -3.7400
    -3.5869  -3.4582  -3.2913  -3.1323  -2.9909  -2.7403  -2.2730  -2.1919
    -1.8308  -1.8077  -1.6933  -1.6575  -1.1533  -1.1358  -0.9264  -0.9025
    -0.6264  -0.5601   0.0333   0.1694   0.6944   0.7282   0.7978   0.9080
     3.6986   3.7472   4.3200   4.4128   5.6302   5.7762   6.3570   6.3914
     7.0062   7.1949   7.5210   7.9405

          k =-0.5000 0.7573-0.0630 ( 44180 PWs)   bands (ev):

   -20.7681 -20.7488 -19.5200 -19.5106 -19.4913 -19.4347 -15.1524 -15.1449
   -12.9311 -12.8984 -12.3692 -12.3467 -11.1558 -11.0962 -10.6957 -10.6318
    -9.0241  -9.0120  -8.9266  -8.9062  -7.6512  -7.6134  -6.5146  -6.4640
    -6.3806  -6.2464  -5.7805  -5.7288  -5.1121  -5.1079  -4.6803  -4.6373
    -4.5138  -4.5058  -4.2195  -4.1101  -4.0284  -3.9630  -3.9016  -3.7337
    -3.6515  -3.6052  -3.3312  -3.2803  -2.8693  -2.8228  -2.2721  -2.1862
    -1.9088  -1.8422  -1.7054  -1.6991  -1.1895  -1.1623  -0.5974  -0.4616
    -0.0220   0.0637   0.1039   0.1679   0.7422   0.7439   0.7922   0.8528
     3.6260   3.6292   4.4256   4.5475   5.5933   5.8365   6.0986   6.1266
     7.2013   7.5291   7.9220   8.2069

          k =-0.5000 0.7573 0.5585 ( 44193 PWs)   bands (ev):

   -20.7645 -20.7499 -19.5216 -19.5084 -19.4938 -19.4375 -15.1515 -15.1466
   -12.9213 -12.9037 -12.3683 -12.3483 -11.1356 -11.0982 -10.6793 -10.6449
    -9.0301  -8.9936  -8.9370  -8.9156  -7.6450  -7.6077  -6.5164  -6.4782
    -6.4035  -6.2617  -5.9162  -5.6541  -5.1428  -5.0909  -4.7070  -4.6575
    -4.5321  -4.4882  -4.2183  -4.0984  -4.0077  -3.9207  -3.8212  -3.7553
    -3.6744  -3.5597  -3.3486  -3.2280  -2.8882  -2.8023  -2.2458  -2.1767
    -1.9158  -1.8764  -1.7261  -1.7025  -1.1720  -1.1523  -0.5828  -0.5086
    -0.0237   0.0448   0.1067   0.1525   0.7391   0.7516   0.8093   0.9097
     3.6137   3.6383   4.4781   4.5438   5.6242   5.7440   6.0497   6.1322
     7.1901   7.5165   7.7981   8.2316

          k =-0.5000-1.5145-0.0630 ( 44196 PWs)   bands (ev):

   -20.7411 -20.7411 -19.5004 -19.5004 -19.4555 -19.4555 -14.9940 -14.9940
   -13.1098 -13.1098 -12.3965 -12.3965 -11.2802 -11.2802 -10.6362 -10.6362
    -9.1020  -9.1020  -8.9622  -8.9622  -7.7591  -7.7591  -6.4240  -6.4240
    -6.3223  -6.3223  -5.6310  -5.6310  -4.9490  -4.9490  -4.8347  -4.8347
    -4.6148  -4.6148  -4.2975  -4.2975  -3.9447  -3.9447  -3.8056  -3.8056
    -3.5700  -3.5700  -3.2009  -3.2009  -2.8136  -2.8136  -2.3544  -2.3544
    -1.9203  -1.9203  -1.7120  -1.7120  -1.2364  -1.2364  -0.3821  -0.3821
     0.0174   0.0174   0.7871   0.7871   0.8229   0.8229   1.2841   1.2841
     3.1400   3.1400   4.6437   4.6437   5.5210   5.5210   6.1403   6.1403
     7.8929   7.8929   8.0210   8.0210

          k =-0.5000-1.5145 0.5585 ( 44194 PWs)   bands (ev):

   -20.7398 -20.7398 -19.5001 -19.5001 -19.4581 -19.4581 -14.9930 -14.9930
   -13.1113 -13.1113 -12.3962 -12.3962 -11.2720 -11.2720 -10.6344 -10.6344
    -9.1050  -9.1050  -8.9592  -8.9592  -7.7490  -7.7490  -6.4365  -6.4365
    -6.3358  -6.3358  -5.6694  -5.6694  -4.9592  -4.9592  -4.8558  -4.8558
    -4.6519  -4.6519  -4.2430  -4.2430  -3.9826  -3.9826  -3.7082  -3.7082
    -3.5842  -3.5842  -3.1699  -3.1699  -2.7893  -2.7893  -2.3389  -2.3389
    -1.9208  -1.9208  -1.7610  -1.7610  -1.2287  -1.2287  -0.3919  -0.3919
    -0.0033  -0.0033   0.7928   0.7928   0.8626   0.8626   1.3121   1.3121
     3.1013   3.1013   4.6430   4.6430   5.5670   5.5670   6.0506   6.0506
     7.7349   7.7349   8.1354   8.1354

     highest occupied, lowest unoccupied level (ev):     1.3121    3.1013

!    total energy              =    -632.58697059 Ry
     Harris-Foulkes estimate   =    -632.58697059 Ry
     estimated scf accuracy    <          5.1E-09 Ry

     total all-electron energy =     -2440.950301 Ry

     The total energy is the sum of the following terms:

     one-electron contribution =    -378.55915060 Ry
     hartree contribution      =     240.13199056 Ry
     xc contribution           =    -135.51074699 Ry
     ewald contribution        =    -168.21396147 Ry
     Dispersion Correction     =      -0.19747153 Ry
     one-center paw contrib.   =    -190.23763056 Ry

     convergence has been achieved in  20 iterations

     Forces acting on atoms (cartesian axes, Ry/au):

     atom    1 type  1   force =    -0.00370184    0.00561430    0.00276970
     atom    2 type  1   force =     0.00370184    0.00561430   -0.00276970
     atom    3 type  1   force =    -0.01670094   -0.01447853    0.00934165
     atom    4 type  1   force =     0.01670094   -0.01447853   -0.00934165
     atom    5 type  1   force =     0.00084260   -0.00150745    0.01129325
     atom    6 type  1   force =    -0.00084260   -0.00150745   -0.01129325
     atom    7 type  1   force =    -0.01269159   -0.00735623   -0.00309754
     atom    8 type  1   force =     0.01269159   -0.00735623    0.00309754
     atom    9 type  1   force =     0.02338551    0.03688509   -0.02112086
     atom   10 type  1   force =    -0.02338551    0.03688509    0.02112086
     atom   11 type  1   force =     0.01369461   -0.04198830   -0.04366234
     atom   12 type  1   force =    -0.01369461   -0.04198830    0.04366234
     atom   13 type  1   force =     0.00543380    0.01687809   -0.00840871
     atom   14 type  1   force =    -0.00543380    0.01687809    0.00840871
     atom   15 type  1   force =    -0.00528290   -0.03201140    0.00068868
     atom   16 type  1   force =     0.00528290   -0.03201140   -0.00068868
     atom   17 type  1   force =    -0.00926160    0.03750048    0.02002734
     atom   18 type  1   force =     0.00926160    0.03750048   -0.02002734
     atom   19 type  1   force =    -0.00289891   -0.03029372    0.02174686
     atom   20 type  1   force =     0.00289891   -0.03029372   -0.02174686
     atom   21 type  4   force =    -0.00070669    0.01042291    0.01581005
     atom   22 type  4   force =     0.00070669    0.01042291   -0.01581005
     atom   23 type  4   force =    -0.00240099    0.00838473    0.00160926
     atom   24 type  4   force =     0.00240099    0.00838473   -0.00160926
     atom   25 type  4   force =    -0.00595859   -0.01291775   -0.01000539
     atom   26 type  4   force =     0.00595859   -0.01291775    0.01000539
     atom   27 type  3   force =     0.01213518    0.02342634   -0.00083267
     atom   28 type  3   force =    -0.01213518    0.02342634    0.00083267
     atom   29 type  3   force =    -0.00009548    0.00053868   -0.00056075
     atom   30 type  3   force =     0.00009548    0.00053868    0.00056075
     atom   31 type  3   force =     0.00455631   -0.00081271    0.00105770
     atom   32 type  3   force =    -0.00455631   -0.00081271   -0.00105770
     atom   33 type  3   force =     0.00046377    0.00005525    0.00062886
     atom   34 type  3   force =    -0.00046377    0.00005525   -0.00062886
     atom   35 type  3   force =     0.00225513    0.00317638   -0.00117859
     atom   36 type  3   force =    -0.00225513    0.00317638    0.00117859
     atom   37 type  3   force =     0.00011199   -0.00151616    0.00635418
     atom   38 type  3   force =    -0.00011199   -0.00151616   -0.00635418

     Total force =     0.163981     Total SCF correction =     0.000172


     Computing stress (Cartesian axis) and pressure

          total   stress  (Ry/bohr**3)                   (kbar)     P=   17.78
   0.00004807   0.00000000  -0.00006807          7.07      0.00    -10.01
   0.00000000   0.00019809   0.00000000          0.00     29.14      0.00
  -0.00006807   0.00000000   0.00011650        -10.01      0.00     17.14


     Writing output data file scf.save
 
     init_run     :      9.32s CPU      9.65s WALL (       1 calls)
     electrons    :    289.00s CPU    298.49s WALL (       1 calls)
     forces       :      4.57s CPU      4.61s WALL (       1 calls)
     stress       :     13.69s CPU     13.70s WALL (       1 calls)

     Called by init_run:
     wfcinit      :      5.43s CPU      5.65s WALL (       1 calls)
     potinit      :      1.32s CPU      1.38s WALL (       1 calls)

     Called by electrons:
     c_bands      :    250.37s CPU    258.87s WALL (      20 calls)
     sum_band     :     32.59s CPU     33.35s WALL (      20 calls)
     v_of_rho     :      0.91s CPU      1.00s WALL (      21 calls)
     newd         :      1.70s CPU      1.73s WALL (      21 calls)
     PAW_pot      :      3.12s CPU      3.12s WALL (      21 calls)
     mix_rho      :      0.24s CPU      0.26s WALL (      20 calls)

     Called by c_bands:
     init_us_2    :      3.25s CPU      3.26s WALL (     516 calls)
     cegterg      :    240.50s CPU    248.96s WALL (     240 calls)

     Called by sum_band:
     sum_band:bec :      0.03s CPU      0.03s WALL (     240 calls)
     addusdens    :      1.88s CPU      1.92s WALL (      20 calls)

     Called by *egterg:
     h_psi        :    165.12s CPU    172.40s WALL (    1079 calls)
     s_psi        :     17.07s CPU     17.07s WALL (    1079 calls)
     g_psi        :      1.37s CPU      1.37s WALL (     827 calls)
     cdiaghg      :     12.61s CPU     12.59s WALL (    1067 calls)

     Called by h_psi:
     h_psi:pot    :    163.53s CPU    170.79s WALL (    1079 calls)
     h_psi:calbec :     15.78s CPU     15.83s WALL (    1079 calls)
     vloc_psi     :    130.86s CPU    138.07s WALL (    1079 calls)
     add_vuspsi   :     16.89s CPU     16.89s WALL (    1079 calls)

     General routines
     calbec       :     22.19s CPU     22.27s WALL (    1379 calls)
     fft          :      0.68s CPU      0.84s WALL (     297 calls)
     fftw         :    139.37s CPU    147.08s WALL (  128992 calls)
 
     Parallel routines
     fft_scatter  :     33.51s CPU     36.99s WALL (  129289 calls)
 
     PWSCF        :  5m19.53s CPU     5m30.51s WALL

 
   This run was terminated on:   0:32: 2   4Nov2017            

=------------------------------------------------------------------------------=
   JOB DONE.
=------------------------------------------------------------------------------=
