
     Program PWSCF v.6.1 (svn rev. 13369) starts on 12Nov2017 at  9:54:59 

     This program is part of the open-source Quantum ESPRESSO suite
     for quantum simulation of materials; please cite
         "P. Giannozzi et al., J. Phys.:Condens. Matter 21 395502 (2009);
          URL http://www.quantum-espresso.org", 
     in publications or presentations arising from this work. More details at
     http://www.quantum-espresso.org/quote

     Parallel version (MPI), running on     8 processors
     R & G space division:  proc/nbgrp/npool/nimage =       8
     Waiting for input...
     Reading input from standard input

     Current dimensions of program PWSCF are:
     Max number of different atomic species (ntypx) = 10
     Max number of k-points (npk) =  40000
     Max angular momentum in pseudopotentials (lmaxx) =  3
               file C.pbe-n-kjpaw_psl.0.1.UPF: wavefunction(s)  2P renormalized
               file N.pbe-n-kjpaw_psl.0.1.UPF: wavefunction(s)  2P renormalized
               file H.pbe-kjpaw_psl.0.1.UPF: wavefunction(s)  1S renormalized
               file O.pbe-n-kjpaw_psl.0.1.UPF: wavefunction(s)  2P renormalized

     -------------------------------------
     Parameters for Dispersion Correction:
     -------------------------------------
       atom      VdW radius       C_6     

        C          2.744         60.710
        N          2.640         42.670
        H          1.892          4.857
        O          2.536         24.284

     Subspace diagonalization in iterative solution of the eigenvalue problem:
     a serial algorithm will be used

 
     Parallelization info
     --------------------
     sticks:   dense  smooth     PW     G-vecs:    dense   smooth      PW
     Min         940     940    249                73061    73061    9886
     Max         942     942    250                73062    73062    9888
     Sum        7525    7525   1993               584489   584489   79095
 


     bravais-lattice index     =            0
     lattice parameter (alat)  =      13.2243  a.u.
     unit-cell volume          =    4327.4262 (a.u.)^3
     number of atoms/cell      =           76
     number of atomic types    =            4
     number of electrons       =       208.00
     number of Kohn-Sham states=          124
     kinetic-energy cutoff     =     100.0000  Ry
     charge density cutoff     =     400.0000  Ry
     convergence threshold     =      1.0E-08
     mixing beta               =       0.5000
     number of iterations used =            8  plain     mixing
     Exchange-correlation      =  SLA  PW   PBX  PBC ( 1  4  3  4 0 0)

     celldm(1)=  13.224303  celldm(2)=   0.000000  celldm(3)=   0.000000
     celldm(4)=   0.000000  celldm(5)=   0.000000  celldm(6)=   0.000000

     crystal axes: (cart. coord. in units of alat)
               a(1) = (   1.000000   0.000000   0.000000 )  
               a(2) = (   0.000000   1.353672   0.000000 )  
               a(3) = (  -0.448652   0.000000   1.382285 )  

     reciprocal axes: (cart. coord. in units 2 pi/alat)
               b(1) = (  1.000000  0.000000  0.324572 )  
               b(2) = (  0.000000  0.738731  0.000000 )  
               b(3) = (  0.000000  0.000000  0.723440 )  


     PseudoPot. # 1 for  C read from file:
     /scratch/ahofstet/pseudo/C.pbe-n-kjpaw_psl.0.1.UPF
     MD5 check sum: 430fe95172b1e11ef3f8ed03bac87931
     Pseudo is Projector augmented-wave + core cor, Zval =  4.0
     Generated using "atomic" code by A. Dal Corso  v.5.0.99 svn rev. 10869
     Shape of augmentation charge: BESSEL
     Using radial grid of 1073 points,  4 beta functions with: 
                l(1) =   0
                l(2) =   0
                l(3) =   1
                l(4) =   1
     Q(r) pseudized with 0 coefficients 


     PseudoPot. # 2 for  N read from file:
     /scratch/ahofstet/pseudo/N.pbe-n-kjpaw_psl.0.1.UPF
     MD5 check sum: f73187c8b701007e77325f868c9291d7
     Pseudo is Projector augmented-wave + core cor, Zval =  5.0
     Generated using "atomic" code by A. Dal Corso  v.5.0.99 svn rev. 10869
     Shape of augmentation charge: PSQ
     Using radial grid of 1085 points,  4 beta functions with: 
                l(1) =   0
                l(2) =   0
                l(3) =   1
                l(4) =   1
     Q(r) pseudized with 0 coefficients 


     PseudoPot. # 3 for  H read from file:
     /scratch/ahofstet/pseudo/H.pbe-kjpaw_psl.0.1.UPF
     MD5 check sum: 94e484f906d9e9773b2f6e52662335b2
     Pseudo is Projector augmented-wave, Zval =  1.0
     Generated using "atomic" code by A. Dal Corso  v.5.0.99 svn rev. 10869
     Shape of augmentation charge: PSQ
     Using radial grid of  929 points,  2 beta functions with: 
                l(1) =   0
                l(2) =   0
     Q(r) pseudized with 0 coefficients 


     PseudoPot. # 4 for  O read from file:
     /scratch/ahofstet/pseudo/O.pbe-n-kjpaw_psl.0.1.UPF
     MD5 check sum: 3f94a2996a3169367d6eb21d9b593f20
     Pseudo is Projector augmented-wave + core cor, Zval =  6.0
     Generated using "atomic" code by A. Dal Corso  v.5.0.99 svn rev. 10869
     Shape of augmentation charge: BESSEL
     Using radial grid of 1095 points,  4 beta functions with: 
                l(1) =   0
                l(2) =   0
                l(3) =   1
                l(4) =   1
     Q(r) pseudized with 0 coefficients 


     atomic species   valence    mass     pseudopotential
        C              4.00    12.01070      C( 1.00)
        N              5.00    14.00670      N( 1.00)
        H              1.00     1.00794      H( 1.00)
        O              6.00    15.99940      O( 1.00)

      2 Sym. Ops., with inversion, found
          (note:  2 additional sym.ops. were found but ignored
           their fractional translations are incommensurate with FFT grid)


   Cartesian axes

     site n.     atom                  positions (alat units)
         1           N   tau(   1) = (   0.0878034   0.1613745   0.6318222  )
         2           N   tau(   2) = (   0.3634776   0.5154618   1.3229648  )
         3           N   tau(   3) = (   0.4635449   1.1922980   0.7504629  )
         4           N   tau(   4) = (   0.1878707   0.8382107   0.0593203  )
         5           N   tau(   5) = (  -0.0523934   0.1349028   0.5394521  )
         6           N   tau(   6) = (   0.2232808   0.5419334   1.2305947  )
         7           N   tau(   7) = (   0.6037418   1.2187696   0.8428330  )
         8           N   tau(   8) = (   0.3280676   0.8117391   0.1516904  )
         9           N   tau(   9) = (   0.8134773   0.1071622   0.4404423  )
        10           N   tau(  10) = (   0.0891515   0.5696741   1.1315848  )
        11           N   tau(  11) = (  -0.2621289   1.2465103   0.9418429  )
        12           N   tau(  12) = (   0.4621969   0.7839984   0.2507003  )
        13           O   tau(  13) = (   0.2392485   0.1621787   0.0423384  )
        14           O   tau(  14) = (   0.5149227   0.5146575   0.7334810  )
        15           O   tau(  15) = (   0.3120998   1.1914938   1.3399468  )
        16           O   tau(  16) = (   0.0364257   0.8390149   0.6488042  )
        17           N   tau(  17) = (   0.4217775   0.1255093   0.4080296  )
        18           N   tau(  18) = (  -0.3025483   0.5513270   1.0991722  )
        19           N   tau(  19) = (   0.1295709   1.2281632   0.9742556  )
        20           N   tau(  20) = (   0.8538967   0.8023455   0.2831130  )
        21           H   tau(  21) = (   0.3075942   0.1290662   0.5084094  )
        22           H   tau(  22) = (   0.5832684   0.5477700   1.1995520  )
        23           H   tau(  23) = (   0.2437542   1.2246063   0.8738758  )
        24           H   tau(  24) = (  -0.0319200   0.8059025   0.1827332  )
        25           H   tau(  25) = (   0.5570860   0.1107844   0.4730878  )
        26           H   tau(  26) = (  -0.1672398   0.5660518   1.1642304  )
        27           H   tau(  27) = (  -0.0057376   1.2428881   0.9091973  )
        28           H   tau(  28) = (   0.7185882   0.7876207   0.2180548  )
        29           C   tau(  29) = (   0.3981234   1.3124973   0.2761462  )
        30           C   tau(  30) = (   0.6737976   0.7180114   0.9672888  )
        31           C   tau(  31) = (   0.1532250   0.0411752   1.1061389  )
        32           C   tau(  32) = (  -0.1224492   0.6356610   0.4149963  )
        33           H   tau(  33) = (   0.5292243   1.3030652   0.1904199  )
        34           H   tau(  34) = (  -0.1951015   0.7274436   0.8815625  )
        35           H   tau(  35) = (   0.0221241   0.0506073   1.1918652  )
        36           H   tau(  36) = (   0.7464499   0.6262289   0.5007227  )
        37           H   tau(  37) = (   0.3864690   1.1836526   0.3644431  )
        38           H   tau(  38) = (  -0.3378568   0.8468561   1.0555857  )
        39           H   tau(  39) = (   0.1648794   0.1700199   1.0178421  )
        40           H   tau(  40) = (   0.8892052   0.5068164   0.3266995  )
        41           C   tau(  41) = (   0.2490985   0.3205097   0.1713263  )
        42           C   tau(  42) = (   0.5247726   0.3563266   0.8624689  )
        43           C   tau(  43) = (   0.3022499   1.0331628   1.2109588  )
        44           C   tau(  44) = (   0.0265757   0.9973459   0.5198162  )
        45           H   tau(  45) = (   0.1183685   0.3232532   0.2597165  )
        46           H   tau(  46) = (   0.3940427   0.3535830   0.9508591  )
        47           H   tau(  47) = (   0.4329799   1.0304193   1.1225687  )
        48           H   tau(  48) = (   0.1573057   1.0000894   0.4314261  )
        49           H   tau(  49) = (   0.2542160   0.4513407   0.0855901  )
        50           H   tau(  50) = (   0.5298902   0.2254955   0.7767326  )
        51           H   tau(  51) = (   0.2971324   0.9023317   1.2966951  )
        52           H   tau(  52) = (   0.0214582   1.1281770   0.6055525  )
        53           C   tau(  53) = (   0.2243213   1.3410397   0.1484510  )
        54           C   tau(  54) = (   0.4999954   0.6894690   0.8395936  )
        55           C   tau(  55) = (   0.3270271   0.0126328   1.2338341  )
        56           C   tau(  56) = (   0.0513529   0.6642034   0.5426915  )
        57           H   tau(  57) = (   0.0907609   1.3431331   0.2329039  )
        58           H   tau(  58) = (   0.3664351   0.6873756   0.9240465  )
        59           H   tau(  59) = (   0.4605875   0.0105394   1.1493812  )
        60           H   tau(  60) = (   0.1849133   0.6662969   0.4582386  )
        61           H   tau(  61) = (   0.2146580   1.2238371   0.0447476  )
        62           H   tau(  62) = (   0.4903322   0.8066716   0.7358902  )
        63           H   tau(  63) = (   0.3366904   0.1298354   1.3375376  )
        64           H   tau(  64) = (   0.0610162   0.5470009   0.6463950  )
        65           C   tau(  65) = (   0.4247799   0.3093472   0.2983197  )
        66           C   tau(  66) = (  -0.2995459   0.3674890   0.9894622  )
        67           C   tau(  67) = (   0.1265685   1.0443253   1.0839655  )
        68           C   tau(  68) = (   0.8508943   0.9861834   0.3928229  )
        69           H   tau(  69) = (   0.5564743   0.3103027   0.2129970  )
        70           H   tau(  70) = (  -0.1678515   0.3665336   0.9041396  )
        71           H   tau(  71) = (  -0.0051259   1.0433698   1.1692881  )
        72           H   tau(  72) = (   0.7191999   0.9871389   0.4781455  )
        73           H   tau(  73) = (   0.4295046   0.4274945   0.4010508  )
        74           H   tau(  74) = (  -0.2948212   0.2493417   1.0921934  )
        75           H   tau(  75) = (   0.1218437   0.9261780   0.9812344  )
        76           H   tau(  76) = (   0.8461696   1.1043307   0.2900918  )

     number of k points=     8
                       cart. coord. in units 2pi/alat
        k(    1) = (   0.0000000   0.0000000   0.0000000), wk =   0.1666667
        k(    2) = (   0.0000000   0.0000000  -0.3617199), wk =   0.1666667
        k(    3) = (   0.0000000  -0.3693656   0.0000000), wk =   0.1666667
        k(    4) = (   0.0000000  -0.3693656  -0.3617199), wk =   0.1666667
        k(    5) = (   0.3333333   0.0000000   0.1081908), wk =   0.3333333
        k(    6) = (   0.3333333   0.0000000  -0.2535291), wk =   0.3333333
        k(    7) = (   0.3333333  -0.3693656   0.1081908), wk =   0.3333333
        k(    8) = (   0.3333333  -0.3693656  -0.2535291), wk =   0.3333333

     Dense  grid:   584489 G-vectors     FFT dimensions: (  90, 120, 125)

     Estimated max dynamical RAM per process >     397.77MB

     Estimated total allocated dynamical RAM >    3182.14MB

     Check: negative/imaginary core charge=   -0.000002    0.000000

     Initial potential from superposition of free atoms

     starting charge  207.99883, renormalised to  208.00000
     Starting wfc are  184 randomized atomic wfcs
     Checking if some PAW data can be deallocated... 

     total cpu time spent up to now is       23.2 secs

     per-process dynamical memory:   289.7 Mb

     Self-consistent Calculation

     iteration #  1     ecut=   100.00 Ry     beta=0.50
     Davidson diagonalization with overlap
     ethr =  1.00E-02,  avg # of iterations =  3.0

     total cpu time spent up to now is       73.7 secs

     total energy              =    -959.51822762 Ry
     Harris-Foulkes estimate   =    -962.47004530 Ry
     estimated scf accuracy    <       6.12170652 Ry

     iteration #  2     ecut=   100.00 Ry     beta=0.50
     Davidson diagonalization with overlap
     ethr =  2.94E-03,  avg # of iterations =  2.0

     total cpu time spent up to now is      102.9 secs

     total energy              =    -959.96410853 Ry
     Harris-Foulkes estimate   =    -960.24612801 Ry
     estimated scf accuracy    <       0.71155451 Ry

     iteration #  3     ecut=   100.00 Ry     beta=0.50
     Davidson diagonalization with overlap
     ethr =  3.42E-04,  avg # of iterations =  7.0

     total cpu time spent up to now is      163.7 secs

     total energy              =    -960.35279919 Ry
     Harris-Foulkes estimate   =    -960.51944011 Ry
     estimated scf accuracy    <       0.43128917 Ry

     iteration #  4     ecut=   100.00 Ry     beta=0.50
     Davidson diagonalization with overlap
     ethr =  2.07E-04,  avg # of iterations =  1.0

     total cpu time spent up to now is      190.5 secs

     total energy              =    -960.30190639 Ry
     Harris-Foulkes estimate   =    -960.37881999 Ry
     estimated scf accuracy    <       0.12268594 Ry

     iteration #  5     ecut=   100.00 Ry     beta=0.50
     Davidson diagonalization with overlap
     ethr =  5.90E-05,  avg # of iterations =  5.0

     total cpu time spent up to now is      249.5 secs

     total energy              =    -960.39762944 Ry
     Harris-Foulkes estimate   =    -960.48604766 Ry
     estimated scf accuracy    <       0.30177678 Ry

     iteration #  6     ecut=   100.00 Ry     beta=0.50
     Davidson diagonalization with overlap
     ethr =  5.90E-05,  avg # of iterations =  1.0

     total cpu time spent up to now is      276.3 secs

     total energy              =    -960.37511029 Ry
     Harris-Foulkes estimate   =    -960.40563091 Ry
     estimated scf accuracy    <       0.13821943 Ry

     iteration #  7     ecut=   100.00 Ry     beta=0.50
     Davidson diagonalization with overlap
     ethr =  5.90E-05,  avg # of iterations =  3.0

     total cpu time spent up to now is      309.5 secs

     total energy              =    -960.38244768 Ry
     Harris-Foulkes estimate   =    -960.39555681 Ry
     estimated scf accuracy    <       0.02318409 Ry

     iteration #  8     ecut=   100.00 Ry     beta=0.50
     Davidson diagonalization with overlap
     ethr =  1.11E-05,  avg # of iterations =  5.5

     total cpu time spent up to now is      358.7 secs

     total energy              =    -960.39233069 Ry
     Harris-Foulkes estimate   =    -960.39326385 Ry
     estimated scf accuracy    <       0.00290218 Ry

     iteration #  9     ecut=   100.00 Ry     beta=0.50
     Davidson diagonalization with overlap
     ethr =  1.40E-06,  avg # of iterations =  1.9

     total cpu time spent up to now is      386.6 secs

     total energy              =    -960.39182769 Ry
     Harris-Foulkes estimate   =    -960.39242782 Ry
     estimated scf accuracy    <       0.00111328 Ry

     iteration # 10     ecut=   100.00 Ry     beta=0.50
     Davidson diagonalization with overlap
     ethr =  5.35E-07,  avg # of iterations =  4.0

     total cpu time spent up to now is      433.4 secs

     total energy              =    -960.39252010 Ry
     Harris-Foulkes estimate   =    -960.39257978 Ry
     estimated scf accuracy    <       0.00035978 Ry

     iteration # 11     ecut=   100.00 Ry     beta=0.50
     Davidson diagonalization with overlap
     ethr =  1.73E-07,  avg # of iterations =  1.0

     total cpu time spent up to now is      460.2 secs

     total energy              =    -960.39241569 Ry
     Harris-Foulkes estimate   =    -960.39252514 Ry
     estimated scf accuracy    <       0.00024457 Ry

     iteration # 12     ecut=   100.00 Ry     beta=0.50
     Davidson diagonalization with overlap
     ethr =  1.18E-07,  avg # of iterations =  5.0

     total cpu time spent up to now is      497.6 secs

     total energy              =    -960.39246904 Ry
     Harris-Foulkes estimate   =    -960.39246913 Ry
     estimated scf accuracy    <       0.00000267 Ry

     iteration # 13     ecut=   100.00 Ry     beta=0.50
     Davidson diagonalization with overlap
     ethr =  1.28E-09,  avg # of iterations =  4.9

     total cpu time spent up to now is      551.6 secs

     total energy              =    -960.39247224 Ry
     Harris-Foulkes estimate   =    -960.39247315 Ry
     estimated scf accuracy    <       0.00000205 Ry

     iteration # 14     ecut=   100.00 Ry     beta=0.50
     Davidson diagonalization with overlap
     ethr =  9.87E-10,  avg # of iterations =  3.4

     total cpu time spent up to now is      582.4 secs

     total energy              =    -960.39247250 Ry
     Harris-Foulkes estimate   =    -960.39247253 Ry
     estimated scf accuracy    <       0.00000008 Ry

     iteration # 15     ecut=   100.00 Ry     beta=0.50
     Davidson diagonalization with overlap
     ethr =  3.73E-11,  avg # of iterations =  4.0

     total cpu time spent up to now is      640.9 secs

     total energy              =    -960.39247266 Ry
     Harris-Foulkes estimate   =    -960.39247271 Ry
     estimated scf accuracy    <       0.00000014 Ry

     iteration # 16     ecut=   100.00 Ry     beta=0.50
     Davidson diagonalization with overlap
     ethr =  3.73E-11,  avg # of iterations =  1.4

     total cpu time spent up to now is      667.8 secs

     total energy              =    -960.39247263 Ry
     Harris-Foulkes estimate   =    -960.39247267 Ry
     estimated scf accuracy    <       0.00000006 Ry

     iteration # 17     ecut=   100.00 Ry     beta=0.50
     Davidson diagonalization with overlap
     ethr =  2.65E-11,  avg # of iterations =  4.0

     total cpu time spent up to now is      713.4 secs

     total energy              =    -960.39247266 Ry
     Harris-Foulkes estimate   =    -960.39247267 Ry
     estimated scf accuracy    <       0.00000001 Ry

     iteration # 18     ecut=   100.00 Ry     beta=0.50
     Davidson diagonalization with overlap
     ethr =  6.41E-12,  avg # of iterations =  1.0

     total cpu time spent up to now is      739.9 secs

     End of self-consistent calculation

          k = 0.0000 0.0000 0.0000 ( 73041 PWs)   bands (ev):

   -20.6155 -20.6115 -20.5890 -20.5882 -19.8744 -19.8593 -19.8490 -19.8379
   -17.8950 -17.8860 -17.8662 -17.8654 -16.3104 -16.3094 -16.3078 -16.3071
   -13.1983 -13.1969 -13.0985 -13.0488 -11.3904 -11.3108 -11.2704 -11.2064
   -10.1707 -10.1652 -10.1109 -10.0839  -8.8601  -8.6716  -8.6567  -8.6154
    -7.6500  -7.4489  -7.3555  -7.3391  -6.5826  -6.5629  -6.5478  -6.2966
    -5.8879  -5.8361  -5.5737  -5.5608  -5.4750  -5.4193  -5.3639  -5.3603
    -5.3484  -5.3241  -5.2859  -5.1138  -5.0095  -4.9275  -4.8575  -4.8492
    -4.7834  -4.7754  -4.7659  -4.7487  -4.7441  -4.6840  -4.6561  -4.5545
    -4.0498  -4.0183  -4.0154  -3.9847  -3.5146  -3.5111  -3.4220  -3.3034
    -3.2431  -3.1833  -3.1667  -3.0264  -2.9601  -2.8350  -2.6785  -2.6298
    -2.4596  -2.4471  -2.4430  -2.3877  -2.3649  -2.3569  -2.3434  -2.2797
    -1.4693  -1.3564  -1.1379  -1.0997   0.0402   0.1248   0.2285   0.2326
     0.8625   0.9573   0.9721   1.0332   1.1936   1.2005   1.2258   1.2290
     6.0614   6.2613   6.3442   6.4131   6.4329   6.4704   6.5193   6.5448
     6.8345   7.1876   7.2026   7.2179   7.2456   7.5884   7.9905   7.9967
     8.1363   8.1753   8.3293   8.3429

          k = 0.0000 0.0000-0.3617 ( 73068 PWs)   bands (ev):

   -20.6134 -20.6134 -20.5887 -20.5887 -19.8675 -19.8675 -19.8430 -19.8429
   -17.8822 -17.8822 -17.8739 -17.8738 -16.3099 -16.3099 -16.3075 -16.3075
   -13.1985 -13.1985 -13.0720 -13.0720 -11.3536 -11.3536 -11.2398 -11.2398
   -10.1433 -10.1433 -10.1198 -10.1198  -8.7774  -8.7774  -8.6280  -8.6280
    -7.5157  -7.5157  -7.3839  -7.3839  -6.5632  -6.5632  -6.4464  -6.4464
    -5.8642  -5.8642  -5.5542  -5.5542  -5.4354  -5.4354  -5.3765  -5.3765
    -5.3225  -5.3225  -5.1202  -5.1202  -4.9798  -4.9798  -4.8810  -4.8810
    -4.8222  -4.8222  -4.7559  -4.7559  -4.7176  -4.7175  -4.6075  -4.6075
    -4.1052  -4.1052  -3.8910  -3.8910  -3.5947  -3.5947  -3.3480  -3.3480
    -3.1948  -3.1948  -3.0043  -3.0043  -2.9722  -2.9722  -2.6268  -2.6268
    -2.5080  -2.5080  -2.4548  -2.4548  -2.3403  -2.3403  -2.2961  -2.2960
    -1.2950  -1.2949  -1.2050  -1.2050   0.0738   0.0738   0.2358   0.2358
     0.9177   0.9177   0.9932   0.9932   1.1999   1.1999   1.2295   1.2295
     6.1982   6.1982   6.2921   6.2921   6.5329   6.5329   6.6157   6.6157
     6.8408   6.8408   7.2597   7.2597   7.2772   7.2772   8.0114   8.0114
     8.1957   8.1958   8.3460   8.3468

          k = 0.0000-0.3694 0.0000 ( 73032 PWs)   bands (ev):

   -20.6134 -20.6134 -20.5886 -20.5886 -19.8688 -19.8688 -19.8417 -19.8416
   -17.8905 -17.8905 -17.8658 -17.8658 -16.3102 -16.3102 -16.3072 -16.3072
   -13.1545 -13.1544 -13.1176 -13.1176 -11.3322 -11.3322 -11.2572 -11.2572
   -10.1660 -10.1660 -10.0992 -10.0992  -8.7742  -8.7742  -8.6341  -8.6341
    -7.5709  -7.5709  -7.3403  -7.3403  -6.6163  -6.6163  -6.4186  -6.4186
    -5.6868  -5.6868  -5.6569  -5.6569  -5.4565  -5.4564  -5.3775  -5.3775
    -5.2595  -5.2595  -5.2245  -5.2245  -5.0388  -5.0388  -4.9122  -4.9122
    -4.7736  -4.7736  -4.7195  -4.7195  -4.6470  -4.6470  -4.5501  -4.5501
    -4.0893  -4.0893  -3.9448  -3.9448  -3.5553  -3.5553  -3.4001  -3.4001
    -3.2445  -3.2445  -3.0464  -3.0464  -2.8769  -2.8769  -2.6880  -2.6880
    -2.5453  -2.5453  -2.4089  -2.4089  -2.3631  -2.3631  -2.2876  -2.2876
    -1.3871  -1.3871  -1.1058  -1.1058   0.1385   0.1385   0.1929   0.1929
     0.8905   0.8905   1.0125   1.0125   1.1745   1.1745   1.2158   1.2158
     6.1990   6.1990   6.3364   6.3364   6.4289   6.4289   6.5309   6.5309
     6.9918   6.9918   7.4054   7.4054   7.5016   7.5016   8.0087   8.0087
     8.1654   8.1654   8.2723   8.2723

          k = 0.0000-0.3694-0.3617 ( 73004 PWs)   bands (ev):

   -20.6132 -20.6132 -20.5888 -20.5887 -19.8677 -19.8677 -19.8430 -19.8429
   -17.8818 -17.8818 -17.8743 -17.8743 -16.3099 -16.3099 -16.3075 -16.3075
   -13.1490 -13.1490 -13.1223 -13.1222 -11.3063 -11.3063 -11.2875 -11.2875
   -10.1370 -10.1370 -10.1263 -10.1263  -8.7356  -8.7356  -8.6761  -8.6761
    -7.4777  -7.4777  -7.4367  -7.4367  -6.5383  -6.5383  -6.5131  -6.5131
    -5.6898  -5.6898  -5.6493  -5.6492  -5.4121  -5.4120  -5.3977  -5.3976
    -5.2754  -5.2754  -5.1862  -5.1862  -4.9530  -4.9529  -4.8458  -4.8458
    -4.8279  -4.8279  -4.8096  -4.8096  -4.6614  -4.6614  -4.5922  -4.5922
    -4.1434  -4.1434  -3.8743  -3.8743  -3.4979  -3.4978  -3.4822  -3.4821
    -3.1833  -3.1833  -3.0486  -3.0486  -2.8292  -2.8292  -2.7680  -2.7680
    -2.5299  -2.5299  -2.4817  -2.4817  -2.3293  -2.3293  -2.2877  -2.2877
    -1.2597  -1.2597  -1.2066  -1.2066   0.1421   0.1421   0.1855   0.1855
     0.9193   0.9193   0.9829   0.9829   1.1867   1.1867   1.2085   1.2085
     6.2109   6.2109   6.3177   6.3177   6.4750   6.4750   6.6260   6.6260
     6.9471   6.9471   7.1559   7.1559   7.6240   7.6240   7.8416   7.8416
     8.1387   8.1387   8.2658   8.2658

          k = 0.3333 0.0000 0.1082 ( 73127 PWs)   bands (ev):

   -20.6095 -20.6075 -20.5889 -20.5883 -19.8669 -19.8579 -19.8524 -19.8480
   -17.9029 -17.8922 -17.8866 -17.8835 -16.2942 -16.2937 -16.2910 -16.2907
   -13.1815 -13.1799 -13.1027 -13.0773 -11.3591 -11.3176 -11.2590 -11.2292
   -10.1927 -10.1783 -10.1070 -10.0511  -8.8287  -8.7246  -8.6885  -8.6649
    -7.5222  -7.4749  -7.4595  -7.3695  -6.6632  -6.6303  -6.4713  -6.3373
    -5.9005  -5.8770  -5.5318  -5.5309  -5.5046  -5.4873  -5.3668  -5.3599
    -5.3086  -5.3077  -5.1827  -5.1794  -4.9799  -4.9492  -4.9030  -4.7985
    -4.7904  -4.7900  -4.7069  -4.6881  -4.5768  -4.5476  -4.5048  -4.4547
    -4.0994  -4.0965  -4.0168  -3.9631  -3.5578  -3.4879  -3.3741  -3.3641
    -3.1461  -3.1220  -3.0997  -3.0645  -2.8956  -2.8619  -2.7254  -2.6645
    -2.5920  -2.5681  -2.5510  -2.5269  -2.4632  -2.4131  -2.3796  -2.3619
    -1.3940  -1.2582  -1.2200  -1.1347   0.0467   0.0813   0.2451   0.2700
     1.0072   1.0587   1.0945   1.1369   1.1474   1.1592   1.2814   1.2855
     5.9557   6.0308   6.1654   6.2193   6.4007   6.5079   6.5131   6.7247
     6.8525   6.9402   7.0159   7.2420   7.3587   7.4084   7.5322   7.6169
     7.9151   8.1432   8.1623   8.2776

          k = 0.3333 0.0000-0.2535 ( 73088 PWs)   bands (ev):

   -20.6085 -20.6082 -20.5894 -20.5880 -19.8684 -19.8566 -19.8566 -19.8435
   -17.9133 -17.8909 -17.8863 -17.8747 -16.2946 -16.2925 -16.2922 -16.2902
   -13.1927 -13.1709 -13.0981 -13.0805 -11.3687 -11.3072 -11.2703 -11.2132
   -10.2022 -10.1703 -10.1274 -10.0322  -8.7927  -8.7450  -8.7192  -8.6567
    -7.5869  -7.4789  -7.3927  -7.3643  -6.6534  -6.5715  -6.4979  -6.3646
    -5.9417  -5.8272  -5.5593  -5.5343  -5.5037  -5.4717  -5.4304  -5.3992
    -5.3989  -5.2121  -5.2037  -5.1016  -4.9819  -4.8955  -4.8488  -4.8262
    -4.8102  -4.8088  -4.7369  -4.6595  -4.6113  -4.5702  -4.5048  -4.3773
    -4.1122  -4.1045  -3.9844  -3.9756  -3.4805  -3.4746  -3.4360  -3.3597
    -3.1814  -3.1263  -3.0671  -3.0393  -2.9600  -2.9229  -2.6846  -2.6370
    -2.6158  -2.5810  -2.5719  -2.4894  -2.4612  -2.4220  -2.3736  -2.3435
    -1.4136  -1.3768  -1.1932  -1.0449  -0.0189   0.1847   0.2263   0.2558
     1.0332   1.0377   1.1051   1.1310   1.1501   1.1507   1.2762   1.2870
     5.9849   5.9854   6.1761   6.2095   6.5085   6.5723   6.6030   6.6882
     6.7717   6.8870   6.9042   7.2862   7.3382   7.3535   7.4405   7.7471
     7.8575   7.9764   8.1503   8.3200

          k = 0.3333-0.3694 0.1082 ( 73034 PWs)   bands (ev):

   -20.6084 -20.6084 -20.5886 -20.5886 -19.8635 -19.8634 -19.8494 -19.8494
   -17.8981 -17.8980 -17.8846 -17.8846 -16.2938 -16.2938 -16.2910 -16.2910
   -13.1447 -13.1446 -13.1251 -13.1251 -11.3117 -11.3117 -11.2729 -11.2729
   -10.1575 -10.1575 -10.1105 -10.1105  -8.7775  -8.7775  -8.6695  -8.6695
    -7.5213  -7.5213  -7.4257  -7.4257  -6.6387  -6.6387  -6.4656  -6.4656
    -5.7149  -5.7149  -5.6531  -5.6531  -5.4038  -5.4038  -5.3766  -5.3766
    -5.2676  -5.2676  -5.2233  -5.2233  -4.9279  -4.9279  -4.8384  -4.8384
    -4.7652  -4.7652  -4.6992  -4.6992  -4.6136  -4.6136  -4.4533  -4.4533
    -4.1298  -4.1298  -3.9577  -3.9577  -3.5606  -3.5606  -3.4689  -3.4689
    -3.1249  -3.1249  -3.0868  -3.0868  -2.8299  -2.8299  -2.7542  -2.7542
    -2.6084  -2.6084  -2.4948  -2.4948  -2.4233  -2.4233  -2.3855  -2.3855
    -1.3273  -1.3273  -1.1432  -1.1432   0.0919   0.0919   0.2397   0.2397
     1.0190   1.0190   1.1155   1.1155   1.1368   1.1368   1.2689   1.2689
     6.0094   6.0094   6.1623   6.1623   6.4541   6.4541   6.6097   6.6097
     6.9939   6.9939   7.3045   7.3045   7.3751   7.3751   7.5963   7.5963
     8.1136   8.1136   8.1358   8.1358

          k = 0.3333-0.3694-0.2535 ( 73046 PWs)   bands (ev):

   -20.6083 -20.6083 -20.5887 -20.5887 -19.8652 -19.8652 -19.8475 -19.8475
   -17.9050 -17.9050 -17.8777 -17.8776 -16.2936 -16.2936 -16.2912 -16.2912
   -13.1467 -13.1467 -13.1235 -13.1235 -11.3233 -11.3233 -11.2588 -11.2588
   -10.1690 -10.1690 -10.0999 -10.0999  -8.7531  -8.7531  -8.6976  -8.6975
    -7.5628  -7.5628  -7.3849  -7.3849  -6.6148  -6.6148  -6.4713  -6.4713
    -5.7261  -5.7260  -5.6443  -5.6443  -5.4832  -5.4832  -5.3583  -5.3582
    -5.2738  -5.2738  -5.1773  -5.1773  -4.9695  -4.9695  -4.8079  -4.8079
    -4.7784  -4.7784  -4.7029  -4.7029  -4.5998  -4.5998  -4.4093  -4.4093
    -4.1210  -4.1210  -3.9550  -3.9550  -3.5582  -3.5581  -3.4746  -3.4745
    -3.1576  -3.1575  -3.0730  -3.0730  -2.8710  -2.8710  -2.7432  -2.7432
    -2.6142  -2.6142  -2.4805  -2.4805  -2.4101  -2.4101  -2.3782  -2.3781
    -1.4000  -1.4000  -1.0822  -1.0822   0.0814   0.0814   0.2530   0.2530
     1.0336   1.0336   1.0953   1.0953   1.1392   1.1392   1.2713   1.2713
     6.0143   6.0143   6.1673   6.1673   6.4669   6.4669   6.7166   6.7166
     6.8496   6.8496   7.2005   7.2005   7.3852   7.3852   7.6846   7.6846
     8.0138   8.0138   8.2687   8.2690

     highest occupied, lowest unoccupied level (ev):     1.2870    5.9557

!    total energy              =    -960.39247266 Ry
     Harris-Foulkes estimate   =    -960.39247266 Ry
     estimated scf accuracy    <          6.5E-09 Ry

     total all-electron energy =     -3620.786310 Ry

     The total energy is the sum of the following terms:

     one-electron contribution =    -462.12124108 Ry
     hartree contribution      =     308.96907045 Ry
     xc contribution           =    -211.15289326 Ry
     ewald contribution        =    -318.77943559 Ry
     Dispersion Correction     =      -0.36570072 Ry
     one-center paw contrib.   =    -276.94227246 Ry

     convergence has been achieved in  18 iterations

     Forces acting on atoms (cartesian axes, Ry/au):

     atom    1 type  2   force =    -0.00461217   -0.00064826    0.00423522
     atom    2 type  2   force =    -0.00460980    0.00064760    0.00423650
     atom    3 type  2   force =     0.00461217    0.00064826   -0.00423522
     atom    4 type  2   force =     0.00460980   -0.00064760   -0.00423650
     atom    5 type  2   force =     0.00734934    0.00044270   -0.00184511
     atom    6 type  2   force =     0.00734811   -0.00044262   -0.00184584
     atom    7 type  2   force =    -0.00734934   -0.00044270    0.00184511
     atom    8 type  2   force =    -0.00734811    0.00044262    0.00184584
     atom    9 type  2   force =    -0.00220160    0.00125802    0.00532235
     atom   10 type  2   force =    -0.00219886   -0.00125863    0.00532443
     atom   11 type  2   force =     0.00220160   -0.00125802   -0.00532235
     atom   12 type  2   force =     0.00219886    0.00125863   -0.00532443
     atom   13 type  4   force =     0.00085576    0.00014287   -0.00030235
     atom   14 type  4   force =     0.00085389   -0.00014379   -0.00030313
     atom   15 type  4   force =    -0.00085576   -0.00014287    0.00030235
     atom   16 type  4   force =    -0.00085389    0.00014379    0.00030313
     atom   17 type  2   force =     0.00295281    0.00073280   -0.00482197
     atom   18 type  2   force =     0.00295405   -0.00073244   -0.00481859
     atom   19 type  2   force =    -0.00295281   -0.00073280    0.00482197
     atom   20 type  2   force =    -0.00295405    0.00073244    0.00481859
     atom   21 type  3   force =     0.00425165   -0.00018962   -0.00117307
     atom   22 type  3   force =     0.00425209    0.00018964   -0.00117340
     atom   23 type  3   force =    -0.00425165    0.00018962    0.00117307
     atom   24 type  3   force =    -0.00425209   -0.00018964    0.00117340
     atom   25 type  3   force =    -0.00629152   -0.00018422   -0.00215042
     atom   26 type  3   force =    -0.00629225    0.00018415   -0.00215072
     atom   27 type  3   force =     0.00629152    0.00018422    0.00215042
     atom   28 type  3   force =     0.00629225   -0.00018415    0.00215072
     atom   29 type  1   force =     0.00110340    0.00007981    0.00001827
     atom   30 type  1   force =     0.00110606   -0.00007822    0.00002094
     atom   31 type  1   force =    -0.00110340   -0.00007981   -0.00001827
     atom   32 type  1   force =    -0.00110606    0.00007822   -0.00002094
     atom   33 type  3   force =    -0.00044985   -0.00055474    0.00000294
     atom   34 type  3   force =    -0.00044850    0.00055515    0.00000289
     atom   35 type  3   force =     0.00044985    0.00055474   -0.00000294
     atom   36 type  3   force =     0.00044850   -0.00055515   -0.00000289
     atom   37 type  3   force =     0.00002341   -0.00043028    0.00062301
     atom   38 type  3   force =     0.00002376    0.00043113    0.00062389
     atom   39 type  3   force =    -0.00002341    0.00043028   -0.00062301
     atom   40 type  3   force =    -0.00002376   -0.00043113   -0.00062389
     atom   41 type  1   force =    -0.00074963   -0.00000627    0.00147180
     atom   42 type  1   force =    -0.00075156    0.00000374    0.00147135
     atom   43 type  1   force =     0.00074963    0.00000627   -0.00147180
     atom   44 type  1   force =     0.00075156   -0.00000374   -0.00147135
     atom   45 type  3   force =    -0.00024876    0.00009850   -0.00052138
     atom   46 type  3   force =    -0.00025082   -0.00009889   -0.00052045
     atom   47 type  3   force =     0.00024876   -0.00009850    0.00052138
     atom   48 type  3   force =     0.00025082    0.00009889    0.00052045
     atom   49 type  3   force =     0.00012121    0.00088894   -0.00049723
     atom   50 type  3   force =     0.00012089   -0.00089109   -0.00049840
     atom   51 type  3   force =    -0.00012121   -0.00088894    0.00049723
     atom   52 type  3   force =    -0.00012089    0.00089109    0.00049840
     atom   53 type  1   force =     0.00019648   -0.00052406    0.00042611
     atom   54 type  1   force =     0.00019386    0.00052500    0.00042639
     atom   55 type  1   force =    -0.00019648    0.00052406   -0.00042611
     atom   56 type  1   force =    -0.00019386   -0.00052500   -0.00042639
     atom   57 type  3   force =     0.00020444   -0.00019738   -0.00011984
     atom   58 type  3   force =     0.00020216    0.00019751   -0.00011881
     atom   59 type  3   force =    -0.00020444    0.00019738    0.00011984
     atom   60 type  3   force =    -0.00020216   -0.00019751    0.00011881
     atom   61 type  3   force =     0.00014410   -0.00089883   -0.00060351
     atom   62 type  3   force =     0.00014349    0.00090061   -0.00060477
     atom   63 type  3   force =    -0.00014410    0.00089883    0.00060351
     atom   64 type  3   force =    -0.00014349   -0.00090061    0.00060477
     atom   65 type  1   force =     0.00004436   -0.00127698    0.00097285
     atom   66 type  1   force =     0.00004731    0.00127561    0.00097591
     atom   67 type  1   force =    -0.00004436    0.00127698   -0.00097285
     atom   68 type  1   force =    -0.00004731   -0.00127561   -0.00097591
     atom   69 type  3   force =     0.00024134    0.00017983    0.00025993
     atom   70 type  3   force =     0.00024297   -0.00018013    0.00025968
     atom   71 type  3   force =    -0.00024134   -0.00017983   -0.00025993
     atom   72 type  3   force =    -0.00024297    0.00018013   -0.00025968
     atom   73 type  3   force =    -0.00033854    0.00050754    0.00023555
     atom   74 type  3   force =    -0.00033809   -0.00050842    0.00023687
     atom   75 type  3   force =     0.00033854   -0.00050754   -0.00023555
     atom   76 type  3   force =     0.00033809    0.00050842   -0.00023687

     Total force =     0.031013     Total SCF correction =     0.000187


     Computing stress (Cartesian axis) and pressure

          total   stress  (Ry/bohr**3)                   (kbar)     P=   -6.79
  -0.00005043   0.00000000   0.00000157         -7.42      0.00      0.23
   0.00000000  -0.00003913   0.00000000          0.00     -5.76      0.00
   0.00000157   0.00000000  -0.00004887          0.23      0.00     -7.19


     Writing output data file scf.save
 
     init_run     :     21.81s CPU     22.53s WALL (       1 calls)
     electrons    :    692.77s CPU    716.96s WALL (       1 calls)
     forces       :     11.37s CPU     11.49s WALL (       1 calls)
     stress       :     35.07s CPU     35.25s WALL (       1 calls)

     Called by init_run:
     wfcinit      :     14.71s CPU     15.32s WALL (       1 calls)
     potinit      :      2.61s CPU      2.64s WALL (       1 calls)

     Called by electrons:
     c_bands      :    613.50s CPU    633.39s WALL (      18 calls)
     sum_band     :     68.05s CPU     71.31s WALL (      18 calls)
     v_of_rho     :      1.60s CPU      1.77s WALL (      19 calls)
     newd         :      3.33s CPU      4.02s WALL (      19 calls)
     PAW_pot      :      5.77s CPU      5.77s WALL (      19 calls)
     mix_rho      :      0.34s CPU      0.37s WALL (      18 calls)

     Called by c_bands:
     init_us_2    :      4.24s CPU      4.26s WALL (     312 calls)
     cegterg      :    598.74s CPU    618.58s WALL (     144 calls)

     Called by sum_band:
     sum_band:bec :      0.04s CPU      0.04s WALL (     144 calls)
     addusdens    :      3.32s CPU      4.00s WALL (      18 calls)

     Called by *egterg:
     h_psi        :    356.35s CPU    370.25s WALL (     616 calls)
     s_psi        :     62.46s CPU     62.47s WALL (     616 calls)
     g_psi        :      1.95s CPU      1.95s WALL (     464 calls)
     cdiaghg      :     29.26s CPU     29.26s WALL (     608 calls)

     Called by h_psi:
     h_psi:pot    :    354.14s CPU    368.00s WALL (     616 calls)
     h_psi:calbec :     62.71s CPU     62.87s WALL (     616 calls)
     vloc_psi     :    228.54s CPU    242.22s WALL (     616 calls)
     add_vuspsi   :     62.88s CPU     62.90s WALL (     616 calls)

     General routines
     calbec       :     89.86s CPU     90.09s WALL (     800 calls)
     fft          :      1.33s CPU      1.63s WALL (     271 calls)
     fftw         :    245.08s CPU    260.13s WALL (  121860 calls)
 
     Parallel routines
     fft_scatter  :     57.32s CPU     67.45s WALL (  122131 calls)
 
     PWSCF        : 12m46.60s CPU    13m43.13s WALL

 
   This run was terminated on:  10: 8:42  12Nov2017            

=------------------------------------------------------------------------------=
   JOB DONE.
=------------------------------------------------------------------------------=
