
     Program PWSCF v.6.1 (svn rev. 13369) starts on  4Nov2017 at  0:47: 0 

     This program is part of the open-source Quantum ESPRESSO suite
     for quantum simulation of materials; please cite
         "P. Giannozzi et al., J. Phys.:Condens. Matter 21 395502 (2009);
          URL http://www.quantum-espresso.org", 
     in publications or presentations arising from this work. More details at
     http://www.quantum-espresso.org/quote

     Parallel version (MPI), running on     8 processors
     R & G space division:  proc/nbgrp/npool/nimage =       8
     Waiting for input...
     Reading input from standard input

     Current dimensions of program PWSCF are:
     Max number of different atomic species (ntypx) = 10
     Max number of k-points (npk) =  40000
     Max angular momentum in pseudopotentials (lmaxx) =  3
               file C.pbe-n-kjpaw_psl.0.1.UPF: wavefunction(s)  2P renormalized
               file N.pbe-n-kjpaw_psl.0.1.UPF: wavefunction(s)  2P renormalized
               file H.pbe-kjpaw_psl.0.1.UPF: wavefunction(s)  1S renormalized
               file O.pbe-n-kjpaw_psl.0.1.UPF: wavefunction(s)  2P renormalized

     -------------------------------------
     Parameters for Dispersion Correction:
     -------------------------------------
       atom      VdW radius       C_6     

        C          2.744         60.710
        N          2.640         42.670
        H          1.892          4.857
        O          2.536         24.284

     Subspace diagonalization in iterative solution of the eigenvalue problem:
     a serial algorithm will be used

 
     Parallelization info
     --------------------
     sticks:   dense  smooth     PW     G-vecs:    dense   smooth      PW
     Min         491     491    134                29369    29369    4182
     Max         492     492    135                29371    29371    4183
     Sum        3931    3931   1075               234957   234957   33459
 


     bravais-lattice index     =            0
     lattice parameter (alat)  =       9.4921  a.u.
     unit-cell volume          =    1739.2751 (a.u.)^3
     number of atoms/cell      =           26
     number of atomic types    =            4
     number of electrons       =        72.00
     number of Kohn-Sham states=           43
     kinetic-energy cutoff     =     100.0000  Ry
     charge density cutoff     =     400.0000  Ry
     convergence threshold     =      1.0E-08
     mixing beta               =       0.5000
     number of iterations used =            8  plain     mixing
     Exchange-correlation      =  SLA  PW   PBX  PBC ( 1  4  3  4 0 0)

     celldm(1)=   9.492094  celldm(2)=   0.000000  celldm(3)=   0.000000
     celldm(4)=   0.000000  celldm(5)=   0.000000  celldm(6)=   0.000000

     crystal axes: (cart. coord. in units of alat)
               a(1) = (   1.000000   0.000000   0.000000 )  
               a(2) = (   0.299221   1.370055   0.000000 )  
               a(3) = (  -0.336612  -0.268065   1.484377 )  

     reciprocal axes: (cart. coord. in units 2 pi/alat)
               b(1) = (  1.000000 -0.218401  0.187329 )  
               b(2) = (  0.000000  0.729898  0.131813 )  
               b(3) = (  0.000000  0.000000  0.673683 )  


     PseudoPot. # 1 for  C read from file:
     /scratch/ahofstet/pseudo/C.pbe-n-kjpaw_psl.0.1.UPF
     MD5 check sum: 430fe95172b1e11ef3f8ed03bac87931
     Pseudo is Projector augmented-wave + core cor, Zval =  4.0
     Generated using "atomic" code by A. Dal Corso  v.5.0.99 svn rev. 10869
     Shape of augmentation charge: BESSEL
     Using radial grid of 1073 points,  4 beta functions with: 
                l(1) =   0
                l(2) =   0
                l(3) =   1
                l(4) =   1
     Q(r) pseudized with 0 coefficients 


     PseudoPot. # 2 for  N read from file:
     /scratch/ahofstet/pseudo/N.pbe-n-kjpaw_psl.0.1.UPF
     MD5 check sum: f73187c8b701007e77325f868c9291d7
     Pseudo is Projector augmented-wave + core cor, Zval =  5.0
     Generated using "atomic" code by A. Dal Corso  v.5.0.99 svn rev. 10869
     Shape of augmentation charge: PSQ
     Using radial grid of 1085 points,  4 beta functions with: 
                l(1) =   0
                l(2) =   0
                l(3) =   1
                l(4) =   1
     Q(r) pseudized with 0 coefficients 


     PseudoPot. # 3 for  H read from file:
     /scratch/ahofstet/pseudo/H.pbe-kjpaw_psl.0.1.UPF
     MD5 check sum: 94e484f906d9e9773b2f6e52662335b2
     Pseudo is Projector augmented-wave, Zval =  1.0
     Generated using "atomic" code by A. Dal Corso  v.5.0.99 svn rev. 10869
     Shape of augmentation charge: PSQ
     Using radial grid of  929 points,  2 beta functions with: 
                l(1) =   0
                l(2) =   0
     Q(r) pseudized with 0 coefficients 


     PseudoPot. # 4 for  O read from file:
     /scratch/ahofstet/pseudo/O.pbe-n-kjpaw_psl.0.1.UPF
     MD5 check sum: 3f94a2996a3169367d6eb21d9b593f20
     Pseudo is Projector augmented-wave + core cor, Zval =  6.0
     Generated using "atomic" code by A. Dal Corso  v.5.0.99 svn rev. 10869
     Shape of augmentation charge: BESSEL
     Using radial grid of 1095 points,  4 beta functions with: 
                l(1) =   0
                l(2) =   0
                l(3) =   1
                l(4) =   1
     Q(r) pseudized with 0 coefficients 


     atomic species   valence    mass     pseudopotential
        C              4.00    12.01070      C( 1.00)
        N              5.00    14.00670      N( 1.00)
        H              1.00     1.00794      H( 1.00)
        O              6.00    15.99940      O( 1.00)

      2 Sym. Ops., with inversion, found



   Cartesian axes

     site n.     atom                  positions (alat units)
         1           C   tau(   1) = (   1.0011361   0.9874881   0.5229328  )
         2           C   tau(   2) = (  -0.0385267   0.1145014   0.9614442  )
         3           C   tau(   3) = (   0.8982906   0.7752668   0.3378006  )
         4           C   tau(   4) = (   0.0643188   0.3267227   1.1465764  )
         5           C   tau(   5) = (   0.0300984   0.3346956   0.2177980  )
         6           C   tau(   6) = (   0.9325110   0.7672939   1.2665790  )
         7           H   tau(   7) = (   0.8802962   1.1681976   0.5062450  )
         8           H   tau(   8) = (   0.0823132  -0.0662082   0.9781321  )
         9           H   tau(   9) = (   0.9921454   0.9196917   0.7306470  )
        10           H   tau(  10) = (  -0.0295360   0.1822978   0.7537300  )
        11           H   tau(  11) = (   1.2080520   1.0344622   0.4712731  )
        12           H   tau(  12) = (  -0.2454426   0.0675273   1.0131039  )
        13           H   tau(  13) = (   0.6938988   0.7080135   0.3901483  )
        14           H   tau(  14) = (   0.2687106   0.3939760   1.0942287  )
        15           H   tau(  15) = (   0.8938271   0.8399131   0.1285640  )
        16           H   tau(  16) = (   0.0687823   0.2620764   1.3558130  )
        17           H   tau(  17) = (   0.3953192   0.1956087   0.3318720  )
        18           H   tau(  18) = (   0.5672902   0.9063807   1.1525050  )
        19           H   tau(  19) = (   0.2060168  -0.0235279   0.1352226  )
        20           H   tau(  20) = (   0.7565926   1.1255174   1.3491544  )
        21           N   tau(  21) = (   0.2159748   0.1438389   0.2544223  )
        22           N   tau(  22) = (   0.7466346   0.9581506   1.2299547  )
        23           O   tau(  23) = (   0.0835301   0.5547841   0.3645791  )
        24           O   tau(  24) = (   0.8790793   0.5472054   1.1197979  )
        25           O   tau(  25) = (   0.8294539   0.3148948   0.0747594  )
        26           O   tau(  26) = (   0.1331555   0.7870947   1.4096176  )

     number of k points=    19
                       cart. coord. in units 2pi/alat
        k(    1) = (   0.0000000   0.0000000   0.0000000), wk =   0.0555556
        k(    2) = (   0.0000000   0.0000000   0.2245611), wk =   0.1111111
        k(    3) = (   0.0000000   0.2432993   0.0439377), wk =   0.1111111
        k(    4) = (   0.0000000   0.2432993   0.2684988), wk =   0.1111111
        k(    5) = (   0.0000000   0.2432993  -0.1806234), wk =   0.1111111
        k(    6) = (   0.2500000  -0.0546002   0.0468321), wk =   0.1111111
        k(    7) = (   0.2500000  -0.0546002   0.2713932), wk =   0.1111111
        k(    8) = (   0.2500000  -0.0546002  -0.1777290), wk =   0.1111111
        k(    9) = (   0.2500000   0.1886990   0.0907698), wk =   0.1111111
        k(   10) = (   0.2500000   0.1886990   0.3153309), wk =   0.1111111
        k(   11) = (   0.2500000   0.1886990  -0.1337913), wk =   0.1111111
        k(   12) = (   0.2500000  -0.2978995   0.0028945), wk =   0.1111111
        k(   13) = (   0.2500000  -0.2978995   0.2274556), wk =   0.1111111
        k(   14) = (   0.2500000  -0.2978995  -0.2216666), wk =   0.1111111
        k(   15) = (  -0.5000000   0.1092005  -0.0936643), wk =   0.0555556
        k(   16) = (  -0.5000000   0.1092005   0.1308968), wk =   0.1111111
        k(   17) = (  -0.5000000   0.3524998  -0.0497266), wk =   0.1111111
        k(   18) = (  -0.5000000   0.3524998   0.1748345), wk =   0.1111111
        k(   19) = (  -0.5000000   0.3524998  -0.2742877), wk =   0.1111111

     Dense  grid:   234957 G-vectors     FFT dimensions: (  64,  90,  96)

     Estimated max dynamical RAM per process >      93.23MB

     Estimated total allocated dynamical RAM >     745.82MB

     Check: negative/imaginary core charge=   -0.000002    0.000000

     Initial potential from superposition of free atoms

     starting charge   71.99960, renormalised to   72.00000
     Starting wfc are   62 randomized atomic wfcs
     Checking if some PAW data can be deallocated... 

     total cpu time spent up to now is        7.3 secs

     per-process dynamical memory:   132.5 Mb

     Self-consistent Calculation

     iteration #  1     ecut=   100.00 Ry     beta=0.50
     Davidson diagonalization with overlap
     ethr =  1.00E-02,  avg # of iterations =  3.5

     total cpu time spent up to now is       17.9 secs

     total energy              =    -349.90657551 Ry
     Harris-Foulkes estimate   =    -351.49755011 Ry
     estimated scf accuracy    <       2.92831105 Ry

     iteration #  2     ecut=   100.00 Ry     beta=0.50
     Davidson diagonalization with overlap
     ethr =  4.07E-03,  avg # of iterations =  2.8

     total cpu time spent up to now is       24.7 secs

     total energy              =    -350.33011792 Ry
     Harris-Foulkes estimate   =    -350.46022831 Ry
     estimated scf accuracy    <       0.29227309 Ry

     iteration #  3     ecut=   100.00 Ry     beta=0.50
     Davidson diagonalization with overlap
     ethr =  4.06E-04,  avg # of iterations =  6.2

     total cpu time spent up to now is       35.4 secs

     total energy              =    -350.50875956 Ry
     Harris-Foulkes estimate   =    -350.58839674 Ry
     estimated scf accuracy    <       0.21682338 Ry

     iteration #  4     ecut=   100.00 Ry     beta=0.50
     Davidson diagonalization with overlap
     ethr =  3.01E-04,  avg # of iterations =  1.0

     total cpu time spent up to now is       41.1 secs

     total energy              =    -350.47888921 Ry
     Harris-Foulkes estimate   =    -350.52015896 Ry
     estimated scf accuracy    <       0.06895014 Ry

     iteration #  5     ecut=   100.00 Ry     beta=0.50
     Davidson diagonalization with overlap
     ethr =  9.58E-05,  avg # of iterations =  4.8

     total cpu time spent up to now is       51.7 secs

     total energy              =    -350.52741126 Ry
     Harris-Foulkes estimate   =    -350.55806865 Ry
     estimated scf accuracy    <       0.10574127 Ry

     iteration #  6     ecut=   100.00 Ry     beta=0.50
     Davidson diagonalization with overlap
     ethr =  9.58E-05,  avg # of iterations =  1.0

     total cpu time spent up to now is       57.4 secs

     total energy              =    -350.50330225 Ry
     Harris-Foulkes estimate   =    -350.52991959 Ry
     estimated scf accuracy    <       0.05084677 Ry

     iteration #  7     ecut=   100.00 Ry     beta=0.50
     Davidson diagonalization with overlap
     ethr =  7.06E-05,  avg # of iterations =  4.0

     total cpu time spent up to now is       65.7 secs

     total energy              =    -350.52540803 Ry
     Harris-Foulkes estimate   =    -350.52611478 Ry
     estimated scf accuracy    <       0.00526720 Ry

     iteration #  8     ecut=   100.00 Ry     beta=0.50
     Davidson diagonalization with overlap
     ethr =  7.32E-06,  avg # of iterations =  2.1

     total cpu time spent up to now is       71.8 secs

     total energy              =    -350.52316803 Ry
     Harris-Foulkes estimate   =    -350.52555619 Ry
     estimated scf accuracy    <       0.00393281 Ry

     iteration #  9     ecut=   100.00 Ry     beta=0.50
     Davidson diagonalization with overlap
     ethr =  5.46E-06,  avg # of iterations =  3.9

     total cpu time spent up to now is       79.7 secs

     total energy              =    -350.52445580 Ry
     Harris-Foulkes estimate   =    -350.52470619 Ry
     estimated scf accuracy    <       0.00049467 Ry

     iteration # 10     ecut=   100.00 Ry     beta=0.50
     Davidson diagonalization with overlap
     ethr =  6.87E-07,  avg # of iterations =  3.7

     total cpu time spent up to now is       86.3 secs

     total energy              =    -350.52449916 Ry
     Harris-Foulkes estimate   =    -350.52451461 Ry
     estimated scf accuracy    <       0.00004921 Ry

     iteration # 11     ecut=   100.00 Ry     beta=0.50
     Davidson diagonalization with overlap
     ethr =  6.83E-08,  avg # of iterations =  4.0

     total cpu time spent up to now is       96.1 secs

     total energy              =    -350.52455826 Ry
     Harris-Foulkes estimate   =    -350.52456131 Ry
     estimated scf accuracy    <       0.00001290 Ry

     iteration # 12     ecut=   100.00 Ry     beta=0.50
     Davidson diagonalization with overlap
     ethr =  1.79E-08,  avg # of iterations =  1.0

     total cpu time spent up to now is      101.8 secs

     total energy              =    -350.52455383 Ry
     Harris-Foulkes estimate   =    -350.52455854 Ry
     estimated scf accuracy    <       0.00000692 Ry

     iteration # 13     ecut=   100.00 Ry     beta=0.50
     Davidson diagonalization with overlap
     ethr =  9.62E-09,  avg # of iterations =  4.0

     total cpu time spent up to now is      111.2 secs

     total energy              =    -350.52455815 Ry
     Harris-Foulkes estimate   =    -350.52455900 Ry
     estimated scf accuracy    <       0.00000490 Ry

     iteration # 14     ecut=   100.00 Ry     beta=0.50
     Davidson diagonalization with overlap
     ethr =  6.80E-09,  avg # of iterations =  1.0

     total cpu time spent up to now is      116.9 secs

     total energy              =    -350.52455623 Ry
     Harris-Foulkes estimate   =    -350.52455819 Ry
     estimated scf accuracy    <       0.00000324 Ry

     iteration # 15     ecut=   100.00 Ry     beta=0.50
     Davidson diagonalization with overlap
     ethr =  4.51E-09,  avg # of iterations =  3.5

     total cpu time spent up to now is      125.4 secs

     total energy              =    -350.52455735 Ry
     Harris-Foulkes estimate   =    -350.52455773 Ry
     estimated scf accuracy    <       0.00000073 Ry

     iteration # 16     ecut=   100.00 Ry     beta=0.50
     Davidson diagonalization with overlap
     ethr =  1.02E-09,  avg # of iterations =  4.1

     total cpu time spent up to now is      132.4 secs

     total energy              =    -350.52455747 Ry
     Harris-Foulkes estimate   =    -350.52455748 Ry
     estimated scf accuracy    <       0.00000002 Ry

     iteration # 17     ecut=   100.00 Ry     beta=0.50
     Davidson diagonalization with overlap
     ethr =  3.31E-11,  avg # of iterations =  4.1

     total cpu time spent up to now is      142.7 secs

     total energy              =    -350.52455752 Ry
     Harris-Foulkes estimate   =    -350.52455752 Ry
     estimated scf accuracy    <       0.00000002 Ry

     iteration # 18     ecut=   100.00 Ry     beta=0.50
     Davidson diagonalization with overlap
     ethr =  2.12E-11,  avg # of iterations =  1.0

     total cpu time spent up to now is      148.4 secs

     total energy              =    -350.52455752 Ry
     Harris-Foulkes estimate   =    -350.52455752 Ry
     estimated scf accuracy    <       0.00000003 Ry

     iteration # 19     ecut=   100.00 Ry     beta=0.50
     Davidson diagonalization with overlap
     ethr =  2.12E-11,  avg # of iterations =  1.0

     total cpu time spent up to now is      154.2 secs

     total energy              =    -350.52455751 Ry
     Harris-Foulkes estimate   =    -350.52455752 Ry
     estimated scf accuracy    <       0.00000001 Ry

     iteration # 20     ecut=   100.00 Ry     beta=0.50
     Davidson diagonalization with overlap
     ethr =  1.96E-11,  avg # of iterations =  2.1

     total cpu time spent up to now is      160.1 secs

     End of self-consistent calculation

          k = 0.0000 0.0000 0.0000 ( 29339 PWs)   bands (ev):

   -22.4711 -22.4110 -20.0787 -20.0159 -17.4182 -17.3377 -13.8109 -13.7258
   -10.7752 -10.5202  -9.1331  -8.9919  -8.5570  -8.2561  -7.7583  -7.0584
    -6.8755  -6.3456  -6.3048  -5.6771  -5.2374  -4.8888  -4.5929  -4.5723
    -4.1973  -4.1060  -3.3333  -3.3033  -3.2473  -3.2243  -2.1028  -1.9692
    -1.6957  -1.4488  -1.4336  -1.2863   4.3244   5.0738   5.2168   5.9285
     6.5593   6.9362   7.2359

          k = 0.0000 0.0000 0.2246 ( 29355 PWs)   bands (ev):

   -22.4678 -22.4144 -20.0761 -20.0186 -17.4161 -17.3397 -13.7946 -13.7460
   -10.7137 -10.5857  -9.0945  -9.0166  -8.5553  -8.2541  -7.7681  -6.9911
    -6.8305  -6.4951  -6.2997  -5.5001  -5.2499  -5.0965  -4.6727  -4.5047
    -4.1617  -4.1163  -3.3964  -3.3347  -3.2820  -3.0788  -2.1562  -1.9093
    -1.6789  -1.4518  -1.4124  -1.2606   4.6120   5.0944   5.2321   5.4676
     6.3584   6.6986   7.3912

          k = 0.0000 0.2433 0.0439 ( 29367 PWs)   bands (ev):

   -22.4559 -22.4257 -20.0887 -20.0074 -17.4185 -17.3457 -13.7448 -13.7221
   -10.7999 -10.6913  -9.1418  -8.9225  -8.4785  -8.3272  -7.7250  -7.0404
    -6.9073  -6.3713  -6.1401  -5.5095  -5.4019  -4.8684  -4.6763  -4.4594
    -4.1651  -4.1083  -3.5280  -3.3417  -3.2982  -3.1668  -2.1539  -1.8973
    -1.6767  -1.5109  -1.4130  -1.2283   4.6250   4.9274   5.2265   5.3955
     6.7589   6.8862   7.1828

          k = 0.0000 0.2433 0.2685 ( 29360 PWs)   bands (ev):

   -22.4528 -22.4287 -20.0893 -20.0069 -17.4188 -17.3454 -13.7700 -13.6975
   -10.8563 -10.6268  -9.1708  -8.8994  -8.4769  -8.3225  -7.7153  -6.9602
    -6.8807  -6.5159  -6.1700  -5.4194  -5.3379  -5.0486  -4.5732  -4.5480
    -4.1688  -4.1034  -3.5370  -3.3479  -3.3314  -3.1035  -2.2029  -1.8067
    -1.6677  -1.5097  -1.4365  -1.1912   4.7119   5.0709   5.2041   5.5445
     6.1269   6.5109   7.0820

          k = 0.0000 0.2433-0.1806 ( 29357 PWs)   bands (ev):

   -22.4566 -22.4248 -20.0916 -20.0046 -17.4214 -17.3429 -13.7597 -13.7078
   -10.8127 -10.6813  -9.1192  -8.9372  -8.4767  -8.3232  -7.7295  -6.9732
    -6.8476  -6.5309  -6.1474  -5.4301  -5.3661  -4.9955  -4.6961  -4.4624
    -4.1746  -4.0802  -3.5115  -3.4115  -3.2637  -3.1546  -2.1981  -1.7871
    -1.6568  -1.5151  -1.4377  -1.2096   4.7268   4.9958   5.3078   5.4990
     6.1576   6.5285   7.0212

          k = 0.2500-0.0546 0.0468 ( 29369 PWs)   bands (ev):

   -22.4644 -22.4085 -20.0788 -20.0126 -17.4472 -17.3508 -13.7758 -13.7111
   -10.7937 -10.5792  -9.1723  -8.9239  -8.5000  -8.2582  -7.7450  -7.0239
    -6.9417  -6.3718  -6.2571  -5.7442  -5.3851  -4.8989  -4.6145  -4.5962
    -4.2345  -4.1114  -3.3813  -3.3021  -3.2300  -3.0654  -2.0239  -1.8530
    -1.6465  -1.4745  -1.3362  -1.2275   4.6348   4.8449   5.1298   6.0710
     6.7802   6.8742   7.1636

          k = 0.2500-0.0546 0.2714 ( 29365 PWs)   bands (ev):

   -22.4609 -22.4121 -20.0762 -20.0151 -17.4449 -17.3529 -13.7588 -13.7314
   -10.7507 -10.6243  -9.1501  -8.9352  -8.4917  -8.2640  -7.7510  -6.9544
    -6.9059  -6.5033  -6.2726  -5.5960  -5.3388  -5.1222  -4.7108  -4.5281
    -4.2100  -4.1126  -3.3965  -3.3143  -3.2198  -3.0151  -2.0795  -1.7650
    -1.6623  -1.4643  -1.3317  -1.1975   4.8042   4.9328   5.1299   5.6992
     6.4707   6.8430   7.2267

          k = 0.2500-0.0546-0.1777 ( 29368 PWs)   bands (ev):

   -22.4612 -22.4117 -20.0760 -20.0152 -17.4448 -17.3529 -13.7663 -13.7240
   -10.7407 -10.6390  -9.1275  -8.9491  -8.4920  -8.2663  -7.7501  -6.9628
    -6.8855  -6.5208  -6.2593  -5.6049  -5.3786  -5.0993  -4.7139  -4.5316
    -4.2474  -4.0673  -3.3165  -3.3075  -3.1847  -3.1256  -2.0632  -1.7585
    -1.6721  -1.4608  -1.3392  -1.2006   4.7489   4.9866   5.1520   5.7111
     6.5599   6.9477   7.0959

          k = 0.2500 0.1887 0.0908 ( 29367 PWs)   bands (ev):

   -22.4524 -22.4204 -20.0817 -20.0105 -17.4361 -17.3604 -13.7670 -13.7302
   -10.7162 -10.6277  -9.0814  -8.9996  -8.5193  -8.2674  -7.7465  -7.0692
    -6.9725  -6.3822  -6.3297  -5.5395  -5.3274  -4.8838  -4.7237  -4.5353
    -4.2022  -4.1049  -3.5259  -3.3130  -3.2773  -3.0492  -2.0548  -1.8371
    -1.6227  -1.4535  -1.3468  -1.1769   4.8207   4.8725   5.1846   5.6948
     6.7820   7.0152   7.1743

          k = 0.2500 0.1887 0.3153 ( 29379 PWs)   bands (ev):

   -22.4499 -22.4230 -20.0823 -20.0099 -17.4366 -17.3599 -13.7933 -13.7044
   -10.7803 -10.5570  -9.1075  -8.9787  -8.5068  -8.2758  -7.7349  -6.9912
    -6.9541  -6.5204  -6.3476  -5.3742  -5.3421  -5.0657  -4.6344  -4.6157
    -4.2393  -4.0772  -3.5105  -3.3429  -3.2145  -3.0612  -2.1246  -1.7223
    -1.6225  -1.4625  -1.3626  -1.1370   4.8062   5.0517   5.2242   5.6015
     6.3839   6.8258   7.2195

          k = 0.2500 0.1887-0.1338 ( 29340 PWs)   bands (ev):

   -22.4537 -22.4190 -20.0846 -20.0077 -17.4384 -17.3580 -13.7762 -13.7225
   -10.7461 -10.5961  -9.0619  -9.0150  -8.5154  -8.2658  -7.7521  -6.9704
    -6.9389  -6.5636  -6.3194  -5.4662  -5.2931  -5.0328  -4.7196  -4.5244
    -4.1924  -4.1117  -3.4748  -3.3739  -3.2098  -3.1050  -2.0877  -1.7338
    -1.6190  -1.4566  -1.3496  -1.1736   4.8247   5.0634   5.1723   5.8842
     6.4060   6.6745   7.2396

          k = 0.2500-0.2979 0.0029 ( 29406 PWs)   bands (ev):

   -22.4486 -22.4239 -20.0865 -20.0061 -17.4457 -17.3579 -13.7408 -13.6960
   -10.8173 -10.6904  -9.1406  -8.9200  -8.3894  -8.3600  -7.7204  -7.0738
    -6.9291  -6.3777  -6.1309  -5.6273  -5.4518  -4.8867  -4.7186  -4.5062
    -4.2282  -4.0845  -3.5320  -3.3206  -3.2036  -3.1268  -2.0247  -1.8363
    -1.6662  -1.4935  -1.2637  -1.2122   4.7487   5.0262   5.1600   5.5302
     6.5480   6.8641   7.0720

          k = 0.2500-0.2979 0.2275 ( 29369 PWs)   bands (ev):

   -22.4496 -22.4227 -20.0892 -20.0035 -17.4477 -17.3558 -13.7320 -13.7067
   -10.8002 -10.7075  -9.1260  -8.9278  -8.3934  -8.3530  -7.7331  -6.9773
    -6.8932  -6.5307  -6.1365  -5.6057  -5.3730  -5.0145  -4.7267  -4.4850
    -4.2037  -4.0992  -3.5240  -3.3795  -3.2297  -3.0644  -2.0838  -1.7150
    -1.6576  -1.5005  -1.2983  -1.1782   4.7169   5.1074   5.3084   5.6968
     6.2977   6.6828   6.8198

          k = 0.2500-0.2979-0.2217 ( 29379 PWs)   bands (ev):

   -22.4458 -22.4267 -20.0866 -20.0060 -17.4446 -17.3588 -13.7476 -13.6912
   -10.8561 -10.6436  -9.1712  -8.8895  -8.3952  -8.3522  -7.7153  -6.9772
    -6.9003  -6.5500  -6.1479  -5.5789  -5.3622  -5.0820  -4.5965  -4.5705
    -4.2282  -4.0899  -3.5256  -3.3096  -3.2633  -3.0747  -2.0582  -1.7480
    -1.6697  -1.5009  -1.2805  -1.1786   4.7155   5.1167   5.3905   5.6574
     6.1970   6.7349   6.9195

          k =-0.5000 0.1092-0.0937 ( 29374 PWs)   bands (ev):

   -22.4574 -22.4061 -20.0786 -20.0094 -17.4757 -17.3639 -13.7401 -13.6967
   -10.8113 -10.6340  -9.1844  -8.9188  -8.3826  -8.2853  -7.7267  -7.0727
    -6.9389  -6.3783  -6.1639  -5.9082  -5.4834  -4.9273  -4.6193  -4.6036
    -4.2597  -4.1247  -3.3804  -3.3276  -3.2052  -2.9692  -1.8624  -1.8006
    -1.6163  -1.4810  -1.2610  -1.1669   4.6565   5.0193   5.3776   5.7190
     6.4885   6.8230   7.2427

          k =-0.5000 0.1092 0.1309 ( 29382 PWs)   bands (ev):

   -22.4541 -22.4095 -20.0760 -20.0119 -17.4732 -17.3662 -13.7307 -13.7090
   -10.7792 -10.6727  -9.1533  -8.9294  -8.3753  -8.2928  -7.7272  -7.0013
    -6.9021  -6.5313  -6.1615  -5.8247  -5.4077  -5.1380  -4.7218  -4.5501
    -4.2546  -4.0965  -3.3216  -3.3077  -3.1610  -3.0352  -1.9144  -1.7299
    -1.6020  -1.4753  -1.2619  -1.1336   4.6948   5.0198   5.4135   5.8584
     6.1985   6.6543   7.3540

          k =-0.5000 0.3525-0.0497 ( 29377 PWs)   bands (ev):

   -22.4453 -22.4184 -20.0793 -20.0092 -17.4623 -17.3735 -13.7602 -13.7070
   -10.7335 -10.6292  -9.0767  -8.9950  -8.4547  -8.2838  -7.7263  -7.1265
    -6.9923  -6.3698  -6.3489  -5.6148  -5.3857  -4.9034  -4.7595  -4.5816
    -4.2496  -4.0866  -3.5459  -3.2954  -3.1879  -3.0223  -1.8769  -1.8087
    -1.6086  -1.4414  -1.2027  -1.1572   4.6858   5.0762   5.3975   6.0996
     6.1809   6.7192   6.8930

          k =-0.5000 0.3525 0.1748 ( 29384 PWs)   bands (ev):

   -22.4430 -22.4206 -20.0795 -20.0091 -17.4617 -17.3739 -13.7713 -13.6976
   -10.7811 -10.5757  -9.1269  -8.9428  -8.4586  -8.2767  -7.7188  -7.0180
    -6.9907  -6.5298  -6.3605  -5.5253  -5.3517  -5.0943  -4.6644  -4.6309
    -4.2729  -4.0674  -3.5117  -3.3065  -3.1463  -3.0592  -1.9414  -1.7017
    -1.6105  -1.4400  -1.2300  -1.1091   4.7172   5.0693   5.4240   6.1418
     6.2074   6.7497   7.0672

          k =-0.5000 0.3525-0.2743 ( 29381 PWs)   bands (ev):

   -22.4469 -22.4166 -20.0821 -20.0066 -17.4640 -17.3716 -13.7452 -13.7247
   -10.7339 -10.6253  -9.1034  -8.9624  -8.4669  -8.2671  -7.7379  -7.0164
    -6.9653  -6.5526  -6.3345  -5.5869  -5.3280  -5.0450  -4.7603  -4.5393
    -4.2151  -4.1195  -3.4769  -3.3679  -3.2174  -2.9961  -1.9326  -1.7073
    -1.5935  -1.4442  -1.2189  -1.1330   4.7199   5.0913   5.4065   6.2443
     6.3511   6.7227   6.8863

     highest occupied, lowest unoccupied level (ev):    -1.1091    4.3244

!    total energy              =    -350.52455751 Ry
     Harris-Foulkes estimate   =    -350.52455751 Ry
     estimated scf accuracy    <          4.1E-09 Ry

     total all-electron energy =     -1295.094277 Ry

     The total energy is the sum of the following terms:

     one-electron contribution =    -243.08823100 Ry
     hartree contribution      =     146.50874949 Ry
     xc contribution           =     -75.54278147 Ry
     ewald contribution        =     -83.81412139 Ry
     Dispersion Correction     =      -0.08847763 Ry
     one-center paw contrib.   =     -94.49969551 Ry

     convergence has been achieved in  20 iterations

     Forces acting on atoms (cartesian axes, Ry/au):

     atom    1 type  1   force =     0.00145182    0.00055239    0.00388115
     atom    2 type  1   force =    -0.00145182   -0.00055239   -0.00388115
     atom    3 type  1   force =    -0.01393404   -0.00522371   -0.00261756
     atom    4 type  1   force =     0.01393404    0.00522371    0.00261756
     atom    5 type  1   force =    -0.00195224    0.00739943    0.00220025
     atom    6 type  1   force =     0.00195224   -0.00739943   -0.00220025
     atom    7 type  3   force =    -0.00172270    0.00308615   -0.00128115
     atom    8 type  3   force =     0.00172270   -0.00308615    0.00128115
     atom    9 type  3   force =     0.00056146    0.00078118   -0.00047472
     atom   10 type  3   force =    -0.00056146   -0.00078118    0.00047472
     atom   11 type  3   force =     0.00136305    0.00543395    0.00081728
     atom   12 type  3   force =    -0.00136305   -0.00543395   -0.00081728
     atom   13 type  3   force =     0.01399580    0.00267298   -0.00293707
     atom   14 type  3   force =    -0.01399580   -0.00267298    0.00293707
     atom   15 type  3   force =    -0.00064315   -0.00094760    0.00310027
     atom   16 type  3   force =     0.00064315    0.00094760   -0.00310027
     atom   17 type  3   force =    -0.00086070    0.00279260   -0.00154036
     atom   18 type  3   force =     0.00086070   -0.00279260    0.00154036
     atom   19 type  3   force =     0.00000508    0.00021199   -0.00079016
     atom   20 type  3   force =    -0.00000508   -0.00021199    0.00079016
     atom   21 type  2   force =    -0.00110121   -0.00279136   -0.00531978
     atom   22 type  2   force =     0.00110121    0.00279136    0.00531978
     atom   23 type  4   force =     0.00070745   -0.00839710   -0.00296516
     atom   24 type  4   force =    -0.00070745    0.00839710    0.00296516
     atom   25 type  4   force =     0.00300901   -0.00635826    0.00710239
     atom   26 type  4   force =    -0.00300901    0.00635826   -0.00710239

     Total force =     0.040192     Total SCF correction =     0.000118


     Computing stress (Cartesian axis) and pressure

          total   stress  (Ry/bohr**3)                   (kbar)     P=   -4.73
  -0.00008769  -0.00000052   0.00000766        -12.90     -0.08      1.13
  -0.00000052   0.00003221   0.00002754         -0.08      4.74      4.05
   0.00000766   0.00002754  -0.00004098          1.13      4.05     -6.03


     Writing output data file scf.save
 
     init_run     :      6.50s CPU      6.64s WALL (       1 calls)
     electrons    :    148.71s CPU    152.95s WALL (       1 calls)
     forces       :      3.40s CPU      3.42s WALL (       1 calls)
     stress       :      7.15s CPU      7.16s WALL (       1 calls)

     Called by init_run:
     wfcinit      :      3.01s CPU      3.10s WALL (       1 calls)
     potinit      :      1.22s CPU      1.25s WALL (       1 calls)

     Called by electrons:
     c_bands      :    124.48s CPU    127.92s WALL (      20 calls)
     sum_band     :     19.79s CPU     20.40s WALL (      20 calls)
     v_of_rho     :      0.71s CPU      0.78s WALL (      21 calls)
     newd         :      1.25s CPU      1.27s WALL (      21 calls)
     PAW_pot      :      2.24s CPU      2.24s WALL (      21 calls)
     mix_rho      :      0.17s CPU      0.18s WALL (      20 calls)

     Called by c_bands:
     init_us_2    :      2.09s CPU      2.10s WALL (     817 calls)
     cegterg      :    118.73s CPU    122.16s WALL (     380 calls)

     Called by sum_band:
     sum_band:bec :      0.02s CPU      0.02s WALL (     380 calls)
     addusdens    :      1.35s CPU      1.36s WALL (      20 calls)

     Called by *egterg:
     h_psi        :     90.91s CPU     94.38s WALL (    1519 calls)
     s_psi        :      4.84s CPU      4.84s WALL (    1519 calls)
     g_psi        :      0.71s CPU      0.71s WALL (    1120 calls)
     cdiaghg      :      5.07s CPU      5.08s WALL (    1500 calls)

     Called by h_psi:
     h_psi:pot    :     90.23s CPU     93.68s WALL (    1519 calls)
     h_psi:calbec :      5.84s CPU      5.87s WALL (    1519 calls)
     vloc_psi     :     79.62s CPU     83.03s WALL (    1519 calls)
     add_vuspsi   :      4.77s CPU      4.77s WALL (    1519 calls)

     General routines
     calbec       :      8.61s CPU      8.65s WALL (    1994 calls)
     fft          :      1.21s CPU      1.33s WALL (     297 calls)
     fftw         :     86.70s CPU     90.34s WALL (  106518 calls)
 
     Parallel routines
     fft_scatter  :     34.37s CPU     36.01s WALL (  106815 calls)
 
     PWSCF        :  2m47.97s CPU     2m53.52s WALL

 
   This run was terminated on:   0:49:53   4Nov2017            

=------------------------------------------------------------------------------=
   JOB DONE.
=------------------------------------------------------------------------------=
