
     Program PWSCF v.6.1 (svn rev. 13369) starts on  3Nov2017 at 21:30:39 

     This program is part of the open-source Quantum ESPRESSO suite
     for quantum simulation of materials; please cite
         "P. Giannozzi et al., J. Phys.:Condens. Matter 21 395502 (2009);
          URL http://www.quantum-espresso.org", 
     in publications or presentations arising from this work. More details at
     http://www.quantum-espresso.org/quote

     Parallel version (MPI), running on     8 processors
     R & G space division:  proc/nbgrp/npool/nimage =       8
     Waiting for input...
     Reading input from standard input

     Current dimensions of program PWSCF are:
     Max number of different atomic species (ntypx) = 10
     Max number of k-points (npk) =  40000
     Max angular momentum in pseudopotentials (lmaxx) =  3
               file C.pbe-n-kjpaw_psl.0.1.UPF: wavefunction(s)  2P renormalized
               file N.pbe-n-kjpaw_psl.0.1.UPF: wavefunction(s)  2P renormalized
               file H.pbe-kjpaw_psl.0.1.UPF: wavefunction(s)  1S renormalized
               file O.pbe-n-kjpaw_psl.0.1.UPF: wavefunction(s)  2P renormalized

     -------------------------------------
     Parameters for Dispersion Correction:
     -------------------------------------
       atom      VdW radius       C_6     

        C          2.744         60.710
        N          2.640         42.670
        H          1.892          4.857
        O          2.536         24.284

     Subspace diagonalization in iterative solution of the eigenvalue problem:
     a serial algorithm will be used

 
     Parallelization info
     --------------------
     sticks:   dense  smooth     PW     G-vecs:    dense   smooth      PW
     Min         993     993    263                94634    94634   12918
     Max         994     994    264                94638    94638   12920
     Sum        7945    7945   2111               757081   757081  103347
 


     bravais-lattice index     =            0
     lattice parameter (alat)  =      14.8192  a.u.
     unit-cell volume          =    5603.6114 (a.u.)^3
     number of atoms/cell      =           88
     number of atomic types    =            4
     number of electrons       =       244.00
     number of Kohn-Sham states=          146
     kinetic-energy cutoff     =     100.0000  Ry
     charge density cutoff     =     400.0000  Ry
     convergence threshold     =      1.0E-08
     mixing beta               =       0.5000
     number of iterations used =            8  plain     mixing
     Exchange-correlation      =  SLA  PW   PBX  PBC ( 1  4  3  4 0 0)

     celldm(1)=  14.819232  celldm(2)=   0.000000  celldm(3)=   0.000000
     celldm(4)=   0.000000  celldm(5)=   0.000000  celldm(6)=   0.000000

     crystal axes: (cart. coord. in units of alat)
               a(1) = (   1.000000   0.000000   0.000000 )  
               a(2) = (   0.040874   1.136348   0.000000 )  
               a(3) = (   0.446279   0.018707   1.515234 )  

     reciprocal axes: (cart. coord. in units 2 pi/alat)
               b(1) = (  1.000000 -0.035969 -0.294084 )  
               b(2) = (  0.000000  0.880012 -0.010864 )  
               b(3) = (  0.000000  0.000000  0.659964 )  


     PseudoPot. # 1 for  C read from file:
     /scratch/ahofstet/pseudo/C.pbe-n-kjpaw_psl.0.1.UPF
     MD5 check sum: 430fe95172b1e11ef3f8ed03bac87931
     Pseudo is Projector augmented-wave + core cor, Zval =  4.0
     Generated using "atomic" code by A. Dal Corso  v.5.0.99 svn rev. 10869
     Shape of augmentation charge: BESSEL
     Using radial grid of 1073 points,  4 beta functions with: 
                l(1) =   0
                l(2) =   0
                l(3) =   1
                l(4) =   1
     Q(r) pseudized with 0 coefficients 


     PseudoPot. # 2 for  N read from file:
     /scratch/ahofstet/pseudo/N.pbe-n-kjpaw_psl.0.1.UPF
     MD5 check sum: f73187c8b701007e77325f868c9291d7
     Pseudo is Projector augmented-wave + core cor, Zval =  5.0
     Generated using "atomic" code by A. Dal Corso  v.5.0.99 svn rev. 10869
     Shape of augmentation charge: PSQ
     Using radial grid of 1085 points,  4 beta functions with: 
                l(1) =   0
                l(2) =   0
                l(3) =   1
                l(4) =   1
     Q(r) pseudized with 0 coefficients 


     PseudoPot. # 3 for  H read from file:
     /scratch/ahofstet/pseudo/H.pbe-kjpaw_psl.0.1.UPF
     MD5 check sum: 94e484f906d9e9773b2f6e52662335b2
     Pseudo is Projector augmented-wave, Zval =  1.0
     Generated using "atomic" code by A. Dal Corso  v.5.0.99 svn rev. 10869
     Shape of augmentation charge: PSQ
     Using radial grid of  929 points,  2 beta functions with: 
                l(1) =   0
                l(2) =   0
     Q(r) pseudized with 0 coefficients 


     PseudoPot. # 4 for  O read from file:
     /scratch/ahofstet/pseudo/O.pbe-n-kjpaw_psl.0.1.UPF
     MD5 check sum: 3f94a2996a3169367d6eb21d9b593f20
     Pseudo is Projector augmented-wave + core cor, Zval =  6.0
     Generated using "atomic" code by A. Dal Corso  v.5.0.99 svn rev. 10869
     Shape of augmentation charge: BESSEL
     Using radial grid of 1095 points,  4 beta functions with: 
                l(1) =   0
                l(2) =   0
                l(3) =   1
                l(4) =   1
     Q(r) pseudized with 0 coefficients 


     atomic species   valence    mass     pseudopotential
        C              4.00    12.01070      C( 1.00)
        N              5.00    14.00670      N( 1.00)
        H              1.00     1.00794      H( 1.00)
        O              6.00    15.99940      O( 1.00)

      2 Sym. Ops., with inversion, found



   Cartesian axes

     site n.     atom                  positions (alat units)
         1           O   tau(   1) = (   0.4006265   0.4262547   0.2663196  )
         2           O   tau(   2) = (   1.0865262   0.7287996   1.2489144  )
         3           O   tau(   3) = (   0.5237682   0.1819371   0.1956510  )
         4           O   tau(   4) = (   0.9633844   0.9731171   1.3195830  )
         5           N   tau(   5) = (   0.6940886   0.4599063   1.2094817  )
         6           N   tau(   6) = (   0.7930640   0.6951479   0.3057523  )
         7           H   tau(   7) = (   0.6338428   0.5586782   1.1331149  )
         8           H   tau(   8) = (   0.8533099   0.5963760   0.3821191  )
         9           C   tau(   9) = (   0.4840251   0.2922253   0.3067340  )
        10           C   tau(  10) = (   1.0031275   0.8628289   1.2085000  )
        11           N   tau(  11) = (   0.8190494   0.3174956   1.4125678  )
        12           N   tau(  12) = (   0.6681032   0.8375587   0.1026663  )
        13           H   tau(  13) = (   0.8752371   0.2834932   1.5311159  )
        14           H   tau(  14) = (   0.6119155   0.8715611  -0.0158818  )
        15           C   tau(  15) = (   0.6268135   0.1028799   0.5429419  )
        16           C   tau(  16) = (   0.8603391   1.0521744   0.9722922  )
        17           H   tau(  17) = (   0.5414875  -0.0046603   0.5138309  )
        18           H   tau(  18) = (   0.9456651   1.1597146   1.0014032  )
        19           H   tau(  19) = (   0.7408905   0.0862740   0.4626846  )
        20           H   tau(  20) = (   0.7462621   1.0687802   1.0525495  )
        21           C   tau(  21) = (   0.6802398   0.0939152   0.7316933  )
        22           C   tau(  22) = (   0.8069128   1.0611391   0.7835408  )
        23           H   tau(  23) = (   0.5665914   0.1135407   0.8125216  )
        24           H   tau(  24) = (   0.9205612   1.0415135   0.7027124  )
        25           H   tau(  25) = (   0.7685291   0.2001790   0.7584328  )
        26           H   tau(  26) = (   0.7186235   0.9548752   0.7568013  )
        27           C   tau(  27) = (   0.5375981   0.2702258   0.4941428  )
        28           C   tau(  28) = (   0.9495545   0.8848284   1.0210912  )
        29           H   tau(  29) = (   0.4207185   0.2872823   0.5706209  )
        30           H   tau(  30) = (   1.0664341   0.8677719   0.9446131  )
        31           H   tau(  31) = (   0.6218120   0.3788385   0.5252416  )
        32           H   tau(  32) = (   0.8653406   0.7762157   0.9899925  )
        33           C   tau(  33) = (   0.7983006   0.2062238   1.2785470  )
        34           C   tau(  34) = (   0.6888520   0.9488304   0.2366870  )
        35           H   tau(  35) = (   0.8409953   0.0740448   1.2856203  )
        36           H   tau(  36) = (   0.6461573   1.0810094   0.2296138  )
        37           C   tau(  37) = (   0.7197146   0.2962272   1.1510744  )
        38           C   tau(  38) = (   0.7674380   0.8588270   0.3641596  )
        39           H   tau(  39) = (   0.6803583   0.2571360   1.0248445  )
        40           H   tau(  40) = (   0.8067943   0.8979182   0.4903895  )
        41           C   tau(  41) = (   0.7555158   0.4700686   1.3687802  )
        42           C   tau(  42) = (   0.7316368   0.6849856   0.1464538  )
        43           H   tau(  43) = (   0.7557333   0.5821387   1.4491820  )
        44           H   tau(  44) = (   0.7314193   0.5729155   0.0660520  )
        45           O   tau(  45) = (   1.0782743   0.2227575   0.5422184  )
        46           O   tau(  46) = (   0.4088783   0.9322967   0.9730156  )
        47           O   tau(  47) = (   0.9441891   0.4764031   0.5178603  )
        48           O   tau(  48) = (   0.5429636   0.6786511   0.9973737  )
        49           N   tau(  49) = (   1.1483125   0.4653514   1.0685374  )
        50           N   tau(  50) = (   0.3388401   0.6897028   0.4466966  )
        51           H   tau(  51) = (   1.1238735   0.5822768   1.1418375  )
        52           H   tau(  52) = (   0.3632791   0.5727774   0.3733966  )
        53           C   tau(  53) = (   0.9990942   0.3362610   0.4573975  )
        54           C   tau(  54) = (   0.4880584   0.8187932   1.0578365  )
        55           C   tau(  55) = (   0.9740872   0.0891731   0.0280136  )
        56           C   tau(  56) = (   0.5130655   1.0658811   1.4872205  )
        57           H   tau(  57) = (   0.8340676   0.1024456   0.0195640  )
        58           H   tau(  58) = (   0.6530850   1.0526087   1.4956701  )
        59           H   tau(  59) = (   0.4763334   0.2018619   1.4542792  )
        60           H   tau(  60) = (   1.0108192   0.9531924   0.0609548  )
        61           N   tau(  61) = (   1.1448619   0.2896617   0.8533806  )
        62           N   tau(  62) = (   0.3422907   0.8653926   0.6618535  )
        63           H   tau(  63) = (   1.1171395   0.2522024   0.7206671  )
        64           H   tau(  64) = (   0.3700132   0.9028519   0.7945669  )
        65           C   tau(  65) = (   0.9654268   0.2994082   0.2701845  )
        66           C   tau(  66) = (   0.5217258   0.8556460   1.2450495  )
        67           H   tau(  67) = (   0.8261065   0.3059785   0.2500370  )
        68           H   tau(  68) = (   0.6610462   0.8490758   1.2651970  )
        69           H   tau(  69) = (   1.0226439   0.4038319   0.1952836  )
        70           H   tau(  70) = (   0.4645087   0.7512224   1.3199505  )
        71           C   tau(  71) = (   1.0309211   0.1281868   0.2089675  )
        72           C   tau(  72) = (   0.4562315   1.0268675   1.3062666  )
        73           H   tau(  73) = (   0.9826639   0.0278794   0.2947134  )
        74           H   tau(  74) = (   0.5044887   1.1271748   1.2205206  )
        75           H   tau(  75) = (   0.1710921   0.1243739   0.2184246  )
        76           H   tau(  76) = (   1.3160605   1.0306803   1.2968095  )
        77           C   tau(  77) = (   1.2230728   0.2054817   0.9861539  )
        78           C   tau(  78) = (   0.2640798   0.9495726   0.5290801  )
        79           H   tau(  79) = (   1.2698411   0.0753192   0.9765197  )
        80           H   tau(  80) = (   0.2173115   1.0797351   0.5387143  )
        81           C   tau(  81) = (   1.2248379   0.3166497   1.1215383  )
        82           C   tau(  82) = (   0.2623148   0.8384045   0.3936958  )
        83           H   tau(  83) = (   1.2736170   0.3003743   1.2497329  )
        84           H   tau(  84) = (   0.2135356   0.8546800   0.2655011  )
        85           C   tau(  85) = (   1.1009227   0.4454817   0.9062291  )
        86           C   tau(  86) = (   0.3862299   0.7095726   0.6090049  )
        87           H   tau(  87) = (   1.0367027   0.5379821   0.8259559  )
        88           H   tau(  88) = (   0.4504500   0.6170721   0.6892781  )

     number of k points=     8
                       cart. coord. in units 2pi/alat
        k(    1) = (   0.0000000   0.0000000   0.0000000), wk =   0.1666667
        k(    2) = (   0.0000000   0.0000000  -0.3299820), wk =   0.1666667
        k(    3) = (   0.0000000  -0.4400062   0.0054322), wk =   0.1666667
        k(    4) = (   0.0000000  -0.4400062  -0.3245498), wk =   0.1666667
        k(    5) = (   0.3333333  -0.0119898  -0.0980280), wk =   0.3333333
        k(    6) = (   0.3333333  -0.0119898  -0.4280100), wk =   0.3333333
        k(    7) = (   0.3333333  -0.4519960  -0.0925958), wk =   0.3333333
        k(    8) = (   0.3333333  -0.4519960  -0.4225778), wk =   0.3333333

     Dense  grid:   757081 G-vectors     FFT dimensions: (  96, 108, 150)

     Estimated max dynamical RAM per process >     594.52MB

     Estimated total allocated dynamical RAM >    4756.14MB

     Check: negative/imaginary core charge=   -0.000002    0.000000

     Initial potential from superposition of free atoms

     starting charge  243.99835, renormalised to  244.00000
     Starting wfc are  220 randomized atomic wfcs
     Checking if some PAW data can be deallocated... 

     total cpu time spent up to now is       34.0 secs

     per-process dynamical memory:   452.4 Mb

     Self-consistent Calculation

     iteration #  1     ecut=   100.00 Ry     beta=0.50
     Davidson diagonalization with overlap
     ethr =  1.00E-02,  avg # of iterations =  4.0

     total cpu time spent up to now is      106.1 secs

     total energy              =   -1126.41482964 Ry
     Harris-Foulkes estimate   =   -1131.18171958 Ry
     estimated scf accuracy    <       8.93988934 Ry

     iteration #  2     ecut=   100.00 Ry     beta=0.50
     Davidson diagonalization with overlap
     ethr =  3.66E-03,  avg # of iterations =  4.9

     total cpu time spent up to now is      149.6 secs

     total energy              =   -1127.15803873 Ry
     Harris-Foulkes estimate   =   -1127.63439100 Ry
     estimated scf accuracy    <       1.02037281 Ry

     iteration #  3     ecut=   100.00 Ry     beta=0.50
     Davidson diagonalization with overlap
     ethr =  4.18E-04,  avg # of iterations =  5.0

     total cpu time spent up to now is      229.7 secs

     total energy              =   -1127.99080797 Ry
     Harris-Foulkes estimate   =   -1128.35914374 Ry
     estimated scf accuracy    <       0.97759235 Ry

     iteration #  4     ecut=   100.00 Ry     beta=0.50
     Davidson diagonalization with overlap
     ethr =  4.01E-04,  avg # of iterations =  1.0

     total cpu time spent up to now is      266.4 secs

     total energy              =   -1127.78099351 Ry
     Harris-Foulkes estimate   =   -1128.03039200 Ry
     estimated scf accuracy    <       0.34819390 Ry

     iteration #  5     ecut=   100.00 Ry     beta=0.50
     Davidson diagonalization with overlap
     ethr =  1.43E-04,  avg # of iterations =  5.0

     total cpu time spent up to now is      345.6 secs

     total energy              =   -1128.06620809 Ry
     Harris-Foulkes estimate   =   -1128.40257321 Ry
     estimated scf accuracy    <       1.07246817 Ry

     iteration #  6     ecut=   100.00 Ry     beta=0.50
     Davidson diagonalization with overlap
     ethr =  1.43E-04,  avg # of iterations =  3.0

     total cpu time spent up to now is      385.1 secs

     total energy              =   -1127.92472087 Ry
     Harris-Foulkes estimate   =   -1128.09334877 Ry
     estimated scf accuracy    <       0.46866937 Ry

     iteration #  7     ecut=   100.00 Ry     beta=0.50
     Davidson diagonalization with overlap
     ethr =  1.43E-04,  avg # of iterations =  5.4

     total cpu time spent up to now is      441.6 secs

     total energy              =   -1128.05022342 Ry
     Harris-Foulkes estimate   =   -1128.05237197 Ry
     estimated scf accuracy    <       0.00476908 Ry

     iteration #  8     ecut=   100.00 Ry     beta=0.50
     Davidson diagonalization with overlap
     c_bands:  1 eigenvalues not converged
     ethr =  1.95E-06,  avg # of iterations =  7.2

     total cpu time spent up to now is      524.2 secs

     total energy              =   -1128.05346508 Ry
     Harris-Foulkes estimate   =   -1128.05358129 Ry
     estimated scf accuracy    <       0.00043971 Ry

     iteration #  9     ecut=   100.00 Ry     beta=0.50
     Davidson diagonalization with overlap
     c_bands:  1 eigenvalues not converged
     ethr =  1.80E-07,  avg # of iterations =  6.4

     total cpu time spent up to now is      568.1 secs

     total energy              =   -1128.05351636 Ry
     Harris-Foulkes estimate   =   -1128.05351369 Ry
     estimated scf accuracy    <       0.00005333 Ry

     iteration # 10     ecut=   100.00 Ry     beta=0.50
     Davidson diagonalization with overlap
     ethr =  2.19E-08,  avg # of iterations =  5.0

     total cpu time spent up to now is      646.4 secs

     total energy              =   -1128.05351305 Ry
     Harris-Foulkes estimate   =   -1128.05359290 Ry
     estimated scf accuracy    <       0.00019175 Ry

     iteration # 11     ecut=   100.00 Ry     beta=0.50
     Davidson diagonalization with overlap
     ethr =  2.19E-08,  avg # of iterations =  6.2

     total cpu time spent up to now is      703.1 secs

     total energy              =   -1128.05352679 Ry
     Harris-Foulkes estimate   =   -1128.05353423 Ry
     estimated scf accuracy    <       0.00001598 Ry

     iteration # 12     ecut=   100.00 Ry     beta=0.50
     Davidson diagonalization with overlap
     ethr =  6.55E-09,  avg # of iterations =  4.0

     total cpu time spent up to now is      752.1 secs

     total energy              =   -1128.05353111 Ry
     Harris-Foulkes estimate   =   -1128.05353176 Ry
     estimated scf accuracy    <       0.00000208 Ry

     iteration # 13     ecut=   100.00 Ry     beta=0.50
     Davidson diagonalization with overlap
     ethr =  8.52E-10,  avg # of iterations =  4.0

     total cpu time spent up to now is      813.3 secs

     total energy              =   -1128.05353208 Ry
     Harris-Foulkes estimate   =   -1128.05353239 Ry
     estimated scf accuracy    <       0.00000054 Ry

     iteration # 14     ecut=   100.00 Ry     beta=0.50
     Davidson diagonalization with overlap
     ethr =  2.20E-10,  avg # of iterations =  5.5

     total cpu time spent up to now is      866.9 secs

     total energy              =   -1128.05353223 Ry
     Harris-Foulkes estimate   =   -1128.05353227 Ry
     estimated scf accuracy    <       0.00000010 Ry

     iteration # 15     ecut=   100.00 Ry     beta=0.50
     Davidson diagonalization with overlap
     ethr =  3.90E-11,  avg # of iterations =  4.0

     total cpu time spent up to now is      912.4 secs

     total energy              =   -1128.05353224 Ry
     Harris-Foulkes estimate   =   -1128.05353225 Ry
     estimated scf accuracy    <       0.00000003 Ry

     iteration # 16     ecut=   100.00 Ry     beta=0.50
     Davidson diagonalization with overlap
     ethr =  1.04E-11,  avg # of iterations =  4.5

     total cpu time spent up to now is      972.1 secs

     End of self-consistent calculation

          k = 0.0000 0.0000 0.0000 ( 94667 PWs)   bands (ev):

   -20.5449 -20.5246 -20.3462 -20.3397 -20.3011 -20.2786 -20.1484 -20.1477
   -18.0446 -18.0415 -17.8960 -17.8914 -16.8982 -16.8952 -16.5396 -16.5376
   -14.1597 -14.0719 -13.3578 -13.3307 -13.3138 -13.2453 -13.1538 -13.1356
   -12.0579 -11.9912 -10.5407 -10.4028 -10.3749 -10.2611  -9.9017  -9.8110
    -9.6141  -9.6074  -9.5384  -9.5329  -8.9585  -8.7870  -8.7176  -8.5661
    -8.5374  -8.4219  -8.0994  -8.0719  -7.4000  -7.3818  -6.8583  -6.8436
    -6.6632  -6.6123  -6.2835  -6.0041  -5.9088  -5.8801  -5.7267  -5.6800
    -5.6456  -5.5897  -5.4775  -5.4675  -5.3501  -5.3478  -5.3119  -5.3013
    -5.2381  -5.2093  -5.1444  -5.0892  -5.0135  -4.9674  -4.8831  -4.7461
    -4.7442  -4.7309  -4.6632  -4.4858  -4.3768  -4.3173  -4.2433  -4.1679
    -4.0886  -4.0058  -3.9732  -3.7064  -3.5695  -3.5171  -3.3858  -3.3425
    -3.2450  -3.0271  -2.4637  -2.4278  -2.4219  -2.3223  -2.2425  -2.1797
    -2.1717  -2.0310  -1.9707  -1.9353  -1.8809  -1.8602  -1.7800  -1.7493
    -1.6844  -1.5623  -0.7127  -0.6760  -0.6647  -0.6612  -0.5176  -0.4670
    -0.3608  -0.3329  -0.2839  -0.2552  -0.2421  -0.1871  -0.1800  -0.0022
    -0.0004   0.0461   4.5248   4.5706   4.7691   5.0289   5.2352   5.3191
     5.3488   5.4469   5.5759   5.5778   5.6663   5.6707   5.7776   6.1455
     6.2800   6.6540   6.7597   6.8708   7.0377   7.3602   7.5184   7.5462
     7.6198   7.7789

          k = 0.0000 0.0000-0.3300 ( 94632 PWs)   bands (ev):

   -20.5404 -20.5251 -20.3764 -20.3448 -20.2722 -20.2612 -20.1573 -20.1540
   -18.0421 -18.0391 -17.8985 -17.8943 -16.8975 -16.8944 -16.5400 -16.5379
   -14.1559 -14.0730 -13.3678 -13.3533 -13.3081 -13.2324 -13.1423 -13.1399
   -12.0347 -12.0063 -10.4776 -10.3888 -10.3776 -10.3425  -9.8704  -9.8608
    -9.6271  -9.6070  -9.5486  -9.5377  -8.8486  -8.8170  -8.6289  -8.5933
    -8.5563  -8.4940  -8.1031  -8.0868  -7.3571  -7.3316  -7.0585  -7.0499
    -6.3896  -6.2914  -6.1792  -6.1655  -6.0564  -5.9251  -5.7748  -5.7609
    -5.5869  -5.5664  -5.4361  -5.3837  -5.3445  -5.3156  -5.3106  -5.2754
    -5.2477  -5.2359  -5.1831  -5.1481  -5.0492  -5.0386  -4.9339  -4.7931
    -4.6458  -4.6326  -4.5647  -4.5115  -4.4382  -4.4056  -4.1947  -4.1136
    -4.1133  -4.0002  -3.9086  -3.8311  -3.5710  -3.5612  -3.3585  -3.3567
    -3.1349  -3.0869  -2.4426  -2.4385  -2.3946  -2.3542  -2.2144  -2.1858
    -2.1798  -2.0199  -2.0160  -1.8990  -1.8655  -1.8562  -1.8336  -1.7184
    -1.6289  -1.6121  -0.6951  -0.6930  -0.6919  -0.6345  -0.4963  -0.4732
    -0.3741  -0.3488  -0.2969  -0.2651  -0.2418  -0.2260  -0.1048   0.0059
     0.0166   0.0170   4.5183   4.5804   4.7643   5.0204   5.2442   5.3173
     5.4580   5.4763   5.4915   5.5210   5.6601   5.7663   5.8506   5.9192
     6.2662   6.7174   6.8662   6.8744   7.1822   7.3011   7.4035   7.4323
     7.6077   7.6875

          k = 0.0000-0.4400 0.0054 ( 94632 PWs)   bands (ev):

   -20.5386 -20.5292 -20.3459 -20.3388 -20.3037 -20.2788 -20.1529 -20.1440
   -18.0432 -18.0429 -17.8934 -17.8928 -16.8984 -16.8953 -16.5405 -16.5369
   -14.1619 -14.0714 -13.3977 -13.3022 -13.2908 -13.2590 -13.1431 -13.1374
   -12.0582 -11.9977 -10.5160 -10.3871 -10.3741 -10.2937  -9.8979  -9.8392
    -9.6112  -9.6080  -9.5419  -9.5278  -8.9496  -8.8326  -8.7014  -8.5631
    -8.4999  -8.4140  -8.1140  -8.0643  -7.4741  -7.3390  -6.8608  -6.8384
    -6.6374  -6.6092  -6.3518  -5.9507  -5.9107  -5.8553  -5.7598  -5.7096
    -5.5815  -5.5520  -5.4695  -5.4527  -5.3782  -5.3199  -5.2842  -5.2640
    -5.2571  -5.2337  -5.1650  -5.0713  -4.9864  -4.9472  -4.9035  -4.7827
    -4.7610  -4.7319  -4.6832  -4.4544  -4.4202  -4.3141  -4.2533  -4.1559
    -4.1262  -4.0091  -3.9781  -3.7368  -3.5584  -3.5244  -3.3872  -3.3331
    -3.2489  -3.0061  -2.4676  -2.4246  -2.4095  -2.3335  -2.2511  -2.2008
    -2.1955  -2.0390  -1.9630  -1.9312  -1.8871  -1.8358  -1.7765  -1.7714
    -1.6849  -1.5455  -0.7577  -0.7160  -0.6421  -0.6399  -0.4479  -0.4245
    -0.4019  -0.3505  -0.2734  -0.2658  -0.2050  -0.1836  -0.1788  -0.0009
     0.0032   0.0322   4.4737   4.6190   4.7603   5.0188   5.3397   5.3647
     5.3944   5.4545   5.4830   5.5155   5.5852   5.7438   5.7528   6.1821
     6.2370   6.4271   6.9076   6.9492   6.9998   7.2963   7.3486   7.5937
     7.8616   7.9283

          k = 0.0000-0.4400-0.3245 ( 94734 PWs)   bands (ev):

   -20.5344 -20.5292 -20.3733 -20.3483 -20.2782 -20.2565 -20.1580 -20.1541
   -18.0411 -18.0401 -17.8973 -17.8942 -16.8983 -16.8940 -16.5409 -16.5371
   -14.1568 -14.0739 -13.3823 -13.3655 -13.2827 -13.2259 -13.1529 -13.1294
   -12.0371 -12.0044 -10.5031 -10.4138 -10.3599 -10.3097  -9.8745  -9.8556
    -9.6239  -9.6155  -9.5442  -9.5419  -8.8628  -8.8030  -8.6202  -8.5979
    -8.5471  -8.5389  -8.0975  -8.0647  -7.3699  -7.3155  -7.0719  -7.0360
    -6.4205  -6.2896  -6.2448  -6.2008  -6.0374  -5.9150  -5.6945  -5.6104
    -5.5401  -5.5214  -5.4364  -5.4310  -5.3652  -5.3447  -5.2960  -5.2922
    -5.2702  -5.2106  -5.2025  -5.1811  -5.0555  -5.0325  -4.9106  -4.7724
    -4.6603  -4.6559  -4.5907  -4.5434  -4.4677  -4.4038  -4.1826  -4.1347
    -4.0991  -4.0069  -3.9170  -3.8109  -3.5692  -3.5632  -3.3601  -3.3504
    -3.1444  -3.1144  -2.4590  -2.4099  -2.3959  -2.3481  -2.2206  -2.2158
    -2.1583  -2.0066  -2.0061  -1.9175  -1.8862  -1.8700  -1.8356  -1.7306
    -1.6267  -1.5826  -0.7417  -0.7303  -0.6538  -0.6140  -0.4726  -0.4095
    -0.4029  -0.3168  -0.3158  -0.2646  -0.2287  -0.2060  -0.1212  -0.0062
     0.0011   0.0265   4.4820   4.6126   4.7595   5.0129   5.3650   5.3998
     5.4363   5.4515   5.4744   5.5679   5.5780   5.6223   5.8310   6.0400
     6.3327   6.3629   6.7196   6.9760   7.3322   7.4186   7.4374   7.5022
     7.5339   7.9337

          k = 0.3333-0.0120-0.0980 ( 94631 PWs)   bands (ev):

   -20.5422 -20.5260 -20.3563 -20.3294 -20.2966 -20.2845 -20.1524 -20.1439
   -18.0440 -18.0423 -17.8950 -17.8923 -16.8982 -16.8954 -16.5397 -16.5375
   -14.1585 -14.0755 -13.3509 -13.3319 -13.3093 -13.2556 -13.1540 -13.1363
   -12.0446 -12.0038 -10.5370 -10.3999 -10.3733 -10.2634  -9.8898  -9.8311
    -9.6117  -9.6082  -9.5377  -9.5334  -8.9533  -8.7896  -8.7131  -8.5564
    -8.5270  -8.4455  -8.0902  -8.0775  -7.4174  -7.3917  -6.8546  -6.8337
    -6.6492  -6.6210  -6.1744  -6.0084  -5.9183  -5.7905  -5.7689  -5.6923
    -5.5925  -5.5051  -5.5019  -5.4598  -5.3999  -5.3635  -5.3052  -5.2841
    -5.2721  -5.2051  -5.1611  -5.1183  -5.0692  -4.9816  -4.8745  -4.7746
    -4.7412  -4.6995  -4.6685  -4.6048  -4.4116  -4.3429  -4.1846  -4.1636
    -4.1052  -4.0477  -3.9261  -3.7561  -3.5562  -3.5307  -3.3803  -3.3460
    -3.2120  -3.0677  -2.5399  -2.4345  -2.3497  -2.2895  -2.2305  -2.1936
    -2.1920  -2.0723  -1.9880  -1.9794  -1.8886  -1.8146  -1.7743  -1.7020
    -1.6609  -1.5948  -0.6870  -0.6715  -0.5977  -0.5606  -0.5059  -0.4412
    -0.3833  -0.3325  -0.3003  -0.2836  -0.2324  -0.1969  -0.1527  -0.0412
     0.0200   0.0444   4.5293   4.5728   4.7759   5.0321   5.2665   5.3178
     5.3593   5.4550   5.4856   5.5131   5.6898   5.7608   6.0143   6.1884
     6.2969   6.5350   6.9122   6.9304   7.1308   7.2435   7.3556   7.3771
     7.5189   7.5661

          k = 0.3333-0.0120-0.4280 ( 94605 PWs)   bands (ev):

   -20.5388 -20.5257 -20.3715 -20.3511 -20.2728 -20.2600 -20.1600 -20.1515
   -18.0420 -18.0394 -17.8990 -17.8937 -16.8976 -16.8944 -16.5401 -16.5378
   -14.1592 -14.0699 -13.3810 -13.3492 -13.3099 -13.2219 -13.1422 -13.1409
   -12.0611 -11.9799 -10.4774 -10.3880 -10.3776 -10.3391  -9.8835  -9.8474
    -9.6259  -9.6130  -9.5502  -9.5366  -8.8434  -8.8115  -8.6258  -8.5937
    -8.5642  -8.5007  -8.1111  -8.0740  -7.3577  -7.3374  -7.0803  -7.0339
    -6.3964  -6.2843  -6.1759  -6.0803  -5.9980  -5.9043  -5.7488  -5.6693
    -5.5945  -5.5632  -5.4938  -5.4166  -5.3909  -5.3890  -5.3352  -5.2539
    -5.2479  -5.2089  -5.1850  -5.1281  -5.0416  -5.0150  -4.9569  -4.8195
    -4.6904  -4.6312  -4.5850  -4.5746  -4.4638  -4.3711  -4.1937  -4.1624
    -4.1239  -4.0132  -3.9349  -3.7952  -3.5708  -3.5422  -3.3658  -3.3536
    -3.1958  -3.0550  -2.4987  -2.4120  -2.3932  -2.3466  -2.2200  -2.1971
    -2.1881  -2.0517  -1.9685  -1.9388  -1.8818  -1.8373  -1.7885  -1.7048
    -1.6674  -1.5899  -0.6917  -0.6668  -0.5885  -0.5709  -0.4807  -0.4542
    -0.3864  -0.3651  -0.2902  -0.2741  -0.2553  -0.2166  -0.1196  -0.0243
     0.0119   0.0429   4.5298   4.5689   4.7782   5.0364   5.2898   5.3062
     5.3972   5.4319   5.5377   5.5885   5.6090   5.6807   5.9939   6.2125
     6.3723   6.5732   6.7567   6.9482   7.1929   7.2332   7.2569   7.3855
     7.5311   7.6329

          k = 0.3333-0.4520-0.0926 ( 94603 PWs)   bands (ev):

   -20.5365 -20.5304 -20.3510 -20.3340 -20.2982 -20.2842 -20.1521 -20.1454
   -18.0432 -18.0427 -17.8947 -17.8916 -16.8988 -16.8950 -16.5409 -16.5366
   -14.1596 -14.0759 -13.3817 -13.3273 -13.2783 -13.2621 -13.1498 -13.1332
   -12.0472 -12.0054 -10.5121 -10.4081 -10.3593 -10.2930  -9.8852  -9.8501
    -9.6103  -9.6052  -9.5398  -9.5301  -8.9477  -8.8243  -8.6999  -8.5897
    -8.4895  -8.4194  -8.1034  -8.0790  -7.4477  -7.3558  -6.8588  -6.8345
    -6.6436  -6.6244  -6.2169  -6.0226  -5.8953  -5.8131  -5.6939  -5.6278
    -5.6108  -5.5155  -5.4870  -5.4634  -5.3856  -5.3626  -5.3197  -5.2903
    -5.2379  -5.2271  -5.1699  -5.1115  -5.0550  -4.9578  -4.9036  -4.7805
    -4.7591  -4.7074  -4.6776  -4.5929  -4.4055  -4.3420  -4.1999  -4.1586
    -4.1218  -4.0550  -3.9456  -3.7721  -3.5561  -3.5389  -3.3732  -3.3374
    -3.2100  -3.0503  -2.5294  -2.4378  -2.3481  -2.2941  -2.2675  -2.2366
    -2.1902  -2.0368  -2.0334  -1.9883  -1.8749  -1.7941  -1.7765  -1.6815
    -1.6581  -1.6112  -0.6968  -0.6727  -0.6279  -0.6024  -0.4251  -0.4075
    -0.3773  -0.3642  -0.2924  -0.2548  -0.2134  -0.2048  -0.1533  -0.0442
     0.0207   0.0400   4.4971   4.6032   4.7847   5.0277   5.3345   5.3685
     5.4092   5.4351   5.4757   5.5219   5.6308   5.6859   5.8948   6.1970
     6.3586   6.6391   6.8202   6.9183   7.0225   7.1680   7.3552   7.4167
     7.6104   7.7051

          k = 0.3333-0.4520-0.4226 ( 94646 PWs)   bands (ev):

   -20.5331 -20.5300 -20.3685 -20.3534 -20.2737 -20.2610 -20.1582 -20.1542
   -18.0413 -18.0398 -17.8967 -17.8949 -16.8983 -16.8940 -16.5411 -16.5370
   -14.1607 -14.0696 -13.4150 -13.3256 -13.2918 -13.2298 -13.1569 -13.1217
   -12.0589 -11.9816 -10.5052 -10.4119 -10.3722 -10.2953  -9.8894  -9.8388
    -9.6230  -9.6180  -9.5463  -9.5386  -8.8695  -8.7966  -8.6332  -8.5762
    -8.5537  -8.5413  -8.1001  -8.0700  -7.3629  -7.3351  -7.0668  -7.0322
    -6.4065  -6.2677  -6.2227  -6.0970  -5.9848  -5.8916  -5.7210  -5.6279
    -5.5953  -5.5753  -5.4347  -5.4150  -5.3960  -5.3570  -5.3128  -5.2999
    -5.2286  -5.2210  -5.1915  -5.1299  -5.0551  -5.0114  -4.9394  -4.8028
    -4.7278  -4.6764  -4.6068  -4.5901  -4.4558  -4.3718  -4.1819  -4.1657
    -4.1212  -4.0301  -3.9368  -3.7686  -3.5696  -3.5529  -3.3675  -3.3424
    -3.1982  -3.0726  -2.5425  -2.4040  -2.3875  -2.3425  -2.2171  -2.2073
    -2.1736  -2.0560  -1.9864  -1.9579  -1.8885  -1.8244  -1.7746  -1.7120
    -1.6564  -1.5961  -0.6889  -0.6737  -0.6283  -0.6050  -0.4455  -0.4059
    -0.3652  -0.3394  -0.2978  -0.2746  -0.2492  -0.2083  -0.1249  -0.0341
     0.0123   0.0440   4.4991   4.6036   4.7868   5.0264   5.3833   5.3983
     5.4390   5.4809   5.4929   5.5029   5.5685   5.5815   5.9215   6.2209
     6.3502   6.6309   6.8045   6.9144   6.9828   7.2459   7.3482   7.4643
     7.6237   7.6986

     highest occupied, lowest unoccupied level (ev):     0.0461    4.4737

!    total energy              =   -1128.05353226 Ry
     Harris-Foulkes estimate   =   -1128.05353226 Ry
     estimated scf accuracy    <          1.4E-09 Ry

     total all-electron energy =     -4266.613730 Ry

     The total energy is the sum of the following terms:

     one-electron contribution =    -665.21272497 Ry
     hartree contribution      =     421.29018306 Ry
     xc contribution           =    -250.52267032 Ry
     ewald contribution        =    -304.68482545 Ry
     Dispersion Correction     =      -0.36052309 Ry
     one-center paw contrib.   =    -328.56297148 Ry

     convergence has been achieved in  16 iterations

     Forces acting on atoms (cartesian axes, Ry/au):

     atom    1 type  4   force =     0.00021484   -0.00025886    0.00002431
     atom    2 type  4   force =    -0.00021484    0.00025886   -0.00002431
     atom    3 type  4   force =    -0.00013897    0.00043608    0.00112965
     atom    4 type  4   force =     0.00013897   -0.00043608   -0.00112965
     atom    5 type  2   force =    -0.00021212    0.00111444    0.00101549
     atom    6 type  2   force =     0.00021212   -0.00111444   -0.00101549
     atom    7 type  3   force =    -0.00020268   -0.00076586   -0.00007280
     atom    8 type  3   force =     0.00020268    0.00076586    0.00007280
     atom    9 type  1   force =     0.00114438   -0.00023208   -0.00075141
     atom   10 type  1   force =    -0.00114438    0.00023208    0.00075141
     atom   11 type  2   force =     0.00000111    0.00020867    0.00028857
     atom   12 type  2   force =    -0.00000111   -0.00020867   -0.00028857
     atom   13 type  3   force =    -0.00007357    0.00039955   -0.00015172
     atom   14 type  3   force =     0.00007357   -0.00039955    0.00015172
     atom   15 type  1   force =     0.00075419   -0.00125840   -0.00008254
     atom   16 type  1   force =    -0.00075419    0.00125840    0.00008254
     atom   17 type  3   force =    -0.00059164    0.00006898    0.00022631
     atom   18 type  3   force =     0.00059164   -0.00006898   -0.00022631
     atom   19 type  3   force =    -0.00061847   -0.00006441    0.00012913
     atom   20 type  3   force =     0.00061847    0.00006441   -0.00012913
     atom   21 type  1   force =     0.00017068    0.00020786    0.00076190
     atom   22 type  1   force =    -0.00017068   -0.00020786   -0.00076190
     atom   23 type  3   force =    -0.00059244   -0.00034565   -0.00000701
     atom   24 type  3   force =     0.00059244    0.00034565    0.00000701
     atom   25 type  3   force =     0.00009969    0.00023524   -0.00033611
     atom   26 type  3   force =    -0.00009969   -0.00023524    0.00033611
     atom   27 type  1   force =    -0.00024248   -0.00000419    0.00117711
     atom   28 type  1   force =     0.00024248    0.00000419   -0.00117711
     atom   29 type  3   force =     0.00098793   -0.00003368   -0.00033072
     atom   30 type  3   force =    -0.00098793    0.00003368    0.00033072
     atom   31 type  3   force =    -0.00066030   -0.00054758   -0.00030924
     atom   32 type  3   force =     0.00066030    0.00054758    0.00030924
     atom   33 type  1   force =     0.00124006    0.00029052    0.00028480
     atom   34 type  1   force =    -0.00124006   -0.00029052   -0.00028480
     atom   35 type  3   force =    -0.00064087    0.00002298   -0.00013320
     atom   36 type  3   force =     0.00064087   -0.00002298    0.00013320
     atom   37 type  1   force =    -0.00029953   -0.00047030   -0.00084782
     atom   38 type  1   force =     0.00029953    0.00047030    0.00084782
     atom   39 type  3   force =    -0.00054354    0.00056920   -0.00053861
     atom   40 type  3   force =     0.00054354   -0.00056920    0.00053861
     atom   41 type  1   force =    -0.00015388    0.00015829    0.00022045
     atom   42 type  1   force =     0.00015388   -0.00015829   -0.00022045
     atom   43 type  3   force =     0.00031185    0.00023544    0.00037122
     atom   44 type  3   force =    -0.00031185   -0.00023544   -0.00037122
     atom   45 type  4   force =    -0.00050799    0.00023284   -0.00068436
     atom   46 type  4   force =     0.00050799   -0.00023284    0.00068436
     atom   47 type  4   force =     0.00091787   -0.00009060    0.00012208
     atom   48 type  4   force =    -0.00091787    0.00009060   -0.00012208
     atom   49 type  2   force =    -0.00087102    0.00030634   -0.00070873
     atom   50 type  2   force =     0.00087102   -0.00030634    0.00070873
     atom   51 type  3   force =    -0.00007766    0.00005931    0.00056583
     atom   52 type  3   force =     0.00007766   -0.00005931   -0.00056583
     atom   53 type  1   force =    -0.00080035    0.00019078    0.00035856
     atom   54 type  1   force =     0.00080035   -0.00019078   -0.00035856
     atom   55 type  1   force =    -0.00040311   -0.00044485   -0.00040511
     atom   56 type  1   force =     0.00040311    0.00044485    0.00040511
     atom   57 type  3   force =     0.00086467   -0.00024736   -0.00045965
     atom   58 type  3   force =    -0.00086467    0.00024736    0.00045965
     atom   59 type  3   force =    -0.00093404   -0.00039021    0.00023565
     atom   60 type  3   force =     0.00093404    0.00039021   -0.00023565
     atom   61 type  2   force =     0.00003079   -0.00030385   -0.00021822
     atom   62 type  2   force =    -0.00003079    0.00030385    0.00021822
     atom   63 type  3   force =    -0.00033578   -0.00096235   -0.00082589
     atom   64 type  3   force =     0.00033578    0.00096235    0.00082589
     atom   65 type  1   force =    -0.00224833    0.00143396   -0.00019901
     atom   66 type  1   force =     0.00224833   -0.00143396    0.00019901
     atom   67 type  3   force =     0.00204673    0.00076059    0.00001002
     atom   68 type  3   force =    -0.00204673   -0.00076059   -0.00001002
     atom   69 type  3   force =     0.00012623    0.00004013   -0.00000860
     atom   70 type  3   force =    -0.00012623   -0.00004013    0.00000860
     atom   71 type  1   force =     0.00188649   -0.00205378    0.00019204
     atom   72 type  1   force =    -0.00188649    0.00205378   -0.00019204
     atom   73 type  3   force =    -0.00045822    0.00011153   -0.00029607
     atom   74 type  3   force =     0.00045822   -0.00011153    0.00029607
     atom   75 type  3   force =    -0.00186694   -0.00019401   -0.00049697
     atom   76 type  3   force =     0.00186694    0.00019401    0.00049697
     atom   77 type  1   force =     0.00035583   -0.00070192    0.00020862
     atom   78 type  1   force =    -0.00035583    0.00070192   -0.00020862
     atom   79 type  3   force =    -0.00033938    0.00025959    0.00061892
     atom   80 type  3   force =     0.00033938   -0.00025959   -0.00061892
     atom   81 type  1   force =     0.00018064   -0.00015550    0.00142276
     atom   82 type  1   force =    -0.00018064    0.00015550   -0.00142276
     atom   83 type  3   force =     0.00012615   -0.00048529    0.00043167
     atom   84 type  3   force =    -0.00012615    0.00048529   -0.00043167
     atom   85 type  1   force =     0.00003234   -0.00009972   -0.00026599
     atom   86 type  1   force =    -0.00003234    0.00009972    0.00026599
     atom   87 type  3   force =    -0.00024219    0.00071261    0.00003743
     atom   88 type  3   force =     0.00024219   -0.00071261   -0.00003743

     Total force =     0.010558     Total SCF correction =     0.000066


     Computing stress (Cartesian axis) and pressure

          total   stress  (Ry/bohr**3)                   (kbar)     P=   -5.03
  -0.00006932   0.00001625  -0.00003167        -10.20      2.39     -4.66
   0.00001625  -0.00001472   0.00010763          2.39     -2.16     15.83
  -0.00003167   0.00010763  -0.00001850         -4.66     15.83     -2.72


     Writing output data file scf.save
 
     init_run     :     31.88s CPU     33.36s WALL (       1 calls)
     electrons    :    887.73s CPU    938.28s WALL (       1 calls)
     forces       :     16.13s CPU     16.32s WALL (       1 calls)
     stress       :     81.75s CPU     82.07s WALL (       1 calls)

     Called by init_run:
     wfcinit      :     20.08s CPU     21.33s WALL (       1 calls)
     potinit      :      4.11s CPU      4.22s WALL (       1 calls)

     Called by electrons:
     c_bands      :    793.45s CPU    835.56s WALL (      16 calls)
     sum_band     :     82.38s CPU     89.55s WALL (      16 calls)
     v_of_rho     :      1.77s CPU      1.96s WALL (      17 calls)
     newd         :      4.19s CPU      5.18s WALL (      17 calls)
     PAW_pot      :      5.24s CPU      5.24s WALL (      17 calls)
     mix_rho      :      0.48s CPU      0.54s WALL (      16 calls)

     Called by c_bands:
     init_us_2    :      6.65s CPU      6.68s WALL (     280 calls)
     cegterg      :    770.41s CPU    812.45s WALL (     128 calls)

     Called by sum_band:
     sum_band:bec :      0.05s CPU      0.05s WALL (     128 calls)
     addusdens    :      4.47s CPU      5.40s WALL (      16 calls)

     Called by *egterg:
     h_psi        :    457.78s CPU    491.58s WALL (     737 calls)
     s_psi        :     66.05s CPU     66.06s WALL (     737 calls)
     g_psi        :      3.01s CPU      3.01s WALL (     601 calls)
     cdiaghg      :     36.14s CPU     36.15s WALL (     729 calls)

     Called by h_psi:
     h_psi:pot    :    453.83s CPU    487.55s WALL (     737 calls)
     h_psi:calbec :     71.39s CPU     71.62s WALL (     737 calls)
     vloc_psi     :    316.25s CPU    349.74s WALL (     737 calls)
     add_vuspsi   :     66.18s CPU     66.19s WALL (     737 calls)

     General routines
     calbec       :    104.37s CPU    104.70s WALL (     905 calls)
     fft          :      4.47s CPU      4.85s WALL (     245 calls)
     fftw         :    335.26s CPU    374.73s WALL (  134744 calls)
 
     Parallel routines
     fft_scatter  :    104.18s CPU    139.91s WALL (  134989 calls)
 
     PWSCF        : 17m 4.44s CPU    18m31.48s WALL

 
   This run was terminated on:  21:49:10   3Nov2017            

=------------------------------------------------------------------------------=
   JOB DONE.
=------------------------------------------------------------------------------=
