
     Program PWSCF v.6.1 (svn rev. 13369) starts on 17Dec2017 at  9:54:16 

     This program is part of the open-source Quantum ESPRESSO suite
     for quantum simulation of materials; please cite
         "P. Giannozzi et al., J. Phys.:Condens. Matter 21 395502 (2009);
          URL http://www.quantum-espresso.org", 
     in publications or presentations arising from this work. More details at
     http://www.quantum-espresso.org/quote

     Parallel version (MPI), running on     8 processors
     R & G space division:  proc/nbgrp/npool/nimage =       8
     Waiting for input...
     Reading input from standard input

     Current dimensions of program PWSCF are:
     Max number of different atomic species (ntypx) = 10
     Max number of k-points (npk) =  40000
     Max angular momentum in pseudopotentials (lmaxx) =  3
               file C.pbe-n-kjpaw_psl.0.1.UPF: wavefunction(s)  2P renormalized
               file N.pbe-n-kjpaw_psl.0.1.UPF: wavefunction(s)  2P renormalized
               file H.pbe-kjpaw_psl.0.1.UPF: wavefunction(s)  1S renormalized
               file O.pbe-n-kjpaw_psl.0.1.UPF: wavefunction(s)  2P renormalized

     -------------------------------------
     Parameters for Dispersion Correction:
     -------------------------------------
       atom      VdW radius       C_6     

        C          2.744         60.710
        N          2.640         42.670
        H          1.892          4.857
        O          2.536         24.284

     Subspace diagonalization in iterative solution of the eigenvalue problem:
     a serial algorithm will be used

 
     Parallelization info
     --------------------
     sticks:   dense  smooth     PW     G-vecs:    dense   smooth      PW
     Min         648     648    176                52764    52764    7499
     Max         649     649    177                52766    52766    7503
     Sum        5191    5191   1415               422123   422123   60009
 


     bravais-lattice index     =            0
     lattice parameter (alat)  =      16.4727  a.u.
     unit-cell volume          =    3124.0076 (a.u.)^3
     number of atoms/cell      =           56
     number of atomic types    =            4
     number of electrons       =       120.00
     number of Kohn-Sham states=           72
     kinetic-energy cutoff     =     100.0000  Ry
     charge density cutoff     =     400.0000  Ry
     convergence threshold     =      1.0E-08
     mixing beta               =       0.5000
     number of iterations used =            8  plain     mixing
     Exchange-correlation      =  SLA  PW   PBX  PBC ( 1  4  3  4 0 0)

     celldm(1)=  16.472743  celldm(2)=   0.000000  celldm(3)=   0.000000
     celldm(4)=   0.000000  celldm(5)=   0.000000  celldm(6)=   0.000000

     crystal axes: (cart. coord. in units of alat)
               a(1) = (   1.000000   0.000000   0.000000 )  
               a(2) = (   0.000000   0.600321   0.000000 )  
               a(3) = (  -0.434122   0.000000   1.164208 )  

     reciprocal axes: (cart. coord. in units 2 pi/alat)
               b(1) = (  1.000000  0.000000  0.372890 )  
               b(2) = (  0.000000  1.665775  0.000000 )  
               b(3) = (  0.000000  0.000000  0.858953 )  


     PseudoPot. # 1 for  C read from file:
     /scratch/ahofstet/pseudo/C.pbe-n-kjpaw_psl.0.1.UPF
     MD5 check sum: 430fe95172b1e11ef3f8ed03bac87931
     Pseudo is Projector augmented-wave + core cor, Zval =  4.0
     Generated using "atomic" code by A. Dal Corso  v.5.0.99 svn rev. 10869
     Shape of augmentation charge: BESSEL
     Using radial grid of 1073 points,  4 beta functions with: 
                l(1) =   0
                l(2) =   0
                l(3) =   1
                l(4) =   1
     Q(r) pseudized with 0 coefficients 


     PseudoPot. # 2 for  N read from file:
     /scratch/ahofstet/pseudo/N.pbe-n-kjpaw_psl.0.1.UPF
     MD5 check sum: f73187c8b701007e77325f868c9291d7
     Pseudo is Projector augmented-wave + core cor, Zval =  5.0
     Generated using "atomic" code by A. Dal Corso  v.5.0.99 svn rev. 10869
     Shape of augmentation charge: PSQ
     Using radial grid of 1085 points,  4 beta functions with: 
                l(1) =   0
                l(2) =   0
                l(3) =   1
                l(4) =   1
     Q(r) pseudized with 0 coefficients 


     PseudoPot. # 3 for  H read from file:
     /scratch/ahofstet/pseudo/H.pbe-kjpaw_psl.0.1.UPF
     MD5 check sum: 94e484f906d9e9773b2f6e52662335b2
     Pseudo is Projector augmented-wave, Zval =  1.0
     Generated using "atomic" code by A. Dal Corso  v.5.0.99 svn rev. 10869
     Shape of augmentation charge: PSQ
     Using radial grid of  929 points,  2 beta functions with: 
                l(1) =   0
                l(2) =   0
     Q(r) pseudized with 0 coefficients 


     PseudoPot. # 4 for  O read from file:
     /scratch/ahofstet/pseudo/O.pbe-n-kjpaw_psl.0.1.UPF
     MD5 check sum: 3f94a2996a3169367d6eb21d9b593f20
     Pseudo is Projector augmented-wave + core cor, Zval =  6.0
     Generated using "atomic" code by A. Dal Corso  v.5.0.99 svn rev. 10869
     Shape of augmentation charge: BESSEL
     Using radial grid of 1095 points,  4 beta functions with: 
                l(1) =   0
                l(2) =   0
                l(3) =   1
                l(4) =   1
     Q(r) pseudized with 0 coefficients 


     atomic species   valence    mass     pseudopotential
        C              4.00    12.01070      C( 1.00)
        N              5.00    14.00670      N( 1.00)
        H              1.00     1.00794      H( 1.00)
        O              6.00    15.99940      O( 1.00)

      2 Sym. Ops., with inversion, found
          (note:  2 additional sym.ops. were found but ignored
           their fractional translations are incommensurate with FFT grid)


   Cartesian axes

     site n.     atom                  positions (alat units)
         1           N   tau(   1) = (   0.3069715   0.0113542   0.2454848  )
         2           N   tau(   2) = (   0.4759675   0.3115148   0.3366193  )
         3           N   tau(   3) = (   0.2589066   0.5889670   0.9187234  )
         4           N   tau(   4) = (   0.0899105   0.2888064   0.8275889  )
         5           H   tau(   5) = (   0.3727218   0.5190726   0.2827536  )
         6           H   tau(   6) = (   0.4102172   0.2189120   0.2993504  )
         7           H   tau(   7) = (   0.1931562   0.0812486   0.8814545  )
         8           H   tau(   8) = (   0.1556608   0.3814092   0.8648577  )
         9           C   tau(   9) = (   0.2774133   0.5892187   0.0806390  )
        10           C   tau(  10) = (   0.5055257   0.2890581   0.5014650  )
        11           C   tau(  11) = (   0.2884647   0.0111025   1.0835691  )
        12           C   tau(  12) = (   0.0603523   0.3112632   0.6627431  )
        13           H   tau(  13) = (   0.3840447   0.5744893   0.0152976  )
        14           H   tau(  14) = (   0.3988944   0.2743287   0.5668064  )
        15           H   tau(  15) = (   0.1818334   0.0258319   1.1489105  )
        16           H   tau(  16) = (   0.1669837   0.3259925   0.5974017  )
        17           H   tau(  17) = (   0.2198009   0.0961081   0.0379893  )
        18           H   tau(  18) = (   0.5631381   0.3962687   0.5441148  )
        19           H   tau(  19) = (   0.3460771   0.5042131   1.1262189  )
        20           H   tau(  20) = (   0.0027399   0.2040525   0.6200934  )
        21           C   tau(  21) = (   0.1668625   0.4516642   0.0689437  )
        22           C   tau(  22) = (   0.6160765   0.1515036   0.5131603  )
        23           C   tau(  23) = (   0.3990155   0.1486570   1.0952644  )
        24           C   tau(  24) = (  -0.0501985   0.4488176   0.6510478  )
        25           H   tau(  25) = (  -0.3430132   0.4566450   1.1326382  )
        26           H   tau(  26) = (   0.6918302   0.1564844   0.6136741  )
        27           H   tau(  27) = (   0.9088912   0.1436762   0.0315700  )
        28           H   tau(  28) = (  -0.1259522   0.4438368   0.5505341  )
        29           H   tau(  29) = (   0.2333502   0.3423467   0.0598024  )
        30           H   tau(  30) = (   0.5495888   0.0421861   0.5223017  )
        31           H   tau(  31) = (   0.3325278   0.2579745   1.1044058  )
        32           H   tau(  32) = (   0.0162892   0.5581351   0.6419065  )
        33           C   tau(  33) = (   0.0794786   0.4553197   0.2249546  )
        34           C   tau(  34) = (   0.7034604   0.1551591   0.3571495  )
        35           C   tau(  35) = (   0.4863994   0.1450015   0.9392536  )
        36           C   tau(  36) = (  -0.1375824   0.4451621   0.8070587  )
        37           H   tau(  37) = (   0.1019158   0.3466846   0.2894244  )
        38           H   tau(  38) = (   0.6810232   0.0465240   0.2926797  )
        39           H   tau(  39) = (   0.4639622   0.2536366   0.8747838  )
        40           H   tau(  40) = (  -0.1151452   0.5537972   0.8715285  )
        41           H   tau(  41) = (  -0.0455232   0.4650591   0.2118704  )
        42           H   tau(  42) = (   0.8284622   0.1648985   0.3702337  )
        43           H   tau(  43) = (   0.6114012   0.1352622   0.9523378  )
        44           H   tau(  44) = (  -0.2625842   0.4354228   0.7939745  )
        45           C   tau(  45) = (   0.1517873  -0.0071296   0.3094958  )
        46           C   tau(  46) = (   0.6311517   0.2930310   0.2726083  )
        47           C   tau(  47) = (   0.4140907   0.6074508   0.8547124  )
        48           C   tau(  48) = (  -0.0652737   0.3072902   0.8915999  )
        49           H   tau(  49) = (   0.0860138   0.1007392   0.2822592  )
        50           H   tau(  50) = (   0.6969252   0.4008998   0.2998449  )
        51           H   tau(  51) = (   0.4798642   0.4995820   0.8819490  )
        52           H   tau(  52) = (  -0.1310472   0.1994214   0.8643632  )
        53           H   tau(  53) = (   0.1544918  -0.0191952   0.4346468  )
        54           H   tau(  54) = (   0.6284472   0.2809654   0.1474573  )
        55           H   tau(  55) = (   0.4113862   0.6195164   0.7295613  )
        56           H   tau(  56) = (  -0.0625692   0.3193558   1.0167509  )

     number of k points=    12
                       cart. coord. in units 2pi/alat
        k(    1) = (   0.0000000   0.0000000   0.0000000), wk =   0.1250000
        k(    2) = (   0.0000000   0.0000000  -0.4294765), wk =   0.1250000
        k(    3) = (   0.0000000   0.4164437   0.0000000), wk =   0.2500000
        k(    4) = (   0.0000000   0.4164437  -0.4294765), wk =   0.2500000
        k(    5) = (   0.0000000  -0.8328874   0.0000000), wk =   0.1250000
        k(    6) = (   0.0000000  -0.8328874  -0.4294765), wk =   0.1250000
        k(    7) = (  -0.5000000   0.0000000  -0.1864452), wk =   0.1250000
        k(    8) = (  -0.5000000   0.0000000  -0.6159216), wk =   0.1250000
        k(    9) = (  -0.5000000   0.4164437  -0.1864452), wk =   0.2500000
        k(   10) = (  -0.5000000   0.4164437  -0.6159216), wk =   0.2500000
        k(   11) = (  -0.5000000  -0.8328874  -0.1864452), wk =   0.1250000
        k(   12) = (  -0.5000000  -0.8328874  -0.6159216), wk =   0.1250000

     Dense  grid:   422123 G-vectors     FFT dimensions: ( 108,  64, 135)

     Estimated max dynamical RAM per process >     209.88MB

     Estimated total allocated dynamical RAM >    1679.04MB

     Check: negative/imaginary core charge=   -0.000002    0.000000

     Initial potential from superposition of free atoms

     starting charge  119.99896, renormalised to  120.00000
     Starting wfc are  116 randomized atomic wfcs
     Checking if some PAW data can be deallocated... 

     total cpu time spent up to now is       14.3 secs

     per-process dynamical memory:   226.4 Mb

     Self-consistent Calculation

     iteration #  1     ecut=   100.00 Ry     beta=0.50
     Davidson diagonalization with overlap
     ethr =  1.00E-02,  avg # of iterations =  4.1

     total cpu time spent up to now is       39.3 secs

     total energy              =    -449.74770494 Ry
     Harris-Foulkes estimate   =    -452.72190892 Ry
     estimated scf accuracy    <       5.74782558 Ry

     iteration #  2     ecut=   100.00 Ry     beta=0.50
     Davidson diagonalization with overlap
     ethr =  4.79E-03,  avg # of iterations =  2.2

     total cpu time spent up to now is       52.6 secs

     total energy              =    -450.01287429 Ry
     Harris-Foulkes estimate   =    -450.28421009 Ry
     estimated scf accuracy    <       0.58769749 Ry

     iteration #  3     ecut=   100.00 Ry     beta=0.50
     Davidson diagonalization with overlap
     ethr =  4.90E-04,  avg # of iterations =  5.0

     total cpu time spent up to now is       80.2 secs

     total energy              =    -450.82121216 Ry
     Harris-Foulkes estimate   =    -451.15271197 Ry
     estimated scf accuracy    <       1.30680690 Ry

     iteration #  4     ecut=   100.00 Ry     beta=0.50
     Davidson diagonalization with overlap
     ethr =  4.90E-04,  avg # of iterations =  3.8

     total cpu time spent up to now is       94.0 secs

     total energy              =    -450.30493556 Ry
     Harris-Foulkes estimate   =    -450.84272169 Ry
     estimated scf accuracy    <       0.68749443 Ry

     iteration #  5     ecut=   100.00 Ry     beta=0.50
     Davidson diagonalization with overlap
     ethr =  4.90E-04,  avg # of iterations =  4.0

     total cpu time spent up to now is      120.1 secs

     total energy              =    -450.36215447 Ry
     Harris-Foulkes estimate   =    -451.35706587 Ry
     estimated scf accuracy    <       1.92706192 Ry

     iteration #  6     ecut=   100.00 Ry     beta=0.50
     Davidson diagonalization with overlap
     ethr =  4.90E-04,  avg # of iterations =  4.5

     total cpu time spent up to now is      141.6 secs

     total energy              =    -450.75092796 Ry
     Harris-Foulkes estimate   =    -450.75058786 Ry
     estimated scf accuracy    <       0.00286020 Ry

     iteration #  7     ecut=   100.00 Ry     beta=0.50
     Davidson diagonalization with overlap
     c_bands:  2 eigenvalues not converged
     c_bands:  1 eigenvalues not converged
     c_bands:  5 eigenvalues not converged
     ethr =  2.38E-06,  avg # of iterations = 10.8

     total cpu time spent up to now is      171.3 secs

     total energy              =    -450.75143263 Ry
     Harris-Foulkes estimate   =    -450.75417689 Ry
     estimated scf accuracy    <       0.00551362 Ry

     iteration #  8     ecut=   100.00 Ry     beta=0.50
     Davidson diagonalization with overlap
     ethr =  2.38E-06,  avg # of iterations =  8.2

     total cpu time spent up to now is      188.5 secs

     total energy              =    -450.75162730 Ry
     Harris-Foulkes estimate   =    -450.75195139 Ry
     estimated scf accuracy    <       0.00051712 Ry

     iteration #  9     ecut=   100.00 Ry     beta=0.50
     Davidson diagonalization with overlap
     ethr =  4.31E-07,  avg # of iterations =  4.0

     total cpu time spent up to now is      213.4 secs

     total energy              =    -450.75262611 Ry
     Harris-Foulkes estimate   =    -450.75283695 Ry
     estimated scf accuracy    <       0.00113735 Ry

     iteration # 10     ecut=   100.00 Ry     beta=0.50
     Davidson diagonalization with overlap
     ethr =  4.31E-07,  avg # of iterations =  1.0

     total cpu time spent up to now is      225.9 secs

     total energy              =    -450.75231506 Ry
     Harris-Foulkes estimate   =    -450.75263466 Ry
     estimated scf accuracy    <       0.00074292 Ry

     iteration # 11     ecut=   100.00 Ry     beta=0.50
     Davidson diagonalization with overlap
     ethr =  4.31E-07,  avg # of iterations =  5.1

     total cpu time spent up to now is      245.0 secs

     total energy              =    -450.75247767 Ry
     Harris-Foulkes estimate   =    -450.75247906 Ry
     estimated scf accuracy    <       0.00000352 Ry

     iteration # 12     ecut=   100.00 Ry     beta=0.50
     Davidson diagonalization with overlap
     ethr =  2.93E-09,  avg # of iterations =  4.4

     total cpu time spent up to now is      271.5 secs

     total energy              =    -450.75248621 Ry
     Harris-Foulkes estimate   =    -450.75248731 Ry
     estimated scf accuracy    <       0.00000285 Ry

     iteration # 13     ecut=   100.00 Ry     beta=0.50
     Davidson diagonalization with overlap
     ethr =  2.37E-09,  avg # of iterations =  2.0

     total cpu time spent up to now is      284.7 secs

     total energy              =    -450.75248576 Ry
     Harris-Foulkes estimate   =    -450.75248633 Ry
     estimated scf accuracy    <       0.00000085 Ry

     iteration # 14     ecut=   100.00 Ry     beta=0.50
     Davidson diagonalization with overlap
     ethr =  7.09E-10,  avg # of iterations =  4.0

     total cpu time spent up to now is      308.1 secs

     total energy              =    -450.75248650 Ry
     Harris-Foulkes estimate   =    -450.75248678 Ry
     estimated scf accuracy    <       0.00000133 Ry

     iteration # 15     ecut=   100.00 Ry     beta=0.50
     Davidson diagonalization with overlap
     ethr =  7.09E-10,  avg # of iterations =  1.0

     total cpu time spent up to now is      320.4 secs

     total energy              =    -450.75248599 Ry
     Harris-Foulkes estimate   =    -450.75248651 Ry
     estimated scf accuracy    <       0.00000078 Ry

     iteration # 16     ecut=   100.00 Ry     beta=0.50
     Davidson diagonalization with overlap
     ethr =  6.48E-10,  avg # of iterations =  4.0

     total cpu time spent up to now is      343.0 secs

     total energy              =    -450.75248647 Ry
     Harris-Foulkes estimate   =    -450.75248663 Ry
     estimated scf accuracy    <       0.00000078 Ry

     iteration # 17     ecut=   100.00 Ry     beta=0.50
     Davidson diagonalization with overlap
     ethr =  6.48E-10,  avg # of iterations =  1.0

     total cpu time spent up to now is      355.2 secs

     total energy              =    -450.75248629 Ry
     Harris-Foulkes estimate   =    -450.75248648 Ry
     estimated scf accuracy    <       0.00000049 Ry

     iteration # 18     ecut=   100.00 Ry     beta=0.50
     Davidson diagonalization with overlap
     ethr =  4.06E-10,  avg # of iterations =  3.8

     total cpu time spent up to now is      371.5 secs

     total energy              =    -450.75248639 Ry
     Harris-Foulkes estimate   =    -450.75248639 Ry
     estimated scf accuracy    <       0.00000001 Ry

     iteration # 19     ecut=   100.00 Ry     beta=0.50
     Davidson diagonalization with overlap
     ethr =  1.05E-11,  avg # of iterations =  4.0

     total cpu time spent up to now is      395.0 secs

     End of self-consistent calculation

          k = 0.0000 0.0000 0.0000 ( 52773 PWs)   bands (ev):

   -17.5057 -17.4773 -17.2778 -17.2733 -13.2252 -13.0815 -13.0586 -13.0215
   -12.3659 -12.3328 -12.1433 -12.1332  -9.2436  -9.2224  -9.1225  -9.0740
    -8.5123  -8.4993  -8.4957  -8.4783  -7.3031  -6.9074  -6.7031  -6.6408
    -6.2291  -6.0481  -5.8453  -5.7677  -5.3801  -5.2314  -4.9635  -4.9482
    -4.7864  -4.7724  -4.7615  -4.6447  -3.7653  -3.5906  -3.4317  -3.3630
    -3.2234  -3.1690  -3.1558  -3.0805  -3.0341  -3.0149  -2.8844  -2.7839
    -2.6936  -2.6777  -2.6357  -2.5696  -2.4354  -2.4043  -2.3735  -2.1993
    -0.6821  -0.5759   0.3253   0.5242   4.6586   5.6570   5.6649   5.9827
     6.0923   6.3757   6.4428   6.9380   7.0722   7.4127   7.4813   7.6915

          k = 0.0000 0.0000-0.4295 ( 52732 PWs)   bands (ev):

   -17.4917 -17.4917 -17.2754 -17.2754 -13.1743 -13.1743 -13.0238 -13.0238
   -12.2572 -12.2572 -12.2303 -12.2303  -9.2308  -9.2308  -9.0969  -9.0969
    -8.5023  -8.5023  -8.4886  -8.4886  -7.0222  -7.0222  -6.7896  -6.7896
    -6.1332  -6.1332  -5.8109  -5.8109  -5.3129  -5.3129  -4.9598  -4.9598
    -4.7773  -4.7773  -4.6956  -4.6956  -3.5336  -3.5336  -3.4632  -3.4632
    -3.2167  -3.2167  -3.0059  -3.0059  -2.9600  -2.9600  -2.8810  -2.8810
    -2.8178  -2.8178  -2.6642  -2.6642  -2.4184  -2.4184  -2.2572  -2.2572
    -0.6336  -0.6336   0.4287   0.4287   4.9989   4.9989   5.9773   5.9773
     6.3379   6.3379   6.7024   6.7024   7.1451   7.1451   7.4306   7.4306

          k = 0.0000 0.4164 0.0000 ( 52739 PWs)   bands (ev):

   -17.4656 -17.4412 -17.3029 -17.2967 -13.1951 -13.0778 -13.0684 -13.0535
   -12.3226 -12.2943 -12.1355 -12.1237  -9.3640  -9.2831  -9.2812  -9.1458
    -8.6010  -8.5858  -8.5494  -8.5294  -7.2605  -6.9869  -6.7269  -6.6864
    -6.1434  -6.0883  -5.8241  -5.8064  -5.2124  -5.0914  -4.9379  -4.9306
    -4.9140  -4.8840  -4.8246  -4.7999  -3.7259  -3.6109  -3.4281  -3.3526
    -3.2492  -3.1063  -3.0711  -2.9543  -2.9329  -2.8900  -2.8547  -2.7438
    -2.6413  -2.6151  -2.6132  -2.5445  -2.1379  -2.0680  -2.0593  -1.9366
    -0.4839  -0.3852   0.2920   0.4046   4.7763   5.5686   5.5907   5.9010
     5.9953   6.0071   6.4495   6.5237   6.9313   6.9775   7.3219   7.3453

          k = 0.0000 0.4164-0.4295 ( 52762 PWs)   bands (ev):

   -17.4536 -17.4536 -17.2996 -17.2996 -13.1526 -13.1526 -13.0494 -13.0494
   -12.2310 -12.2310 -12.2045 -12.2045  -9.3268  -9.3268  -9.2196  -9.2196
    -8.5750  -8.5750  -8.5494  -8.5494  -7.0276  -7.0276  -6.8189  -6.8189
    -6.1162  -6.1162  -5.8185  -5.8185  -5.1592  -5.1592  -4.9306  -4.9305
    -4.8564  -4.8564  -4.8400  -4.8400  -3.5511  -3.5511  -3.4476  -3.4476
    -3.2326  -3.2326  -3.0099  -3.0099  -2.8908  -2.8908  -2.7965  -2.7965
    -2.6743  -2.6743  -2.5699  -2.5699  -2.0932  -2.0932  -1.9967  -1.9967
    -0.4367  -0.4367   0.3506   0.3506   5.0560   5.0560   5.9063   5.9063
     6.2128   6.2128   6.4315   6.4315   6.8051   6.8051   7.0499   7.0499

          k = 0.0000-0.8329 0.0000 ( 52728 PWs)   bands (ev):

   -17.3770 -17.3770 -17.3623 -17.3623 -13.1273 -13.1273 -13.0738 -13.0738
   -12.2616 -12.2616 -12.1254 -12.1254  -9.4435  -9.4435  -9.2892  -9.2892
    -8.6769  -8.6769  -8.5964  -8.5964  -7.1384  -7.1384  -6.7311  -6.7311
    -6.0520  -6.0520  -5.8733  -5.8733  -5.0869  -5.0869  -5.0101  -5.0101
    -4.9151  -4.9151  -4.8147  -4.8147  -3.6522  -3.6522  -3.3733  -3.3733
    -3.1409  -3.1409  -2.9665  -2.9665  -2.8945  -2.8945  -2.7500  -2.7500
    -2.5748  -2.5748  -2.4937  -2.4937  -1.7760  -1.7759  -1.6705  -1.6705
     0.0061   0.0061   0.0441   0.0441   5.2602   5.2602   5.4771   5.4771
     5.9936   5.9936   6.1591   6.1591   6.5813   6.5813   6.6742   6.6742

          k = 0.0000-0.8329-0.4295 ( 52796 PWs)   bands (ev):

   -17.3746 -17.3746 -17.3647 -17.3647 -13.1097 -13.1097 -13.0959 -13.0959
   -12.2039 -12.2039 -12.1781 -12.1781  -9.3898  -9.3898  -9.3631  -9.3631
    -8.6471  -8.6471  -8.6135  -8.6135  -7.0268  -7.0268  -6.8473  -6.8473
    -6.0505  -6.0505  -5.8800  -5.8800  -5.0695  -5.0695  -4.9841  -4.9841
    -4.9149  -4.9149  -4.8309  -4.8309  -3.5730  -3.5730  -3.4468  -3.4468
    -3.1511  -3.1511  -3.0720  -3.0720  -2.8553  -2.8553  -2.7410  -2.7410
    -2.5211  -2.5211  -2.5067  -2.5067  -1.7320  -1.7320  -1.7067  -1.7067
     0.0181   0.0181   0.0333   0.0334   5.3449   5.3449   5.4577   5.4577
     6.0975   6.0975   6.2455   6.2455   6.4852   6.4852   6.6782   6.6782

          k =-0.5000 0.0000-0.1864 ( 52768 PWs)   bands (ev):

   -17.4968 -17.4812 -17.2885 -17.2686 -13.1437 -13.1381 -13.1076 -12.9954
   -12.4222 -12.2744 -12.1489 -12.1281  -9.2987  -9.2297  -9.0763  -9.0599
    -8.5550  -8.5073  -8.4764  -8.4515  -7.2819  -6.9245  -6.6823  -6.6314
    -6.2892  -6.0252  -5.8804  -5.6825  -5.3301  -5.2200  -5.0521  -4.9617
    -4.8660  -4.7519  -4.6684  -4.6609  -3.7326  -3.5951  -3.5028  -3.4537
    -3.3416  -3.2379  -3.1406  -3.0571  -2.9471  -2.8725  -2.8370  -2.7942
    -2.7067  -2.7063  -2.6191  -2.5915  -2.4827  -2.3761  -2.3282  -2.1892
    -0.7153  -0.5875   0.4257   0.5209   5.0004   5.3048   5.5113   5.6548
     6.0512   6.6925   6.8754   7.0198   7.0386   7.2290   7.2530   7.5981

          k =-0.5000 0.0000-0.6159 ( 52770 PWs)   bands (ev):

   -17.4891 -17.4891 -17.2785 -17.2785 -13.1522 -13.1522 -13.0455 -13.0455
   -12.2965 -12.2965 -12.1894 -12.1894  -9.2636  -9.2636  -9.0651  -9.0651
    -8.5318  -8.5318  -8.4613  -8.4613  -7.0095  -7.0095  -6.7809  -6.7809
    -6.1898  -6.1898  -5.7470  -5.7470  -5.2846  -5.2846  -5.0240  -5.0240
    -4.7971  -4.7971  -4.6585  -4.6585  -3.5751  -3.5751  -3.4184  -3.4184
    -3.3252  -3.3252  -3.0454  -3.0454  -2.9038  -2.9038  -2.8260  -2.8260
    -2.8116  -2.8116  -2.6765  -2.6765  -2.3997  -2.3997  -2.2437  -2.2437
    -0.6576  -0.6576   0.4784   0.4784   5.1728   5.1728   5.6248   5.6248
     6.1255   6.1255   7.2025   7.2026   7.2719   7.2720   7.4697   7.4698

          k =-0.5000 0.4164-0.1864 ( 52746 PWs)   bands (ev):

   -17.4581 -17.4450 -17.3095 -17.2942 -13.1396 -13.1253 -13.1090 -13.0214
   -12.3663 -12.2516 -12.1321 -12.1252  -9.4137  -9.2649  -9.2308  -9.1524
    -8.6015  -8.5936  -8.5481  -8.5165  -7.2616  -7.0054  -6.7103  -6.6693
    -6.2445  -6.0193  -5.9036  -5.7609  -5.1667  -5.0398  -5.0179  -4.9371
    -4.9042  -4.8983  -4.8257  -4.8059  -3.7008  -3.6203  -3.4294  -3.3768
    -3.3137  -3.1039  -3.0368  -2.9528  -2.8961  -2.8675  -2.8393  -2.7795
    -2.6576  -2.6290  -2.5461  -2.5170  -2.1539  -2.0707  -2.0441  -1.9173
    -0.5335  -0.4015   0.3123   0.4157   5.0644   5.1841   5.5378   5.6714
     5.8986   6.3144   6.5583   6.6237   6.9051   7.1279   7.1942   7.2853

          k =-0.5000 0.4164-0.6159 ( 52742 PWs)   bands (ev):

   -17.4516 -17.4516 -17.3018 -17.3018 -13.1384 -13.1384 -13.0643 -13.0643
   -12.2597 -12.2597 -12.1750 -12.1750  -9.3503  -9.3503  -9.1895  -9.1895
    -8.5842  -8.5842  -8.5369  -8.5369  -7.0195  -7.0195  -6.8283  -6.8283
    -6.1542  -6.1542  -5.8036  -5.8036  -5.1163  -5.1163  -4.9770  -4.9770
    -4.8666  -4.8666  -4.8311  -4.8311  -3.5615  -3.5615  -3.4389  -3.4389
    -3.2430  -3.2430  -3.0160  -3.0160  -2.9036  -2.9036  -2.7374  -2.7374
    -2.6951  -2.6951  -2.5396  -2.5396  -2.1075  -2.1075  -1.9738  -1.9738
    -0.4695  -0.4695   0.3670   0.3670   5.1824   5.1824   5.5050   5.5050
     6.1985   6.1985   6.6511   6.6511   6.7717   6.7717   7.3310   7.3310

          k =-0.5000-0.8329-0.1864 ( 52788 PWs)   bands (ev):

   -17.3743 -17.3743 -17.3648 -17.3648 -13.1302 -13.1302 -13.0727 -13.0727
   -12.2670 -12.2670 -12.1200 -12.1200  -9.4330  -9.4330  -9.2880  -9.2880
    -8.6650  -8.6650  -8.6009  -8.6009  -7.1510  -7.1510  -6.7174  -6.7174
    -6.1006  -6.1006  -5.8943  -5.8943  -5.1055  -5.1055  -5.0022  -5.0022
    -4.8979  -4.8979  -4.8015  -4.8015  -3.6438  -3.6438  -3.3574  -3.3574
    -3.0999  -3.0999  -2.9465  -2.9465  -2.9237  -2.9237  -2.7520  -2.7520
    -2.6432  -2.6432  -2.4034  -2.4034  -1.7746  -1.7746  -1.6699  -1.6699
    -0.0228  -0.0228   0.0155   0.0155   5.2865   5.2865   5.5238   5.5238
     5.7657   5.7657   6.1454   6.1454   6.5162   6.5162   6.9682   6.9682

          k =-0.5000-0.8329-0.6159 ( 52768 PWs)   bands (ev):

   -17.3698 -17.3698 -17.3693 -17.3693 -13.1112 -13.1112 -13.0965 -13.0965
   -12.2160 -12.2160 -12.1659 -12.1659  -9.4043  -9.4043  -9.3351  -9.3351
    -8.6354  -8.6354  -8.6180  -8.6180  -7.0157  -7.0157  -6.8714  -6.8714
    -6.0812  -6.0812  -5.9073  -5.9073  -5.0731  -5.0731  -4.9961  -4.9961
    -4.8819  -4.8819  -4.8273  -4.8273  -3.5636  -3.5636  -3.4561  -3.4561
    -3.1582  -3.1582  -2.9971  -2.9971  -2.8734  -2.8734  -2.7270  -2.7270
    -2.5970  -2.5970  -2.4172  -2.4172  -1.7217  -1.7217  -1.7136  -1.7136
    -0.0060  -0.0060   0.0005   0.0005   5.2791   5.2791   5.6280   5.6280
     5.7240   5.7240   6.1018   6.1018   6.4797   6.4797   6.8391   6.8391

     highest occupied, lowest unoccupied level (ev):     0.5242    4.6586

!    total energy              =    -450.75248640 Ry
     Harris-Foulkes estimate   =    -450.75248640 Ry
     estimated scf accuracy    <          6.6E-09 Ry

     total all-electron energy =     -1700.173158 Ry

     The total energy is the sum of the following terms:

     one-electron contribution =    -253.39890373 Ry
     hartree contribution      =     167.03892037 Ry
     xc contribution           =    -114.02659022 Ry
     ewald contribution        =    -110.64566430 Ry
     Dispersion Correction     =      -0.21899618 Ry
     one-center paw contrib.   =    -139.50125233 Ry

     convergence has been achieved in  19 iterations

     Forces acting on atoms (cartesian axes, Ry/au):

     atom    1 type  2   force =     0.00052400    0.00164414   -0.00186697
     atom    2 type  2   force =    -0.00052408    0.00164422    0.00186607
     atom    3 type  2   force =    -0.00052400   -0.00164414    0.00186697
     atom    4 type  2   force =     0.00052408   -0.00164422   -0.00186607
     atom    5 type  3   force =    -0.00247501    0.00176131   -0.00112088
     atom    6 type  3   force =     0.00247498    0.00176130    0.00112088
     atom    7 type  3   force =     0.00247501   -0.00176131    0.00112088
     atom    8 type  3   force =    -0.00247498   -0.00176130   -0.00112088
     atom    9 type  1   force =    -0.00661587    0.02011088   -0.00767886
     atom   10 type  1   force =     0.00661441    0.02011089    0.00766608
     atom   11 type  1   force =     0.00661587   -0.02011088    0.00767886
     atom   12 type  1   force =    -0.00661441   -0.02011089   -0.00766608
     atom   13 type  3   force =     0.00086404   -0.00177246    0.00140352
     atom   14 type  3   force =    -0.00086424   -0.00177245   -0.00140327
     atom   15 type  3   force =    -0.00086404    0.00177246   -0.00140352
     atom   16 type  3   force =     0.00086424    0.00177245    0.00140327
     atom   17 type  3   force =     0.00927447   -0.02024308    0.00262105
     atom   18 type  3   force =    -0.00927442   -0.02024302   -0.00262101
     atom   19 type  3   force =    -0.00927447    0.02024308   -0.00262105
     atom   20 type  3   force =     0.00927442    0.02024302    0.00262101
     atom   21 type  1   force =     0.00530402   -0.02205154    0.00404698
     atom   22 type  1   force =    -0.00530474   -0.02205148   -0.00404613
     atom   23 type  1   force =    -0.00530402    0.02205154   -0.00404698
     atom   24 type  1   force =     0.00530474    0.02205148    0.00404613
     atom   25 type  3   force =    -0.00243271    0.00306488   -0.00013432
     atom   26 type  3   force =     0.00243259    0.00306489    0.00013399
     atom   27 type  3   force =     0.00243271   -0.00306488    0.00013432
     atom   28 type  3   force =    -0.00243259   -0.00306489   -0.00013399
     atom   29 type  3   force =    -0.00991245    0.01976075    0.00160515
     atom   30 type  3   force =     0.00991251    0.01976079   -0.00160517
     atom   31 type  3   force =     0.00991245   -0.01976075   -0.00160515
     atom   32 type  3   force =    -0.00991251   -0.01976079    0.00160517
     atom   33 type  1   force =     0.00376407   -0.02182259    0.00442442
     atom   34 type  1   force =    -0.00376475   -0.02182265   -0.00443051
     atom   35 type  1   force =    -0.00376407    0.02182259   -0.00442442
     atom   36 type  1   force =     0.00376475    0.02182265    0.00443051
     atom   37 type  3   force =    -0.00360042    0.01992020   -0.00868041
     atom   38 type  3   force =     0.00360046    0.01992036    0.00868063
     atom   39 type  3   force =     0.00360042   -0.01992020    0.00868041
     atom   40 type  3   force =    -0.00360046   -0.01992036   -0.00868063
     atom   41 type  3   force =    -0.00044892    0.00287669   -0.00142239
     atom   42 type  3   force =     0.00044867    0.00287665    0.00142244
     atom   43 type  3   force =     0.00044892   -0.00287669    0.00142239
     atom   44 type  3   force =    -0.00044867   -0.00287665   -0.00142244
     atom   45 type  1   force =    -0.00956856    0.02103494   -0.00229107
     atom   46 type  1   force =     0.00956839    0.02103476    0.00229860
     atom   47 type  1   force =     0.00956856   -0.02103494    0.00229107
     atom   48 type  1   force =    -0.00956839   -0.02103476   -0.00229860
     atom   49 type  3   force =     0.00970370   -0.02159373    0.00654406
     atom   50 type  3   force =    -0.00970370   -0.02159373   -0.00654395
     atom   51 type  3   force =    -0.00970370    0.02159373   -0.00654406
     atom   52 type  3   force =     0.00970370    0.02159373    0.00654395
     atom   53 type  3   force =     0.00172703   -0.00224707    0.00107988
     atom   54 type  3   force =    -0.00172699   -0.00224698   -0.00107941
     atom   55 type  3   force =    -0.00172703    0.00224707   -0.00107988
     atom   56 type  3   force =     0.00172699    0.00224698    0.00107941

     Total force =     0.130036     Total SCF correction =     0.000162


     Computing stress (Cartesian axis) and pressure

          total   stress  (Ry/bohr**3)                   (kbar)     P=  -17.59
  -0.00006754   0.00000000  -0.00002421         -9.93      0.00     -3.56
   0.00000000  -0.00023323  -0.00000000          0.00    -34.31     -0.00
  -0.00002421  -0.00000000  -0.00005792         -3.56     -0.00     -8.52


     Writing output data file scf.save
 
     init_run     :     13.38s CPU     13.66s WALL (       1 calls)
     electrons    :    364.01s CPU    380.80s WALL (       1 calls)
     forces       :      6.98s CPU      7.03s WALL (       1 calls)
     stress       :     21.02s CPU     21.05s WALL (       1 calls)

     Called by init_run:
     wfcinit      :      7.29s CPU      7.51s WALL (       1 calls)
     potinit      :      2.15s CPU      2.17s WALL (       1 calls)

     Called by electrons:
     c_bands      :    319.50s CPU    333.90s WALL (      19 calls)
     sum_band     :     37.19s CPU     39.37s WALL (      19 calls)
     v_of_rho     :      1.26s CPU      1.37s WALL (      20 calls)
     newd         :      2.59s CPU      2.64s WALL (      20 calls)
     PAW_pot      :      2.79s CPU      2.79s WALL (      20 calls)
     mix_rho      :      0.34s CPU      0.36s WALL (      19 calls)

     Called by c_bands:
     init_us_2    :      4.94s CPU      4.97s WALL (     492 calls)
     cegterg      :    306.88s CPU    321.09s WALL (     228 calls)

     Called by sum_band:
     sum_band:bec :      0.03s CPU      0.03s WALL (     228 calls)
     addusdens    :      2.81s CPU      2.88s WALL (      19 calls)

     Called by *egterg:
     h_psi        :    203.19s CPU    214.60s WALL (    1161 calls)
     s_psi        :     24.36s CPU     24.37s WALL (    1161 calls)
     g_psi        :      2.02s CPU      2.02s WALL (     921 calls)
     cdiaghg      :     13.63s CPU     13.64s WALL (    1149 calls)

     Called by h_psi:
     h_psi:pot    :    201.02s CPU    212.39s WALL (    1161 calls)
     h_psi:calbec :     21.63s CPU     21.82s WALL (    1161 calls)
     vloc_psi     :    155.62s CPU    166.78s WALL (    1161 calls)
     add_vuspsi   :     23.76s CPU     23.78s WALL (    1161 calls)

     General routines
     calbec       :     34.06s CPU     34.30s WALL (    1449 calls)
     fft          :      1.34s CPU      1.52s WALL (     284 calls)
     fftw         :    162.51s CPU    174.76s WALL (  123712 calls)
 
     Parallel routines
     fft_scatter  :     47.24s CPU     54.97s WALL (  123996 calls)
 
     PWSCF        :  6m49.26s CPU     7m 7.55s WALL

 
   This run was terminated on:  10: 1:23  17Dec2017            

=------------------------------------------------------------------------------=
   JOB DONE.
=------------------------------------------------------------------------------=
