
     Program PWSCF v.6.1 (svn rev. 13369) starts on  4Nov2017 at  4:41:30 

     This program is part of the open-source Quantum ESPRESSO suite
     for quantum simulation of materials; please cite
         "P. Giannozzi et al., J. Phys.:Condens. Matter 21 395502 (2009);
          URL http://www.quantum-espresso.org", 
     in publications or presentations arising from this work. More details at
     http://www.quantum-espresso.org/quote

     Parallel version (MPI), running on     8 processors
     R & G space division:  proc/nbgrp/npool/nimage =       8
     Waiting for input...
     Reading input from standard input

     Current dimensions of program PWSCF are:
     Max number of different atomic species (ntypx) = 10
     Max number of k-points (npk) =  40000
     Max angular momentum in pseudopotentials (lmaxx) =  3
               file C.pbe-n-kjpaw_psl.0.1.UPF: wavefunction(s)  2P renormalized
               file N.pbe-n-kjpaw_psl.0.1.UPF: wavefunction(s)  2P renormalized
               file H.pbe-kjpaw_psl.0.1.UPF: wavefunction(s)  1S renormalized
               file O.pbe-n-kjpaw_psl.0.1.UPF: wavefunction(s)  2P renormalized

     -------------------------------------
     Parameters for Dispersion Correction:
     -------------------------------------
       atom      VdW radius       C_6     

        C          2.744         60.710
        N          2.640         42.670
        H          1.892          4.857
        O          2.536         24.284

     Subspace diagonalization in iterative solution of the eigenvalue problem:
     a serial algorithm will be used

 
     Parallelization info
     --------------------
     sticks:   dense  smooth     PW     G-vecs:    dense   smooth      PW
     Min        1377    1377    361               108989   108989   14737
     Max        1378    1378    363               108992   108992   14738
     Sum       11017   11017   2899               871919   871919  117899
 


     bravais-lattice index     =            0
     lattice parameter (alat)  =      28.4782  a.u.
     unit-cell volume          =    6452.9388 (a.u.)^3
     number of atoms/cell      =          104
     number of atomic types    =            4
     number of electrons       =       280.00
     number of Kohn-Sham states=          168
     kinetic-energy cutoff     =     100.0000  Ry
     charge density cutoff     =     400.0000  Ry
     convergence threshold     =      1.0E-08
     mixing beta               =       0.5000
     number of iterations used =            8  plain     mixing
     Exchange-correlation      =  SLA  PW   PBX  PBC ( 1  4  3  4 0 0)

     celldm(1)=  28.478173  celldm(2)=   0.000000  celldm(3)=   0.000000
     celldm(4)=   0.000000  celldm(5)=   0.000000  celldm(6)=   0.000000

     crystal axes: (cart. coord. in units of alat)
               a(1) = (   1.000000   0.000000   0.000000 )  
               a(2) = (   0.000000   0.426622   0.000000 )  
               a(3) = (   0.000000   0.000000   0.654904 )  

     reciprocal axes: (cart. coord. in units 2 pi/alat)
               b(1) = (  1.000000  0.000000  0.000000 )  
               b(2) = (  0.000000  2.343993  0.000000 )  
               b(3) = (  0.000000  0.000000  1.526942 )  


     PseudoPot. # 1 for  C read from file:
     /scratch/ahofstet/pseudo/C.pbe-n-kjpaw_psl.0.1.UPF
     MD5 check sum: 430fe95172b1e11ef3f8ed03bac87931
     Pseudo is Projector augmented-wave + core cor, Zval =  4.0
     Generated using "atomic" code by A. Dal Corso  v.5.0.99 svn rev. 10869
     Shape of augmentation charge: BESSEL
     Using radial grid of 1073 points,  4 beta functions with: 
                l(1) =   0
                l(2) =   0
                l(3) =   1
                l(4) =   1
     Q(r) pseudized with 0 coefficients 


     PseudoPot. # 2 for  N read from file:
     /scratch/ahofstet/pseudo/N.pbe-n-kjpaw_psl.0.1.UPF
     MD5 check sum: f73187c8b701007e77325f868c9291d7
     Pseudo is Projector augmented-wave + core cor, Zval =  5.0
     Generated using "atomic" code by A. Dal Corso  v.5.0.99 svn rev. 10869
     Shape of augmentation charge: PSQ
     Using radial grid of 1085 points,  4 beta functions with: 
                l(1) =   0
                l(2) =   0
                l(3) =   1
                l(4) =   1
     Q(r) pseudized with 0 coefficients 


     PseudoPot. # 3 for  H read from file:
     /scratch/ahofstet/pseudo/H.pbe-kjpaw_psl.0.1.UPF
     MD5 check sum: 94e484f906d9e9773b2f6e52662335b2
     Pseudo is Projector augmented-wave, Zval =  1.0
     Generated using "atomic" code by A. Dal Corso  v.5.0.99 svn rev. 10869
     Shape of augmentation charge: PSQ
     Using radial grid of  929 points,  2 beta functions with: 
                l(1) =   0
                l(2) =   0
     Q(r) pseudized with 0 coefficients 


     PseudoPot. # 4 for  O read from file:
     /scratch/ahofstet/pseudo/O.pbe-n-kjpaw_psl.0.1.UPF
     MD5 check sum: 3f94a2996a3169367d6eb21d9b593f20
     Pseudo is Projector augmented-wave + core cor, Zval =  6.0
     Generated using "atomic" code by A. Dal Corso  v.5.0.99 svn rev. 10869
     Shape of augmentation charge: BESSEL
     Using radial grid of 1095 points,  4 beta functions with: 
                l(1) =   0
                l(2) =   0
                l(3) =   1
                l(4) =   1
     Q(r) pseudized with 0 coefficients 


     atomic species   valence    mass     pseudopotential
        C              4.00    12.01070      C( 1.00)
        N              5.00    14.00670      N( 1.00)
        H              1.00     1.00794      H( 1.00)
        O              6.00    15.99940      O( 1.00)

      4 Sym. Ops. (no inversion) found ( 3 have fractional translation)



   Cartesian axes

     site n.     atom                  positions (alat units)
         1           N   tau(   1) = (   0.7582270   0.1521794   0.3012743  )
         2           N   tau(   2) = (   0.2417730   0.2744430   0.6287262  )
         3           N   tau(   3) = (   0.2582270   0.2744430   0.3012743  )
         4           N   tau(   4) = (   0.7417730   0.1521794   0.6287262  )
         5           H   tau(   5) = (   0.7523697   0.1422749   0.3707397  )
         6           H   tau(   6) = (   0.2476303   0.2843476   0.0432878  )
         7           H   tau(   7) = (   0.2523697   0.2843476   0.3707397  )
         8           H   tau(   8) = (   0.7476303   0.1422749   0.0432878  )
         9           N   tau(   9) = (   0.8148782   0.2141564   0.2710776  )
        10           N   tau(  10) = (   0.1851218   0.2124660   0.5985295  )
        11           N   tau(  11) = (   0.3148782   0.2124660   0.2710776  )
        12           N   tau(  12) = (   0.6851218   0.2141564   0.5985295  )
        13           N   tau(  13) = (   0.8114746   0.2108333   0.1848730  )
        14           N   tau(  14) = (   0.1885254   0.2157891   0.5123249  )
        15           N   tau(  15) = (   0.3114746   0.2157891   0.1848730  )
        16           N   tau(  16) = (   0.6885254   0.2108333   0.5123249  )
        17           N   tau(  17) = (   0.7535583   0.1472979   0.1584666  )
        18           N   tau(  18) = (   0.2464417   0.2793245   0.4859185  )
        19           N   tau(  19) = (   0.2535583   0.2793245   0.1584666  )
        20           N   tau(  20) = (   0.7464417   0.1472979   0.4859185  )
        21           C   tau(  21) = (   0.7198886   0.1108611   0.2318751  )
        22           C   tau(  22) = (   0.2801114   0.3157613   0.5593269  )
        23           C   tau(  23) = (   0.2198886   0.3157613   0.2318751  )
        24           C   tau(  24) = (   0.7801114   0.1108611   0.5593269  )
        25           C   tau(  25) = (   0.6500532   0.0397409   0.2369112  )
        26           C   tau(  26) = (   0.3499468   0.3868815   0.5643631  )
        27           C   tau(  27) = (   0.1500532   0.3868815   0.2369112  )
        28           C   tau(  28) = (   0.8499468   0.0397409   0.5643631  )
        29           C   tau(  29) = (   0.5549279   0.0867218   0.2382050  )
        30           C   tau(  30) = (   0.4450721   0.3399007   0.5656569  )
        31           C   tau(  31) = (   0.0549279   0.3399007   0.2382050  )
        32           C   tau(  32) = (   0.9450721   0.0867218   0.5656569  )
        33           C   tau(  33) = (   0.4871399   0.0168466   0.2418044  )
        34           C   tau(  34) = (   0.5128601   0.4097758   0.5692563  )
        35           C   tau(  35) = (   0.9871399   0.4097758   0.2418044  )
        36           C   tau(  36) = (   0.0128601   0.0168466   0.5692563  )
        37           N   tau(  37) = (   0.4317954   0.3896709   0.2450958  )
        38           N   tau(  38) = (   0.5682046   0.0369515   0.5725477  )
        39           N   tau(  39) = (   0.9317954   0.0369515   0.2450958  )
        40           N   tau(  40) = (   0.0682046   0.3896709   0.5725477  )
        41           C   tau(  41) = (   0.6584907   0.4051880   0.1555904  )
        42           C   tau(  42) = (   0.3415093   0.0214345   0.4830423  )
        43           C   tau(  43) = (   0.1584907   0.0214345   0.1555904  )
        44           C   tau(  44) = (   0.8415093   0.4051880   0.4830423  )
        45           H   tau(  45) = (   0.6538262   0.0147441   0.0926922  )
        46           H   tau(  46) = (   0.3461738   0.4118783   0.4201441  )
        47           H   tau(  47) = (   0.1538262   0.4118783   0.0926922  )
        48           H   tau(  48) = (   0.8461738   0.0147441   0.4201441  )
        49           H   tau(  49) = (   0.6052816   0.3552870   0.1572687  )
        50           H   tau(  50) = (   0.3947184   0.0713354   0.4847206  )
        51           H   tau(  51) = (   0.1052816   0.0713354   0.1572687  )
        52           H   tau(  52) = (   0.8947184   0.3552870   0.4847206  )
        53           H   tau(  53) = (   0.7224857   0.3704374   0.1576416  )
        54           H   tau(  54) = (   0.2775143   0.0561851   0.4850935  )
        55           H   tau(  55) = (   0.2224857   0.0561851   0.1576416  )
        56           H   tau(  56) = (   0.7775143   0.3704374   0.4850935  )
        57           C   tau(  57) = (   0.6640209   0.4104353   0.3212150  )
        58           C   tau(  58) = (   0.3359791   0.0161871   0.6486669  )
        59           C   tau(  59) = (   0.1640209   0.0161871   0.3212150  )
        60           C   tau(  60) = (   0.8359791   0.4104353   0.6486669  )
        61           H   tau(  61) = (   0.7284777   0.3766629   0.3175077  )
        62           H   tau(  62) = (   0.2715223   0.0499595   0.6449596  )
        63           H   tau(  63) = (   0.2284777   0.0499595   0.3175077  )
        64           H   tau(  64) = (   0.7715223   0.3766629   0.6449596  )
        65           H   tau(  65) = (   0.6118903   0.3596210   0.3255525  )
        66           H   tau(  66) = (   0.3881097   0.0670014   0.6530043  )
        67           H   tau(  67) = (   0.1118903   0.0670014   0.3255525  )
        68           H   tau(  68) = (   0.8881097   0.3596210   0.6530043  )
        69           H   tau(  69) = (   0.6621485   0.0232197   0.3824128  )
        70           H   tau(  70) = (   0.3378515   0.4034027   0.0549609  )
        71           H   tau(  71) = (   0.1621485   0.4034027   0.3824128  )
        72           H   tau(  72) = (   0.8378515   0.0232197   0.0549609  )
        73           C   tau(  73) = (   0.5369486   0.1420193   0.1537079  )
        74           C   tau(  74) = (   0.4630514   0.2846031   0.4811598  )
        75           C   tau(  75) = (   0.0369486   0.2846031   0.1537079  )
        76           C   tau(  76) = (   0.9630514   0.1420193   0.4811598  )
        77           H   tau(  77) = (   0.5417174   0.1020561   0.0930759  )
        78           H   tau(  78) = (   0.4582826   0.3245663   0.4205278  )
        79           H   tau(  79) = (   0.0417174   0.3245663   0.0930759  )
        80           H   tau(  80) = (   0.9582826   0.1020561   0.4205278  )
        81           H   tau(  81) = (   0.5853209   0.1963738   0.1494231  )
        82           H   tau(  82) = (   0.4146791   0.2302487   0.4768750  )
        83           H   tau(  83) = (   0.0853209   0.2302487   0.1494231  )
        84           H   tau(  84) = (   0.9146791   0.1963738   0.4768750  )
        85           H   tau(  85) = (   0.4700747   0.1705835   0.1575650  )
        86           H   tau(  86) = (   0.5299253   0.2560389   0.4850168  )
        87           H   tau(  87) = (   0.9700747   0.2560389   0.1575650  )
        88           H   tau(  88) = (   0.0299253   0.1705835   0.4850168  )
        89           C   tau(  89) = (   0.5407502   0.1458888   0.3207748  )
        90           C   tau(  90) = (   0.4592498   0.2807337   0.6482267  )
        91           C   tau(  91) = (   0.0407502   0.2807337   0.3207748  )
        92           C   tau(  92) = (   0.9592498   0.1458888   0.6482267  )
        93           H   tau(  93) = (   0.4743387   0.1755880   0.3173688  )
        94           H   tau(  94) = (   0.5256613   0.2510344   0.6448207  )
        95           H   tau(  95) = (   0.9743387   0.2510344   0.3173688  )
        96           H   tau(  96) = (   0.0256613   0.1755880   0.6448207  )
        97           H   tau(  97) = (   0.5899301   0.1996913   0.3215588  )
        98           H   tau(  98) = (   0.4100699   0.2269311   0.6490107  )
        99           H   tau(  99) = (   0.0899301   0.2269311   0.3215588  )
       100           H   tau( 100) = (   0.9100699   0.1996913   0.6490107  )
       101           H   tau( 101) = (   0.5464128   0.1083688   0.3828678  )
       102           H   tau( 102) = (   0.4535872   0.3182536   0.0554159  )
       103           H   tau( 103) = (   0.0464128   0.3182536   0.3828678  )
       104           H   tau( 104) = (   0.9535872   0.1083688   0.0554159  )

     number of k points=     8
                       cart. coord. in units 2pi/alat
        k(    1) = (   0.0000000   0.0000000   0.0000000), wk =   0.1666667
        k(    2) = (   0.0000000   0.0000000  -0.7634709), wk =   0.1666667
        k(    3) = (   0.0000000   0.7813310   0.0000000), wk =   0.3333333
        k(    4) = (   0.0000000   0.7813310  -0.7634709), wk =   0.3333333
        k(    5) = (  -0.5000000   0.0000000   0.0000000), wk =   0.1666667
        k(    6) = (  -0.5000000   0.0000000  -0.7634709), wk =   0.1666667
        k(    7) = (  -0.5000000   0.7813310   0.0000000), wk =   0.3333333
        k(    8) = (  -0.5000000   0.7813310  -0.7634709), wk =   0.3333333

     Dense  grid:   871919 G-vectors     FFT dimensions: ( 192,  80, 120)

     Estimated max dynamical RAM per process >     781.25MB

     Estimated total allocated dynamical RAM >    6249.98MB

     Check: negative/imaginary core charge=   -0.000002    0.000000

     Initial potential from superposition of free atoms

     starting charge  279.99803, renormalised to  280.00000
     Starting wfc are  260 randomized atomic wfcs
     Checking if some PAW data can be deallocated... 

     total cpu time spent up to now is       43.6 secs

     per-process dynamical memory:   535.3 Mb

     Self-consistent Calculation

     iteration #  1     ecut=   100.00 Ry     beta=0.50
     Davidson diagonalization with overlap
     ethr =  1.00E-02,  avg # of iterations =  3.9

     total cpu time spent up to now is      172.7 secs

     total energy              =   -1214.34376717 Ry
     Harris-Foulkes estimate   =   -1219.62983562 Ry
     estimated scf accuracy    <      10.29756590 Ry

     iteration #  2     ecut=   100.00 Ry     beta=0.50
     Davidson diagonalization with overlap
     ethr =  3.68E-03,  avg # of iterations =  2.0

     total cpu time spent up to now is      235.8 secs

     total energy              =   -1214.58096094 Ry
     Harris-Foulkes estimate   =   -1215.25488846 Ry
     estimated scf accuracy    <       1.33549888 Ry

     iteration #  3     ecut=   100.00 Ry     beta=0.50
     Davidson diagonalization with overlap
     ethr =  4.77E-04,  avg # of iterations =  5.0

     total cpu time spent up to now is      383.2 secs

     total energy              =   -1215.99585639 Ry
     Harris-Foulkes estimate   =   -1216.77578958 Ry
     estimated scf accuracy    <       2.71416827 Ry

     iteration #  4     ecut=   100.00 Ry     beta=0.50
     Davidson diagonalization with overlap
     ethr =  4.77E-04,  avg # of iterations =  1.4

     total cpu time spent up to now is      443.8 secs

     total energy              =   -1215.39867679 Ry
     Harris-Foulkes estimate   =   -1216.09628917 Ry
     estimated scf accuracy    <       1.07699904 Ry

     iteration #  5     ecut=   100.00 Ry     beta=0.50
     Davidson diagonalization with overlap
     ethr =  3.85E-04,  avg # of iterations =  6.1

     total cpu time spent up to now is      562.5 secs

     total energy              =   -1216.03795018 Ry
     Harris-Foulkes estimate   =   -1216.26447901 Ry
     estimated scf accuracy    <       0.83961035 Ry

     iteration #  6     ecut=   100.00 Ry     beta=0.50
     Davidson diagonalization with overlap
     ethr =  3.00E-04,  avg # of iterations =  1.0

     total cpu time spent up to now is      622.5 secs

     total energy              =   -1215.86259470 Ry
     Harris-Foulkes estimate   =   -1216.05242754 Ry
     estimated scf accuracy    <       0.42901085 Ry

     iteration #  7     ecut=   100.00 Ry     beta=0.50
     Davidson diagonalization with overlap
     ethr =  1.53E-04,  avg # of iterations =  3.6

     total cpu time spent up to now is      713.8 secs

     total energy              =   -1215.99598553 Ry
     Harris-Foulkes estimate   =   -1215.99938055 Ry
     estimated scf accuracy    <       0.00577870 Ry

     iteration #  8     ecut=   100.00 Ry     beta=0.50
     Davidson diagonalization with overlap
     c_bands:  1 eigenvalues not converged
     c_bands:  4 eigenvalues not converged
     c_bands:  4 eigenvalues not converged
     ethr =  2.06E-06,  avg # of iterations = 12.0

     total cpu time spent up to now is      867.1 secs

     total energy              =   -1215.99969943 Ry
     Harris-Foulkes estimate   =   -1216.00030374 Ry
     estimated scf accuracy    <       0.00246587 Ry

     iteration #  9     ecut=   100.00 Ry     beta=0.50
     Davidson diagonalization with overlap
     c_bands:  1 eigenvalues not converged
     c_bands:  2 eigenvalues not converged
     c_bands:  1 eigenvalues not converged
     ethr =  8.81E-07,  avg # of iterations = 14.6

     total cpu time spent up to now is      949.7 secs

     total energy              =   -1215.99951184 Ry
     Harris-Foulkes estimate   =   -1215.99979716 Ry
     estimated scf accuracy    <       0.00101157 Ry

     iteration # 10     ecut=   100.00 Ry     beta=0.50
     Davidson diagonalization with overlap
     c_bands:  1 eigenvalues not converged
     ethr =  3.61E-07,  avg # of iterations =  7.2

     total cpu time spent up to now is     1033.1 secs

     total energy              =   -1215.99958393 Ry
     Harris-Foulkes estimate   =   -1215.99967197 Ry
     estimated scf accuracy    <       0.00015740 Ry

     iteration # 11     ecut=   100.00 Ry     beta=0.50
     Davidson diagonalization with overlap
     ethr =  5.62E-08,  avg # of iterations =  4.5

     total cpu time spent up to now is     1144.6 secs

     total energy              =   -1215.99966300 Ry
     Harris-Foulkes estimate   =   -1215.99967571 Ry
     estimated scf accuracy    <       0.00004134 Ry

     iteration # 12     ecut=   100.00 Ry     beta=0.50
     Davidson diagonalization with overlap
     ethr =  1.48E-08,  avg # of iterations =  1.4

     total cpu time spent up to now is     1205.2 secs

     total energy              =   -1215.99965830 Ry
     Harris-Foulkes estimate   =   -1215.99966445 Ry
     estimated scf accuracy    <       0.00001912 Ry

     iteration # 13     ecut=   100.00 Ry     beta=0.50
     Davidson diagonalization with overlap
     ethr =  6.83E-09,  avg # of iterations =  4.0

     total cpu time spent up to now is     1306.9 secs

     total energy              =   -1215.99966486 Ry
     Harris-Foulkes estimate   =   -1215.99966596 Ry
     estimated scf accuracy    <       0.00000702 Ry

     iteration # 14     ecut=   100.00 Ry     beta=0.50
     Davidson diagonalization with overlap
     ethr =  2.51E-09,  avg # of iterations =  1.0

     total cpu time spent up to now is     1367.0 secs

     total energy              =   -1215.99966178 Ry
     Harris-Foulkes estimate   =   -1215.99966493 Ry
     estimated scf accuracy    <       0.00000529 Ry

     iteration # 15     ecut=   100.00 Ry     beta=0.50
     Davidson diagonalization with overlap
     ethr =  1.89E-09,  avg # of iterations =  4.0

     total cpu time spent up to now is     1468.0 secs

     total energy              =   -1215.99966370 Ry
     Harris-Foulkes estimate   =   -1215.99966407 Ry
     estimated scf accuracy    <       0.00000090 Ry

     iteration # 16     ecut=   100.00 Ry     beta=0.50
     Davidson diagonalization with overlap
     ethr =  3.23E-10,  avg # of iterations =  1.4

     total cpu time spent up to now is     1528.5 secs

     total energy              =   -1215.99966355 Ry
     Harris-Foulkes estimate   =   -1215.99966374 Ry
     estimated scf accuracy    <       0.00000031 Ry

     iteration # 17     ecut=   100.00 Ry     beta=0.50
     Davidson diagonalization with overlap
     ethr =  1.10E-10,  avg # of iterations =  4.0

     total cpu time spent up to now is     1648.0 secs

     total energy              =   -1215.99966378 Ry
     Harris-Foulkes estimate   =   -1215.99966387 Ry
     estimated scf accuracy    <       0.00000023 Ry

     iteration # 18     ecut=   100.00 Ry     beta=0.50
     Davidson diagonalization with overlap
     ethr =  8.24E-11,  avg # of iterations =  1.0

     total cpu time spent up to now is     1708.0 secs

     total energy              =   -1215.99966374 Ry
     Harris-Foulkes estimate   =   -1215.99966379 Ry
     estimated scf accuracy    <       0.00000009 Ry

     iteration # 19     ecut=   100.00 Ry     beta=0.50
     Davidson diagonalization with overlap
     ethr =  3.07E-11,  avg # of iterations =  4.0

     total cpu time spent up to now is     1819.8 secs

     total energy              =   -1215.99966380 Ry
     Harris-Foulkes estimate   =   -1215.99966381 Ry
     estimated scf accuracy    <       0.00000004 Ry

     iteration # 20     ecut=   100.00 Ry     beta=0.50
     Davidson diagonalization with overlap
     ethr =  1.48E-11,  avg # of iterations =  1.0

     total cpu time spent up to now is     1879.9 secs

     total energy              =   -1215.99966379 Ry
     Harris-Foulkes estimate   =   -1215.99966380 Ry
     estimated scf accuracy    <       0.00000002 Ry

     iteration # 21     ecut=   100.00 Ry     beta=0.50
     Davidson diagonalization with overlap
     ethr =  8.52E-12,  avg # of iterations =  4.0

     total cpu time spent up to now is     1974.2 secs

     End of self-consistent calculation

          k = 0.0000 0.0000 0.0000 (109075 PWs)   bands (ev):

   -22.5726 -22.5725 -22.5289 -22.5288 -17.5666 -17.5665 -17.2755 -17.2755
   -16.6713 -16.6662 -16.6651 -16.6423 -16.3622 -16.3617 -16.3238 -16.3187
   -14.9504 -14.9275 -14.9234 -14.9036 -13.2906 -13.2859 -13.2679 -13.2294
   -11.6059 -11.5575 -11.5191 -11.4164 -10.9219 -10.9160 -10.8620 -10.7204
   -10.7062 -10.6431 -10.4389 -10.4385 -10.2108 -10.2042 -10.1108 -10.1087
    -9.9158  -9.8749  -9.6897  -9.6576  -9.1912  -9.1776  -8.7222  -8.7098
    -7.7368  -7.7119  -7.5065  -7.4764  -6.6563  -6.6093  -6.5360  -6.5048
    -5.9630  -5.9119  -5.8863  -5.8626  -5.7683  -5.6778  -5.6066  -5.5419
    -5.1966  -5.1891  -5.1831  -5.1681  -5.0273  -5.0035  -4.8122  -4.7408
    -4.2694  -4.2166  -3.9905  -3.9052  -3.8591  -3.8525  -3.8459  -3.7728
    -3.7313  -3.7195  -3.6538  -3.5900  -3.5817  -3.5434  -3.5357  -3.3934
    -3.3360  -3.3196  -3.1723  -3.1490  -3.1381  -3.0983  -3.0632  -3.0423
    -3.0386  -2.9672  -2.9353  -2.7900  -2.7884  -2.6870  -2.6795  -2.6351
    -2.5487  -2.5443  -2.4839  -2.3963  -2.3045  -2.2590  -2.2472  -2.2387
    -2.2291  -2.2225  -2.2074  -2.1335  -1.9926  -1.9657  -1.9612  -1.9412
    -1.9209  -1.8393  -1.8178  -1.8125  -1.7867  -1.7326  -1.5868  -1.5636
    -1.3601  -1.3302  -1.2398  -1.1719  -1.1336  -1.1114  -1.0698  -1.0680
    -1.0312  -1.0275  -1.0133  -0.9687   4.4917   4.5123   4.5131   4.5147
     4.8994   4.9138   4.9729   4.9732   5.7407   5.7436   5.7794   5.8216
     5.8492   5.8637   5.8690   5.9012   5.9146   6.3161   6.7164   6.8861
     7.2136   7.2496   7.5130   7.5752   7.7263   7.7542   7.7874   7.9705

          k = 0.0000 0.0000-0.7635 (108992 PWs)   bands (ev):

   -22.5510 -22.5510 -22.5509 -22.5509 -17.4286 -17.4286 -17.4286 -17.4286
   -16.6635 -16.6635 -16.6550 -16.6550 -16.3398 -16.3398 -16.3376 -16.3376
   -14.9365 -14.9365 -14.9149 -14.9149 -13.2795 -13.2795 -13.2576 -13.2576
   -11.5332 -11.5332 -11.5226 -11.5226 -10.7789 -10.7789 -10.7699 -10.7699
   -10.6383 -10.6383 -10.6322 -10.6322 -10.1573 -10.1573 -10.1536 -10.1536
    -9.7822  -9.7822  -9.7677  -9.7677  -8.9910  -8.9910  -8.9755  -8.9755
    -7.6438  -7.6438  -7.6167  -7.6167  -6.5773  -6.5773  -6.5703  -6.5703
    -5.8875  -5.8875  -5.8825  -5.8825  -5.6762  -5.6762  -5.6673  -5.6673
    -5.2072  -5.2072  -5.1986  -5.1986  -4.8749  -4.8749  -4.8663  -4.8663
    -4.0503  -4.0503  -3.9120  -3.9120  -3.8127  -3.8127  -3.7936  -3.7936
    -3.6874  -3.6874  -3.6814  -3.6814  -3.5303  -3.5303  -3.4343  -3.4343
    -3.2643  -3.2643  -3.2507  -3.2507  -3.0780  -3.0780  -3.0653  -3.0653
    -3.0118  -3.0118  -2.9221  -2.9221  -2.7065  -2.7065  -2.6772  -2.6772
    -2.6217  -2.6217  -2.4919  -2.4919  -2.3200  -2.3200  -2.2400  -2.2400
    -2.1747  -2.1747  -2.1465  -2.1465  -2.0067  -2.0067  -1.9980  -1.9980
    -1.8894  -1.8894  -1.7978  -1.7978  -1.7103  -1.7103  -1.6777  -1.6777
    -1.3040  -1.3040  -1.2845  -1.2845  -1.1344  -1.1344  -1.0947  -1.0947
    -0.9998  -0.9998  -0.9794  -0.9794   4.4954   4.4954   4.5058   4.5058
     4.9034   4.9034   4.9707   4.9707   5.7485   5.7485   5.8059   5.8059
     5.8446   5.8446   5.8517   5.8517   6.2849   6.2849   6.7092   6.7092
     7.2527   7.2527   7.6944   7.6944   7.9641   7.9641   8.0221   8.0221

          k = 0.0000 0.7813 0.0000 (108945 PWs)   bands (ev):

   -22.5723 -22.5722 -22.5286 -22.5285 -17.5661 -17.5660 -17.2755 -17.2752
   -16.6810 -16.6595 -16.6554 -16.6474 -16.3725 -16.3574 -16.3286 -16.3201
   -14.9491 -14.9147 -14.9125 -14.9024 -13.3069 -13.2933 -13.2917 -13.2298
   -11.5774 -11.5346 -11.5109 -11.4271 -10.9242 -10.9147 -10.9080 -10.7820
   -10.7197 -10.6513 -10.4539 -10.4530 -10.1796 -10.1765 -10.1091 -10.1034
    -9.8654  -9.8145  -9.6832  -9.6412  -9.2494  -9.2230  -8.7463  -8.7374
    -7.7438  -7.6943  -7.5167  -7.4629  -6.6619  -6.6127  -6.5512  -6.4643
    -5.8953  -5.8552  -5.8329  -5.7845  -5.7484  -5.7118  -5.6634  -5.5017
    -5.1725  -5.1698  -5.1578  -5.1429  -4.9852  -4.9329  -4.8157  -4.7235
    -4.2444  -4.1930  -4.1132  -4.0608  -3.9548  -3.9448  -3.8841  -3.8178
    -3.7989  -3.6920  -3.5476  -3.4906  -3.4524  -3.4467  -3.4369  -3.3698
    -3.3032  -3.3010  -3.2803  -3.1309  -3.1306  -3.1192  -3.1026  -3.0107
    -3.0101  -2.9571  -2.9304  -2.8971  -2.8417  -2.8123  -2.7185  -2.5971
    -2.5746  -2.5305  -2.4420  -2.4348  -2.2796  -2.2670  -2.2466  -2.2451
    -2.2127  -2.1578  -2.1164  -2.1111  -2.1025  -2.0678  -1.9948  -1.9617
    -1.9494  -1.9303  -1.9043  -1.7926  -1.7353  -1.6950  -1.6228  -1.6125
    -1.3431  -1.3113  -1.2062  -1.1784  -1.1638  -1.0963  -1.0600  -1.0448
    -1.0347  -0.9821  -0.9520  -0.9138   4.4432   4.4905   4.4996   4.5155
     4.8780   4.8959   4.9302   4.9477   5.6796   5.6962   5.7321   5.7736
     5.7814   5.8647   5.8967   5.9225   6.2862   6.5251   6.7808   6.9952
     7.1626   7.1638   7.2354   7.3498   7.4207   7.5621   7.6194   7.7249

          k = 0.0000 0.7813-0.7635 (108964 PWs)   bands (ev):

   -22.5507 -22.5507 -22.5506 -22.5506 -17.4283 -17.4283 -17.4281 -17.4281
   -16.6662 -16.6662 -16.6514 -16.6514 -16.3479 -16.3479 -16.3359 -16.3359
   -14.9295 -14.9295 -14.9087 -14.9087 -13.2932 -13.2932 -13.2681 -13.2681
   -11.5224 -11.5224 -11.5065 -11.5065 -10.8177 -10.8177 -10.7876 -10.7876
   -10.6508 -10.6508 -10.6402 -10.6402 -10.1428 -10.1428 -10.1333 -10.1333
    -9.7510  -9.7510  -9.7379  -9.7379  -9.0319  -9.0319  -9.0154  -9.0154
    -7.6528  -7.6528  -7.5996  -7.5996  -6.5949  -6.5949  -6.5422  -6.5422
    -5.8433  -5.8433  -5.7885  -5.7885  -5.7488  -5.7488  -5.6299  -5.6299
    -5.2071  -5.2071  -5.1669  -5.1669  -4.8196  -4.8196  -4.7972  -4.7972
    -4.0842  -4.0842  -4.0429  -4.0429  -3.9066  -3.9066  -3.8116  -3.8116
    -3.6898  -3.6898  -3.6198  -3.6198  -3.4282  -3.4282  -3.3484  -3.3484
    -3.3067  -3.3067  -3.2776  -3.2776  -3.0331  -3.0331  -3.0143  -3.0143
    -2.9908  -2.9908  -2.9616  -2.9616  -2.8175  -2.8175  -2.7838  -2.7838
    -2.5502  -2.5502  -2.4600  -2.4600  -2.2888  -2.2888  -2.2464  -2.2464
    -2.1790  -2.1790  -2.1345  -2.1345  -2.1084  -2.1084  -2.0076  -2.0076
    -1.9684  -1.9684  -1.9110  -1.9110  -1.6553  -1.6553  -1.6480  -1.6480
    -1.2976  -1.2976  -1.2826  -1.2826  -1.1196  -1.1196  -1.0165  -1.0165
    -1.0061  -1.0061  -0.9391  -0.9391   4.4617   4.4617   4.5047   4.5047
     4.8853   4.8853   4.9407   4.9407   5.6601   5.6601   5.7132   5.7132
     5.8553   5.8553   5.8876   5.8876   6.5775   6.5775   6.9009   6.9009
     7.2038   7.2038   7.2864   7.2864   7.7685   7.7687   7.8576   7.8576

          k =-0.5000 0.0000 0.0000 (108946 PWs)   bands (ev):

   -22.5725 -22.5725 -22.5288 -22.5288 -17.5666 -17.5666 -17.2755 -17.2755
   -16.6713 -16.6713 -16.6512 -16.6512 -16.3620 -16.3620 -16.3212 -16.3212
   -14.9391 -14.9391 -14.9134 -14.9134 -13.2901 -13.2901 -13.2468 -13.2468
   -11.5911 -11.5911 -11.4600 -11.4600 -10.9203 -10.9203 -10.8046 -10.8046
   -10.6584 -10.6584 -10.4386 -10.4386 -10.2073 -10.2073 -10.1097 -10.1097
    -9.8969  -9.8969  -9.6723  -9.6723  -9.1844  -9.1844  -8.7160  -8.7160
    -7.7250  -7.7250  -7.4920  -7.4920  -6.6358  -6.6358  -6.5153  -6.5153
    -5.9434  -5.9434  -5.8632  -5.8632  -5.7437  -5.7437  -5.5581  -5.5581
    -5.1905  -5.1905  -5.1809  -5.1809  -5.0172  -5.0172  -4.7743  -4.7743
    -4.2272  -4.2272  -3.9122  -3.9122  -3.8924  -3.8924  -3.8304  -3.8304
    -3.7090  -3.7090  -3.6795  -3.6795  -3.6045  -3.6045  -3.3896  -3.3896
    -3.3316  -3.3316  -3.1595  -3.1595  -3.0871  -3.0871  -3.0448  -3.0448
    -3.0237  -3.0237  -2.8640  -2.8640  -2.7278  -2.7278  -2.6331  -2.6331
    -2.5586  -2.5586  -2.4558  -2.4558  -2.2845  -2.2845  -2.2397  -2.2397
    -2.2320  -2.2320  -2.1773  -2.1773  -1.9784  -1.9784  -1.9539  -1.9539
    -1.8971  -1.8971  -1.7984  -1.7984  -1.7637  -1.7637  -1.5730  -1.5730
    -1.3321  -1.3321  -1.1999  -1.1999  -1.1076  -1.1076  -1.0835  -1.0835
    -1.0305  -1.0305  -0.9977  -0.9977   4.5002   4.5002   4.5161   4.5161
     4.9357   4.9357   4.9448   4.9448   5.7510   5.7510   5.8045   5.8045
     5.8384   5.8384   5.8779   5.8779   6.0681   6.0681   6.8928   6.8928
     7.2659   7.2659   7.3351   7.3351   7.9263   7.9264   8.0211   8.0212

          k =-0.5000 0.0000-0.7635 (108952 PWs)   bands (ev):

   -22.5509 -22.5509 -22.5509 -22.5509 -17.4286 -17.4286 -17.4286 -17.4286
   -16.6593 -16.6593 -16.6593 -16.6593 -16.3387 -16.3387 -16.3387 -16.3387
   -14.9257 -14.9257 -14.9257 -14.9257 -13.2685 -13.2685 -13.2685 -13.2685
   -11.5279 -11.5279 -11.5279 -11.5279 -10.7742 -10.7742 -10.7742 -10.7742
   -10.6354 -10.6354 -10.6354 -10.6354 -10.1554 -10.1554 -10.1554 -10.1554
    -9.7750  -9.7750  -9.7750  -9.7750  -8.9833  -8.9833  -8.9833  -8.9833
    -7.6309  -7.6309  -7.6309  -7.6309  -6.5724  -6.5724  -6.5724  -6.5724
    -5.8853  -5.8853  -5.8853  -5.8853  -5.6721  -5.6721  -5.6721  -5.6721
    -5.2044  -5.2044  -5.2044  -5.2044  -4.8693  -4.8693  -4.8693  -4.8693
    -3.9684  -3.9684  -3.9684  -3.9684  -3.8016  -3.8016  -3.8016  -3.8016
    -3.7079  -3.7079  -3.7079  -3.7079  -3.5139  -3.5139  -3.5139  -3.5139
    -3.2087  -3.2087  -3.2087  -3.2087  -3.0680  -3.0680  -3.0680  -3.0680
    -2.9845  -2.9845  -2.9845  -2.9845  -2.6841  -2.6841  -2.6841  -2.6841
    -2.5446  -2.5446  -2.5446  -2.5446  -2.3026  -2.3026  -2.3026  -2.3026
    -2.1517  -2.1517  -2.1517  -2.1517  -2.0054  -2.0054  -2.0054  -2.0054
    -1.8538  -1.8538  -1.8538  -1.8538  -1.6861  -1.6861  -1.6861  -1.6861
    -1.2819  -1.2819  -1.2819  -1.2819  -1.1218  -1.1218  -1.1218  -1.1218
    -0.9896  -0.9896  -0.9896  -0.9896   4.5007   4.5007   4.5007   4.5007
     4.9377   4.9377   4.9377   4.9377   5.7779   5.7779   5.7779   5.7779
     5.8377   5.8377   5.8377   5.8377   6.4574   6.4574   6.4574   6.4574
     7.5825   7.5825   7.5825   7.5825   7.8450   7.8451   7.8451   7.8451

          k =-0.5000 0.7813 0.0000 (108948 PWs)   bands (ev):

   -22.5722 -22.5722 -22.5286 -22.5286 -17.5660 -17.5660 -17.2754 -17.2754
   -16.6713 -16.6713 -16.6507 -16.6507 -16.3649 -16.3649 -16.3241 -16.3241
   -14.9341 -14.9341 -14.9054 -14.9054 -13.3074 -13.3074 -13.2533 -13.2533
   -11.5641 -11.5641 -11.4624 -11.4624 -10.9152 -10.9152 -10.8609 -10.8609
   -10.6723 -10.6723 -10.4535 -10.4535 -10.1781 -10.1781 -10.1062 -10.1062
    -9.8433  -9.8433  -9.6590  -9.6590  -9.2363  -9.2363  -8.7417  -8.7417
    -7.7190  -7.7190  -7.4894  -7.4894  -6.6410  -6.6410  -6.5104  -6.5104
    -5.8672  -5.8672  -5.7805  -5.7805  -5.7661  -5.7661  -5.5797  -5.5797
    -5.1723  -5.1723  -5.1483  -5.1483  -4.9653  -4.9653  -4.7629  -4.7629
    -4.2110  -4.2110  -4.0989  -4.0989  -3.9473  -3.9473  -3.8695  -3.8695
    -3.7313  -3.7313  -3.4921  -3.4921  -3.4662  -3.4662  -3.3695  -3.3695
    -3.3594  -3.3594  -3.1982  -3.1982  -3.1122  -3.1122  -3.0487  -3.0487
    -2.9904  -2.9904  -2.9020  -2.9020  -2.8454  -2.8454  -2.6638  -2.6638
    -2.5559  -2.5559  -2.4472  -2.4472  -2.2776  -2.2776  -2.1931  -2.1931
    -2.1752  -2.1752  -2.1365  -2.1365  -2.0486  -2.0486  -2.0107  -2.0107
    -1.9425  -1.9425  -1.8737  -1.8737  -1.7215  -1.7215  -1.6176  -1.6176
    -1.3292  -1.3292  -1.1933  -1.1933  -1.0600  -1.0600  -1.0482  -1.0482
    -1.0297  -1.0297  -0.9642  -0.9642   4.4706   4.4706   4.5039   4.5039
     4.9036   4.9036   4.9218   4.9218   5.6954   5.6954   5.7637   5.7637
     5.8149   5.8149   5.9117   5.9117   6.3561   6.3561   6.8957   6.8957
     7.1528   7.1528   7.3005   7.3005   7.4409   7.4409   7.7684   7.8212

          k =-0.5000 0.7813-0.7635 (108924 PWs)   bands (ev):

   -22.5506 -22.5506 -22.5506 -22.5506 -17.4283 -17.4283 -17.4282 -17.4282
   -16.6590 -16.6590 -16.6589 -16.6589 -16.3418 -16.3418 -16.3417 -16.3417
   -14.9192 -14.9192 -14.9191 -14.9191 -13.2806 -13.2806 -13.2805 -13.2805
   -11.5155 -11.5155 -11.5136 -11.5136 -10.8038 -10.8038 -10.8024 -10.8024
   -10.6453 -10.6453 -10.6447 -10.6447 -10.1423 -10.1423 -10.1339 -10.1339
    -9.7452  -9.7452  -9.7438  -9.7438  -9.0261  -9.0261  -9.0213  -9.0213
    -7.6269  -7.6269  -7.6250  -7.6250  -6.5717  -6.5717  -6.5711  -6.5711
    -5.8090  -5.8090  -5.8082  -5.8082  -5.6970  -5.6970  -5.6948  -5.6948
    -5.1870  -5.1870  -5.1854  -5.1854  -4.8090  -4.8090  -4.8071  -4.8071
    -4.0646  -4.0646  -4.0587  -4.0587  -3.8831  -3.8831  -3.8795  -3.8795
    -3.6372  -3.6372  -3.6013  -3.6013  -3.4030  -3.4030  -3.3828  -3.3828
    -3.3126  -3.3126  -3.2949  -3.2949  -3.0238  -3.0238  -3.0226  -3.0226
    -2.9788  -2.9788  -2.9675  -2.9675  -2.8116  -2.8116  -2.8065  -2.8065
    -2.5054  -2.5054  -2.4975  -2.4975  -2.2993  -2.2993  -2.2663  -2.2663
    -2.1317  -2.1317  -2.1302  -2.1302  -2.0712  -2.0712  -2.0493  -2.0493
    -1.9519  -1.9519  -1.9310  -1.9310  -1.6696  -1.6696  -1.6559  -1.6559
    -1.2914  -1.2914  -1.2888  -1.2888  -1.0579  -1.0579  -1.0434  -1.0434
    -0.9842  -0.9842  -0.9808  -0.9808   4.4782   4.4782   4.4882   4.4882
     4.9077   4.9077   4.9181   4.9181   5.6833   5.6833   5.6895   5.6895
     5.8759   5.8759   5.8761   5.8761   6.6893   6.6893   6.6901   6.6901
     7.2661   7.2661   7.2931   7.2931   7.8062   7.8064   7.8696   7.8699

     highest occupied, lowest unoccupied level (ev):    -0.9138    4.4432

!    total energy              =   -1215.99966380 Ry
     Harris-Foulkes estimate   =   -1215.99966380 Ry
     estimated scf accuracy    <          2.3E-10 Ry

     total all-electron energy =     -4690.426706 Ry

     The total energy is the sum of the following terms:

     one-electron contribution =    -702.48139512 Ry
     hartree contribution      =     449.50994349 Ry
     xc contribution           =    -277.32725363 Ry
     ewald contribution        =    -306.64674783 Ry
     Dispersion Correction     =      -0.49522071 Ry
     one-center paw contrib.   =    -378.55898998 Ry

     convergence has been achieved in  21 iterations

     Forces acting on atoms (cartesian axes, Ry/au):

     atom    1 type  2   force =    -0.00142881   -0.00101151   -0.00231749
     atom    2 type  2   force =     0.00142881    0.00101151   -0.00231749
     atom    3 type  2   force =    -0.00142881    0.00101151   -0.00231749
     atom    4 type  2   force =     0.00142881   -0.00101151   -0.00231749
     atom    5 type  3   force =     0.00030522    0.00156084    0.00238141
     atom    6 type  3   force =    -0.00030522   -0.00156084    0.00238141
     atom    7 type  3   force =     0.00030522   -0.00156084    0.00238141
     atom    8 type  3   force =    -0.00030522    0.00156084    0.00238141
     atom    9 type  2   force =     0.00017087    0.00010241   -0.00211229
     atom   10 type  2   force =    -0.00017087   -0.00010241   -0.00211229
     atom   11 type  2   force =     0.00017087   -0.00010241   -0.00211229
     atom   12 type  2   force =    -0.00017087    0.00010241   -0.00211229
     atom   13 type  2   force =     0.00141901    0.00065278    0.00201962
     atom   14 type  2   force =    -0.00141901   -0.00065278    0.00201962
     atom   15 type  2   force =     0.00141901   -0.00065278    0.00201962
     atom   16 type  2   force =    -0.00141901    0.00065278    0.00201962
     atom   17 type  2   force =    -0.00037265    0.00078624   -0.00010657
     atom   18 type  2   force =     0.00037265   -0.00078624   -0.00010657
     atom   19 type  2   force =    -0.00037265   -0.00078624   -0.00010657
     atom   20 type  2   force =     0.00037265    0.00078624   -0.00010657
     atom   21 type  1   force =    -0.00015263   -0.00043869   -0.00018448
     atom   22 type  1   force =     0.00015263    0.00043869   -0.00018448
     atom   23 type  1   force =    -0.00015263    0.00043869   -0.00018448
     atom   24 type  1   force =     0.00015263   -0.00043869   -0.00018448
     atom   25 type  1   force =    -0.00145257    0.00019573   -0.00001344
     atom   26 type  1   force =     0.00145257   -0.00019573   -0.00001344
     atom   27 type  1   force =    -0.00145257   -0.00019573   -0.00001344
     atom   28 type  1   force =     0.00145257    0.00019573   -0.00001344
     atom   29 type  1   force =    -0.00172018   -0.00054629   -0.00008321
     atom   30 type  1   force =     0.00172018    0.00054629   -0.00008321
     atom   31 type  1   force =    -0.00172018    0.00054629   -0.00008321
     atom   32 type  1   force =     0.00172018   -0.00054629   -0.00008321
     atom   33 type  1   force =     0.00083370   -0.00075023   -0.00006989
     atom   34 type  1   force =    -0.00083370    0.00075023   -0.00006989
     atom   35 type  1   force =     0.00083370    0.00075023   -0.00006989
     atom   36 type  1   force =    -0.00083370   -0.00075023   -0.00006989
     atom   37 type  2   force =    -0.00040580   -0.00007912    0.00011338
     atom   38 type  2   force =     0.00040580    0.00007912    0.00011338
     atom   39 type  2   force =    -0.00040580    0.00007912    0.00011338
     atom   40 type  2   force =     0.00040580   -0.00007912    0.00011338
     atom   41 type  1   force =     0.00065706   -0.00064231    0.00070546
     atom   42 type  1   force =    -0.00065706    0.00064231    0.00070546
     atom   43 type  1   force =     0.00065706    0.00064231    0.00070546
     atom   44 type  1   force =    -0.00065706   -0.00064231    0.00070546
     atom   45 type  3   force =    -0.00043753    0.00014549   -0.00003459
     atom   46 type  3   force =     0.00043753   -0.00014549   -0.00003459
     atom   47 type  3   force =    -0.00043753   -0.00014549   -0.00003459
     atom   48 type  3   force =     0.00043753    0.00014549   -0.00003459
     atom   49 type  3   force =     0.00057881    0.00026849    0.00014581
     atom   50 type  3   force =    -0.00057881   -0.00026849    0.00014581
     atom   51 type  3   force =     0.00057881   -0.00026849    0.00014581
     atom   52 type  3   force =    -0.00057881    0.00026849    0.00014581
     atom   53 type  3   force =    -0.00016352    0.00003080   -0.00044421
     atom   54 type  3   force =     0.00016352   -0.00003080   -0.00044421
     atom   55 type  3   force =    -0.00016352   -0.00003080   -0.00044421
     atom   56 type  3   force =     0.00016352    0.00003080   -0.00044421
     atom   57 type  1   force =     0.00027941   -0.00044643   -0.00070179
     atom   58 type  1   force =    -0.00027941    0.00044643   -0.00070179
     atom   59 type  1   force =     0.00027941    0.00044643   -0.00070179
     atom   60 type  1   force =    -0.00027941   -0.00044643   -0.00070179
     atom   61 type  3   force =    -0.00023974   -0.00029626    0.00030167
     atom   62 type  3   force =     0.00023974    0.00029626    0.00030167
     atom   63 type  3   force =    -0.00023974    0.00029626    0.00030167
     atom   64 type  3   force =     0.00023974   -0.00029626    0.00030167
     atom   65 type  3   force =     0.00010423    0.00014844    0.00023205
     atom   66 type  3   force =    -0.00010423   -0.00014844    0.00023205
     atom   67 type  3   force =     0.00010423   -0.00014844    0.00023205
     atom   68 type  3   force =    -0.00010423    0.00014844    0.00023205
     atom   69 type  3   force =    -0.00039375    0.00049326   -0.00015521
     atom   70 type  3   force =     0.00039375   -0.00049326   -0.00015521
     atom   71 type  3   force =    -0.00039375   -0.00049326   -0.00015521
     atom   72 type  3   force =     0.00039375    0.00049326   -0.00015521
     atom   73 type  1   force =     0.00091070    0.00065152    0.00138555
     atom   74 type  1   force =    -0.00091070   -0.00065152    0.00138555
     atom   75 type  1   force =     0.00091070   -0.00065152    0.00138555
     atom   76 type  1   force =    -0.00091070    0.00065152    0.00138555
     atom   77 type  3   force =     0.00090557   -0.00018272   -0.00008745
     atom   78 type  3   force =    -0.00090557    0.00018272   -0.00008745
     atom   79 type  3   force =     0.00090557    0.00018272   -0.00008745
     atom   80 type  3   force =    -0.00090557   -0.00018272   -0.00008745
     atom   81 type  3   force =    -0.00007148   -0.00087085    0.00052145
     atom   82 type  3   force =     0.00007148    0.00087085    0.00052145
     atom   83 type  3   force =    -0.00007148    0.00087085    0.00052145
     atom   84 type  3   force =     0.00007148   -0.00087085    0.00052145
     atom   85 type  3   force =     0.00047222    0.00036040   -0.00020890
     atom   86 type  3   force =    -0.00047222   -0.00036040   -0.00020890
     atom   87 type  3   force =     0.00047222   -0.00036040   -0.00020890
     atom   88 type  3   force =    -0.00047222    0.00036040   -0.00020890
     atom   89 type  1   force =     0.00093450    0.00068499   -0.00135371
     atom   90 type  1   force =    -0.00093450   -0.00068499   -0.00135371
     atom   91 type  1   force =     0.00093450   -0.00068499   -0.00135371
     atom   92 type  1   force =    -0.00093450    0.00068499   -0.00135371
     atom   93 type  3   force =     0.00058535    0.00034758    0.00042559
     atom   94 type  3   force =    -0.00058535   -0.00034758    0.00042559
     atom   95 type  3   force =     0.00058535   -0.00034758    0.00042559
     atom   96 type  3   force =    -0.00058535    0.00034758    0.00042559
     atom   97 type  3   force =    -0.00006436   -0.00069900   -0.00069438
     atom   98 type  3   force =     0.00006436    0.00069900   -0.00069438
     atom   99 type  3   force =    -0.00006436    0.00069900   -0.00069438
     atom  100 type  3   force =     0.00006436   -0.00069900   -0.00069438
     atom  101 type  3   force =     0.00116499    0.00004040    0.00033565
     atom  102 type  3   force =    -0.00116499   -0.00004040    0.00033565
     atom  103 type  3   force =     0.00116499   -0.00004040    0.00033565
     atom  104 type  3   force =    -0.00116499    0.00004040    0.00033565

     Total force =     0.014282     Total SCF correction =     0.000034


     Computing stress (Cartesian axis) and pressure

          total   stress  (Ry/bohr**3)                   (kbar)     P=   -7.71
  -0.00005039   0.00000000   0.00000000         -7.41      0.00      0.00
   0.00000000  -0.00003508   0.00000000          0.00     -5.16      0.00
   0.00000000   0.00000000  -0.00007169          0.00      0.00    -10.55


     Writing output data file scf.save
 
     init_run     :     41.17s CPU     42.92s WALL (       1 calls)
     electrons    :   1855.45s CPU   1930.81s WALL (       1 calls)
     forces       :     19.46s CPU     19.69s WALL (       1 calls)
     stress       :     86.16s CPU     86.52s WALL (       1 calls)

     Called by init_run:
     wfcinit      :     35.24s CPU     36.79s WALL (       1 calls)
     potinit      :      2.09s CPU      2.17s WALL (       1 calls)

     Called by electrons:
     c_bands      :   1675.31s CPU   1738.59s WALL (      21 calls)
     sum_band     :    162.83s CPU    172.83s WALL (      21 calls)
     v_of_rho     :      2.51s CPU      2.78s WALL (      22 calls)
     newd         :      5.39s CPU      7.05s WALL (      22 calls)
     PAW_pot      :      8.62s CPU      8.63s WALL (      22 calls)
     mix_rho      :      0.65s CPU      0.73s WALL (      21 calls)

     Called by c_bands:
     init_us_2    :      9.80s CPU      9.83s WALL (     360 calls)
     cegterg      :   1638.20s CPU   1701.38s WALL (     168 calls)

     Called by sum_band:
     sum_band:bec :      0.10s CPU      0.10s WALL (     168 calls)
     addusdens    :      5.68s CPU      7.29s WALL (      21 calls)

     Called by *egterg:
     h_psi        :    876.38s CPU    925.36s WALL (     873 calls)
     s_psi        :    211.57s CPU    211.64s WALL (     873 calls)
     g_psi        :      4.62s CPU      4.62s WALL (     697 calls)
     cdiaghg      :     77.83s CPU     77.86s WALL (     865 calls)

     Called by h_psi:
     h_psi:pot    :    869.94s CPU    918.82s WALL (     873 calls)
     h_psi:calbec :    203.10s CPU    203.50s WALL (     873 calls)
     vloc_psi     :    455.11s CPU    503.53s WALL (     873 calls)
     add_vuspsi   :    211.72s CPU    211.79s WALL (     873 calls)

     General routines
     calbec       :    287.35s CPU    287.90s WALL (    1081 calls)
     fft          :      1.30s CPU      1.75s WALL (     310 calls)
     fftw         :    484.58s CPU    538.61s WALL (  192178 calls)
 
     Parallel routines
     fft_scatter  :    110.39s CPU    157.49s WALL (  192488 calls)
 
     PWSCF        : 33m32.49s CPU    35m30.11s WALL

 
   This run was terminated on:   5:17: 0   4Nov2017            

=------------------------------------------------------------------------------=
   JOB DONE.
=------------------------------------------------------------------------------=
