
     Program PWSCF v.6.1 (svn rev. 13369) starts on  4Nov2017 at  5:17:18 

     This program is part of the open-source Quantum ESPRESSO suite
     for quantum simulation of materials; please cite
         "P. Giannozzi et al., J. Phys.:Condens. Matter 21 395502 (2009);
          URL http://www.quantum-espresso.org", 
     in publications or presentations arising from this work. More details at
     http://www.quantum-espresso.org/quote

     Parallel version (MPI), running on     8 processors
     R & G space division:  proc/nbgrp/npool/nimage =       8
     Waiting for input...
     Reading input from standard input

     Current dimensions of program PWSCF are:
     Max number of different atomic species (ntypx) = 10
     Max number of k-points (npk) =  40000
     Max angular momentum in pseudopotentials (lmaxx) =  3
               file C.pbe-n-kjpaw_psl.0.1.UPF: wavefunction(s)  2P renormalized
               file N.pbe-n-kjpaw_psl.0.1.UPF: wavefunction(s)  2P renormalized
               file H.pbe-kjpaw_psl.0.1.UPF: wavefunction(s)  1S renormalized
               file O.pbe-n-kjpaw_psl.0.1.UPF: wavefunction(s)  2P renormalized

     -------------------------------------
     Parameters for Dispersion Correction:
     -------------------------------------
       atom      VdW radius       C_6     

        C          2.744         60.710
        N          2.640         42.670
        H          1.892          4.857
        O          2.536         24.284

     Subspace diagonalization in iterative solution of the eigenvalue problem:
     a serial algorithm will be used

 
     Parallelization info
     --------------------
     sticks:   dense  smooth     PW     G-vecs:    dense   smooth      PW
     Min        2135    2135    559               138579   138579   18527
     Max        2136    2136    560               138580   138580   18528
     Sum       17083   17083   4475              1108637  1108637  148217
 


     bravais-lattice index     =            0
     lattice parameter (alat)  =      24.0424  a.u.
     unit-cell volume          =    8206.1652 (a.u.)^3
     number of atoms/cell      =          108
     number of atomic types    =            4
     number of electrons       =       480.00
     number of Kohn-Sham states=          288
     kinetic-energy cutoff     =     100.0000  Ry
     charge density cutoff     =     400.0000  Ry
     convergence threshold     =      1.0E-08
     mixing beta               =       0.5000
     number of iterations used =            8  plain     mixing
     Exchange-correlation      =  SLA  PW   PBX  PBC ( 1  4  3  4 0 0)

     celldm(1)=  24.042419  celldm(2)=   0.000000  celldm(3)=   0.000000
     celldm(4)=   0.000000  celldm(5)=   0.000000  celldm(6)=   0.000000

     crystal axes: (cart. coord. in units of alat)
               a(1) = (   1.000000   0.000000   0.000000 )  
               a(2) = (   0.000000   0.927830   0.000000 )  
               a(3) = (  -0.069136   0.000000   0.636411 )  

     reciprocal axes: (cart. coord. in units 2 pi/alat)
               b(1) = (  1.000000  0.000000  0.108635 )  
               b(2) = (  0.000000  1.077784  0.000000 )  
               b(3) = (  0.000000  0.000000  1.571312 )  


     PseudoPot. # 1 for  C read from file:
     /scratch/ahofstet/pseudo/C.pbe-n-kjpaw_psl.0.1.UPF
     MD5 check sum: 430fe95172b1e11ef3f8ed03bac87931
     Pseudo is Projector augmented-wave + core cor, Zval =  4.0
     Generated using "atomic" code by A. Dal Corso  v.5.0.99 svn rev. 10869
     Shape of augmentation charge: BESSEL
     Using radial grid of 1073 points,  4 beta functions with: 
                l(1) =   0
                l(2) =   0
                l(3) =   1
                l(4) =   1
     Q(r) pseudized with 0 coefficients 


     PseudoPot. # 2 for  N read from file:
     /scratch/ahofstet/pseudo/N.pbe-n-kjpaw_psl.0.1.UPF
     MD5 check sum: f73187c8b701007e77325f868c9291d7
     Pseudo is Projector augmented-wave + core cor, Zval =  5.0
     Generated using "atomic" code by A. Dal Corso  v.5.0.99 svn rev. 10869
     Shape of augmentation charge: PSQ
     Using radial grid of 1085 points,  4 beta functions with: 
                l(1) =   0
                l(2) =   0
                l(3) =   1
                l(4) =   1
     Q(r) pseudized with 0 coefficients 


     PseudoPot. # 3 for  H read from file:
     /scratch/ahofstet/pseudo/H.pbe-kjpaw_psl.0.1.UPF
     MD5 check sum: 94e484f906d9e9773b2f6e52662335b2
     Pseudo is Projector augmented-wave, Zval =  1.0
     Generated using "atomic" code by A. Dal Corso  v.5.0.99 svn rev. 10869
     Shape of augmentation charge: PSQ
     Using radial grid of  929 points,  2 beta functions with: 
                l(1) =   0
                l(2) =   0
     Q(r) pseudized with 0 coefficients 


     PseudoPot. # 4 for  O read from file:
     /scratch/ahofstet/pseudo/O.pbe-n-kjpaw_psl.0.1.UPF
     MD5 check sum: 3f94a2996a3169367d6eb21d9b593f20
     Pseudo is Projector augmented-wave + core cor, Zval =  6.0
     Generated using "atomic" code by A. Dal Corso  v.5.0.99 svn rev. 10869
     Shape of augmentation charge: BESSEL
     Using radial grid of 1095 points,  4 beta functions with: 
                l(1) =   0
                l(2) =   0
                l(3) =   1
                l(4) =   1
     Q(r) pseudized with 0 coefficients 


     atomic species   valence    mass     pseudopotential
        C              4.00    12.01070      C( 1.00)
        N              5.00    14.00670      N( 1.00)
        H              1.00     1.00794      H( 1.00)
        O              6.00    15.99940      O( 1.00)

      2 Sym. Ops., with inversion, found



   Cartesian axes

     site n.     atom                  positions (alat units)
         1           C   tau(   1) = (   0.2438703   0.4933784   0.5036521  )
         2           C   tau(   2) = (   0.6524267   0.0294694   0.4509447  )
         3           C   tau(   3) = (   0.6869934   0.4344514   0.1327586  )
         4           C   tau(   4) = (   0.2784370   0.8983604   0.1854660  )
         5           N   tau(   5) = (   0.3207568   0.4273774   0.4894680  )
         6           N   tau(   6) = (   0.5755317   0.8913075   0.4651419  )
         7           N   tau(   7) = (   0.6101068   0.5004524   0.1469427  )
         8           N   tau(   8) = (   0.3553319   0.0365223   0.1712688  )
         9           C   tau(   9) = (   0.2942179   0.3547194   0.4149560  )
        10           C   tau(  10) = (   0.6020884   0.8186372   0.5396324  )
        11           C   tau(  11) = (   0.6366457   0.5731104   0.2214547  )
        12           C   tau(  12) = (   0.3287752   0.1091926   0.0967783  )
        13           N   tau(  13) = (   0.3538789   0.2775703   0.3798181  )
        14           N   tau(  14) = (   0.5424256   0.7415009   0.5747934  )
        15           N   tau(  15) = (   0.5769848   0.6502595   0.2565926  )
        16           N   tau(  16) = (   0.3884381   0.1863289   0.0616173  )
        17           O   tau(  17) = (   0.2926228   0.2293422   0.3041377  )
        18           O   tau(  18) = (   0.6728369   0.6932639   0.0140414  )
        19           O   tau(  19) = (   0.6382409   0.6984876   0.3322730  )
        20           O   tau(  20) = (   0.2580268   0.2345659   0.6223693  )
        21           N   tau(  21) = (   0.1952328   0.2754235   0.2914502  )
        22           N   tau(  22) = (   0.7702390   0.7393286   0.0266953  )
        23           N   tau(  23) = (   0.7356309   0.6524063   0.3449605  )
        24           N   tau(  24) = (   0.1606246   0.1885012   0.6097154  )
        25           C   tau(  25) = (   0.1951395   0.3532230   0.3601538  )
        26           C   tau(  26) = (   0.7011864   0.8171275   0.5944003  )
        27           C   tau(  27) = (   0.7357242   0.5746068   0.2762569  )
        28           C   tau(  28) = (   0.2296773   0.1107023   0.0420104  )
        29           N   tau(  29) = (   0.1159026   0.4239917   0.3761721  )
        30           N   tau(  30) = (   0.7804321   0.8878821   0.5783537  )
        31           N   tau(  31) = (   0.8149610   0.5038381   0.2602386  )
        32           N   tau(  32) = (   0.1504315   0.0399477   0.0580570  )
        33           C   tau(  33) = (   0.1429686   0.4919693   0.4477022  )
        34           C   tau(  34) = (   0.7533531   0.0280342   0.5068363  )
        35           C   tau(  35) = (   0.7878950   0.4358605   0.1887085  )
        36           C   tau(  36) = (   0.1775106   0.8997955   0.1295744  )
        37           N   tau(  37) = (   0.0864303   0.5763151   0.4842120  )
        38           N   tau(  38) = (   0.8098851   0.1123827   0.4703068  )
        39           N   tau(  39) = (   0.8444334   0.3515146   0.1521987  )
        40           N   tau(  40) = (   0.1209786   0.8154471   0.1661039  )
        41           C   tau(  41) = (  -0.0140202   0.6126411   0.4464535  )
        42           C   tau(  42) = (   0.9103319   0.1487274   0.5080521  )
        43           C   tau(  43) = (   0.9448839   0.3151886   0.1899572  )
        44           C   tau(  44) = (   0.0205318   0.7791024   0.1283586  )
        45           H   tau(  45) = (  -0.0351689   0.5683604   0.3755710  )
        46           H   tau(  46) = (   0.9314747   0.1044712   0.5789514  )
        47           H   tau(  47) = (   0.9660326   0.3594693   0.2608397  )
        48           H   tau(  48) = (  -0.0006111   0.8233586   0.0574594  )
        49           H   tau(  49) = (  -0.0105839   0.6973956   0.4314288  )
        50           H   tau(  50) = (   0.9068812   0.2334858   0.5230625  )
        51           H   tau(  51) = (   0.9414476   0.2304342   0.2049819  )
        52           H   tau(  52) = (   0.0239825   0.6943439   0.1133482  )
        53           O   tau(  53) = (   0.9054200   0.6053209   0.5256798  )
        54           O   tau(  54) = (  -0.0091010   0.1413893   0.4288406  )
        55           O   tau(  55) = (   0.0254436   0.3225089   0.1107309  )
        56           O   tau(  56) = (   0.9399646   0.7864405   0.2075701  )
        57           N   tau(  57) = (   0.8599584   0.5012730   0.5359477  )
        58           N   tau(  58) = (   0.0363713   0.0373300   0.4186718  )
        59           N   tau(  59) = (   0.0709053   0.4265567   0.1004630  )
        60           N   tau(  60) = (   0.8944924   0.8904998   0.2177389  )
        61           O   tau(  61) = (   0.9002322   0.4301818   0.4870136  )
        62           O   tau(  62) = (  -0.0038940   0.8941105   0.4676149  )
        63           O   tau(  63) = (   0.0306315   0.4976480   0.1493971  )
        64           O   tau(  64) = (   0.9347576   0.0337192   0.1687958  )
        65           O   tau(  65) = (   0.7859077   0.5007340   0.5955997  )
        66           O   tau(  66) = (   0.1104706   0.0367764   0.3590339  )
        67           O   tau(  67) = (   0.1449560   0.4270958   0.0408111  )
        68           O   tau(  68) = (   0.8203930   0.8910534   0.2773768  )
        69           C   tau(  69) = (   0.1461380   0.6332125   0.5580667  )
        70           C   tau(  70) = (   0.7501487   0.1692873   0.3964856  )
        71           C   tau(  71) = (   0.7847257   0.2946173   0.0783440  )
        72           C   tau(  72) = (   0.1807150   0.7585425   0.2399251  )
        73           O   tau(  73) = (   0.1201127   0.7132109   0.6028851  )
        74           O   tau(  74) = (   0.7761623   0.2492973   0.3516656  )
        75           O   tau(  75) = (   0.8107510   0.2146189   0.0335256  )
        76           O   tau(  76) = (   0.1547014   0.6785325   0.2847451  )
        77           N   tau(  77) = (   0.2413590   0.5784197   0.5699874  )
        78           N   tau(  78) = (   0.6549159   0.1145169   0.3846230  )
        79           N   tau(  79) = (   0.6895047   0.3494101   0.0664233  )
        80           N   tau(  80) = (   0.2759477   0.8133129   0.2517877  )
        81           C   tau(  81) = (   0.3938630   0.6130649   0.0027078  )
        82           C   tau(  82) = (   0.5715207   0.1491591   0.3155475  )
        83           C   tau(  83) = (   0.5370006   0.3147649   0.6337029  )
        84           C   tau(  84) = (   0.3593429   0.7786707   0.3208632  )
        85           H   tau(  85) = (   0.3932685   0.5624664   0.6264984  )
        86           H   tau(  86) = (   0.5029882   0.0985513   0.3281810  )
        87           H   tau(  87) = (   0.5375952   0.3653634   0.0099123  )
        88           H   tau(  88) = (   0.4278755   0.8292784   0.3082297  )
        89           H   tau(  89) = (   0.3442580   0.6954559   0.6232766  )
        90           H   tau(  90) = (   0.5519917   0.2315505   0.3313830  )
        91           H   tau(  91) = (   0.5866057   0.2323739   0.0131341  )
        92           H   tau(  92) = (   0.3788720   0.6962793   0.3050277  )
        93           O   tau(  93) = (   0.3623812   0.6144847   0.1105950  )
        94           O   tau(  94) = (   0.6029719   0.1505875   0.2076403  )
        95           O   tau(  95) = (   0.5684825   0.3133451   0.5258158  )
        96           O   tau(  96) = (   0.3278918   0.7772423   0.4287704  )
        97           N   tau(  97) = (   0.3628462   0.5105459   0.1613593  )
        98           N   tau(  98) = (   0.6025639   0.0466596   0.1568597  )
        99           N   tau(  99) = (   0.5680175   0.4172838   0.4750514  )
       100           N   tau( 100) = (   0.3282997   0.8811702   0.4795510  )
       101           O   tau( 101) = (   0.3783030   0.4347837   0.1066529  )
       102           O   tau( 102) = (   0.5871339   0.8987040   0.2115653  )
       103           O   tau( 103) = (   0.5525606   0.4930461   0.5297578  )
       104           O   tau( 104) = (   0.3437298   0.0291258   0.4248454  )
       105           O   tau( 105) = (   0.3457228   0.5181063   0.2543926  )
       106           O   tau( 106) = (   0.6196939   0.0542275   0.0638375  )
       107           O   tau( 107) = (   0.5851409   0.4097235   0.3820181  )
       108           O   tau( 108) = (   0.3111697   0.8736023   0.5725732  )

     number of k points=     8
                       cart. coord. in units 2pi/alat
        k(    1) = (   0.0000000   0.0000000   0.0000000), wk =   0.1666667
        k(    2) = (   0.0000000   0.0000000   0.5237708), wk =   0.3333333
        k(    3) = (   0.0000000  -0.5388919   0.0000000), wk =   0.1666667
        k(    4) = (   0.0000000  -0.5388919   0.5237708), wk =   0.3333333
        k(    5) = (  -0.5000000   0.0000000  -0.0543174), wk =   0.1666667
        k(    6) = (  -0.5000000   0.0000000   0.4694534), wk =   0.3333333
        k(    7) = (  -0.5000000  -0.5388919  -0.0543174), wk =   0.1666667
        k(    8) = (  -0.5000000  -0.5388919   0.4694534), wk =   0.3333333

     Dense  grid:  1108637 G-vectors     FFT dimensions: ( 160, 144, 100)

     Estimated max dynamical RAM per process >    1623.36MB

     Estimated total allocated dynamical RAM >   12986.88MB

     Check: negative/imaginary core charge=   -0.000002    0.000000

     Initial potential from superposition of free atoms

     starting charge  479.99840, renormalised to  480.00000
     Starting wfc are  384 randomized atomic wfcs
     Checking if some PAW data can be deallocated... 

     total cpu time spent up to now is       88.3 secs

     per-process dynamical memory:  1056.7 Mb

     Self-consistent Calculation

     iteration #  1     ecut=   100.00 Ry     beta=0.50
     Davidson diagonalization with overlap
     ethr =  1.00E-02,  avg # of iterations =  3.0

     total cpu time spent up to now is      356.1 secs

     total energy              =   -2765.80510967 Ry
     Harris-Foulkes estimate   =   -2771.87132754 Ry
     estimated scf accuracy    <      11.01527828 Ry

     iteration #  2     ecut=   100.00 Ry     beta=0.50
     Davidson diagonalization with overlap
     ethr =  2.29E-03,  avg # of iterations =  3.0

     total cpu time spent up to now is      546.1 secs

     total energy              =   -2767.63221106 Ry
     Harris-Foulkes estimate   =   -2769.40630526 Ry
     estimated scf accuracy    <       3.88560525 Ry

     iteration #  3     ecut=   100.00 Ry     beta=0.50
     Davidson diagonalization with overlap
     ethr =  8.10E-04,  avg # of iterations =  6.4

     total cpu time spent up to now is      728.6 secs

     total energy              =   -2768.40765569 Ry
     Harris-Foulkes estimate   =   -2768.54842001 Ry
     estimated scf accuracy    <       0.37296347 Ry

     iteration #  4     ecut=   100.00 Ry     beta=0.50
     Davidson diagonalization with overlap
     ethr =  7.77E-05,  avg # of iterations = 10.4

     total cpu time spent up to now is     1019.6 secs

     total energy              =   -2768.48695576 Ry
     Harris-Foulkes estimate   =   -2768.53807692 Ry
     estimated scf accuracy    <       0.12774543 Ry

     iteration #  5     ecut=   100.00 Ry     beta=0.50
     Davidson diagonalization with overlap
     ethr =  2.66E-05,  avg # of iterations =  6.9

     total cpu time spent up to now is     1199.8 secs

     total energy              =   -2768.50803482 Ry
     Harris-Foulkes estimate   =   -2768.51782739 Ry
     estimated scf accuracy    <       0.02726477 Ry

     iteration #  6     ecut=   100.00 Ry     beta=0.50
     Davidson diagonalization with overlap
     ethr =  5.68E-06,  avg # of iterations =  9.0

     total cpu time spent up to now is     1422.1 secs

     total energy              =   -2768.51364305 Ry
     Harris-Foulkes estimate   =   -2768.51684404 Ry
     estimated scf accuracy    <       0.00860341 Ry

     iteration #  7     ecut=   100.00 Ry     beta=0.50
     Davidson diagonalization with overlap
     ethr =  1.79E-06,  avg # of iterations =  2.0

     total cpu time spent up to now is     1576.0 secs

     total energy              =   -2768.51517534 Ry
     Harris-Foulkes estimate   =   -2768.51549208 Ry
     estimated scf accuracy    <       0.00088612 Ry

     iteration #  8     ecut=   100.00 Ry     beta=0.50
     Davidson diagonalization with overlap
     ethr =  1.85E-07,  avg # of iterations =  4.0

     total cpu time spent up to now is     1822.1 secs

     total energy              =   -2768.51551336 Ry
     Harris-Foulkes estimate   =   -2768.51561039 Ry
     estimated scf accuracy    <       0.00026924 Ry

     iteration #  9     ecut=   100.00 Ry     beta=0.50
     Davidson diagonalization with overlap
     ethr =  5.61E-08,  avg # of iterations =  3.0

     total cpu time spent up to now is     1973.7 secs

     total energy              =   -2768.51554832 Ry
     Harris-Foulkes estimate   =   -2768.51556175 Ry
     estimated scf accuracy    <       0.00004057 Ry

     iteration # 10     ecut=   100.00 Ry     beta=0.50
     Davidson diagonalization with overlap
     ethr =  8.45E-09,  avg # of iterations =  4.0

     total cpu time spent up to now is     2222.1 secs

     total energy              =   -2768.51556372 Ry
     Harris-Foulkes estimate   =   -2768.51556978 Ry
     estimated scf accuracy    <       0.00001858 Ry

     iteration # 11     ecut=   100.00 Ry     beta=0.50
     Davidson diagonalization with overlap
     ethr =  3.87E-09,  avg # of iterations =  3.0

     total cpu time spent up to now is     2373.6 secs

     total energy              =   -2768.51556598 Ry
     Harris-Foulkes estimate   =   -2768.51556695 Ry
     estimated scf accuracy    <       0.00000288 Ry

     iteration # 12     ecut=   100.00 Ry     beta=0.50
     Davidson diagonalization with overlap
     ethr =  6.01E-10,  avg # of iterations =  3.5

     total cpu time spent up to now is     2597.7 secs

     total energy              =   -2768.51556702 Ry
     Harris-Foulkes estimate   =   -2768.51556720 Ry
     estimated scf accuracy    <       0.00000068 Ry

     iteration # 13     ecut=   100.00 Ry     beta=0.50
     Davidson diagonalization with overlap
     ethr =  1.42E-10,  avg # of iterations =  2.9

     total cpu time spent up to now is     2748.9 secs

     total energy              =   -2768.51556708 Ry
     Harris-Foulkes estimate   =   -2768.51556713 Ry
     estimated scf accuracy    <       0.00000015 Ry

     iteration # 14     ecut=   100.00 Ry     beta=0.50
     Davidson diagonalization with overlap
     ethr =  3.13E-11,  avg # of iterations =  4.0

     total cpu time spent up to now is     2985.9 secs

     total energy              =   -2768.51556713 Ry
     Harris-Foulkes estimate   =   -2768.51556715 Ry
     estimated scf accuracy    <       0.00000007 Ry

     iteration # 15     ecut=   100.00 Ry     beta=0.50
     Davidson diagonalization with overlap
     ethr =  1.40E-11,  avg # of iterations =  2.0

     total cpu time spent up to now is     3132.4 secs

     End of self-consistent calculation

          k = 0.0000 0.0000 0.0000 (138685 PWs)   bands (ev):

   -25.0449 -25.0439 -25.0048 -25.0040 -24.9648 -24.9628 -24.9621 -24.9602
   -22.3511 -22.3510 -22.3277 -22.3277 -20.5363 -20.5310 -20.5263 -20.5191
   -20.4992 -20.4931 -20.4730 -20.4602 -20.4177 -20.4124 -20.3745 -20.3615
   -19.6366 -19.6273 -19.6239 -19.6210 -19.4233 -19.4228 -19.4223 -19.4204
   -18.7347 -18.7300 -18.6870 -18.6854 -17.3235 -17.3205 -17.2880 -17.2837
   -17.1883 -17.1879 -17.1830 -17.1818 -16.1055 -16.0984 -16.0949 -16.0915
   -14.8973 -14.8910 -14.8909 -14.8885 -13.8287 -13.8280 -13.7874 -13.7837
   -12.4892 -12.4792 -12.4759 -12.4641 -11.3268 -11.3188 -11.3085 -11.2931
   -10.3962 -10.3895 -10.3571 -10.3542  -9.8564  -9.8433  -9.8330  -9.8319
    -9.5820  -9.5779  -9.5753  -9.5599  -8.5448  -8.4884  -8.4735  -8.4060
    -8.1041  -8.1012  -8.0998  -8.0466  -7.9327  -7.8731  -7.8478  -7.8309
    -7.6042  -7.4937  -7.4672  -7.4215  -7.2841  -7.2825  -7.1979  -7.1975
    -7.1587  -7.1517  -7.0261  -7.0012  -6.9236  -6.9230  -6.8402  -6.8108
    -6.7669  -6.7512  -6.7426  -6.7332  -6.4429  -6.3892  -6.3786  -6.3558
    -6.3520  -6.2487  -6.2398  -6.1572  -6.1553  -6.1549  -6.1244  -6.1166
    -5.7523  -5.6606  -5.5710  -5.5296  -5.4083  -5.4053  -5.3507  -5.3381
    -5.3280  -5.2921  -5.2851  -5.2722  -5.0713  -5.0141  -5.0057  -4.9627
    -4.8723  -4.8473  -4.7562  -4.7366  -4.4382  -4.3770  -4.3037  -4.1978
    -4.0206  -4.0049  -3.9808  -3.9523  -3.7823  -3.7450  -3.6460  -3.6135
    -3.1763  -3.1257  -3.1192  -3.0963  -2.9842  -2.9335  -2.9006  -2.8762
    -2.7817  -2.7712  -2.7450  -2.7386  -2.7076  -2.6903  -2.6751  -2.6180
    -2.2700  -2.2673  -2.2527  -2.2242  -1.5729  -1.5537  -1.4698  -1.4571
    -1.3805  -1.3718  -1.3703  -1.3576  -1.3033  -1.2477  -1.2156  -1.1790
    -1.1774  -1.1659  -1.1337  -1.1299  -1.1098  -1.0453  -1.0415  -1.0354
    -1.0108  -0.9992  -0.9879  -0.9807  -0.9749  -0.9739  -0.9316  -0.8777
    -0.8694  -0.8539  -0.8492  -0.8194  -0.7875  -0.7798  -0.7564  -0.7390
    -0.5478  -0.5470  -0.4926  -0.4382  -0.2921  -0.2672  -0.2620  -0.2566
    -0.2285  -0.2069  -0.2064  -0.2040  -0.0628  -0.0569  -0.0225  -0.0171
     0.1783   0.1979   0.2128   0.2227   0.8041   0.8043   0.8246   0.8413
     0.8459   0.8506   0.8585   0.9071   0.9451   0.9617   1.0924   1.1225
     3.9173   3.9203   3.9641   3.9798   4.1775   4.1813   4.3025   4.3075
     4.3627   4.3636   4.4117   4.4246   5.8242   5.8266   5.8345   5.8428
     6.3072   6.3172   6.3328   6.4608   6.4826   6.5089   6.5386   6.5465
     6.7141   6.7240   6.7983   6.8751   6.8805   6.8975   6.9021   7.1159
     7.9055   7.9250   8.0081   8.3517   8.4472   8.5077   8.7590   8.9766
     9.1062   9.1576   9.2047   9.2767   9.3227   9.4717   9.4847   9.5036

          k = 0.0000 0.0000 0.5238 (138592 PWs)   bands (ev):

   -25.0447 -25.0439 -25.0049 -25.0041 -24.9639 -24.9626 -24.9623 -24.9610
   -22.3453 -22.3453 -22.3336 -22.3336 -20.5399 -20.5385 -20.5264 -20.5230
   -20.4966 -20.4940 -20.4658 -20.4607 -20.4083 -20.3973 -20.3858 -20.3726
   -19.6338 -19.6275 -19.6257 -19.6225 -19.4226 -19.4219 -19.4210 -19.4202
   -18.7200 -18.7161 -18.6961 -18.6937 -17.3165 -17.3133 -17.2997 -17.2958
   -17.1877 -17.1856 -17.1840 -17.1820 -16.1039 -16.0985 -16.0983 -16.0951
   -14.8958 -14.8926 -14.8904 -14.8891 -13.8162 -13.8147 -13.7953 -13.7925
   -12.4932 -12.4878 -12.4709 -12.4659 -11.3183 -11.3117 -11.3086 -11.2987
   -10.3882 -10.3816 -10.3704 -10.3636  -9.8470  -9.8412  -9.8221  -9.8204
    -9.5880  -9.5849  -9.5768  -9.5681  -8.5222  -8.4888  -8.4806  -8.4342
    -8.1352  -8.1270  -8.1048  -8.0845  -7.8989  -7.8684  -7.8553  -7.8428
    -7.5466  -7.4937  -7.4510  -7.4356  -7.2706  -7.2687  -7.2291  -7.2287
    -7.1304  -7.1294  -7.0057  -6.9958  -6.9550  -6.9538  -6.8696  -6.8524
    -6.7779  -6.7757  -6.7053  -6.6934  -6.4027  -6.3771  -6.3657  -6.3561
    -6.3059  -6.2609  -6.1997  -6.1938  -6.1873  -6.1603  -6.1594  -6.1425
    -5.6588  -5.6182  -5.5161  -5.4941  -5.3889  -5.3774  -5.3673  -5.3105
    -5.3095  -5.2850  -5.2661  -5.2658  -5.0506  -5.0203  -5.0104  -4.9838
    -4.8868  -4.8624  -4.8291  -4.8062  -4.4117  -4.3583  -4.3542  -4.2708
    -4.0077  -4.0053  -3.9611  -3.9303  -3.7760  -3.7363  -3.7242  -3.6866
    -3.1567  -3.1298  -3.0985  -3.0846  -2.9628  -2.9322  -2.9056  -2.8718
    -2.7700  -2.7645  -2.7581  -2.7311  -2.7236  -2.6989  -2.6764  -2.6587
    -2.3004  -2.2879  -2.2449  -2.2423  -1.5729  -1.5519  -1.4796  -1.4631
    -1.3839  -1.3765  -1.3341  -1.3175  -1.2968  -1.2796  -1.2403  -1.2369
    -1.2140  -1.1593  -1.1513  -1.1264  -1.0961  -1.0924  -1.0717  -1.0515
    -0.9961  -0.9931  -0.9526  -0.9466  -0.9207  -0.9011  -0.8941  -0.8740
    -0.8411  -0.8335  -0.8283  -0.8240  -0.8053  -0.7921  -0.7900  -0.7432
    -0.5378  -0.5361  -0.4719  -0.4408  -0.2563  -0.2537  -0.2461  -0.2252
    -0.2201  -0.2155  -0.2012  -0.1769  -0.0478  -0.0473  -0.0197  -0.0184
     0.1876   0.1957   0.2062   0.2137   0.7883   0.7937   0.8244   0.8323
     0.8424   0.8610   0.8775   0.9002   0.9526   0.9611   1.0339   1.0485
     3.9219   3.9265   3.9452   3.9613   4.1649   4.1719   4.2787   4.2800
     4.3863   4.3897   4.4367   4.4377   5.8271   5.8369   5.8404   5.8517
     6.3318   6.3386   6.3624   6.4242   6.4339   6.4849   6.5178   6.5221
     6.7505   6.7578   6.8410   6.8543   6.8883   6.8977   6.9549   7.0714
     7.9827   7.9855   8.0362   8.2125   8.4825   8.6899   8.8020   8.8557
     8.9735   9.1200   9.1438   9.1869   9.3621   9.4142   9.4192   9.4543

          k = 0.0000-0.5389 0.0000 (138604 PWs)   bands (ev):

   -25.0448 -25.0441 -25.0047 -25.0040 -24.9646 -24.9633 -24.9616 -24.9603
   -22.3511 -22.3511 -22.3277 -22.3277 -20.5348 -20.5343 -20.5222 -20.5212
   -20.4974 -20.4965 -20.4659 -20.4657 -20.4159 -20.4157 -20.3675 -20.3672
   -19.6330 -19.6328 -19.6215 -19.6213 -19.4233 -19.4227 -19.4217 -19.4211
   -18.7277 -18.7277 -18.6912 -18.6912 -17.3058 -17.3055 -17.3003 -17.3001
   -17.1897 -17.1897 -17.1827 -17.1826 -16.1007 -16.1003 -16.0949 -16.0944
   -14.8943 -14.8940 -14.8897 -14.8895 -13.8272 -13.8271 -13.7868 -13.7868
   -12.4845 -12.4845 -12.4696 -12.4695 -11.3231 -11.3227 -11.3012 -11.3009
   -10.3826 -10.3824 -10.3658 -10.3656  -9.8514  -9.8512  -9.8318  -9.8317
    -9.5830  -9.5829  -9.5650  -9.5649  -8.5194  -8.5193  -8.4367  -8.4365
    -8.1019  -8.1017  -8.0668  -8.0666  -7.9011  -7.9007  -7.8435  -7.8431
    -7.5602  -7.5602  -7.4409  -7.4408  -7.2836  -7.2833  -7.1987  -7.1985
    -7.1533  -7.1529  -7.0160  -7.0155  -6.9236  -6.9231  -6.8364  -6.8360
    -6.7607  -6.7607  -6.7352  -6.7350  -6.4098  -6.4097  -6.3734  -6.3734
    -6.2971  -6.2963  -6.2026  -6.2022  -6.1578  -6.1572  -6.1094  -6.1089
    -5.7052  -5.7049  -5.5266  -5.5266  -5.4170  -5.4167  -5.3445  -5.3440
    -5.2904  -5.2903  -5.2717  -5.2716  -5.0605  -5.0604  -4.9825  -4.9825
    -4.9191  -4.9189  -4.7192  -4.7192  -4.4140  -4.4140  -4.2361  -4.2360
    -4.0040  -4.0039  -3.9735  -3.9733  -3.7559  -3.7559  -3.6463  -3.6463
    -3.1708  -3.1708  -3.0933  -3.0933  -2.9478  -2.9477  -2.8684  -2.8682
    -2.7656  -2.7655  -2.7590  -2.7589  -2.6999  -2.6997  -2.6421  -2.6421
    -2.2603  -2.2603  -2.2522  -2.2520  -1.5555  -1.5554  -1.4561  -1.4557
    -1.3969  -1.3968  -1.3708  -1.3707  -1.3065  -1.3060  -1.2401  -1.2400
    -1.1983  -1.1981  -1.1069  -1.1065  -1.0508  -1.0507  -1.0394  -1.0394
    -1.0187  -1.0180  -0.9944  -0.9936  -0.9506  -0.9502  -0.8905  -0.8905
    -0.8548  -0.8548  -0.8135  -0.8129  -0.7762  -0.7760  -0.7239  -0.7239
    -0.5319  -0.5318  -0.5096  -0.5094  -0.2709  -0.2700  -0.2529  -0.2523
    -0.2320  -0.2315  -0.1975  -0.1971  -0.0334  -0.0333  -0.0326  -0.0325
     0.1817   0.1818   0.2276   0.2277   0.7893   0.7894   0.8088   0.8089
     0.8461   0.8463   0.8837   0.8838   1.0068   1.0069   1.0713   1.0713
     3.9449   3.9453   3.9557   3.9561   4.1755   4.1761   4.3026   4.3028
     4.3621   4.3627   4.4180   4.4181   5.8216   5.8217   5.8379   5.8381
     6.2773   6.2774   6.4037   6.4040   6.5265   6.5266   6.5501   6.5503
     6.7441   6.7442   6.8246   6.8249   6.8505   6.8510   7.0129   7.0136
     7.8494   7.8494   8.2785   8.2786   8.5323   8.5324   8.7850   8.7851
     8.9857   8.9857   9.3213   9.3213   9.4302   9.4304   9.4712   9.4713

          k = 0.0000-0.5389 0.5238 (138558 PWs)   bands (ev):

   -25.0446 -25.0439 -25.0049 -25.0042 -24.9639 -24.9628 -24.9621 -24.9610
   -22.3453 -22.3453 -22.3336 -22.3336 -20.5395 -20.5389 -20.5251 -20.5241
   -20.4958 -20.4950 -20.4633 -20.4631 -20.4042 -20.4041 -20.3782 -20.3777
   -19.6315 -19.6311 -19.6237 -19.6234 -19.4224 -19.4216 -19.4213 -19.4204
   -18.7158 -18.7158 -18.6972 -18.6972 -17.3090 -17.3087 -17.3047 -17.3044
   -17.1868 -17.1866 -17.1821 -17.1819 -16.1015 -16.1010 -16.0970 -16.0966
   -14.8932 -14.8929 -14.8909 -14.8906 -13.8150 -13.8150 -13.7945 -13.7945
   -12.4890 -12.4886 -12.4701 -12.4697 -11.3141 -11.3138 -11.3053 -11.3050
   -10.3818 -10.3813 -10.3708 -10.3703  -9.8440  -9.8437  -9.8217  -9.8216
    -9.5863  -9.5861  -9.5731  -9.5729  -8.5089  -8.5087  -8.4542  -8.4540
    -8.1263  -8.1262  -8.0935  -8.0933  -7.8805  -7.8801  -7.8540  -7.8535
    -7.5235  -7.5235  -7.4423  -7.4423  -7.2710  -7.2708  -7.2272  -7.2270
    -7.1312  -7.1309  -7.0064  -7.0059  -6.9560  -6.9556  -6.8616  -6.8615
    -6.7766  -6.7766  -6.6984  -6.6981  -6.3894  -6.3891  -6.3639  -6.3637
    -6.2645  -6.2639  -6.2074  -6.2071  -6.1804  -6.1800  -6.1475  -6.1470
    -5.6314  -5.6311  -5.5062  -5.5060  -5.3707  -5.3705  -5.3542  -5.3538
    -5.2858  -5.2857  -5.2746  -5.2745  -5.0496  -5.0496  -4.9943  -4.9943
    -4.8983  -4.8982  -4.7996  -4.7995  -4.3865  -4.3864  -4.2951  -4.2948
    -3.9956  -3.9954  -3.9633  -3.9631  -3.7476  -3.7476  -3.7064  -3.7063
    -3.1420  -3.1420  -3.0824  -3.0824  -2.9630  -2.9629  -2.9021  -2.9020
    -2.7626  -2.7626  -2.7391  -2.7388  -2.6987  -2.6985  -2.6725  -2.6724
    -2.2878  -2.2877  -2.2532  -2.2531  -1.5661  -1.5656  -1.4828  -1.4827
    -1.3769  -1.3767  -1.3511  -1.3508  -1.3151  -1.3148  -1.2503  -1.2501
    -1.1574  -1.1571  -1.1247  -1.1244  -1.1048  -1.1044  -1.0331  -1.0327
    -0.9685  -0.9681  -0.9384  -0.9379  -0.9096  -0.9092  -0.8772  -0.8769
    -0.8585  -0.8583  -0.8199  -0.8196  -0.8128  -0.8126  -0.7512  -0.7512
    -0.5341  -0.5340  -0.5095  -0.5092  -0.2529  -0.2523  -0.2332  -0.2331
    -0.2188  -0.2184  -0.1701  -0.1698  -0.0314  -0.0312  -0.0228  -0.0226
     0.1897   0.1899   0.2140   0.2141   0.7962   0.7963   0.8264   0.8264
     0.8551   0.8554   0.8878   0.8880   0.9728   0.9730   1.0079   1.0081
     3.9375   3.9380   3.9458   3.9462   4.1674   4.1679   4.2754   4.2755
     4.3888   4.3890   4.4359   4.4364   5.8292   5.8294   5.8482   5.8485
     6.3155   6.3157   6.3938   6.3940   6.4872   6.4875   6.5112   6.5114
     6.7756   6.7759   6.8486   6.8489   6.8891   6.8897   6.9865   6.9873
     7.9447   7.9447   8.1754   8.1755   8.6081   8.6082   8.8645   8.8647
     8.9377   8.9379   9.1813   9.1815   9.2820   9.2822   9.4152   9.4154

          k =-0.5000 0.0000-0.0543 (138656 PWs)   bands (ev):

   -25.0449 -25.0439 -25.0048 -25.0040 -24.9644 -24.9625 -24.9624 -24.9606
   -22.3511 -22.3510 -22.3277 -22.3277 -20.5407 -20.5349 -20.5208 -20.5138
   -20.4996 -20.4939 -20.4733 -20.4602 -20.4191 -20.4116 -20.3762 -20.3602
   -19.6360 -19.6278 -19.6235 -19.6214 -19.4243 -19.4234 -19.4219 -19.4193
   -18.7352 -18.7295 -18.6875 -18.6849 -17.3223 -17.3218 -17.2865 -17.2853
   -17.1903 -17.1858 -17.1832 -17.1815 -16.1070 -16.0970 -16.0945 -16.0919
   -14.8958 -14.8938 -14.8902 -14.8881 -13.8294 -13.8273 -13.7859 -13.7852
   -12.5003 -12.4795 -12.4648 -12.4638 -11.3301 -11.3194 -11.3008 -11.2966
   -10.3935 -10.3915 -10.3594 -10.3517  -9.8637  -9.8520  -9.8238  -9.8235
    -9.5925  -9.5696  -9.5686  -9.5665  -8.5420  -8.4888  -8.4637  -8.4298
    -8.1168  -8.1011  -8.0930  -8.0415  -7.8802  -7.8795  -7.8571  -7.8476
    -7.6318  -7.4906  -7.4466  -7.4223  -7.2421  -7.2409  -7.2287  -7.2156
    -7.1530  -7.1501  -7.0721  -7.0527  -6.8760  -6.8713  -6.8283  -6.8254
    -6.8239  -6.8179  -6.7025  -6.7000  -6.4311  -6.3909  -6.3713  -6.3646
    -6.3147  -6.2446  -6.2438  -6.1983  -6.1716  -6.1308  -6.1292  -6.1243
    -5.7187  -5.6490  -5.6418  -5.5313  -5.4327  -5.4248  -5.3492  -5.3175
    -5.2921  -5.2911  -5.2841  -5.2740  -5.0533  -5.0022  -4.9904  -4.9519
    -4.9248  -4.8276  -4.7715  -4.7270  -4.4243  -4.3959  -4.2569  -4.2431
    -4.0180  -4.0027  -3.9689  -3.9547  -3.7711  -3.7513  -3.6585  -3.6000
    -3.1547  -3.1463  -3.1246  -3.1115  -2.9636  -2.9568  -2.9078  -2.8740
    -2.7822  -2.7719  -2.7509  -2.7223  -2.7064  -2.6809  -2.6595  -2.6460
    -2.2826  -2.2807  -2.2374  -2.2027  -1.5320  -1.5251  -1.5000  -1.4734
    -1.4181  -1.4054  -1.3687  -1.3646  -1.3044  -1.2365  -1.2252  -1.1994
    -1.1594  -1.1555  -1.1454  -1.1114  -1.0908  -1.0677  -1.0414  -1.0334
    -1.0260  -0.9860  -0.9777  -0.9547  -0.9457  -0.9295  -0.9013  -0.9007
    -0.8949  -0.8877  -0.8526  -0.8510  -0.8098  -0.7650  -0.7399  -0.7381
    -0.5661  -0.5051  -0.4773  -0.4560  -0.2932  -0.2889  -0.2861  -0.2518
    -0.2131  -0.2086  -0.2074  -0.1903  -0.0571  -0.0455  -0.0267  -0.0144
     0.1706   0.1979   0.2007   0.2100   0.7944   0.8080   0.8191   0.8408
     0.8461   0.8581   0.8940   0.9008   0.9174   0.9765   1.1075   1.1087
     3.9159   3.9211   3.9626   3.9829   4.1760   4.1823   4.2922   4.3013
     4.3789   4.3887   4.4044   4.4108   5.8126   5.8323   5.8331   5.8426
     6.3285   6.3341   6.3930   6.4002   6.4509   6.4927   6.5416   6.5595
     6.6777   6.7535   6.8033   6.8597   6.8994   6.9108   6.9241   7.0996
     7.9119   7.9872   8.1300   8.1560   8.3404   8.5131   8.7057   9.0130
     9.1339   9.1603   9.2407   9.2913   9.3332   9.4227   9.4743   9.4982

          k =-0.5000 0.0000 0.4695 (138610 PWs)   bands (ev):

   -25.0447 -25.0439 -25.0049 -25.0042 -24.9639 -24.9626 -24.9623 -24.9610
   -22.3453 -22.3453 -22.3336 -22.3336 -20.5429 -20.5410 -20.5231 -20.5204
   -20.4958 -20.4938 -20.4660 -20.4607 -20.4102 -20.3961 -20.3877 -20.3713
   -19.6331 -19.6270 -19.6264 -19.6231 -19.4239 -19.4230 -19.4201 -19.4187
   -18.7207 -18.7155 -18.6967 -18.6931 -17.3154 -17.3145 -17.2985 -17.2971
   -17.1882 -17.1851 -17.1833 -17.1826 -16.1056 -16.0997 -16.0967 -16.0938
   -14.8958 -14.8948 -14.8892 -14.8881 -13.8165 -13.8144 -13.7947 -13.7932
   -12.5045 -12.4966 -12.4594 -12.4569 -11.3278 -11.3249 -11.2924 -11.2922
   -10.3876 -10.3819 -10.3713 -10.3626  -9.8585  -9.8519  -9.8097  -9.8087
    -9.5910  -9.5794  -9.5744  -9.5742  -8.5319  -8.4933  -8.4574  -8.4258
    -8.1579  -8.1376  -8.1008  -8.0815  -7.8976  -7.8824  -7.8477  -7.8439
    -7.5751  -7.5034  -7.4239  -7.4162  -7.2538  -7.2445  -7.2279  -7.2257
    -7.1327  -7.1257  -7.0984  -7.0818  -6.8809  -6.8796  -6.8413  -6.8280
    -6.7767  -6.7727  -6.7308  -6.7208  -6.4097  -6.3873  -6.3533  -6.3450
    -6.3069  -6.2674  -6.2145  -6.1829  -6.1724  -6.1661  -6.1606  -6.1524
    -5.6366  -5.5840  -5.5695  -5.5687  -5.4119  -5.3988  -5.3229  -5.3019
    -5.2958  -5.2807  -5.2418  -5.2367  -5.0447  -5.0167  -5.0122  -4.9676
    -4.9209  -4.8532  -4.8390  -4.8040  -4.4116  -4.3664  -4.3225  -4.3111
    -4.0048  -4.0033  -3.9594  -3.9314  -3.7707  -3.7335  -3.7286  -3.6776
    -3.1459  -3.1266  -3.1126  -3.0977  -2.9403  -2.9336  -2.9168  -2.8896
    -2.7738  -2.7714  -2.7517  -2.7460  -2.7026  -2.7007  -2.6767  -2.6577
    -2.3058  -2.2881  -2.2447  -2.2343  -1.5577  -1.5489  -1.4956  -1.4889
    -1.4023  -1.3946  -1.3284  -1.2926  -1.2700  -1.2536  -1.2277  -1.2089
    -1.1738  -1.1659  -1.1527  -1.1499  -1.1181  -1.1129  -1.0632  -1.0588
    -1.0432  -1.0042  -0.9688  -0.9671  -0.9181  -0.8946  -0.8854  -0.8518
    -0.8359  -0.8325  -0.8235  -0.8199  -0.8087  -0.7882  -0.7558  -0.7485
    -0.5411  -0.4949  -0.4764  -0.4736  -0.2729  -0.2574  -0.2411  -0.2404
    -0.2102  -0.1976  -0.1919  -0.1874  -0.0495  -0.0414  -0.0241  -0.0068
     0.1731   0.1822   0.2162   0.2262   0.7923   0.7947   0.8163   0.8325
     0.8519   0.8555   0.8813   0.8824   0.9347   0.9755   1.0256   1.0562
     3.9186   3.9294   3.9454   3.9613   4.1624   4.1674   4.3074   4.3150
     4.3397   4.3448   4.4559   4.4589   5.8117   5.8203   5.8510   5.8553
     6.3151   6.3335   6.3684   6.4263   6.4664   6.4701   6.5003   6.5401
     6.7558   6.7881   6.8249   6.8294   6.9057   6.9151   6.9536   7.0576
     7.9451   8.0407   8.0803   8.1442   8.4186   8.6444   8.6959   9.0105
     9.0909   9.1050   9.1341   9.2155   9.3180   9.4374   9.4531   9.4881

          k =-0.5000-0.5389-0.0543 (138580 PWs)   bands (ev):

   -25.0447 -25.0441 -25.0048 -25.0041 -24.9642 -24.9631 -24.9618 -24.9607
   -22.3511 -22.3511 -22.3277 -22.3277 -20.5387 -20.5381 -20.5171 -20.5160
   -20.4979 -20.4971 -20.4661 -20.4658 -20.4166 -20.4164 -20.3674 -20.3671
   -19.6327 -19.6325 -19.6218 -19.6216 -19.4243 -19.4234 -19.4210 -19.4201
   -18.7278 -18.7278 -18.6912 -18.6912 -17.3050 -17.3049 -17.3009 -17.3008
   -17.1901 -17.1898 -17.1824 -17.1822 -16.1000 -16.0996 -16.0956 -16.0952
   -14.8922 -14.8922 -14.8916 -14.8916 -13.8271 -13.8271 -13.7868 -13.7868
   -12.4922 -12.4918 -12.4624 -12.4620 -11.3159 -11.3157 -11.3082 -11.3079
   -10.3823 -10.3821 -10.3658 -10.3655  -9.8589  -9.8586  -9.8236  -9.8235
    -9.5861  -9.5859  -9.5633  -9.5631  -8.5053  -8.5053  -8.4534  -8.4534
    -8.0999  -8.0997  -8.0771  -8.0770  -7.8700  -7.8700  -7.8630  -7.8628
    -7.5689  -7.5688  -7.4293  -7.4291  -7.2433  -7.2431  -7.2183  -7.2183
    -7.1533  -7.1529  -7.0648  -7.0644  -6.8757  -6.8747  -6.8477  -6.8476
    -6.8062  -6.8061  -6.7017  -6.7015  -6.4031  -6.4030  -6.3713  -6.3713
    -6.2872  -6.2864  -6.2218  -6.2216  -6.1572  -6.1569  -6.1121  -6.1116
    -5.6788  -5.6785  -5.5814  -5.5813  -5.4133  -5.4128  -5.3309  -5.3309
    -5.2985  -5.2985  -5.2593  -5.2593  -5.0513  -5.0512  -4.9734  -4.9731
    -4.9215  -4.9214  -4.7240  -4.7239  -4.4119  -4.4117  -4.2423  -4.2423
    -4.0057  -4.0055  -3.9648  -3.9645  -3.7538  -3.7538  -3.6445  -3.6444
    -3.1662  -3.1662  -3.1066  -3.1065  -2.9511  -2.9511  -2.8666  -2.8665
    -2.7753  -2.7753  -2.7476  -2.7474  -2.6803  -2.6803  -2.6628  -2.6628
    -2.2626  -2.2625  -2.2464  -2.2462  -1.5285  -1.5281  -1.4998  -1.4998
    -1.3976  -1.3972  -1.3899  -1.3895  -1.2684  -1.2684  -1.2657  -1.2656
    -1.1551  -1.1551  -1.1190  -1.1188  -1.0736  -1.0736  -1.0383  -1.0381
    -1.0095  -1.0094  -0.9744  -0.9744  -0.9240  -0.9231  -0.9136  -0.9132
    -0.8674  -0.8673  -0.8274  -0.8273  -0.7752  -0.7747  -0.7233  -0.7232
    -0.5457  -0.5456  -0.4806  -0.4806  -0.2764  -0.2760  -0.2597  -0.2589
    -0.2327  -0.2325  -0.1980  -0.1976  -0.0420  -0.0420  -0.0108  -0.0108
     0.1863   0.1864   0.2078   0.2078   0.7769   0.7770   0.8151   0.8152
     0.8614   0.8617   0.8779   0.8780   1.0136   1.0136   1.0669   1.0669
     3.9477   3.9481   3.9532   3.9535   4.1752   4.1757   4.2946   4.2947
     4.3818   4.3823   4.4084   4.4085   5.8196   5.8199   5.8359   5.8360
     6.3064   6.3065   6.3905   6.3906   6.5141   6.5144   6.5438   6.5440
     6.7396   6.7401   6.8311   6.8317   6.8763   6.8767   7.0015   7.0024
     7.8776   7.8778   8.2811   8.2812   8.4868   8.4869   8.6825   8.6828
     9.0023   9.0026   9.3483   9.3486   9.4636   9.4636   9.5100   9.5102

          k =-0.5000-0.5389 0.4695 (138526 PWs)   bands (ev):

   -25.0446 -25.0439 -25.0049 -25.0042 -24.9638 -24.9628 -24.9621 -24.9611
   -22.3453 -22.3453 -22.3336 -22.3336 -20.5422 -20.5416 -20.5222 -20.5211
   -20.4953 -20.4945 -20.4634 -20.4632 -20.4054 -20.4051 -20.3777 -20.3772
   -19.6309 -19.6306 -19.6242 -19.6239 -19.4238 -19.4230 -19.4200 -19.4190
   -18.7159 -18.7159 -18.6971 -18.6971 -17.3083 -17.3082 -17.3053 -17.3052
   -17.1868 -17.1865 -17.1821 -17.1819 -16.1014 -16.1009 -16.0971 -16.0967
   -14.8939 -14.8936 -14.8902 -14.8900 -13.8150 -13.8150 -13.7945 -13.7945
   -12.5005 -12.5000 -12.4585 -12.4580 -11.3199 -11.3196 -11.2995 -11.2992
   -10.3816 -10.3811 -10.3708 -10.3703  -9.8550  -9.8547  -9.8098  -9.8096
    -9.5861  -9.5859  -9.5741  -9.5739  -8.5058  -8.5056  -8.4459  -8.4457
    -8.1450  -8.1448  -8.0949  -8.0946  -7.8913  -7.8910  -7.8458  -7.8454
    -7.5319  -7.5318  -7.4246  -7.4245  -7.2501  -7.2500  -7.2252  -7.2252
    -7.1330  -7.1328  -7.0943  -7.0941  -6.8801  -6.8792  -6.8374  -6.8373
    -6.7724  -6.7722  -6.7265  -6.7261  -6.3903  -6.3902  -6.3616  -6.3615
    -6.2736  -6.2730  -6.2093  -6.2088  -6.1758  -6.1753  -6.1474  -6.1470
    -5.6057  -5.6054  -5.5536  -5.5533  -5.4226  -5.4221  -5.3139  -5.3138
    -5.2919  -5.2918  -5.2334  -5.2331  -5.0409  -5.0408  -4.9869  -4.9866
    -4.9092  -4.9091  -4.8056  -4.8056  -4.3877  -4.3876  -4.3037  -4.3037
    -3.9950  -3.9947  -3.9611  -3.9608  -3.7486  -3.7486  -3.6985  -3.6984
    -3.1302  -3.1302  -3.1021  -3.1021  -2.9473  -2.9472  -2.9206  -2.9205
    -2.7655  -2.7653  -2.7368  -2.7367  -2.6912  -2.6911  -2.6774  -2.6774
    -2.2744  -2.2743  -2.2666  -2.2664  -1.5815  -1.5811  -1.5039  -1.5037
    -1.3958  -1.3957  -1.3107  -1.3106  -1.2713  -1.2711  -1.2402  -1.2398
    -1.1423  -1.1420  -1.1335  -1.1330  -1.0898  -1.0894  -1.0576  -1.0576
    -1.0044  -1.0042  -0.9646  -0.9644  -0.9152  -0.9148  -0.8800  -0.8796
    -0.8457  -0.8454  -0.8200  -0.8199  -0.7940  -0.7937  -0.7383  -0.7381
    -0.5296  -0.5292  -0.5115  -0.5112  -0.2514  -0.2510  -0.2359  -0.2359
    -0.2173  -0.2168  -0.1852  -0.1847  -0.0267  -0.0266  -0.0116  -0.0115
     0.1864   0.1866   0.2166   0.2167   0.7966   0.7967   0.8264   0.8266
     0.8596   0.8599   0.8715   0.8718   0.9773   0.9775   1.0052   1.0055
     3.9383   3.9387   3.9443   3.9447   4.1635   4.1639   4.3098   4.3099
     4.3404   4.3404   4.4573   4.4576   5.8247   5.8249   5.8450   5.8452
     6.3123   6.3124   6.3985   6.3989   6.4831   6.4834   6.5104   6.5106
     6.7954   6.7958   6.8461   6.8466   6.8951   6.8951   6.9741   6.9751
     7.9484   7.9486   8.1664   8.1665   8.6063   8.6064   8.7715   8.7718
     8.9848   8.9851   9.1527   9.1529   9.3378   9.3380   9.4558   9.4560

     highest occupied, lowest unoccupied level (ev):     1.1225    3.9159

!    total energy              =   -2768.51556714 Ry
     Harris-Foulkes estimate   =   -2768.51556714 Ry
     estimated scf accuracy    <          9.7E-09 Ry

     total all-electron energy =    -10470.572530 Ry

     The total energy is the sum of the following terms:

     one-electron contribution =   -1478.05950354 Ry
     hartree contribution      =     936.44892994 Ry
     xc contribution           =    -535.47852184 Ry
     ewald contribution        =    -934.86185967 Ry
     Dispersion Correction     =      -0.49678911 Ry
     one-center paw contrib.   =    -756.06782291 Ry

     convergence has been achieved in  15 iterations

     Forces acting on atoms (cartesian axes, Ry/au):

     atom    1 type  1   force =    -0.00010150    0.00015697   -0.00018216
     atom    2 type  1   force =     0.00003044    0.00006991    0.00012639
     atom    3 type  1   force =     0.00010150   -0.00015697    0.00018216
     atom    4 type  1   force =    -0.00003044   -0.00006991   -0.00012639
     atom    5 type  2   force =     0.00034963   -0.00131460    0.00019246
     atom    6 type  2   force =    -0.00029217   -0.00126613   -0.00018301
     atom    7 type  2   force =    -0.00034963    0.00131460   -0.00019246
     atom    8 type  2   force =     0.00029217    0.00126613    0.00018301
     atom    9 type  1   force =    -0.00012401    0.00051501    0.00157115
     atom   10 type  1   force =     0.00012947    0.00054665   -0.00152545
     atom   11 type  1   force =     0.00012401   -0.00051501   -0.00157115
     atom   12 type  1   force =    -0.00012947   -0.00054665    0.00152545
     atom   13 type  2   force =     0.00039179   -0.00040856   -0.00114069
     atom   14 type  2   force =    -0.00039494   -0.00043585    0.00115330
     atom   15 type  2   force =    -0.00039179    0.00040856    0.00114069
     atom   16 type  2   force =     0.00039494    0.00043585   -0.00115330
     atom   17 type  4   force =    -0.00004516   -0.00017079   -0.00023443
     atom   18 type  4   force =     0.00005757   -0.00018216    0.00025365
     atom   19 type  4   force =     0.00004516    0.00017079    0.00023443
     atom   20 type  4   force =    -0.00005757    0.00018216   -0.00025365
     atom   21 type  2   force =     0.00006840   -0.00027680   -0.00023674
     atom   22 type  2   force =    -0.00006273   -0.00026039    0.00022787
     atom   23 type  2   force =    -0.00006840    0.00027680    0.00023674
     atom   24 type  2   force =     0.00006273    0.00026039   -0.00022787
     atom   25 type  1   force =    -0.00032750    0.00044956   -0.00027783
     atom   26 type  1   force =     0.00033875    0.00042492    0.00029520
     atom   27 type  1   force =     0.00032750   -0.00044956    0.00027783
     atom   28 type  1   force =    -0.00033875   -0.00042492   -0.00029520
     atom   29 type  2   force =     0.00026687    0.00007381    0.00002365
     atom   30 type  2   force =    -0.00024804    0.00001946    0.00003557
     atom   31 type  2   force =    -0.00026687   -0.00007381   -0.00002365
     atom   32 type  2   force =     0.00024804   -0.00001946   -0.00003557
     atom   33 type  1   force =    -0.00013915    0.00014078    0.00010835
     atom   34 type  1   force =     0.00014497    0.00022889   -0.00007937
     atom   35 type  1   force =     0.00013915   -0.00014078   -0.00010835
     atom   36 type  1   force =    -0.00014497   -0.00022889    0.00007937
     atom   37 type  2   force =     0.00022000   -0.00045602   -0.00030297
     atom   38 type  2   force =    -0.00024362   -0.00051060    0.00035265
     atom   39 type  2   force =    -0.00022000    0.00045602    0.00030297
     atom   40 type  2   force =     0.00024362    0.00051060   -0.00035265
     atom   41 type  1   force =    -0.00066663    0.00024736    0.00047610
     atom   42 type  1   force =     0.00063706    0.00034311   -0.00039275
     atom   43 type  1   force =     0.00066663   -0.00024736   -0.00047610
     atom   44 type  1   force =    -0.00063706   -0.00034311    0.00039275
     atom   45 type  3   force =    -0.00013874    0.00039959   -0.00003746
     atom   46 type  3   force =     0.00015342    0.00039724    0.00005158
     atom   47 type  3   force =     0.00013874   -0.00039959    0.00003746
     atom   48 type  3   force =    -0.00015342   -0.00039724   -0.00005158
     atom   49 type  3   force =     0.00001698    0.00000090   -0.00052294
     atom   50 type  3   force =    -0.00001211   -0.00001512    0.00050275
     atom   51 type  3   force =    -0.00001698   -0.00000090    0.00052294
     atom   52 type  3   force =     0.00001211    0.00001512   -0.00050275
     atom   53 type  4   force =     0.00010168    0.00066283   -0.00037119
     atom   54 type  4   force =    -0.00014633    0.00057555    0.00044078
     atom   55 type  4   force =    -0.00010168   -0.00066283    0.00037119
     atom   56 type  4   force =     0.00014633   -0.00057555   -0.00044078
     atom   57 type  2   force =     0.00046075   -0.00136697   -0.00086649
     atom   58 type  2   force =     0.00057298   -0.00076850   -0.00011755
     atom   59 type  2   force =    -0.00046075    0.00136697    0.00086649
     atom   60 type  2   force =    -0.00057298    0.00076850    0.00011755
     atom   61 type  4   force =    -0.00048854    0.00049987    0.00065373
     atom   62 type  4   force =     0.00016175   -0.00005082   -0.00025433
     atom   63 type  4   force =     0.00048854   -0.00049987   -0.00065373
     atom   64 type  4   force =    -0.00016175    0.00005082    0.00025433
     atom   65 type  4   force =     0.00030827   -0.00084226   -0.00033414
     atom   66 type  4   force =    -0.00092927   -0.00086485    0.00082988
     atom   67 type  4   force =    -0.00030827    0.00084226    0.00033414
     atom   68 type  4   force =     0.00092927    0.00086485   -0.00082988
     atom   69 type  1   force =     0.00008456    0.00090279    0.00022960
     atom   70 type  1   force =     0.00000148    0.00117730   -0.00027072
     atom   71 type  1   force =    -0.00008456   -0.00090279   -0.00022960
     atom   72 type  1   force =    -0.00000148   -0.00117730    0.00027072
     atom   73 type  4   force =    -0.00049830   -0.00083618    0.00009648
     atom   74 type  4   force =     0.00042253   -0.00107031    0.00001798
     atom   75 type  4   force =     0.00049830    0.00083618   -0.00009648
     atom   76 type  4   force =    -0.00042253    0.00107031   -0.00001798
     atom   77 type  2   force =     0.00047253    0.00031495   -0.00048773
     atom   78 type  2   force =    -0.00046672    0.00030992    0.00051527
     atom   79 type  2   force =    -0.00047253   -0.00031495    0.00048773
     atom   80 type  2   force =     0.00046672   -0.00030992   -0.00051527
     atom   81 type  1   force =     0.00006833   -0.00004797    0.00045347
     atom   82 type  1   force =    -0.00009612   -0.00007494   -0.00072633
     atom   83 type  1   force =    -0.00006833    0.00004797   -0.00045347
     atom   84 type  1   force =     0.00009612    0.00007494    0.00072633
     atom   85 type  3   force =     0.00053228   -0.00016586    0.00045402
     atom   86 type  3   force =    -0.00052749   -0.00015577   -0.00044567
     atom   87 type  3   force =    -0.00053228    0.00016586   -0.00045402
     atom   88 type  3   force =     0.00052749    0.00015577    0.00044567
     atom   89 type  3   force =     0.00025644   -0.00023827   -0.00049395
     atom   90 type  3   force =    -0.00026673   -0.00023223    0.00051432
     atom   91 type  3   force =    -0.00025644    0.00023827    0.00049395
     atom   92 type  3   force =     0.00026673    0.00023223   -0.00051432
     atom   93 type  4   force =     0.00052602    0.00002946   -0.00023903
     atom   94 type  4   force =    -0.00053409    0.00006760    0.00018862
     atom   95 type  4   force =    -0.00052602   -0.00002946    0.00023903
     atom   96 type  4   force =     0.00053409   -0.00006760   -0.00018862
     atom   97 type  2   force =    -0.00002462    0.00027279    0.00061325
     atom   98 type  2   force =    -0.00010859   -0.00005649   -0.00006093
     atom   99 type  2   force =     0.00002462   -0.00027279   -0.00061325
     atom  100 type  2   force =     0.00010859    0.00005649    0.00006093
     atom  101 type  4   force =    -0.00040608    0.00091262   -0.00025661
     atom  102 type  4   force =     0.00046080    0.00121504    0.00004484
     atom  103 type  4   force =     0.00040608   -0.00091262    0.00025661
     atom  104 type  4   force =    -0.00046080   -0.00121504   -0.00004484
     atom  105 type  4   force =     0.00032967   -0.00120727   -0.00112617
     atom  106 type  4   force =    -0.00027575   -0.00116304    0.00088060
     atom  107 type  4   force =    -0.00032967    0.00120727    0.00112617
     atom  108 type  4   force =     0.00027575    0.00116304   -0.00088060

     Total force =     0.009306     Total SCF correction =     0.000220


     Computing stress (Cartesian axis) and pressure

          total   stress  (Ry/bohr**3)                   (kbar)     P=   -1.10
  -0.00001057  -0.00000006  -0.00000173         -1.55     -0.01     -0.25
  -0.00000006  -0.00000062  -0.00000018         -0.01     -0.09     -0.03
  -0.00000173  -0.00000018  -0.00001134         -0.25     -0.03     -1.67


     Writing output data file scf.save
 
     init_run     :     84.65s CPU     87.71s WALL (       1 calls)
     electrons    :   2937.42s CPU   3044.25s WALL (       1 calls)
     forces       :     42.65s CPU     42.97s WALL (       1 calls)
     stress       :    342.40s CPU    343.03s WALL (       1 calls)

     Called by init_run:
     wfcinit      :     69.32s CPU     72.15s WALL (       1 calls)
     potinit      :      5.33s CPU      5.42s WALL (       1 calls)

     Called by electrons:
     c_bands      :   2649.98s CPU   2741.24s WALL (      15 calls)
     sum_band     :    270.07s CPU    283.62s WALL (      15 calls)
     v_of_rho     :      2.65s CPU      2.89s WALL (      16 calls)
     newd         :      6.59s CPU      8.25s WALL (      16 calls)
     PAW_pot      :      7.63s CPU      7.64s WALL (      16 calls)
     mix_rho      :      0.63s CPU      0.75s WALL (      15 calls)

     Called by c_bands:
     init_us_2    :     14.93s CPU     15.00s WALL (     264 calls)
     cegterg      :   2586.78s CPU   2677.94s WALL (     120 calls)

     Called by sum_band:
     sum_band:bec :      0.19s CPU      0.19s WALL (     120 calls)
     addusdens    :      6.69s CPU      8.25s WALL (      15 calls)

     Called by *egterg:
     h_psi        :   1388.80s CPU   1456.23s WALL (     664 calls)
     s_psi        :    297.57s CPU    297.61s WALL (     664 calls)
     g_psi        :      8.43s CPU      8.43s WALL (     536 calls)
     cdiaghg      :    209.73s CPU    209.79s WALL (     656 calls)

     Called by h_psi:
     h_psi:pot    :   1378.76s CPU   1446.01s WALL (     664 calls)
     h_psi:calbec :    284.85s CPU    285.38s WALL (     664 calls)
     vloc_psi     :    796.37s CPU    863.04s WALL (     664 calls)
     add_vuspsi   :    297.53s CPU    297.59s WALL (     664 calls)

     General routines
     calbec       :    419.48s CPU    420.28s WALL (     824 calls)
     fft          :      1.53s CPU      1.94s WALL (     232 calls)
     fftw         :    858.17s CPU    936.23s WALL (  224348 calls)
 
     Parallel routines
     fft_scatter  :    155.73s CPU    228.77s WALL (  224580 calls)
 
     PWSCF        :     0h57m CPU        1h 0m WALL

 
   This run was terminated on:   6:17:19   4Nov2017            

=------------------------------------------------------------------------------=
   JOB DONE.
=------------------------------------------------------------------------------=
