
     Program PWSCF v.6.1 (svn rev. 13369) starts on 13Nov2017 at 12:24: 3 

     This program is part of the open-source Quantum ESPRESSO suite
     for quantum simulation of materials; please cite
         "P. Giannozzi et al., J. Phys.:Condens. Matter 21 395502 (2009);
          URL http://www.quantum-espresso.org", 
     in publications or presentations arising from this work. More details at
     http://www.quantum-espresso.org/quote

     Parallel version (MPI), running on     8 processors
     R & G space division:  proc/nbgrp/npool/nimage =       8
     Waiting for input...
     Reading input from standard input

     Current dimensions of program PWSCF are:
     Max number of different atomic species (ntypx) = 10
     Max number of k-points (npk) =  40000
     Max angular momentum in pseudopotentials (lmaxx) =  3
               file C.pbe-n-kjpaw_psl.0.1.UPF: wavefunction(s)  2P renormalized
               file N.pbe-n-kjpaw_psl.0.1.UPF: wavefunction(s)  2P renormalized
               file H.pbe-kjpaw_psl.0.1.UPF: wavefunction(s)  1S renormalized
               file O.pbe-n-kjpaw_psl.0.1.UPF: wavefunction(s)  2P renormalized

     -------------------------------------
     Parameters for Dispersion Correction:
     -------------------------------------
       atom      VdW radius       C_6     

        C          2.744         60.710
        N          2.640         42.670
        H          1.892          4.857
        O          2.536         24.284

     Subspace diagonalization in iterative solution of the eigenvalue problem:
     a serial algorithm will be used

 
     Parallelization info
     --------------------
     sticks:   dense  smooth     PW     G-vecs:    dense   smooth      PW
     Min        1339    1339    356               123069   123069   16794
     Max        1340    1340    357               123072   123072   16795
     Sum       10717   10717   2851               984569   984569  134353
 


     bravais-lattice index     =            0
     lattice parameter (alat)  =      19.3584  a.u.
     unit-cell volume          =    7287.8091 (a.u.)^3
     number of atoms/cell      =          120
     number of atomic types    =            4
     number of electrons       =       352.00
     number of Kohn-Sham states=          211
     kinetic-energy cutoff     =     100.0000  Ry
     charge density cutoff     =     400.0000  Ry
     convergence threshold     =      1.0E-08
     mixing beta               =       0.5000
     number of iterations used =            8  plain     mixing
     Exchange-correlation      =  SLA  PW   PBX  PBC ( 1  4  3  4 0 0)

     celldm(1)=  19.358355  celldm(2)=   0.000000  celldm(3)=   0.000000
     celldm(4)=   0.000000  celldm(5)=   0.000000  celldm(6)=   0.000000

     crystal axes: (cart. coord. in units of alat)
               a(1) = (   1.000000   0.000000   0.000000 )  
               a(2) = (   0.000000   0.898868   0.000000 )  
               a(3) = (  -0.191039   0.000000   1.117625 )  

     reciprocal axes: (cart. coord. in units 2 pi/alat)
               b(1) = (  1.000000  0.000000  0.170933 )  
               b(2) = (  0.000000  1.112511  0.000000 )  
               b(3) = (  0.000000  0.000000  0.894755 )  


     PseudoPot. # 1 for  C read from file:
     /scratch/ahofstet/pseudo/C.pbe-n-kjpaw_psl.0.1.UPF
     MD5 check sum: 430fe95172b1e11ef3f8ed03bac87931
     Pseudo is Projector augmented-wave + core cor, Zval =  4.0
     Generated using "atomic" code by A. Dal Corso  v.5.0.99 svn rev. 10869
     Shape of augmentation charge: BESSEL
     Using radial grid of 1073 points,  4 beta functions with: 
                l(1) =   0
                l(2) =   0
                l(3) =   1
                l(4) =   1
     Q(r) pseudized with 0 coefficients 


     PseudoPot. # 2 for  N read from file:
     /scratch/ahofstet/pseudo/N.pbe-n-kjpaw_psl.0.1.UPF
     MD5 check sum: f73187c8b701007e77325f868c9291d7
     Pseudo is Projector augmented-wave + core cor, Zval =  5.0
     Generated using "atomic" code by A. Dal Corso  v.5.0.99 svn rev. 10869
     Shape of augmentation charge: PSQ
     Using radial grid of 1085 points,  4 beta functions with: 
                l(1) =   0
                l(2) =   0
                l(3) =   1
                l(4) =   1
     Q(r) pseudized with 0 coefficients 


     PseudoPot. # 3 for  H read from file:
     /scratch/ahofstet/pseudo/H.pbe-kjpaw_psl.0.1.UPF
     MD5 check sum: 94e484f906d9e9773b2f6e52662335b2
     Pseudo is Projector augmented-wave, Zval =  1.0
     Generated using "atomic" code by A. Dal Corso  v.5.0.99 svn rev. 10869
     Shape of augmentation charge: PSQ
     Using radial grid of  929 points,  2 beta functions with: 
                l(1) =   0
                l(2) =   0
     Q(r) pseudized with 0 coefficients 


     PseudoPot. # 4 for  O read from file:
     /scratch/ahofstet/pseudo/O.pbe-n-kjpaw_psl.0.1.UPF
     MD5 check sum: 3f94a2996a3169367d6eb21d9b593f20
     Pseudo is Projector augmented-wave + core cor, Zval =  6.0
     Generated using "atomic" code by A. Dal Corso  v.5.0.99 svn rev. 10869
     Shape of augmentation charge: BESSEL
     Using radial grid of 1095 points,  4 beta functions with: 
                l(1) =   0
                l(2) =   0
                l(3) =   1
                l(4) =   1
     Q(r) pseudized with 0 coefficients 


     atomic species   valence    mass     pseudopotential
        C              4.00    12.01070      C( 1.00)
        N              5.00    14.00670      N( 1.00)
        H              1.00     1.00794      H( 1.00)
        O              6.00    15.99940      O( 1.00)

      2 Sym. Ops., with inversion, found
          (note:  2 additional sym.ops. were found but ignored
           their fractional translations are incommensurate with FFT grid)


   Cartesian axes

     site n.     atom                  positions (alat units)
         1           O   tau(   1) = (   0.4733471   0.2784152   0.0867107  )
         2           O   tau(   2) = (   0.8778276   0.1710186   0.6455229  )
         3           O   tau(   3) = (   0.3356138   0.6204525   1.0309139  )
         4           O   tau(   4) = (  -0.0688667   0.7278490   0.4721016  )
         5           O   tau(   5) = (  -0.0390143   0.0168920   1.0614203  )
         6           O   tau(   6) = (   0.5565052   0.4325418   0.5026080  )
         7           O   tau(   7) = (   0.8479753   0.8819756   0.0562043  )
         8           O   tau(   8) = (   0.2524557   0.4663258   0.6150166  )
         9           O   tau(   9) = (   0.5410496   0.7935935   0.6852923  )
        10           O   tau(  10) = (   0.1365691   0.5547080   0.1264801  )
        11           O   tau(  11) = (   0.2679114   0.1052742   0.4323322  )
        12           O   tau(  12) = (   0.6723918   0.3441597   0.9911445  )
        13           N   tau(  13) = (   0.1521081   0.0179652   0.9419260  )
        14           N   tau(  14) = (   0.7476276   0.4314686   0.3831138  )
        15           N   tau(  15) = (   0.6568529   0.8809024   0.1756985  )
        16           N   tau(  16) = (   0.0613334   0.4673990   0.7345108  )
        17           N   tau(  17) = (   0.3222221   0.1601869   1.0173654  )
        18           N   tau(  18) = (   0.9177416   0.2892469   0.4585532  )
        19           N   tau(  19) = (   0.4867388   0.7386807   0.1002591  )
        20           N   tau(  20) = (  -0.1087807   0.6096207   0.6590714  )
        21           N   tau(  21) = (   0.3107858   0.1489295   0.0157360  )
        22           N   tau(  22) = (   0.7152663   0.3005043   0.5745483  )
        23           N   tau(  23) = (   0.4981751   0.7499381   1.1018886  )
        24           N   tau(  24) = (   0.0936947   0.5983633   0.5430763  )
        25           N   tau(  25) = (   0.3505450   0.0336752   0.8319607  )
        26           N   tau(  26) = (   0.9460645   0.4157586   0.2731485  )
        27           N   tau(  27) = (   0.4584160   0.8651924   0.2856638  )
        28           N   tau(  28) = (  -0.1371035   0.4831091   0.8444761  )
        29           C   tau(  29) = (   0.2734889   0.0710943   0.9323224  )
        30           C   tau(  30) = (   0.8690084   0.3783395   0.3735101  )
        31           C   tau(  31) = (   0.5354721   0.8277733   0.1853022  )
        32           C   tau(  32) = (  -0.0600475   0.5205281   0.7441144  )
        33           C   tau(  33) = (   0.2416870   0.1924904   1.1136847  )
        34           C   tau(  34) = (   0.8372065   0.2569434   0.5548725  )
        35           C   tau(  35) = (   0.5672740   0.7063772   0.0039398  )
        36           C   tau(  36) = (  -0.0282456   0.6419242   0.5627521  )
        37           C   tau(  37) = (   0.0832384   0.0614894   1.0430359  )
        38           C   tau(  38) = (   0.6787580   0.3879444   0.4842236  )
        39           C   tau(  39) = (   0.7257225   0.8373783   0.0745887  )
        40           C   tau(  40) = (   0.1302030   0.5109232   0.6334010  )
        41           C   tau(  41) = (   0.6043159   0.3290118   0.0719888  )
        42           C   tau(  42) = (   0.0087963   0.1204220   0.6308010  )
        43           C   tau(  43) = (   0.2046451   0.5698558   1.0456358  )
        44           C   tau(  44) = (   0.8001646   0.7784456   0.4868235  )
        45           H   tau(  45) = (   0.6225887   0.3864261   0.1603581  )
        46           H   tau(  46) = (   0.0270691   0.0630077   0.7191704  )
        47           H   tau(  47) = (   0.1863723   0.5124416   0.9572664  )
        48           H   tau(  48) = (   0.7818918   0.8358599   0.3984541  )
        49           H   tau(  49) = (   0.4206206   0.3903501   1.1021097  )
        50           H   tau(  50) = (   0.0161402   0.0590838   0.5432974  )
        51           H   tau(  51) = (   0.3883403   0.5085176   0.0155149  )
        52           H   tau(  52) = (   0.7928208   0.8397839   0.5743271  )
        53           H   tau(  53) = (   0.6747220   0.2489519   0.0641676  )
        54           H   tau(  54) = (   0.0792024   0.2004819   0.6229799  )
        55           H   tau(  55) = (   0.1342390   0.6499157   1.0534569  )
        56           H   tau(  56) = (   0.7297585   0.6983857   0.4946447  )
        57           C   tau(  57) = (  -0.0919534   0.8264667   0.9664502  )
        58           C   tau(  58) = (   0.5035661   0.5218347   0.4076380  )
        59           C   tau(  59) = (   0.9009143   0.0724009   0.1511743  )
        60           C   tau(  60) = (   0.3053948   0.3770329   0.7099866  )
        61           H   tau(  61) = (  -0.0881635   0.8683659   0.8679094  )
        62           H   tau(  62) = (   0.5073560   0.4799356   0.3090971  )
        63           H   tau(  63) = (   0.8971245   0.0305018   0.2497152  )
        64           H   tau(  64) = (   0.3016049   0.4189320   0.8085275  )
        65           H   tau(  65) = (   0.8066409   0.8120129   0.9967592  )
        66           H   tau(  66) = (   0.4021604   0.5362886   0.4379470  )
        67           H   tau(  67) = (   0.0023200   0.0868548   0.1208653  )
        68           H   tau(  68) = (   0.4068005   0.3625790   0.6796776  )
        69           H   tau(  69) = (  -0.0382712   0.7336574   0.9671694  )
        70           H   tau(  70) = (   0.5572483   0.6146440   0.4083571  )
        71           H   tau(  71) = (   0.8472322   0.1652102   0.1504552  )
        72           H   tau(  72) = (   0.2517126   0.2842236   0.7092674  )
        73           C   tau(  73) = (   0.4800316   0.0897958   0.8086160  )
        74           C   tau(  74) = (   0.0755511   0.3596380   0.2498037  )
        75           C   tau(  75) = (   0.3289293   0.8090718   0.3090086  )
        76           C   tau(  76) = (   0.7334098   0.5392297   0.8678208  )
        77           H   tau(  77) = (   0.5076637   0.1517585   0.8913820  )
        78           H   tau(  78) = (   0.1031832   0.2976753   0.3325697  )
        79           H   tau(  79) = (   0.3012972   0.7471091   0.2262426  )
        80           H   tau(  80) = (   0.7057777   0.6011923   0.7850548  )
        81           H   tau(  81) = (   0.4760111   0.1501012   0.7194311  )
        82           H   tau(  82) = (   0.0715307   0.2993326   0.1606188  )
        83           H   tau(  83) = (   0.3329498   0.7487664   0.3981934  )
        84           H   tau(  84) = (   0.7374303   0.5995350   0.9570057  )
        85           C   tau(  85) = (   0.5799838   0.8800104   0.7884945  )
        86           C   tau(  86) = (   0.1755033   0.4682911   0.2296822  )
        87           C   tau(  87) = (   0.2289771   0.0188573   0.3291301  )
        88           C   tau(  88) = (   0.6334576   0.4305766   0.8879423  )
        89           H   tau(  89) = (   0.6737108   0.0242242   0.7591255  )
        90           H   tau(  90) = (   0.2692304   0.4252096   0.2003132  )
        91           H   tau(  91) = (   0.1352501   0.8746435   0.3584991  )
        92           H   tau(  92) = (   0.5397306   0.4736580   0.9173113  )
        93           H   tau(  93) = (   0.5915645   0.8239831   0.8799678  )
        94           H   tau(  94) = (   0.1870840   0.5243184   0.3211556  )
        95           H   tau(  95) = (   0.2173964   0.0748845   0.2376567  )
        96           H   tau(  96) = (   0.6218769   0.3745493   0.7964690  )
        97           C   tau(  97) = (   0.4186192   0.7341732   0.7177307  )
        98           C   tau(  98) = (   0.0141387   0.6141282   0.1589185  )
        99           C   tau(  99) = (   0.3903418   0.1646944   0.3998938  )
       100           C   tau( 100) = (   0.7948222   0.2847394   0.9587061  )
       101           H   tau( 101) = (   0.4290259   0.6774338   0.8089390  )
       102           H   tau( 102) = (   0.0245454   0.6708676   0.2501268  )
       103           H   tau( 103) = (   0.3799350   0.2214338   0.3086855  )
       104           H   tau( 104) = (   0.7844155   0.2280000   0.8674978  )
       105           H   tau( 105) = (   0.3936879   0.6681334   0.6371662  )
       106           H   tau( 106) = (  -0.0107926   0.6801680   0.0783540  )
       107           H   tau( 107) = (   0.4152730   0.2307342   0.4804583  )
       108           H   tau( 108) = (   0.8197535   0.2186996   1.0392706  )
       109           C   tau( 109) = (   0.3108539   0.8361123   0.7341185  )
       110           C   tau( 110) = (   0.9063734   0.5121891   0.1753062  )
       111           C   tau( 111) = (   0.4981071   0.0627553   0.3835060  )
       112           C   tau( 112) = (  -0.0974125   0.3866785   0.9423183  )
       113           H   tau( 113) = (   0.2946212   0.8865147   0.6402944  )
       114           H   tau( 114) = (   0.8901407   0.4617867   0.0814822  )
       115           H   tau( 115) = (   0.5143397   0.0123529   0.4773301  )
       116           H   tau( 116) = (  -0.0811798   0.4370809   1.0361424  )
       117           H   tau( 117) = (   0.2197781   0.7894206   0.7652072  )
       118           H   tau( 118) = (   0.8152976   0.5588809   0.2063949  )
       119           H   tau( 119) = (   0.5891829   0.1094471   0.3524173  )
       120           H   tau( 120) = (  -0.0063367   0.3399867   0.9112296  )

     number of k points=     8
                       cart. coord. in units 2pi/alat
        k(    1) = (   0.0000000   0.0000000   0.0000000), wk =   0.2500000
        k(    2) = (   0.0000000   0.0000000  -0.4473774), wk =   0.2500000
        k(    3) = (   0.0000000  -0.5562554   0.0000000), wk =   0.2500000
        k(    4) = (   0.0000000  -0.5562554  -0.4473774), wk =   0.2500000
        k(    5) = (  -0.5000000   0.0000000  -0.0854666), wk =   0.2500000
        k(    6) = (  -0.5000000   0.0000000  -0.5328440), wk =   0.2500000
        k(    7) = (  -0.5000000  -0.5562554  -0.0854666), wk =   0.2500000
        k(    8) = (  -0.5000000  -0.5562554  -0.5328440), wk =   0.2500000

     Dense  grid:   984569 G-vectors     FFT dimensions: ( 125, 120, 144)

     Estimated max dynamical RAM per process >    1085.65MB

     Estimated total allocated dynamical RAM >    8685.18MB

     Check: negative/imaginary core charge=   -0.000002    0.000000

     Initial potential from superposition of free atoms

     starting charge  351.99783, renormalised to  352.00000
     Starting wfc are  312 randomized atomic wfcs
     Checking if some PAW data can be deallocated... 

     total cpu time spent up to now is       69.7 secs

     per-process dynamical memory:   740.3 Mb

     Self-consistent Calculation

     iteration #  1     ecut=   100.00 Ry     beta=0.50
     Davidson diagonalization with overlap
     ethr =  1.00E-02,  avg # of iterations =  3.5

     total cpu time spent up to now is      276.5 secs

     total energy              =   -1680.01558090 Ry
     Harris-Foulkes estimate   =   -1685.58649981 Ry
     estimated scf accuracy    <      11.18524622 Ry

     iteration #  2     ecut=   100.00 Ry     beta=0.50
     Davidson diagonalization with overlap
     ethr =  3.18E-03,  avg # of iterations =  2.0

     total cpu time spent up to now is      382.9 secs

     total energy              =   -1680.94268857 Ry
     Harris-Foulkes estimate   =   -1681.40755680 Ry
     estimated scf accuracy    <       1.16474727 Ry

     iteration #  3     ecut=   100.00 Ry     beta=0.50
     Davidson diagonalization with overlap
     ethr =  3.31E-04,  avg # of iterations =  5.2

     total cpu time spent up to now is      615.5 secs

     total energy              =   -1681.69304910 Ry
     Harris-Foulkes estimate   =   -1681.99553772 Ry
     estimated scf accuracy    <       0.73197226 Ry

     iteration #  4     ecut=   100.00 Ry     beta=0.50
     Davidson diagonalization with overlap
     ethr =  2.08E-04,  avg # of iterations =  6.5

     total cpu time spent up to now is      728.7 secs

     total energy              =   -1681.63770515 Ry
     Harris-Foulkes estimate   =   -1681.74020591 Ry
     estimated scf accuracy    <       0.18599203 Ry

     iteration #  5     ecut=   100.00 Ry     beta=0.50
     Davidson diagonalization with overlap
     ethr =  5.28E-05,  avg # of iterations =  5.0

     total cpu time spent up to now is      955.3 secs

     total energy              =   -1681.76454454 Ry
     Harris-Foulkes estimate   =   -1681.85993494 Ry
     estimated scf accuracy    <       0.27469061 Ry

     iteration #  6     ecut=   100.00 Ry     beta=0.50
     Davidson diagonalization with overlap
     c_bands:  1 eigenvalues not converged
     ethr =  5.28E-05,  avg # of iterations =  7.9

     total cpu time spent up to now is     1068.2 secs

     total energy              =   -1681.70381892 Ry
     Harris-Foulkes estimate   =   -1681.77386374 Ry
     estimated scf accuracy    <       0.10287631 Ry

     iteration #  7     ecut=   100.00 Ry     beta=0.50
     Davidson diagonalization with overlap
     ethr =  2.92E-05,  avg # of iterations =  7.6

     total cpu time spent up to now is     1297.3 secs

     total energy              =   -1681.76146722 Ry
     Harris-Foulkes estimate   =   -1681.80342934 Ry
     estimated scf accuracy    <       0.09725580 Ry

     iteration #  8     ecut=   100.00 Ry     beta=0.50
     Davidson diagonalization with overlap
     ethr =  2.76E-05,  avg # of iterations =  1.0

     total cpu time spent up to now is     1394.4 secs

     total energy              =   -1681.75205716 Ry
     Harris-Foulkes estimate   =   -1681.76605147 Ry
     estimated scf accuracy    <       0.02469059 Ry

     iteration #  9     ecut=   100.00 Ry     beta=0.50
     Davidson diagonalization with overlap
     ethr =  7.01E-06,  avg # of iterations =  7.1

     total cpu time spent up to now is     1618.3 secs

     total energy              =   -1681.77344684 Ry
     Harris-Foulkes estimate   =   -1681.77860197 Ry
     estimated scf accuracy    <       0.01781209 Ry

     iteration # 10     ecut=   100.00 Ry     beta=0.50
     Davidson diagonalization with overlap
     ethr =  5.06E-06,  avg # of iterations =  1.0

     total cpu time spent up to now is     1715.1 secs

     total energy              =   -1681.77031269 Ry
     Harris-Foulkes estimate   =   -1681.77380444 Ry
     estimated scf accuracy    <       0.00833073 Ry

     iteration # 11     ecut=   100.00 Ry     beta=0.50
     Davidson diagonalization with overlap
     ethr =  2.37E-06,  avg # of iterations =  4.0

     total cpu time spent up to now is     1868.1 secs

     total energy              =   -1681.77314757 Ry
     Harris-Foulkes estimate   =   -1681.77318494 Ry
     estimated scf accuracy    <       0.00017339 Ry

     iteration # 12     ecut=   100.00 Ry     beta=0.50
     Davidson diagonalization with overlap
     ethr =  4.93E-08,  avg # of iterations =  3.0

     total cpu time spent up to now is     2004.5 secs

     total energy              =   -1681.77314955 Ry
     Harris-Foulkes estimate   =   -1681.77318594 Ry
     estimated scf accuracy    <       0.00008695 Ry

     iteration # 13     ecut=   100.00 Ry     beta=0.50
     Davidson diagonalization with overlap
     ethr =  2.47E-08,  avg # of iterations =  4.1

     total cpu time spent up to now is     2116.6 secs

     total energy              =   -1681.77315890 Ry
     Harris-Foulkes estimate   =   -1681.77315938 Ry
     estimated scf accuracy    <       0.00001335 Ry

     iteration # 14     ecut=   100.00 Ry     beta=0.50
     Davidson diagonalization with overlap
     ethr =  3.79E-09,  avg # of iterations =  4.0

     total cpu time spent up to now is     2287.5 secs

     total energy              =   -1681.77316327 Ry
     Harris-Foulkes estimate   =   -1681.77316610 Ry
     estimated scf accuracy    <       0.00000629 Ry

     iteration # 15     ecut=   100.00 Ry     beta=0.50
     Davidson diagonalization with overlap
     ethr =  1.79E-09,  avg # of iterations =  2.5

     total cpu time spent up to now is     2390.2 secs

     total energy              =   -1681.77316316 Ry
     Harris-Foulkes estimate   =   -1681.77316374 Ry
     estimated scf accuracy    <       0.00000145 Ry

     iteration # 16     ecut=   100.00 Ry     beta=0.50
     Davidson diagonalization with overlap
     ethr =  4.11E-10,  avg # of iterations =  4.0

     total cpu time spent up to now is     2560.0 secs

     total energy              =   -1681.77316413 Ry
     Harris-Foulkes estimate   =   -1681.77316420 Ry
     estimated scf accuracy    <       0.00000016 Ry

     iteration # 17     ecut=   100.00 Ry     beta=0.50
     Davidson diagonalization with overlap
     ethr =  4.67E-11,  avg # of iterations =  2.0

     total cpu time spent up to now is     2662.4 secs

     total energy              =   -1681.77316412 Ry
     Harris-Foulkes estimate   =   -1681.77316414 Ry
     estimated scf accuracy    <       0.00000003 Ry

     iteration # 18     ecut=   100.00 Ry     beta=0.50
     Davidson diagonalization with overlap
     ethr =  8.41E-12,  avg # of iterations =  4.0

     total cpu time spent up to now is     2863.1 secs

     total energy              =   -1681.77316415 Ry
     Harris-Foulkes estimate   =   -1681.77316416 Ry
     estimated scf accuracy    <       0.00000002 Ry

     iteration # 19     ecut=   100.00 Ry     beta=0.50
     Davidson diagonalization with overlap
     ethr =  5.79E-12,  avg # of iterations =  1.0

     total cpu time spent up to now is     2960.2 secs

     End of self-consistent calculation

          k = 0.0000 0.0000 0.0000 (123149 PWs)   bands (ev):

   -21.1397 -21.1351 -21.1057 -21.1036 -20.8394 -20.8356 -20.8225 -20.8194
   -19.5090 -19.5061 -19.4983 -19.4927 -18.8209 -18.8197 -18.7954 -18.7946
   -17.3470 -17.3439 -17.3369 -17.3337 -15.6009 -15.5963 -15.5961 -15.5880
   -15.5483 -15.5416 -15.5372 -15.5372 -12.7962 -12.7917 -12.7784 -12.7778
   -12.0336 -12.0318 -11.9833 -11.9637 -11.8236 -11.8226 -11.8203 -11.8008
   -11.2500 -11.1859 -11.1605 -11.1055  -9.9829  -9.9757  -9.9733  -9.9502
    -9.4802  -9.3985  -9.3892  -9.3455  -8.7669  -8.7466  -8.7266  -8.6154
    -8.0116  -7.9321  -7.9208  -7.8791  -7.6673  -7.6187  -7.6151  -7.6047
    -7.2530  -7.0962  -7.0082  -7.0013  -6.3620  -6.2302  -6.2009  -6.1680
    -6.0200  -6.0157  -5.9419  -5.8940  -5.8822  -5.8682  -5.6032  -5.5578
    -5.2924  -5.2764  -5.2444  -5.2352  -5.1203  -5.0813  -5.0790  -5.0585
    -5.0356  -5.0169  -4.9777  -4.9302  -4.9153  -4.7850  -4.7399  -4.7338
    -4.7259  -4.6383  -4.6322  -4.5576  -4.5517  -4.4809  -4.3377  -4.2699
    -4.2185  -4.2019  -4.1502  -3.9018  -3.8946  -3.8406  -3.7714  -3.7378
    -3.7325  -3.7211  -3.6395  -3.5296  -3.1250  -3.1121  -3.1098  -3.0863
    -2.8051  -2.7861  -2.7851  -2.7722  -2.5859  -2.5841  -2.5577  -2.5154
    -2.5033  -2.4511  -2.4443  -2.4430  -2.3664  -2.3650  -2.2995  -2.2825
    -2.2622  -2.2119  -2.1947  -2.1510  -2.1126  -2.0716  -2.0046  -1.9364
    -1.8834  -1.8622  -1.7764  -1.7164  -1.2339  -1.1373  -0.9374  -0.8852
    -0.4341  -0.4217  -0.3550  -0.3313  -0.3032  -0.2620  -0.1263  -0.0795
    -0.0764  -0.0516   0.0573   0.0903   0.1165   0.1452   0.1661   0.1679
     0.2770   0.2859   0.3053   0.3425   0.8487   0.8947   1.2856   1.3185
     5.1236   5.1703   5.2069   5.2090   5.2467   5.2654   5.3227   5.3590
     6.1360   6.7506   6.8459   6.8810   6.9986   7.0273   7.2396   7.2851
     7.3451   7.4166   7.4744   7.5968   7.6535   7.7988   7.9276   7.9878
     8.0614   8.1154   8.1979   8.2216   8.2285   8.2719   8.3506   8.4322
     8.5042   8.5293   8.5667

          k = 0.0000 0.0000-0.4474 (123066 PWs)   bands (ev):

   -21.1374 -21.1374 -21.1046 -21.1046 -20.8375 -20.8375 -20.8210 -20.8210
   -19.5084 -19.5084 -19.4947 -19.4947 -18.8222 -18.8222 -18.7930 -18.7930
   -17.3429 -17.3429 -17.3380 -17.3380 -15.5986 -15.5985 -15.5920 -15.5920
   -15.5464 -15.5464 -15.5360 -15.5359 -12.7939 -12.7939 -12.7782 -12.7782
   -12.0109 -12.0109 -11.9965 -11.9965 -11.8291 -11.8291 -11.8045 -11.8045
   -11.2171 -11.2171 -11.1324 -11.1324  -9.9757  -9.9757  -9.9647  -9.9647
    -9.4530  -9.4530  -9.3549  -9.3549  -8.7672  -8.7672  -8.6613  -8.6613
    -7.9989  -7.9989  -7.8870  -7.8870  -7.6452  -7.6452  -7.6007  -7.6007
    -7.1495  -7.1495  -7.0189  -7.0189  -6.2966  -6.2966  -6.1881  -6.1881
    -5.9944  -5.9944  -5.9267  -5.9267  -5.8918  -5.8918  -5.5897  -5.5897
    -5.2967  -5.2967  -5.2339  -5.2339  -5.1565  -5.1565  -5.0211  -5.0211
    -5.0071  -5.0071  -4.9395  -4.9395  -4.8465  -4.8465  -4.7800  -4.7800
    -4.6634  -4.6634  -4.5715  -4.5715  -4.5192  -4.5192  -4.2521  -4.2521
    -4.2108  -4.2108  -4.0380  -4.0380  -3.9263  -3.9263  -3.8394  -3.8394
    -3.6527  -3.6527  -3.5528  -3.5528  -3.1186  -3.1186  -3.0959  -3.0959
    -2.7960  -2.7960  -2.7908  -2.7908  -2.5752  -2.5752  -2.5416  -2.5416
    -2.5025  -2.5025  -2.4342  -2.4342  -2.3702  -2.3702  -2.3083  -2.3083
    -2.2555  -2.2555  -2.2021  -2.2021  -2.0309  -2.0309  -1.9900  -1.9900
    -1.8528  -1.8528  -1.7499  -1.7499  -1.0879  -1.0879  -0.9927  -0.9927
    -0.4003  -0.4003  -0.3558  -0.3558  -0.2880  -0.2880  -0.1170  -0.1170
    -0.0602  -0.0601   0.0667   0.0667   0.1541   0.1541   0.1591   0.1591
     0.2515   0.2515   0.3534   0.3534   1.0783   1.0783   1.0884   1.0884
     5.1245   5.1245   5.1939   5.1939   5.2748   5.2748   5.3713   5.3713
     6.3371   6.3371   6.8873   6.8873   7.0642   7.0642   7.2480   7.2480
     7.4194   7.4194   7.5996   7.5996   7.7910   7.7910   7.8767   7.8767
     8.0720   8.0720   8.2305   8.2305   8.2992   8.2992   8.3871   8.3872
     8.4915   8.4916   8.6321

          k = 0.0000-0.5563 0.0000 (122984 PWs)   bands (ev):

   -21.1321 -21.1321 -21.1103 -21.1103 -20.8316 -20.8316 -20.8266 -20.8266
   -19.5075 -19.5075 -19.4955 -19.4955 -18.8186 -18.8186 -18.7965 -18.7965
   -17.3471 -17.3471 -17.3339 -17.3339 -15.6008 -15.6008 -15.5898 -15.5898
   -15.5449 -15.5449 -15.5374 -15.5374 -12.7964 -12.7964 -12.7770 -12.7770
   -12.0315 -12.0315 -11.9721 -11.9721 -11.8248 -11.8248 -11.8090 -11.8090
   -11.2044 -11.2044 -11.1497 -11.1497  -9.9752  -9.9752  -9.9627  -9.9627
    -9.4392  -9.4392  -9.3674  -9.3674  -8.7631  -8.7631  -8.6709  -8.6709
    -7.9623  -7.9623  -7.9148  -7.9148  -7.6296  -7.6296  -7.6151  -7.6151
    -7.1642  -7.1642  -6.9958  -6.9958  -6.3090  -6.3090  -6.1941  -6.1941
    -5.9926  -5.9926  -5.8582  -5.8582  -5.8429  -5.8429  -5.6518  -5.6518
    -5.4253  -5.4253  -5.2427  -5.2427  -5.2215  -5.2215  -5.0740  -5.0740
    -5.0305  -5.0305  -4.8595  -4.8595  -4.8242  -4.8242  -4.7472  -4.7472
    -4.6768  -4.6768  -4.5784  -4.5784  -4.4430  -4.4430  -4.3170  -4.3170
    -4.0815  -4.0815  -4.0341  -4.0341  -3.8778  -3.8778  -3.7868  -3.7868
    -3.7028  -3.7028  -3.5984  -3.5984  -3.1529  -3.1529  -3.1101  -3.1101
    -2.8042  -2.8042  -2.7871  -2.7871  -2.5546  -2.5546  -2.5292  -2.5292
    -2.4478  -2.4478  -2.3980  -2.3980  -2.3735  -2.3735  -2.3308  -2.3308
    -2.2801  -2.2801  -2.1690  -2.1690  -2.1060  -2.1060  -1.9673  -1.9673
    -1.8825  -1.8825  -1.7439  -1.7439  -1.1883  -1.1883  -0.9122  -0.9122
    -0.4493  -0.4493  -0.3334  -0.3334  -0.2039  -0.2039  -0.1418  -0.1418
    -0.0701  -0.0701   0.0714   0.0714   0.1335   0.1335   0.1636   0.1636
     0.2871   0.2871   0.3176   0.3176   0.8721   0.8721   1.2988   1.2988
     5.1756   5.1756   5.1880   5.1880   5.2847   5.2847   5.3066   5.3066
     6.4907   6.4907   6.8870   6.8870   7.0386   7.0386   7.1583   7.1583
     7.2724   7.2724   7.4869   7.4869   7.7351   7.7351   7.9149   7.9149
     7.9537   7.9537   8.2184   8.2184   8.3696   8.3696   8.4854   8.4854
     8.5050   8.5050   8.7401

          k = 0.0000-0.5563-0.4474 (123024 PWs)   bands (ev):

   -21.1319 -21.1319 -21.1105 -21.1105 -20.8310 -20.8310 -20.8273 -20.8273
   -19.5081 -19.5081 -19.4949 -19.4949 -18.8204 -18.8204 -18.7946 -18.7946
   -17.3438 -17.3438 -17.3372 -17.3372 -15.5997 -15.5997 -15.5908 -15.5908
   -15.5458 -15.5458 -15.5367 -15.5367 -12.7942 -12.7941 -12.7790 -12.7790
   -12.0250 -12.0250 -11.9789 -11.9789 -11.8276 -11.8276 -11.8075 -11.8075
   -11.1828 -11.1828 -11.1690 -11.1690  -9.9714  -9.9714  -9.9666  -9.9666
    -9.4389  -9.4389  -9.3688  -9.3688  -8.7603  -8.7603  -8.6726  -8.6726
    -7.9737  -7.9737  -7.9190  -7.9190  -7.6261  -7.6261  -7.6149  -7.6149
    -7.1141  -7.1141  -7.0343  -7.0343  -6.2827  -6.2827  -6.2350  -6.2350
    -5.9705  -5.9705  -5.8569  -5.8569  -5.8501  -5.8501  -5.6478  -5.6478
    -5.4259  -5.4259  -5.2649  -5.2649  -5.1954  -5.1954  -5.0950  -5.0950
    -5.0344  -5.0344  -4.8628  -4.8628  -4.7885  -4.7885  -4.7481  -4.7481
    -4.6697  -4.6697  -4.5717  -4.5717  -4.4504  -4.4504  -4.2809  -4.2809
    -4.1466  -4.1466  -4.0318  -4.0318  -3.9130  -3.9130  -3.7476  -3.7476
    -3.7209  -3.7209  -3.5818  -3.5818  -3.1371  -3.1371  -3.1151  -3.1151
    -2.8021  -2.8021  -2.7926  -2.7926  -2.5922  -2.5922  -2.5110  -2.5110
    -2.4600  -2.4600  -2.3976  -2.3976  -2.3648  -2.3648  -2.3464  -2.3464
    -2.3062  -2.3062  -2.1250  -2.1250  -2.1185  -2.1185  -1.9505  -1.9505
    -1.8922  -1.8922  -1.7478  -1.7478  -1.0630  -1.0630  -1.0208  -1.0208
    -0.4611  -0.4611  -0.3335  -0.3334  -0.1724  -0.1724  -0.1332  -0.1332
    -0.0849  -0.0849   0.0679   0.0679   0.1423   0.1423   0.1545   0.1545
     0.2512   0.2512   0.3500   0.3500   1.0780   1.0780   1.0849   1.0849
     5.1810   5.1810   5.1843   5.1843   5.2916   5.2916   5.3033   5.3033
     6.5941   6.5941   6.7060   6.7060   6.9844   6.9844   7.1925   7.1925
     7.4067   7.4067   7.4255   7.4255   7.8392   7.8392   7.9696   7.9696
     7.9761   7.9761   8.1359   8.1359   8.3612   8.3612   8.5061   8.5061
     8.5898   8.5902   8.5902

          k =-0.5000 0.0000-0.0855 (123052 PWs)   bands (ev):

   -21.1257 -21.1257 -21.1174 -21.1174 -20.8317 -20.8317 -20.8257 -20.8257
   -19.5084 -19.5084 -19.4949 -19.4949 -18.8163 -18.8163 -18.7986 -18.7986
   -17.3489 -17.3489 -17.3321 -17.3321 -15.6037 -15.6037 -15.5875 -15.5875
   -15.5439 -15.5439 -15.5375 -15.5375 -12.8002 -12.8002 -12.7810 -12.7810
   -12.0050 -12.0050 -11.9798 -11.9798 -11.8322 -11.8322 -11.8084 -11.8084
   -11.2086 -11.2086 -11.1375 -11.1375 -10.0020 -10.0020  -9.9611  -9.9611
    -9.4521  -9.4521  -9.3804  -9.3804  -8.7191  -8.7191  -8.6772  -8.6772
    -7.9363  -7.9363  -7.8788  -7.8788  -7.6687  -7.6687  -7.6132  -7.6132
    -7.1745  -7.1745  -7.0071  -7.0071  -6.2995  -6.2995  -6.2283  -6.2283
    -6.0175  -6.0175  -5.9859  -5.9859  -5.8114  -5.8114  -5.5479  -5.5479
    -5.3091  -5.3091  -5.2245  -5.2244  -5.1651  -5.1651  -5.1364  -5.1364
    -4.9716  -4.9716  -4.9418  -4.9418  -4.8257  -4.8257  -4.7315  -4.7315
    -4.6711  -4.6711  -4.5974  -4.5974  -4.4631  -4.4631  -4.3334  -4.3334
    -4.1418  -4.1418  -4.0535  -4.0535  -3.9029  -3.9029  -3.7234  -3.7234
    -3.6891  -3.6891  -3.6150  -3.6150  -3.1339  -3.1339  -3.0854  -3.0854
    -2.8188  -2.8188  -2.7646  -2.7646  -2.6364  -2.6364  -2.5548  -2.5548
    -2.4658  -2.4658  -2.4437  -2.4437  -2.3904  -2.3904  -2.2807  -2.2807
    -2.2268  -2.2268  -2.1179  -2.1179  -2.0473  -2.0473  -1.9925  -1.9925
    -1.8891  -1.8891  -1.7719  -1.7719  -1.1875  -1.1875  -0.9251  -0.9251
    -0.4331  -0.4331  -0.3226  -0.3226  -0.2835  -0.2835  -0.0825  -0.0825
    -0.0662  -0.0662   0.0573   0.0573   0.1345   0.1345   0.1730   0.1730
     0.2899   0.2900   0.3170   0.3170   0.8691   0.8691   1.2977   1.2977
     5.1080   5.1080   5.2224   5.2224   5.2658   5.2658   5.3440   5.3440
     6.4112   6.4112   6.8493   6.8493   7.0649   7.0649   7.2724   7.2724
     7.4602   7.4602   7.5506   7.5506   7.7983   7.7983   7.8790   7.8790
     7.9569   7.9569   8.1472   8.1472   8.2076   8.2076   8.3848   8.3848
     8.5727   8.5728   8.6470

          k =-0.5000 0.0000-0.5328 (123070 PWs)   bands (ev):

   -21.1277 -21.1236 -21.1184 -21.1165 -20.8332 -20.8302 -20.8276 -20.8238
   -19.5121 -19.5046 -19.4977 -19.4923 -18.8198 -18.8166 -18.7986 -18.7947
   -17.3456 -17.3455 -17.3390 -17.3321 -15.6060 -15.6014 -15.5918 -15.5835
   -15.5449 -15.5446 -15.5386 -15.5347 -12.8069 -12.7891 -12.7849 -12.7817
   -12.0232 -11.9967 -11.9866 -11.9616 -11.8422 -11.8221 -11.8099 -11.8031
   -11.2440 -11.1723 -11.1559 -11.1248 -10.0093  -9.9905  -9.9682  -9.9563
    -9.4774  -9.4199  -9.3872  -9.3816  -8.7348  -8.7046  -8.6980  -8.6569
    -7.9805  -7.9451  -7.8977  -7.8158  -7.6864  -7.6484  -7.6145  -7.6144
    -7.1617  -7.1382  -7.0994  -6.9301  -6.2826  -6.2704  -6.2677  -6.2580
    -6.0485  -6.0148  -6.0047  -5.9478  -5.8405  -5.7777  -5.5575  -5.5380
    -5.3309  -5.2723  -5.2499  -5.2286  -5.2166  -5.2040  -5.1276  -5.0791
    -4.9888  -4.9747  -4.9478  -4.8708  -4.8179  -4.8147  -4.7451  -4.7409
    -4.6953  -4.6570  -4.6113  -4.5688  -4.4593  -4.3786  -4.3761  -4.3359
    -4.1357  -4.1216  -4.0261  -3.9445  -3.9050  -3.8989  -3.8940  -3.8904
    -3.7467  -3.6266  -3.5682  -3.5125  -3.1316  -3.1237  -3.1130  -3.0760
    -2.8474  -2.8020  -2.7755  -2.7657  -2.6390  -2.6118  -2.6001  -2.5640
    -2.5148  -2.4439  -2.4229  -2.4174  -2.4064  -2.3514  -2.2840  -2.2755
    -2.2745  -2.2390  -2.1754  -2.1712  -2.1100  -2.0340  -1.9231  -1.9201
    -1.8947  -1.8931  -1.7630  -1.7387  -1.1005  -1.0945  -1.0200  -0.9905
    -0.4130  -0.3885  -0.3440  -0.3403  -0.3138  -0.2623  -0.0840  -0.0817
    -0.0741  -0.0496   0.0336   0.0793   0.0952   0.1688   0.1697   0.1727
     0.2464   0.2708   0.3206   0.3745   1.0402   1.0816   1.0924   1.1054
     5.0655   5.1354   5.1785   5.2007   5.2859   5.3293   5.3319   5.3747
     6.2911   6.7066   6.7586   6.8007   7.0899   7.1201   7.1226   7.2985
     7.3811   7.4289   7.4904   7.6473   7.7999   7.8816   7.9218   7.9381
     7.9652   7.9656   8.0780   8.0950   8.1834   8.2965   8.3516   8.4191
     8.4521   8.4810   8.5648

          k =-0.5000-0.5563-0.0855 (123100 PWs)   bands (ev):

   -21.1227 -21.1227 -21.1196 -21.1196 -20.8423 -20.8423 -20.8160 -20.8160
   -19.5075 -19.5075 -19.4957 -19.4957 -18.8145 -18.8145 -18.8002 -18.8002
   -17.3503 -17.3503 -17.3309 -17.3309 -15.6048 -15.6048 -15.5862 -15.5862
   -15.5436 -15.5436 -15.5382 -15.5382 -12.7998 -12.7998 -12.7815 -12.7815
   -12.0231 -12.0231 -11.9649 -11.9649 -11.8271 -11.8271 -11.8103 -11.8103
   -11.1773 -11.1773 -11.1666 -11.1666  -9.9945  -9.9945  -9.9741  -9.9741
    -9.4523  -9.4523  -9.3822  -9.3822  -8.7150  -8.7150  -8.6718  -8.6718
    -7.9215  -7.9215  -7.8922  -7.8922  -7.6609  -7.6609  -7.6087  -7.6087
    -7.1848  -7.1848  -7.0321  -7.0321  -6.2836  -6.2836  -6.2244  -6.2244
    -5.9736  -5.9736  -5.9383  -5.9383  -5.7812  -5.7812  -5.6180  -5.6180
    -5.4071  -5.4071  -5.2992  -5.2992  -5.2038  -5.2038  -5.1338  -5.1338
    -5.0025  -5.0025  -4.8522  -4.8522  -4.7851  -4.7851  -4.7209  -4.7209
    -4.6975  -4.6975  -4.5908  -4.5908  -4.4994  -4.4994  -4.2164  -4.2164
    -4.1521  -4.1521  -4.0412  -4.0412  -3.8738  -3.8738  -3.7468  -3.7468
    -3.6732  -3.6732  -3.6422  -3.6422  -3.1080  -3.1079  -3.1014  -3.1014
    -2.8255  -2.8254  -2.7664  -2.7664  -2.5785  -2.5785  -2.5276  -2.5276
    -2.4236  -2.4236  -2.4096  -2.4096  -2.4076  -2.4076  -2.3294  -2.3294
    -2.3017  -2.3017  -2.1800  -2.1800  -2.0625  -2.0625  -1.9373  -1.9373
    -1.9141  -1.9141  -1.7696  -1.7696  -1.1814  -1.1814  -0.9368  -0.9368
    -0.4350  -0.4350  -0.3435  -0.3435  -0.1994  -0.1994  -0.1431  -0.1431
    -0.0391  -0.0391   0.0487   0.0487   0.1274   0.1274   0.1706   0.1706
     0.3009   0.3009   0.3193   0.3193   0.8697   0.8697   1.2934   1.2934
     5.1495   5.1495   5.2111   5.2111   5.2501   5.2501   5.3264   5.3264
     6.6706   6.6706   6.7164   6.7164   7.0243   7.0243   7.0749   7.0750
     7.3930   7.3930   7.4956   7.4956   7.8050   7.8050   7.9080   7.9080
     8.0111   8.0111   8.1952   8.1952   8.3372   8.3372   8.4017   8.4017
     8.5776   8.5776   8.6214

          k =-0.5000-0.5563-0.5328 (123124 PWs)   bands (ev):

   -21.1233 -21.1233 -21.1190 -21.1190 -20.8425 -20.8425 -20.8159 -20.8159
   -19.5084 -19.5084 -19.4949 -19.4949 -18.8164 -18.8164 -18.7983 -18.7982
   -17.3471 -17.3471 -17.3341 -17.3341 -15.6052 -15.6052 -15.5858 -15.5858
   -15.5447 -15.5447 -15.5371 -15.5371 -12.7971 -12.7971 -12.7840 -12.7840
   -12.0337 -12.0337 -11.9532 -11.9532 -11.8332 -11.8332 -11.8029 -11.8029
   -11.2025 -11.2025 -11.1429 -11.1429 -10.0007 -10.0007  -9.9680  -9.9680
    -9.4544  -9.4544  -9.3804  -9.3804  -8.7283  -8.7283  -8.6579  -8.6579
    -7.9537  -7.9537  -7.8676  -7.8676  -7.6649  -7.6649  -7.6096  -7.6096
    -7.1641  -7.1641  -7.0335  -7.0335  -6.2870  -6.2870  -6.2434  -6.2434
    -5.9807  -5.9807  -5.8906  -5.8906  -5.8136  -5.8136  -5.6053  -5.6053
    -5.4182  -5.4182  -5.2740  -5.2740  -5.2627  -5.2627  -5.1166  -5.1166
    -4.9656  -4.9656  -4.8295  -4.8295  -4.7905  -4.7905  -4.7428  -4.7428
    -4.6507  -4.6507  -4.6384  -4.6384  -4.4549  -4.4549  -4.2909  -4.2909
    -4.1219  -4.1219  -4.0333  -4.0333  -3.8747  -3.8747  -3.8185  -3.8185
    -3.6714  -3.6714  -3.5873  -3.5873  -3.1048  -3.1048  -3.1002  -3.1002
    -2.8310  -2.8310  -2.7636  -2.7636  -2.6225  -2.6225  -2.4958  -2.4958
    -2.4490  -2.4490  -2.4085  -2.4085  -2.3809  -2.3809  -2.3531  -2.3531
    -2.3067  -2.3067  -2.1581  -2.1581  -2.0811  -2.0811  -1.9562  -1.9562
    -1.9073  -1.9073  -1.7444  -1.7444  -1.0554  -1.0554  -1.0475  -1.0475
    -0.4622  -0.4622  -0.3234  -0.3234  -0.1737  -0.1737  -0.1378  -0.1378
    -0.0543  -0.0543   0.0497   0.0497   0.1246   0.1246   0.1756   0.1756
     0.2515   0.2515   0.3588   0.3588   1.0585   1.0585   1.0977   1.0977
     5.1502   5.1502   5.1717   5.1717   5.2928   5.2928   5.3277   5.3278
     6.7070   6.7070   6.8019   6.8019   6.8453   6.8453   7.2243   7.2243
     7.2778   7.2778   7.4985   7.4985   7.7502   7.7502   7.8685   7.8685
     8.0862   8.0862   8.2099   8.2099   8.2760   8.2760   8.5021   8.5021
     8.5700   8.5701   8.6305

     highest occupied, lowest unoccupied level (ev):     1.3185    5.0655

!    total energy              =   -1681.77316415 Ry
     Harris-Foulkes estimate   =   -1681.77316416 Ry
     estimated scf accuracy    <          7.0E-09 Ry

     total all-electron energy =     -6368.224100 Ry

     The total energy is the sum of the following terms:

     one-electron contribution =    -992.97182475 Ry
     hartree contribution      =     630.76728461 Ry
     xc contribution           =    -365.60454878 Ry
     ewald contribution        =    -467.45434150 Ry
     Dispersion Correction     =      -0.52029325 Ry
     one-center paw contrib.   =    -485.98944048 Ry

     convergence has been achieved in  19 iterations

     Forces acting on atoms (cartesian axes, Ry/au):

     atom    1 type  4   force =    -0.00008164    0.00016056   -0.00097039
     atom    2 type  4   force =    -0.00008005   -0.00016147   -0.00097094
     atom    3 type  4   force =     0.00008164   -0.00016056    0.00097039
     atom    4 type  4   force =     0.00008005    0.00016147    0.00097094
     atom    5 type  4   force =     0.00089396   -0.00000410   -0.00056313
     atom    6 type  4   force =     0.00089589    0.00000356   -0.00056336
     atom    7 type  4   force =    -0.00089396    0.00000410    0.00056313
     atom    8 type  4   force =    -0.00089589   -0.00000356    0.00056336
     atom    9 type  4   force =    -0.00000186   -0.00014347    0.00079457
     atom   10 type  4   force =    -0.00000128    0.00014285    0.00079571
     atom   11 type  4   force =     0.00000186    0.00014347   -0.00079457
     atom   12 type  4   force =     0.00000128   -0.00014285   -0.00079571
     atom   13 type  2   force =     0.00036734    0.00040555    0.00023457
     atom   14 type  2   force =     0.00036614   -0.00040523    0.00023526
     atom   15 type  2   force =    -0.00036734   -0.00040555   -0.00023457
     atom   16 type  2   force =    -0.00036614    0.00040523   -0.00023526
     atom   17 type  2   force =    -0.00076676    0.00006254    0.00010183
     atom   18 type  2   force =    -0.00076707   -0.00006296    0.00010255
     atom   19 type  2   force =     0.00076676   -0.00006254   -0.00010183
     atom   20 type  2   force =     0.00076707    0.00006296   -0.00010255
     atom   21 type  2   force =    -0.00077921    0.00005304    0.00062170
     atom   22 type  2   force =    -0.00077958   -0.00005284    0.00062157
     atom   23 type  2   force =     0.00077921   -0.00005304   -0.00062170
     atom   24 type  2   force =     0.00077958    0.00005284   -0.00062157
     atom   25 type  2   force =     0.00072230   -0.00100653   -0.00058084
     atom   26 type  2   force =     0.00072400    0.00100727   -0.00058294
     atom   27 type  2   force =    -0.00072230    0.00100653    0.00058084
     atom   28 type  2   force =    -0.00072400   -0.00100727    0.00058294
     atom   29 type  1   force =     0.00035868   -0.00009207   -0.00022754
     atom   30 type  1   force =     0.00034216    0.00009106   -0.00022790
     atom   31 type  1   force =    -0.00035868    0.00009207    0.00022754
     atom   32 type  1   force =    -0.00034216   -0.00009106    0.00022790
     atom   33 type  1   force =    -0.00011459   -0.00019918   -0.00023607
     atom   34 type  1   force =    -0.00012500    0.00019881   -0.00023821
     atom   35 type  1   force =     0.00011459    0.00019918    0.00023607
     atom   36 type  1   force =     0.00012500   -0.00019881    0.00023821
     atom   37 type  1   force =    -0.00000771    0.00017447    0.00020554
     atom   38 type  1   force =     0.00001153   -0.00017410    0.00020911
     atom   39 type  1   force =     0.00000771   -0.00017447   -0.00020554
     atom   40 type  1   force =    -0.00001153    0.00017410   -0.00020911
     atom   41 type  1   force =     0.00065251   -0.00008891    0.00016034
     atom   42 type  1   force =     0.00065980    0.00008998    0.00016355
     atom   43 type  1   force =    -0.00065251    0.00008891   -0.00016034
     atom   44 type  1   force =    -0.00065980   -0.00008998   -0.00016355
     atom   45 type  3   force =     0.00043966    0.00028556    0.00012350
     atom   46 type  3   force =     0.00044000   -0.00028566    0.00012370
     atom   47 type  3   force =    -0.00043966   -0.00028556   -0.00012350
     atom   48 type  3   force =    -0.00044000    0.00028566   -0.00012370
     atom   49 type  3   force =    -0.00040494   -0.00043531    0.00010113
     atom   50 type  3   force =    -0.00040472    0.00043514    0.00010099
     atom   51 type  3   force =     0.00040494    0.00043531   -0.00010113
     atom   52 type  3   force =     0.00040472   -0.00043514   -0.00010099
     atom   53 type  3   force =     0.00016372   -0.00098841   -0.00064927
     atom   54 type  3   force =     0.00016374    0.00098829   -0.00064922
     atom   55 type  3   force =    -0.00016372    0.00098841    0.00064927
     atom   56 type  3   force =    -0.00016374   -0.00098829    0.00064922
     atom   57 type  1   force =    -0.00018663   -0.00062623   -0.00015842
     atom   58 type  1   force =    -0.00019947    0.00062631   -0.00016068
     atom   59 type  1   force =     0.00018663    0.00062623    0.00015842
     atom   60 type  1   force =     0.00019947   -0.00062631    0.00016068
     atom   61 type  3   force =     0.00030866    0.00030555    0.00023268
     atom   62 type  3   force =     0.00030854   -0.00030567    0.00023248
     atom   63 type  3   force =    -0.00030866   -0.00030555   -0.00023268
     atom   64 type  3   force =    -0.00030854    0.00030567   -0.00023248
     atom   65 type  3   force =    -0.00002608   -0.00039156    0.00003711
     atom   66 type  3   force =    -0.00002668    0.00039168    0.00003742
     atom   67 type  3   force =     0.00002608    0.00039156   -0.00003711
     atom   68 type  3   force =     0.00002668   -0.00039168   -0.00003742
     atom   69 type  3   force =     0.00037755    0.00037069    0.00002945
     atom   70 type  3   force =     0.00037745   -0.00037047    0.00002940
     atom   71 type  3   force =    -0.00037755   -0.00037069   -0.00002945
     atom   72 type  3   force =    -0.00037745    0.00037047   -0.00002940
     atom   73 type  1   force =    -0.00029657   -0.00050307   -0.00002284
     atom   74 type  1   force =    -0.00030646    0.00050250   -0.00002681
     atom   75 type  1   force =     0.00029657    0.00050307    0.00002284
     atom   76 type  1   force =     0.00030646   -0.00050250    0.00002681
     atom   77 type  3   force =    -0.00025926   -0.00024383   -0.00032281
     atom   78 type  3   force =    -0.00025917    0.00024437   -0.00032387
     atom   79 type  3   force =     0.00025926    0.00024383    0.00032281
     atom   80 type  3   force =     0.00025917   -0.00024437    0.00032387
     atom   81 type  3   force =     0.00020527    0.00016740    0.00024922
     atom   82 type  3   force =     0.00020553   -0.00016688    0.00024989
     atom   83 type  3   force =    -0.00020527   -0.00016740   -0.00024922
     atom   84 type  3   force =    -0.00020553    0.00016688   -0.00024989
     atom   85 type  1   force =    -0.00005537    0.00029040   -0.00046491
     atom   86 type  1   force =    -0.00006764   -0.00029152   -0.00046592
     atom   87 type  1   force =     0.00005537   -0.00029040    0.00046491
     atom   88 type  1   force =     0.00006764    0.00029152    0.00046592
     atom   89 type  3   force =     0.00008596   -0.00037688   -0.00028609
     atom   90 type  3   force =     0.00008538    0.00037693   -0.00028577
     atom   91 type  3   force =    -0.00008596    0.00037688    0.00028609
     atom   92 type  3   force =    -0.00008538   -0.00037693    0.00028577
     atom   93 type  3   force =    -0.00022134    0.00082658    0.00020275
     atom   94 type  3   force =    -0.00022176   -0.00082701    0.00020231
     atom   95 type  3   force =     0.00022134   -0.00082658   -0.00020275
     atom   96 type  3   force =     0.00022176    0.00082701   -0.00020231
     atom   97 type  1   force =    -0.00004848    0.00008677   -0.00046422
     atom   98 type  1   force =    -0.00003747   -0.00008638   -0.00046267
     atom   99 type  1   force =     0.00004848   -0.00008677    0.00046422
     atom  100 type  1   force =     0.00003747    0.00008638    0.00046267
     atom  101 type  3   force =    -0.00069146    0.00044871   -0.00044923
     atom  102 type  3   force =    -0.00069183   -0.00044900   -0.00044963
     atom  103 type  3   force =     0.00069146   -0.00044871    0.00044923
     atom  104 type  3   force =     0.00069183    0.00044900    0.00044963
     atom  105 type  3   force =    -0.00008542   -0.00023890    0.00024121
     atom  106 type  3   force =    -0.00008558    0.00023856    0.00024166
     atom  107 type  3   force =     0.00008542    0.00023890   -0.00024121
     atom  108 type  3   force =     0.00008558   -0.00023856   -0.00024166
     atom  109 type  1   force =     0.00082041    0.00085888    0.00049853
     atom  110 type  1   force =     0.00082716   -0.00085750    0.00049775
     atom  111 type  1   force =    -0.00082041   -0.00085888   -0.00049853
     atom  112 type  1   force =    -0.00082716    0.00085750   -0.00049775
     atom  113 type  3   force =    -0.00082520   -0.00022989   -0.00045524
     atom  114 type  3   force =    -0.00082507    0.00023050   -0.00045487
     atom  115 type  3   force =     0.00082520    0.00022989    0.00045524
     atom  116 type  3   force =     0.00082507   -0.00023050    0.00045487
     atom  117 type  3   force =     0.00067969    0.00089340    0.00015503
     atom  118 type  3   force =     0.00068019   -0.00089338    0.00015449
     atom  119 type  3   force =    -0.00067969   -0.00089340   -0.00015503
     atom  120 type  3   force =    -0.00068019    0.00089338   -0.00015449

     Total force =     0.008427     Total SCF correction =     0.000157


     Computing stress (Cartesian axis) and pressure

          total   stress  (Ry/bohr**3)                   (kbar)     P=   -7.93
  -0.00005662  -0.00000000  -0.00000306         -8.33     -0.00     -0.45
  -0.00000000  -0.00005683  -0.00000000         -0.00     -8.36     -0.00
  -0.00000306  -0.00000000  -0.00004824         -0.45     -0.00     -7.10


     Writing output data file scf.save
 
     init_run     :     66.56s CPU     68.92s WALL (       1 calls)
     electrons    :   2790.62s CPU   2890.79s WALL (       1 calls)
     forces       :     33.89s CPU     34.16s WALL (       1 calls)
     stress       :    147.71s CPU    148.21s WALL (       1 calls)

     Called by init_run:
     wfcinit      :     54.93s CPU     57.10s WALL (       1 calls)
     potinit      :      4.16s CPU      4.22s WALL (       1 calls)

     Called by electrons:
     c_bands      :   2536.54s CPU   2621.80s WALL (      19 calls)
     sum_band     :    234.36s CPU    247.30s WALL (      19 calls)
     v_of_rho     :      2.68s CPU      2.96s WALL (      20 calls)
     newd         :      7.24s CPU      8.82s WALL (      20 calls)
     PAW_pot      :      9.13s CPU      9.14s WALL (      20 calls)
     mix_rho      :      0.60s CPU      0.65s WALL (      19 calls)

     Called by c_bands:
     init_us_2    :     12.09s CPU     12.14s WALL (     328 calls)
     cegterg      :   2490.16s CPU   2575.35s WALL (     152 calls)

     Called by sum_band:
     sum_band:bec :      0.14s CPU      0.14s WALL (     152 calls)
     addusdens    :      7.31s CPU      8.82s WALL (      19 calls)

     Called by *egterg:
     h_psi        :   1277.00s CPU   1344.94s WALL (     764 calls)
     s_psi        :    319.54s CPU    319.62s WALL (     764 calls)
     g_psi        :      5.95s CPU      5.95s WALL (     604 calls)
     cdiaghg      :    139.83s CPU    139.86s WALL (     756 calls)

     Called by h_psi:
     h_psi:pot    :   1268.95s CPU   1336.76s WALL (     764 calls)
     h_psi:calbec :    308.37s CPU    308.81s WALL (     764 calls)
     vloc_psi     :    641.02s CPU    708.33s WALL (     764 calls)
     add_vuspsi   :    319.55s CPU    319.62s WALL (     764 calls)

     General routines
     calbec       :    438.88s CPU    439.53s WALL (     956 calls)
     fft          :      1.67s CPU      2.16s WALL (     284 calls)
     fftw         :    685.67s CPU    762.45s WALL (  220020 calls)
 
     Parallel routines
     fft_scatter  :    125.59s CPU    195.08s WALL (  220304 calls)
 
     PWSCF        : 50m53.11s CPU    53m32.12s WALL

 
   This run was terminated on:  13:17:35  13Nov2017            

=------------------------------------------------------------------------------=
   JOB DONE.
=------------------------------------------------------------------------------=
