
     Program PWSCF v.6.1 (svn rev. 13369) starts on  3Nov2017 at 21: 7:36 

     This program is part of the open-source Quantum ESPRESSO suite
     for quantum simulation of materials; please cite
         "P. Giannozzi et al., J. Phys.:Condens. Matter 21 395502 (2009);
          URL http://www.quantum-espresso.org", 
     in publications or presentations arising from this work. More details at
     http://www.quantum-espresso.org/quote

     Parallel version (MPI), running on     8 processors
     R & G space division:  proc/nbgrp/npool/nimage =       8
     Waiting for input...
     Reading input from standard input

     Current dimensions of program PWSCF are:
     Max number of different atomic species (ntypx) = 10
     Max number of k-points (npk) =  40000
     Max angular momentum in pseudopotentials (lmaxx) =  3
               file C.pbe-n-kjpaw_psl.0.1.UPF: wavefunction(s)  2P renormalized
               file N.pbe-n-kjpaw_psl.0.1.UPF: wavefunction(s)  2P renormalized
               file H.pbe-kjpaw_psl.0.1.UPF: wavefunction(s)  1S renormalized
               file O.pbe-n-kjpaw_psl.0.1.UPF: wavefunction(s)  2P renormalized

     -------------------------------------
     Parameters for Dispersion Correction:
     -------------------------------------
       atom      VdW radius       C_6     

        C          2.744         60.710
        N          2.640         42.670
        H          1.892          4.857
        O          2.536         24.284

     Subspace diagonalization in iterative solution of the eigenvalue problem:
     a serial algorithm will be used

 
     Parallelization info
     --------------------
     sticks:   dense  smooth     PW     G-vecs:    dense   smooth      PW
     Min         574     574    155                42772    42772    6005
     Max         575     575    156                42775    42775    6008
     Sum        4593    4593   1241               342187   342187   48047
 


     bravais-lattice index     =            0
     lattice parameter (alat)  =       9.5284  a.u.
     unit-cell volume          =    2532.2671 (a.u.)^3
     number of atoms/cell      =           44
     number of atomic types    =            4
     number of electrons       =       120.00
     number of Kohn-Sham states=           72
     kinetic-energy cutoff     =     100.0000  Ry
     charge density cutoff     =     400.0000  Ry
     convergence threshold     =      1.0E-08
     mixing beta               =       0.5000
     number of iterations used =            8  plain     mixing
     Exchange-correlation      =  SLA  PW   PBX  PBC ( 1  4  3  4 0 0)

     celldm(1)=   9.528377  celldm(2)=   0.000000  celldm(3)=   0.000000
     celldm(4)=   0.000000  celldm(5)=   0.000000  celldm(6)=   0.000000

     crystal axes: (cart. coord. in units of alat)
               a(1) = (   1.000000   0.000000   0.000000 )  
               a(2) = (   0.000000   1.589782   0.000000 )  
               a(3) = (   0.000000   0.000000   1.841260 )  

     reciprocal axes: (cart. coord. in units 2 pi/alat)
               b(1) = (  1.000000  0.000000  0.000000 )  
               b(2) = (  0.000000  0.629017  0.000000 )  
               b(3) = (  0.000000  0.000000  0.543106 )  


     PseudoPot. # 1 for  C read from file:
     /scratch/ahofstet/pseudo/C.pbe-n-kjpaw_psl.0.1.UPF
     MD5 check sum: 430fe95172b1e11ef3f8ed03bac87931
     Pseudo is Projector augmented-wave + core cor, Zval =  4.0
     Generated using "atomic" code by A. Dal Corso  v.5.0.99 svn rev. 10869
     Shape of augmentation charge: BESSEL
     Using radial grid of 1073 points,  4 beta functions with: 
                l(1) =   0
                l(2) =   0
                l(3) =   1
                l(4) =   1
     Q(r) pseudized with 0 coefficients 


     PseudoPot. # 2 for  N read from file:
     /scratch/ahofstet/pseudo/N.pbe-n-kjpaw_psl.0.1.UPF
     MD5 check sum: f73187c8b701007e77325f868c9291d7
     Pseudo is Projector augmented-wave + core cor, Zval =  5.0
     Generated using "atomic" code by A. Dal Corso  v.5.0.99 svn rev. 10869
     Shape of augmentation charge: PSQ
     Using radial grid of 1085 points,  4 beta functions with: 
                l(1) =   0
                l(2) =   0
                l(3) =   1
                l(4) =   1
     Q(r) pseudized with 0 coefficients 


     PseudoPot. # 3 for  H read from file:
     /scratch/ahofstet/pseudo/H.pbe-kjpaw_psl.0.1.UPF
     MD5 check sum: 94e484f906d9e9773b2f6e52662335b2
     Pseudo is Projector augmented-wave, Zval =  1.0
     Generated using "atomic" code by A. Dal Corso  v.5.0.99 svn rev. 10869
     Shape of augmentation charge: PSQ
     Using radial grid of  929 points,  2 beta functions with: 
                l(1) =   0
                l(2) =   0
     Q(r) pseudized with 0 coefficients 


     PseudoPot. # 4 for  O read from file:
     /scratch/ahofstet/pseudo/O.pbe-n-kjpaw_psl.0.1.UPF
     MD5 check sum: 3f94a2996a3169367d6eb21d9b593f20
     Pseudo is Projector augmented-wave + core cor, Zval =  6.0
     Generated using "atomic" code by A. Dal Corso  v.5.0.99 svn rev. 10869
     Shape of augmentation charge: BESSEL
     Using radial grid of 1095 points,  4 beta functions with: 
                l(1) =   0
                l(2) =   0
                l(3) =   1
                l(4) =   1
     Q(r) pseudized with 0 coefficients 


     atomic species   valence    mass     pseudopotential
        C              4.00    12.01070      C( 1.00)
        N              5.00    14.00670      N( 1.00)
        H              1.00     1.00794      H( 1.00)
        O              6.00    15.99940      O( 1.00)

      2 Sym. Ops. (no inversion) found ( 1 have fractional translation)



   Cartesian axes

     site n.     atom                  positions (alat units)
         1           O   tau(   1) = (   0.1972916   0.4954934   1.1579815  )
         2           O   tau(   2) = (   0.3027084   1.0942888   0.2373516  )
         3           O   tau(   3) = (   0.8025755   1.2906850   1.6039250  )
         4           O   tau(   4) = (   0.6974245   0.2990973   0.6832951  )
         5           H   tau(   5) = (   0.0854215   0.3788396   1.0371428  )
         6           H   tau(   6) = (   0.4145785   1.2109427   0.1165129  )
         7           H   tau(   7) = (   0.9145372   1.1741601   1.7247738  )
         8           H   tau(   8) = (   0.5854628   0.4156222   0.8041439  )
         9           N   tau(   9) = (   0.3843330   0.6228661   0.9863064  )
        10           N   tau(  10) = (   0.1156670   0.9669162   0.0656765  )
        11           N   tau(  11) = (   0.6155652   1.4180991   1.7755904  )
        12           N   tau(  12) = (   0.8844348   0.1716832   0.8549605  )
        13           N   tau(  13) = (   0.4291836   0.9239517   1.3433947  )
        14           N   tau(  14) = (   0.0708164   0.6658305   0.4227648  )
        15           N   tau(  15) = (   0.5708489   0.1294731   1.4185439  )
        16           N   tau(  16) = (   0.9291511   1.4603091   0.4979140  )
        17           H   tau(  17) = (   0.2917505   0.8313346   1.4576980  )
        18           H   tau(  18) = (   0.2082495   0.7584476   0.5370681  )
        19           H   tau(  19) = (   0.7082612   0.0367965   1.3042161  )
        20           H   tau(  20) = (   0.7917388   1.5529858   0.3835862  )
        21           H   tau(  21) = (   0.5502215   1.0610812   1.4322056  )
        22           H   tau(  22) = (   0.9497785   0.5287010   0.5115757  )
        23           H   tau(  23) = (   0.4497009   0.2664647   1.3296621  )
        24           H   tau(  24) = (   0.0502991   1.3233176   0.4090322  )
        25           C   tau(  25) = (   0.4978378   0.8264844   1.1042776  )
        26           C   tau(  26) = (   0.0021622   0.7632979   0.1836477  )
        27           C   tau(  27) = (   0.5021369   0.0319813   1.6576166  )
        28           C   tau(  28) = (   0.9978631   1.5578010   0.7369867  )
        29           C   tau(  29) = (   0.7194496   0.9613456   0.9602581  )
        30           C   tau(  30) = (   0.7805504   0.6284366   0.0396282  )
        31           C   tau(  31) = (   0.2805687   0.1669507   1.8016005  )
        32           C   tau(  32) = (   0.2194313   1.4228315   0.8809706  )
        33           H   tau(  33) = (   0.9133717   0.9148081   1.0533472  )
        34           H   tau(  34) = (   0.5866283   0.6749741   0.1327173  )
        35           H   tau(  35) = (   0.0866140   0.1205351   1.7085315  )
        36           H   tau(  36) = (   0.4133860   1.4692471   0.7879016  )
        37           H   tau(  37) = (   0.6936475   1.1775947   0.9649183  )
        38           H   tau(  38) = (   0.8063525   0.4121876   0.0442885  )
        39           H   tau(  39) = (   0.3064974   0.3831736   1.7968838  )
        40           H   tau(  40) = (   0.1935026   1.2066086   0.8762539  )
        41           H   tau(  41) = (   0.7278057   0.8960403   0.7532612  )
        42           H   tau(  42) = (   0.7721943   0.6937419   1.6738911  )
        43           H   tau(  43) = (   0.2721820   0.1017411   0.1673914  )
        44           H   tau(  44) = (   0.2278180   1.4880412   1.0880212  )

     number of k points=    14
                       cart. coord. in units 2pi/alat
        k(    1) = (   0.0000000   0.0000000   0.0000000), wk =   0.0833333
        k(    2) = (   0.0000000   0.0000000  -0.2715532), wk =   0.0833333
        k(    3) = (   0.0000000   0.2096723   0.0000000), wk =   0.1666667
        k(    4) = (   0.0000000   0.2096723  -0.2715532), wk =   0.1666667
        k(    5) = (   0.2500000   0.0000000   0.0000000), wk =   0.1666667
        k(    6) = (   0.2500000   0.0000000  -0.2715532), wk =   0.1666667
        k(    7) = (   0.2500000   0.2096723   0.0000000), wk =   0.1666667
        k(    8) = (   0.2500000   0.2096723  -0.2715532), wk =   0.1666667
        k(    9) = (  -0.5000000   0.0000000   0.0000000), wk =   0.0833333
        k(   10) = (  -0.5000000   0.0000000  -0.2715532), wk =   0.0833333
        k(   11) = (  -0.5000000   0.2096723   0.0000000), wk =   0.1666667
        k(   12) = (  -0.5000000   0.2096723  -0.2715532), wk =   0.1666667
        k(   13) = (  -0.2500000   0.2096723   0.0000000), wk =   0.1666667
        k(   14) = (  -0.2500000   0.2096723   0.2715532), wk =   0.1666667

     Dense  grid:   342187 G-vectors     FFT dimensions: (  64, 100, 120)

     Estimated max dynamical RAM per process >     180.47MB

     Estimated total allocated dynamical RAM >    1443.74MB

     Check: negative/imaginary core charge=   -0.000002    0.000000

     Initial potential from superposition of free atoms

     starting charge  119.99937, renormalised to  120.00000
     Starting wfc are  104 randomized atomic wfcs
     Checking if some PAW data can be deallocated... 

     total cpu time spent up to now is        9.7 secs

     per-process dynamical memory:   198.8 Mb

     Self-consistent Calculation

     iteration #  1     ecut=   100.00 Ry     beta=0.50
     Davidson diagonalization with overlap
     ethr =  1.00E-02,  avg # of iterations =  3.2

     total cpu time spent up to now is       31.1 secs

     total energy              =    -567.55530582 Ry
     Harris-Foulkes estimate   =    -569.81649962 Ry
     estimated scf accuracy    <       4.31761340 Ry

     iteration #  2     ecut=   100.00 Ry     beta=0.50
     Davidson diagonalization with overlap
     ethr =  3.60E-03,  avg # of iterations =  2.2

     total cpu time spent up to now is       44.9 secs

     total energy              =    -568.13625085 Ry
     Harris-Foulkes estimate   =    -568.28996705 Ry
     estimated scf accuracy    <       0.37563263 Ry

     iteration #  3     ecut=   100.00 Ry     beta=0.50
     Davidson diagonalization with overlap
     ethr =  3.13E-04,  avg # of iterations =  6.4

     total cpu time spent up to now is       67.3 secs

     total energy              =    -568.34696946 Ry
     Harris-Foulkes estimate   =    -568.44190190 Ry
     estimated scf accuracy    <       0.26626923 Ry

     iteration #  4     ecut=   100.00 Ry     beta=0.50
     Davidson diagonalization with overlap
     ethr =  2.22E-04,  avg # of iterations =  1.0

     total cpu time spent up to now is       78.7 secs

     total energy              =    -568.31235917 Ry
     Harris-Foulkes estimate   =    -568.36091544 Ry
     estimated scf accuracy    <       0.08329932 Ry

     iteration #  5     ecut=   100.00 Ry     beta=0.50
     Davidson diagonalization with overlap
     ethr =  6.94E-05,  avg # of iterations =  5.0

     total cpu time spent up to now is      100.6 secs

     total energy              =    -568.37326493 Ry
     Harris-Foulkes estimate   =    -568.41090468 Ry
     estimated scf accuracy    <       0.14362933 Ry

     iteration #  6     ecut=   100.00 Ry     beta=0.50
     Davidson diagonalization with overlap
     ethr =  6.94E-05,  avg # of iterations =  1.0

     total cpu time spent up to now is      112.0 secs

     total energy              =    -568.35752799 Ry
     Harris-Foulkes estimate   =    -568.37647325 Ry
     estimated scf accuracy    <       0.07515041 Ry

     iteration #  7     ecut=   100.00 Ry     beta=0.50
     Davidson diagonalization with overlap
     ethr =  6.26E-05,  avg # of iterations =  3.0

     total cpu time spent up to now is      126.0 secs

     total energy              =    -568.36392149 Ry
     Harris-Foulkes estimate   =    -568.36806710 Ry
     estimated scf accuracy    <       0.01018280 Ry

     iteration #  8     ecut=   100.00 Ry     beta=0.50
     Davidson diagonalization with overlap
     ethr =  8.49E-06,  avg # of iterations =  5.7

     total cpu time spent up to now is      140.6 secs

     total energy              =    -568.36385842 Ry
     Harris-Foulkes estimate   =    -568.36487012 Ry
     estimated scf accuracy    <       0.00222304 Ry

     iteration #  9     ecut=   100.00 Ry     beta=0.50
     Davidson diagonalization with overlap
     ethr =  1.85E-06,  avg # of iterations =  6.0

     total cpu time spent up to now is      162.8 secs

     total energy              =    -568.36557664 Ry
     Harris-Foulkes estimate   =    -568.36583288 Ry
     estimated scf accuracy    <       0.00058080 Ry

     iteration # 10     ecut=   100.00 Ry     beta=0.50
     Davidson diagonalization with overlap
     ethr =  4.84E-07,  avg # of iterations =  2.0

     total cpu time spent up to now is      174.9 secs

     total energy              =    -568.36557071 Ry
     Harris-Foulkes estimate   =    -568.36561037 Ry
     estimated scf accuracy    <       0.00012049 Ry

     iteration # 11     ecut=   100.00 Ry     beta=0.50
     Davidson diagonalization with overlap
     ethr =  1.00E-07,  avg # of iterations =  4.0

     total cpu time spent up to now is      192.8 secs

     total energy              =    -568.36565452 Ry
     Harris-Foulkes estimate   =    -568.36565814 Ry
     estimated scf accuracy    <       0.00001195 Ry

     iteration # 12     ecut=   100.00 Ry     beta=0.50
     Davidson diagonalization with overlap
     ethr =  9.96E-09,  avg # of iterations =  1.2

     total cpu time spent up to now is      204.3 secs

     total energy              =    -568.36565233 Ry
     Harris-Foulkes estimate   =    -568.36565492 Ry
     estimated scf accuracy    <       0.00000520 Ry

     iteration # 13     ecut=   100.00 Ry     beta=0.50
     Davidson diagonalization with overlap
     ethr =  4.34E-09,  avg # of iterations =  4.0

     total cpu time spent up to now is      221.5 secs

     total energy              =    -568.36565476 Ry
     Harris-Foulkes estimate   =    -568.36565496 Ry
     estimated scf accuracy    <       0.00000062 Ry

     iteration # 14     ecut=   100.00 Ry     beta=0.50
     Davidson diagonalization with overlap
     ethr =  5.16E-10,  avg # of iterations =  1.3

     total cpu time spent up to now is      233.0 secs

     total energy              =    -568.36565465 Ry
     Harris-Foulkes estimate   =    -568.36565478 Ry
     estimated scf accuracy    <       0.00000030 Ry

     iteration # 15     ecut=   100.00 Ry     beta=0.50
     Davidson diagonalization with overlap
     ethr =  2.48E-10,  avg # of iterations =  3.7

     total cpu time spent up to now is      249.2 secs

     End of self-consistent calculation

          k = 0.0000 0.0000 0.0000 ( 42753 PWs)   bands (ev):

   -20.4841 -20.4368 -20.2118 -20.1802 -17.2211 -17.1743 -17.0887 -17.0871
   -14.6147 -14.4094 -14.1753 -14.1638 -11.9224 -11.9183 -11.6863 -11.6635
    -8.4215  -8.2358  -8.1419  -7.9932  -7.4064  -7.3750  -7.0481  -6.9908
    -6.9495  -6.8004  -6.7224  -6.7065  -5.3355  -5.0737  -4.8817  -4.7910
    -4.5967  -4.5664  -4.2912  -4.1895  -3.7657  -3.7460  -3.7216  -3.6589
    -3.5542  -3.5178  -3.4555  -3.4219  -3.2193  -3.1127  -3.0933  -3.0821
    -1.9057  -1.6899  -1.4185  -1.2159  -1.1669  -1.0295  -0.2923  -0.1712
     0.7315   0.7405   0.9191   1.0036   5.4344   5.4647   5.6647   5.7943
     5.9200   6.5410   7.0646   7.0739   7.2876   7.7042   7.7601   8.0906

          k = 0.0000 0.0000-0.2716 ( 42808 PWs)   bands (ev):

   -20.4620 -20.4620 -20.1944 -20.1944 -17.1992 -17.1992 -17.0869 -17.0869
   -14.5197 -14.5197 -14.1617 -14.1617 -11.9219 -11.9219 -11.6751 -11.6751
    -8.2642  -8.2642  -8.1370  -8.1370  -7.3958  -7.3958  -7.0540  -7.0540
    -6.8248  -6.8248  -6.7205  -6.7205  -5.2718  -5.2718  -4.7445  -4.7445
    -4.5673  -4.5673  -4.2020  -4.2020  -3.8246  -3.8246  -3.6286  -3.6286
    -3.5842  -3.5842  -3.4664  -3.4664  -3.1816  -3.1816  -3.0799  -3.0799
    -1.8449  -1.8449  -1.2852  -1.2852  -1.0929  -1.0929  -0.2052  -0.2052
     0.7291   0.7291   0.9838   0.9838   5.4429   5.4429   5.7458   5.7458
     6.1040   6.1040   7.2811   7.2811   7.5127   7.5127   7.7768   7.7768

          k = 0.0000 0.2097 0.0000 ( 42742 PWs)   bands (ev):

   -20.4719 -20.4483 -20.2046 -20.1888 -17.2017 -17.1425 -17.1403 -17.0897
   -14.5655 -14.4651 -14.1635 -14.1553 -11.9713 -11.9676 -11.6384 -11.6251
    -8.4098  -8.3245  -8.0744  -8.0075  -7.3605  -7.3266  -7.0097  -6.9845
    -6.8966  -6.8154  -6.7896  -6.7441  -5.2942  -5.2684  -4.9517  -4.8053
    -4.5191  -4.4712  -4.1562  -4.1147  -3.9209  -3.9060  -3.7324  -3.6503
    -3.5482  -3.4991  -3.4227  -3.4201  -3.2471  -3.2439  -3.0246  -2.9431
    -1.7218  -1.6940  -1.5718  -1.3977  -1.0606  -0.9946  -0.2617  -0.2008
     0.7806   0.8348   0.8636   0.9795   5.3957   5.4128   5.7882   5.8161
     5.9851   6.4853   6.7365   6.9522   7.4729   7.4875   7.9438   8.1490

          k = 0.0000 0.2097-0.2716 ( 42740 PWs)   bands (ev):

   -20.4603 -20.4603 -20.1964 -20.1964 -17.1835 -17.1835 -17.1038 -17.1038
   -14.5142 -14.5142 -14.1604 -14.1604 -11.9701 -11.9701 -11.6329 -11.6329
    -8.3141  -8.3141  -8.0980  -8.0980  -7.3304  -7.3304  -7.0026  -7.0026
    -6.8549  -6.8549  -6.7922  -6.7922  -5.2049  -5.2049  -4.9239  -4.9239
    -4.4895  -4.4895  -4.1442  -4.1442  -3.7953  -3.7953  -3.7257  -3.7257
    -3.5600  -3.5600  -3.5007  -3.5007  -3.2445  -3.2445  -2.9819  -2.9819
    -1.7371  -1.7371  -1.4631  -1.4631  -1.0184  -1.0184  -0.2089  -0.2089
     0.8059   0.8059   0.9398   0.9398   5.4231   5.4231   5.7544   5.7544
     6.1930   6.1930   6.8584   6.8584   7.6570   7.6570   8.1383   8.1383

          k = 0.2500 0.0000 0.0000 ( 42754 PWs)   bands (ev):

   -20.4415 -20.3980 -20.2480 -20.2166 -17.2088 -17.1755 -17.0946 -17.0915
   -14.5531 -14.3827 -14.2411 -14.2101 -11.9120 -11.8810 -11.7438 -11.6932
    -8.3466  -8.2886  -8.2262  -8.0326  -7.2866  -7.2569  -7.0962  -7.0278
    -6.9501  -6.7893  -6.7449  -6.7243  -5.3743  -5.1194  -5.0648  -4.8461
    -4.8251  -4.6715  -4.4574  -4.1953  -3.8346  -3.7307  -3.7242  -3.5907
    -3.5068  -3.4657  -3.4045  -3.3772  -2.9730  -2.9535  -2.9078  -2.8447
    -1.7936  -1.5698  -1.4896  -1.2853  -1.0385  -0.8901  -0.4036  -0.2802
     0.7520   0.7608   0.9525   1.0092   5.4161   5.4934   5.5035   5.6970
     6.1520   6.6194   7.1295   7.1826   7.3566   7.5027   7.9837   8.1630

          k = 0.2500 0.0000-0.2716 ( 42788 PWs)   bands (ev):

   -20.4216 -20.4216 -20.2304 -20.2304 -17.1929 -17.1929 -17.0925 -17.0925
   -14.4763 -14.4763 -14.2174 -14.2174 -11.8974 -11.8974 -11.7179 -11.7179
    -8.2812  -8.2812  -8.1698  -8.1698  -7.3057  -7.3057  -7.0471  -7.0471
    -6.8462  -6.8462  -6.7273  -6.7273  -5.2815  -5.2815  -4.9994  -4.9994
    -4.6964  -4.6964  -4.3116  -4.3116  -3.7472  -3.7472  -3.6641  -3.6641
    -3.4825  -3.4825  -3.4217  -3.4217  -2.9584  -2.9584  -2.8819  -2.8819
    -1.7254  -1.7254  -1.3497  -1.3497  -0.9641  -0.9641  -0.3237  -0.3237
     0.7466   0.7466   0.9821   0.9821   5.4584   5.4584   5.6176   5.6176
     6.3300   6.3300   7.1705   7.1705   7.4505   7.4505   8.0565   8.0565

          k = 0.2500 0.2097 0.0000 ( 42766 PWs)   bands (ev):

   -20.4304 -20.4087 -20.2405 -20.2249 -17.1899 -17.1462 -17.1372 -17.0997
   -14.5133 -14.4303 -14.2256 -14.2097 -11.9317 -11.9233 -11.6992 -11.6797
    -8.3583  -8.3327  -8.1628  -8.0684  -7.2531  -7.2348  -7.0501  -7.0217
    -6.9075  -6.8238  -6.7862  -6.7580  -5.3678  -5.2617  -5.0111  -4.8334
    -4.7894  -4.7223  -4.2764  -4.1587  -3.9058  -3.7323  -3.7193  -3.6728
    -3.4963  -3.4869  -3.4286  -3.3765  -3.0115  -2.9377  -2.9027  -2.8392
    -1.6783  -1.5875  -1.5115  -1.3980  -0.9753  -0.9007  -0.3740  -0.3116
     0.8089   0.8305   0.9112   0.9816   5.3793   5.4253   5.6434   5.6941
     6.2638   6.5299   6.9277   7.0333   7.4709   7.7710   7.9245   8.1339

          k = 0.2500 0.2097-0.2716 ( 42768 PWs)   bands (ev):

   -20.4199 -20.4199 -20.2324 -20.2324 -17.1757 -17.1757 -17.1109 -17.1109
   -14.4706 -14.4706 -14.2190 -14.2190 -11.9266 -11.9266 -11.6908 -11.6908
    -8.3088  -8.3088  -8.1569  -8.1569  -7.2360  -7.2360  -7.0292  -7.0292
    -6.8709  -6.8709  -6.7868  -6.7868  -5.2303  -5.2303  -5.0155  -5.0155
    -4.7627  -4.7627  -4.2142  -4.2142  -3.7686  -3.7686  -3.6974  -3.6974
    -3.4903  -3.4903  -3.4352  -3.4352  -2.9678  -2.9678  -2.8774  -2.8774
    -1.6491  -1.6491  -1.4407  -1.4407  -0.9346  -0.9346  -0.3310  -0.3310
     0.8177   0.8177   0.9385   0.9385   5.4419   5.4419   5.6383   5.6383
     6.3994   6.3994   6.9367   6.9367   7.7000   7.7000   8.0452   8.0452

          k =-0.5000 0.0000 0.0000 ( 42734 PWs)   bands (ev):

   -20.3416 -20.3415 -20.3062 -20.3061 -17.1861 -17.1860 -17.0986 -17.0986
   -14.3999 -14.3995 -14.3064 -14.3058 -11.8441 -11.8440 -11.7901 -11.7899
    -8.3218  -8.3212  -8.1711  -8.1705  -7.1667  -7.1666  -7.0814  -7.0809
    -6.8471  -6.8466  -6.7840  -6.7838  -5.2925  -5.2921  -5.1509  -5.1505
    -4.7499  -4.7487  -4.4929  -4.4918  -3.7242  -3.7231  -3.6682  -3.6676
    -3.4658  -3.4650  -3.3021  -3.3015  -2.8408  -2.8401  -2.6353  -2.6342
    -1.6378  -1.6377  -1.4245  -1.4242  -0.6910  -0.6900  -0.5600  -0.5597
     0.7832   0.7834   0.9983   0.9986   5.4478   5.4480   5.5509   5.5513
     6.4355   6.4355   7.1473   7.1475   7.4850   7.4858   8.1215   8.1235

          k =-0.5000 0.0000-0.2716 ( 42708 PWs)   bands (ev):

   -20.3409 -20.3409 -20.3067 -20.3067 -17.1860 -17.1860 -17.0987 -17.0987
   -14.3913 -14.3913 -14.3150 -14.3150 -11.8220 -11.8220 -11.8110 -11.8110
    -8.3119  -8.3119  -8.1809  -8.1809  -7.2621  -7.2621  -6.9628  -6.9628
    -6.8628  -6.8628  -6.7743  -6.7743  -5.2726  -5.2726  -5.1910  -5.1910
    -4.7921  -4.7921  -4.4781  -4.4781  -3.7024  -3.7024  -3.6622  -3.6622
    -3.4232  -3.4232  -3.3446  -3.3446  -2.7736  -2.7736  -2.6861  -2.6861
    -1.6277  -1.6277  -1.4319  -1.4319  -0.6255  -0.6255  -0.6220  -0.6220
     0.7686   0.7686   0.9818   0.9818   5.4940   5.4940   5.5289   5.5289
     6.5604   6.5604   7.0112   7.0112   7.4043   7.4043   8.1654   8.1654

          k =-0.5000 0.2097 0.0000 ( 42812 PWs)   bands (ev):

   -20.3335 -20.3334 -20.3145 -20.3143 -17.1648 -17.1648 -17.1210 -17.1210
   -14.3876 -14.3871 -14.3173 -14.3167 -11.8383 -11.8383 -11.7931 -11.7930
    -8.2941  -8.2935  -8.2185  -8.2180  -7.1521  -7.1518  -7.0792  -7.0790
    -6.8639  -6.8633  -6.7865  -6.7860  -5.3312  -5.3307  -5.0131  -5.0126
    -4.6727  -4.6718  -4.5503  -4.5502  -3.8583  -3.8581  -3.6275  -3.6268
    -3.5129  -3.5121  -3.4047  -3.4043  -2.7155  -2.7148  -2.6193  -2.6186
    -1.5841  -1.5839  -1.4761  -1.4758  -0.6950  -0.6940  -0.5750  -0.5745
     0.8401   0.8404   0.9636   0.9639   5.4495   5.4498   5.5268   5.5273
     6.5437   6.5441   7.1118   7.1120   7.7183   7.7196   8.0338   8.0359

          k =-0.5000 0.2097-0.2716 ( 42816 PWs)   bands (ev):

   -20.3324 -20.3324 -20.3153 -20.3153 -17.1647 -17.1647 -17.1211 -17.1211
   -14.3715 -14.3715 -14.3333 -14.3333 -11.8179 -11.8179 -11.8125 -11.8125
    -8.2919  -8.2919  -8.2243  -8.2243  -7.1764  -7.1764  -7.0306  -7.0306
    -6.8655  -6.8655  -6.8006  -6.8006  -5.2234  -5.2234  -5.1579  -5.1579
    -4.6343  -4.6343  -4.6114  -4.6114  -3.7527  -3.7527  -3.6901  -3.6901
    -3.4666  -3.4666  -3.4316  -3.4316  -2.6845  -2.6845  -2.6372  -2.6372
    -1.5799  -1.5799  -1.4833  -1.4833  -0.6349  -0.6349  -0.6322  -0.6322
     0.8318   0.8318   0.9371   0.9371   5.5008   5.5008   5.5114   5.5114
     6.6862   6.6862   7.0040   7.0040   7.4902   7.4902   8.0806   8.0806

          k =-0.2500 0.2097 0.0000 ( 42766 PWs)   bands (ev):

   -20.4304 -20.4086 -20.2406 -20.2249 -17.1900 -17.1462 -17.1372 -17.0997
   -14.5133 -14.4303 -14.2255 -14.2098 -11.9316 -11.9232 -11.6993 -11.6798
    -8.3585  -8.3323  -8.1630  -8.0683  -7.2533  -7.2348  -7.0499  -7.0216
    -6.9077  -6.8235  -6.7865  -6.7580  -5.3680  -5.2617  -5.0116  -4.8335
    -4.7888  -4.7226  -4.2758  -4.1587  -3.9056  -3.7329  -3.7192  -3.6728
    -3.4959  -3.4868  -3.4291  -3.3769  -3.0116  -2.9378  -2.9025  -2.8391
    -1.6780  -1.5872  -1.5121  -1.3979  -0.9750  -0.9010  -0.3740  -0.3115
     0.8090   0.8301   0.9116   0.9814   5.3790   5.4254   5.6435   5.6939
     6.2637   6.5301   6.9281   7.0329   7.4707   7.7711   7.9244   8.1349

          k =-0.2500 0.2097 0.2716 ( 42768 PWs)   bands (ev):

   -20.4199 -20.4199 -20.2324 -20.2324 -17.1757 -17.1757 -17.1109 -17.1109
   -14.4706 -14.4706 -14.2190 -14.2190 -11.9265 -11.9265 -11.6909 -11.6909
    -8.3089  -8.3089  -8.1569  -8.1569  -7.2361  -7.2361  -7.0291  -7.0291
    -6.8708  -6.8708  -6.7867  -6.7867  -5.2305  -5.2305  -5.0152  -5.0152
    -4.7631  -4.7631  -4.2137  -4.2137  -3.7688  -3.7688  -3.6974  -3.6974
    -3.4902  -3.4902  -3.4355  -3.4355  -2.9679  -2.9679  -2.8772  -2.8772
    -1.6489  -1.6489  -1.4408  -1.4408  -0.9346  -0.9346  -0.3310  -0.3310
     0.8177   0.8177   0.9386   0.9386   5.4418   5.4418   5.6383   5.6383
     6.3993   6.3993   6.9370   6.9370   7.7005   7.7005   8.0446   8.0446

     highest occupied, lowest unoccupied level (ev):     1.0092    5.3790

!    total energy              =    -568.36565476 Ry
     Harris-Foulkes estimate   =    -568.36565477 Ry
     estimated scf accuracy    <          9.0E-09 Ry

     total all-electron energy =     -2116.256341 Ry

     The total energy is the sum of the following terms:

     one-electron contribution =    -286.69892588 Ry
     hartree contribution      =     188.56023113 Ry
     xc contribution           =    -123.35817489 Ry
     ewald contribution        =    -189.18739693 Ry
     Dispersion Correction     =      -0.18985582 Ry
     one-center paw contrib.   =    -157.49153237 Ry

     convergence has been achieved in  15 iterations

     Forces acting on atoms (cartesian axes, Ry/au):

     atom    1 type  4   force =    -0.00096233    0.00630178    0.00077351
     atom    2 type  4   force =     0.00096233   -0.00630178    0.00077351
     atom    3 type  4   force =     0.00097947    0.00623807   -0.00080669
     atom    4 type  4   force =    -0.00097947   -0.00623807   -0.00080669
     atom    5 type  3   force =    -0.00014718   -0.00053755    0.00102352
     atom    6 type  3   force =     0.00014718    0.00053755    0.00102352
     atom    7 type  3   force =     0.00013994   -0.00056994   -0.00102800
     atom    8 type  3   force =    -0.00013994    0.00056994   -0.00102800
     atom    9 type  2   force =     0.01076059    0.00317865    0.00106127
     atom   10 type  2   force =    -0.01076059   -0.00317865    0.00106127
     atom   11 type  2   force =    -0.01077236    0.00324863   -0.00107545
     atom   12 type  2   force =     0.01077236   -0.00324863   -0.00107545
     atom   13 type  2   force =     0.00227604   -0.00192567    0.00221089
     atom   14 type  2   force =    -0.00227604    0.00192567    0.00221089
     atom   15 type  2   force =    -0.00204826   -0.00205865   -0.00245307
     atom   16 type  2   force =     0.00204826    0.00205865   -0.00245307
     atom   17 type  3   force =    -0.00088394    0.00034563    0.00031952
     atom   18 type  3   force =     0.00088394   -0.00034563    0.00031952
     atom   19 type  3   force =     0.00074047    0.00041275   -0.00020475
     atom   20 type  3   force =    -0.00074047   -0.00041275   -0.00020475
     atom   21 type  3   force =     0.00004707    0.00019576   -0.00070987
     atom   22 type  3   force =    -0.00004707   -0.00019576   -0.00070987
     atom   23 type  3   force =    -0.00006804    0.00020368    0.00071278
     atom   24 type  3   force =     0.00006804   -0.00020368    0.00071278
     atom   25 type  1   force =    -0.00658323   -0.00987186   -0.00163698
     atom   26 type  1   force =     0.00658323    0.00987186   -0.00163698
     atom   27 type  1   force =     0.00653698   -0.00992914    0.00175408
     atom   28 type  1   force =    -0.00653698    0.00992914    0.00175408
     atom   29 type  1   force =     0.01019744   -0.00128013   -0.00024711
     atom   30 type  1   force =    -0.01019744    0.00128013   -0.00024711
     atom   31 type  1   force =    -0.01021354   -0.00132393    0.00046045
     atom   32 type  1   force =     0.01021354    0.00132393    0.00046045
     atom   33 type  3   force =    -0.01250322   -0.00062980   -0.00081190
     atom   34 type  3   force =     0.01250322    0.00062980   -0.00081190
     atom   35 type  3   force =     0.01249052   -0.00068092    0.00079306
     atom   36 type  3   force =    -0.01249052    0.00068092    0.00079306
     atom   37 type  3   force =    -0.00029092   -0.00205933    0.00062248
     atom   38 type  3   force =     0.00029092    0.00205933    0.00062248
     atom   39 type  3   force =     0.00028665   -0.00199044   -0.00062015
     atom   40 type  3   force =    -0.00028665    0.00199044   -0.00062015
     atom   41 type  3   force =    -0.00071634    0.00058154   -0.00081691
     atom   42 type  3   force =     0.00071634   -0.00058154   -0.00081691
     atom   43 type  3   force =     0.00071588    0.00057258    0.00067934
     atom   44 type  3   force =    -0.00071588   -0.00057258    0.00067934

     Total force =     0.048922     Total SCF correction =     0.000217


     Computing stress (Cartesian axis) and pressure

          total   stress  (Ry/bohr**3)                   (kbar)     P=  -11.70
  -0.00011536  -0.00000002   0.00000000        -16.97     -0.00      0.00
  -0.00000002  -0.00009689   0.00000000         -0.00    -14.25      0.00
   0.00000000   0.00000000  -0.00002639          0.00      0.00     -3.88


     Writing output data file scf.save
 
     init_run     :      8.69s CPU      9.10s WALL (       1 calls)
     electrons    :    231.65s CPU    239.67s WALL (       1 calls)
     forces       :      3.98s CPU      4.00s WALL (       1 calls)
     stress       :     12.54s CPU     12.56s WALL (       1 calls)

     Called by init_run:
     wfcinit      :      6.01s CPU      6.32s WALL (       1 calls)
     potinit      :      0.96s CPU      1.02s WALL (       1 calls)

     Called by electrons:
     c_bands      :    198.95s CPU    205.60s WALL (      15 calls)
     sum_band     :     27.48s CPU     28.62s WALL (      15 calls)
     v_of_rho     :      0.79s CPU      0.86s WALL (      16 calls)
     newd         :      1.30s CPU      1.33s WALL (      16 calls)
     PAW_pot      :      2.69s CPU      2.70s WALL (      16 calls)
     mix_rho      :      0.19s CPU      0.21s WALL (      15 calls)

     Called by c_bands:
     init_us_2    :      3.15s CPU      3.15s WALL (     462 calls)
     cegterg      :    190.29s CPU    196.92s WALL (     210 calls)

     Called by sum_band:
     sum_band:bec :      0.03s CPU      0.03s WALL (     210 calls)
     addusdens    :      1.44s CPU      1.46s WALL (      15 calls)

     Called by *egterg:
     h_psi        :    130.06s CPU    136.75s WALL (     921 calls)
     s_psi        :     13.87s CPU     13.88s WALL (     921 calls)
     g_psi        :      1.18s CPU      1.17s WALL (     697 calls)
     cdiaghg      :     11.17s CPU     11.17s WALL (     907 calls)

     Called by h_psi:
     h_psi:pot    :    128.61s CPU    135.27s WALL (     921 calls)
     h_psi:calbec :     12.46s CPU     12.54s WALL (     921 calls)
     vloc_psi     :    102.40s CPU    108.97s WALL (     921 calls)
     add_vuspsi   :     13.75s CPU     13.75s WALL (     921 calls)

     General routines
     calbec       :     18.36s CPU     18.48s WALL (    1201 calls)
     fft          :      0.53s CPU      0.65s WALL (     232 calls)
     fftw         :    108.58s CPU    115.81s WALL (   99582 calls)
 
     Parallel routines
     fft_scatter  :     29.98s CPU     34.20s WALL (   99814 calls)
 
     PWSCF        :  4m20.59s CPU     4m30.13s WALL

 
   This run was terminated on:  21:12: 7   3Nov2017            

=------------------------------------------------------------------------------=
   JOB DONE.
=------------------------------------------------------------------------------=
