
     Program PWSCF v.6.1 (svn rev. 13369) starts on 19Dec2017 at  6:28:44 

     This program is part of the open-source Quantum ESPRESSO suite
     for quantum simulation of materials; please cite
         "P. Giannozzi et al., J. Phys.:Condens. Matter 21 395502 (2009);
          URL http://www.quantum-espresso.org", 
     in publications or presentations arising from this work. More details at
     http://www.quantum-espresso.org/quote

     Parallel version (MPI), running on     8 processors
     R & G space division:  proc/nbgrp/npool/nimage =       8
     Waiting for input...
     Reading input from standard input

     Current dimensions of program PWSCF are:
     Max number of different atomic species (ntypx) = 10
     Max number of k-points (npk) =  40000
     Max angular momentum in pseudopotentials (lmaxx) =  3
               file C.pbe-n-kjpaw_psl.0.1.UPF: wavefunction(s)  2P renormalized
               file N.pbe-n-kjpaw_psl.0.1.UPF: wavefunction(s)  2P renormalized
               file H.pbe-kjpaw_psl.0.1.UPF: wavefunction(s)  1S renormalized
               file O.pbe-n-kjpaw_psl.0.1.UPF: wavefunction(s)  2P renormalized

     -------------------------------------
     Parameters for Dispersion Correction:
     -------------------------------------
       atom      VdW radius       C_6     

        C          2.744         60.710
        N          2.640         42.670
        H          1.892          4.857
        O          2.536         24.284

     Subspace diagonalization in iterative solution of the eigenvalue problem:
     a serial algorithm will be used

 
     Parallelization info
     --------------------
     sticks:   dense  smooth     PW     G-vecs:    dense   smooth      PW
     Min         788     788    209                90066    90066   12273
     Max         789     789    211                90070    90070   12274
     Sum        6311    6311   1675               720549   720549   98185
 


     bravais-lattice index     =            0
     lattice parameter (alat)  =      12.0085  a.u.
     unit-cell volume          =    5333.9127 (a.u.)^3
     number of atoms/cell      =           90
     number of atomic types    =            4
     number of electrons       =       208.00
     number of Kohn-Sham states=          124
     kinetic-energy cutoff     =     100.0000  Ry
     charge density cutoff     =     400.0000  Ry
     convergence threshold     =      1.0E-08
     mixing beta               =       0.5000
     number of iterations used =            8  plain     mixing
     Exchange-correlation      =  SLA  PW   PBX  PBC ( 1  4  3  4 0 0)

     celldm(1)=  12.008454  celldm(2)=   0.000000  celldm(3)=   0.000000
     celldm(4)=   0.000000  celldm(5)=   0.000000  celldm(6)=   0.000000

     crystal axes: (cart. coord. in units of alat)
               a(1) = (   1.000000   0.000000   0.000000 )  
               a(2) = (  -0.165470   1.376028   0.000000 )  
               a(3) = (  -0.132636  -0.708989   2.238502 )  

     reciprocal axes: (cart. coord. in units 2 pi/alat)
               b(1) = (  1.000000  0.120252  0.097339 )  
               b(2) = (  0.000000  0.726730  0.230173 )  
               b(3) = (  0.000000  0.000000  0.446727 )  


     PseudoPot. # 1 for  C read from file:
     /scratch/ahofstet/pseudo/C.pbe-n-kjpaw_psl.0.1.UPF
     MD5 check sum: 430fe95172b1e11ef3f8ed03bac87931
     Pseudo is Projector augmented-wave + core cor, Zval =  4.0
     Generated using "atomic" code by A. Dal Corso  v.5.0.99 svn rev. 10869
     Shape of augmentation charge: BESSEL
     Using radial grid of 1073 points,  4 beta functions with: 
                l(1) =   0
                l(2) =   0
                l(3) =   1
                l(4) =   1
     Q(r) pseudized with 0 coefficients 


     PseudoPot. # 2 for  N read from file:
     /scratch/ahofstet/pseudo/N.pbe-n-kjpaw_psl.0.1.UPF
     MD5 check sum: f73187c8b701007e77325f868c9291d7
     Pseudo is Projector augmented-wave + core cor, Zval =  5.0
     Generated using "atomic" code by A. Dal Corso  v.5.0.99 svn rev. 10869
     Shape of augmentation charge: PSQ
     Using radial grid of 1085 points,  4 beta functions with: 
                l(1) =   0
                l(2) =   0
                l(3) =   1
                l(4) =   1
     Q(r) pseudized with 0 coefficients 


     PseudoPot. # 3 for  H read from file:
     /scratch/ahofstet/pseudo/H.pbe-kjpaw_psl.0.1.UPF
     MD5 check sum: 94e484f906d9e9773b2f6e52662335b2
     Pseudo is Projector augmented-wave, Zval =  1.0
     Generated using "atomic" code by A. Dal Corso  v.5.0.99 svn rev. 10869
     Shape of augmentation charge: PSQ
     Using radial grid of  929 points,  2 beta functions with: 
                l(1) =   0
                l(2) =   0
     Q(r) pseudized with 0 coefficients 


     PseudoPot. # 4 for  O read from file:
     /scratch/ahofstet/pseudo/O.pbe-n-kjpaw_psl.0.1.UPF
     MD5 check sum: 3f94a2996a3169367d6eb21d9b593f20
     Pseudo is Projector augmented-wave + core cor, Zval =  6.0
     Generated using "atomic" code by A. Dal Corso  v.5.0.99 svn rev. 10869
     Shape of augmentation charge: BESSEL
     Using radial grid of 1095 points,  4 beta functions with: 
                l(1) =   0
                l(2) =   0
                l(3) =   1
                l(4) =   1
     Q(r) pseudized with 0 coefficients 


     atomic species   valence    mass     pseudopotential
        C              4.00    12.01070      C( 1.00)
        N              5.00    14.00670      N( 1.00)
        H              1.00     1.00794      H( 1.00)
        O              6.00    15.99940      O( 1.00)

      2 Sym. Ops., with inversion, found



   Cartesian axes

     site n.     atom                  positions (alat units)
         1           C   tau(   1) = (   0.4298104   0.2676258   2.1656538  )
         2           C   tau(   2) = (   0.2720841   0.3994126   0.0728483  )
         3           O   tau(   3) = (   0.3792147   0.9800877   0.0118395  )
         4           O   tau(   4) = (   0.3226798  -0.3130494   2.2266626  )
         5           O   tau(   5) = (   0.5445288   0.4330407   2.1451284  )
         6           O   tau(   6) = (   0.1573656   0.2339977   0.0933736  )
         7           N   tau(   7) = (   0.5037761   0.0804730   2.0906697  )
         8           N   tau(   8) = (   0.1981183   0.5865654   0.1478324  )
         9           H   tau(   9) = (   0.4270767  -0.0558213   2.1349124  )
        10           H   tau(  10) = (   0.2748177   0.7228596   0.1035897  )
        11           N   tau(  11) = (  -0.0195959  -0.0013577   1.6210069  )
        12           N   tau(  12) = (   0.7214903   0.6683961   0.6174952  )
        13           C   tau(  13) = (   0.7091319   0.0615237   1.9925781  )
        14           C   tau(  14) = (  -0.0072374   0.6055146   0.2459240  )
        15           H   tau(  15) = (  -0.1624507   0.0833387   2.1075034  )
        16           H   tau(  16) = (   0.8643451   0.5836996   0.1309987  )
        17           H   tau(  17) = (   0.7273390   0.1854060   1.8732655  )
        18           H   tau(  18) = (  -0.0254446   0.4816323   0.3652366  )
        19           C   tau(  19) = (   0.7359424  -0.1521744   1.8865815  )
        20           C   tau(  20) = (  -0.0340479   0.8192127   0.3519206  )
        21           H   tau(  21) = (   0.6070127  -0.1766702   1.7727463  )
        22           H   tau(  22) = (   0.0948817   0.8437085   0.4657558  )
        23           H   tau(  23) = (   0.7236732  -0.2795722   2.0034510  )
        24           H   tau(  24) = (  -0.0217787   0.9466105   0.2350511  )
        25           C   tau(  25) = (  -0.0495013  -0.1671823   1.7780363  )
        26           C   tau(  26) = (   0.7513958   0.8342206   0.4604658  )
        27           H   tau(  27) = (   0.0743963  -0.1493247   1.8981840  )
        28           H   tau(  28) = (   0.6274982   0.8163631   0.3403181  )
        29           H   tau(  29) = (  -0.0291600  -0.3268486   1.7079943  )
        30           H   tau(  30) = (   0.7310545   0.9938869   0.5305078  )
        31           C   tau(  31) = (   0.8750362  -0.0496186   1.4225112  )
        32           C   tau(  32) = (  -0.1731417   0.7166569   0.8159909  )
        33           H   tau(  33) = (   0.8759448   0.0903191   1.3204314  )
        34           H   tau(  34) = (  -0.1740504   0.5767192   0.9180707  )
        35           H   tau(  35) = (   0.7113058  -0.0964350   1.4500326  )
        36           H   tau(  36) = (  -0.0094114   0.7634733   0.7884695  )
        37           H   tau(  37) = (   0.9558634  -0.1800203   1.3366624  )
        38           H   tau(  38) = (  -0.2539689   0.8470586   0.9018397  )
        39           C   tau(  39) = (   0.1999468   0.0475104   1.5817593  )
        40           C   tau(  40) = (   0.5019476   0.6195280   0.6567428  )
        41           H   tau(  41) = (   0.2814810   0.0763365   1.7313261  )
        42           H   tau(  42) = (   0.4204134   0.5907018   0.5071760  )
        43           H   tau(  43) = (   0.2091452   0.1906458   1.4850014  )
        44           H   tau(  44) = (   0.4927493   0.4763926   0.7535007  )
        45           H   tau(  45) = (   0.2844981  -0.0823358   1.4977522  )
        46           H   tau(  46) = (   0.4173963   0.7493741   0.7407499  )
        47           N   tau(  47) = (   0.2759731   0.5881856   1.4655088  )
        48           N   tau(  48) = (   0.4259213   0.0788527   0.7729933  )
        49           N   tau(  49) = (  -0.0446430   0.5467073   2.0924685  )
        50           N   tau(  50) = (   0.7465375   0.1203311   0.1460336  )
        51           H   tau(  51) = (  -0.1932110   0.4741212   2.1112282  )
        52           H   tau(  52) = (   0.8951054   0.1929172   0.1272738  )
        53           H   tau(  53) = (  -0.0549973   0.6885832   2.1791354  )
        54           H   tau(  54) = (   0.7568918  -0.0215449   0.0593666  )
        55           H   tau(  55) = (   0.0744826   0.4491871   2.1571711  )
        56           H   tau(  56) = (   0.6274118   0.2178513   0.0813310  )
        57           C   tau(  57) = (  -0.0053138   0.5870205   1.8647878  )
        58           C   tau(  58) = (   0.7072083   0.0800178   0.3737143  )
        59           H   tau(  59) = (  -0.1431589   0.6724583   1.8028268  )
        60           H   tau(  60) = (   0.8450534  -0.0054200   0.4356753  )
        61           H   tau(  61) = (   0.0020931   0.4343387   1.7838117  )
        62           H   tau(  62) = (   0.6998014   0.2326997   0.4546904  )
        63           C   tau(  63) = (   0.1939072   0.7162324   1.8316335  )
        64           C   tau(  64) = (   0.5079872  -0.0491941   0.4068686  )
        65           H   tau(  65) = (   0.3449471  -0.5120720   1.9207299  )
        66           H   tau(  66) = (   0.3569474   1.1791103   0.3177722  )
        67           H   tau(  67) = (   0.3307306   0.6325753   1.8980810  )
        68           H   tau(  68) = (   0.3711638   0.0344630   0.3404211  )
        69           C   tau(  69) = (   0.2321055   0.7704496   1.6008144  )
        70           C   tau(  70) = (   0.4697889  -0.1034112   0.6376877  )
        71           H   tau(  71) = (   0.0911563   0.8495453   1.5380292  )
        72           H   tau(  72) = (   0.6107381  -0.1825069   0.7004729  )
        73           H   tau(  73) = (   0.5292087  -0.4898948   1.5913328  )
        74           H   tau(  74) = (   0.1726858   1.1569331   0.6471693  )
        75           C   tau(  75) = (   0.4815999   0.4973698   1.5118454  )
        76           C   tau(  76) = (   0.2202946   0.1696686   0.7266567  )
        77           H   tau(  77) = (   0.6118178   0.6130143   1.4863802  )
        78           H   tau(  78) = (   0.0900767   0.0540240   0.7521219  )
        79           H   tau(  79) = (   0.5101844   0.3621861   1.4077808  )
        80           H   tau(  80) = (   0.1917100   0.3048523   0.8307212  )
        81           H   tau(  81) = (   0.4895361   0.4422355   1.6752899  )
        82           H   tau(  82) = (   0.2123584   0.2248028   0.5632122  )
        83           C   tau(  83) = (   0.2683585   0.6499477   1.2443753  )
        84           C   tau(  84) = (   0.4335360   0.0170906   0.9941267  )
        85           H   tau(  85) = (   0.3935699   0.7657808   1.2039287  )
        86           H   tau(  86) = (   0.3083245  -0.0987425   1.0345734  )
        87           H   tau(  87) = (   0.1147342   0.7200635   1.2078007  )
        88           H   tau(  88) = (   0.5871602  -0.0530252   1.0307014  )
        89           H   tau(  89) = (   0.2906671   0.5109653   1.1436390  )
        90           H   tau(  90) = (   0.4112273   0.1560730   1.0948631  )

     number of k points=     8
                       cart. coord. in units 2pi/alat
        k(    1) = (   0.0000000   0.0000000   0.0000000), wk =   0.1666667
        k(    2) = (   0.0000000   0.0000000  -0.2233637), wk =   0.1666667
        k(    3) = (   0.0000000  -0.3633648  -0.1150867), wk =   0.1666667
        k(    4) = (   0.0000000  -0.3633648  -0.3384503), wk =   0.1666667
        k(    5) = (   0.3333333   0.0400840   0.0324462), wk =   0.3333333
        k(    6) = (   0.3333333   0.0400840  -0.1909174), wk =   0.3333333
        k(    7) = (   0.3333333  -0.3232809  -0.0826404), wk =   0.3333333
        k(    8) = (   0.3333333  -0.3232809  -0.3060041), wk =   0.3333333

     Dense  grid:   720549 G-vectors     FFT dimensions: (  80, 108, 180)

     Estimated max dynamical RAM per process >     490.20MB

     Estimated total allocated dynamical RAM >    3921.61MB

     Check: negative/imaginary core charge=   -0.000002    0.000000

     Initial potential from superposition of free atoms

     starting charge  207.99849, renormalised to  208.00000
     Starting wfc are  192 randomized atomic wfcs
     Checking if some PAW data can be deallocated... 

     total cpu time spent up to now is       30.2 secs

     per-process dynamical memory:   354.0 Mb

     Self-consistent Calculation

     iteration #  1     ecut=   100.00 Ry     beta=0.50
     Davidson diagonalization with overlap
     ethr =  1.00E-02,  avg # of iterations =  4.2

     total cpu time spent up to now is      100.0 secs

     total energy              =    -863.32952922 Ry
     Harris-Foulkes estimate   =    -868.10759651 Ry
     estimated scf accuracy    <       9.17385136 Ry

     iteration #  2     ecut=   100.00 Ry     beta=0.50
     Davidson diagonalization with overlap
     ethr =  4.41E-03,  avg # of iterations =  2.5

     total cpu time spent up to now is      137.0 secs

     total energy              =    -864.16752688 Ry
     Harris-Foulkes estimate   =    -864.49228048 Ry
     estimated scf accuracy    <       0.80050427 Ry

     iteration #  3     ecut=   100.00 Ry     beta=0.50
     Davidson diagonalization with overlap
     ethr =  3.85E-04,  avg # of iterations =  5.0

     total cpu time spent up to now is      215.5 secs

     total energy              =    -864.95895871 Ry
     Harris-Foulkes estimate   =    -865.32144154 Ry
     estimated scf accuracy    <       1.04900724 Ry

     iteration #  4     ecut=   100.00 Ry     beta=0.50
     Davidson diagonalization with overlap
     ethr =  3.85E-04,  avg # of iterations =  3.5

     total cpu time spent up to now is      250.8 secs

     total energy              =    -864.73529772 Ry
     Harris-Foulkes estimate   =    -864.99734493 Ry
     estimated scf accuracy    <       0.38831026 Ry

     iteration #  5     ecut=   100.00 Ry     beta=0.50
     Davidson diagonalization with overlap
     ethr =  1.87E-04,  avg # of iterations =  4.2

     total cpu time spent up to now is      323.3 secs

     total energy              =    -864.99333964 Ry
     Harris-Foulkes estimate   =    -865.22688779 Ry
     estimated scf accuracy    <       0.72373648 Ry

     iteration #  6     ecut=   100.00 Ry     beta=0.50
     Davidson diagonalization with overlap
     ethr =  1.87E-04,  avg # of iterations =  1.0

     total cpu time spent up to now is      356.7 secs

     total energy              =    -864.84249622 Ry
     Harris-Foulkes estimate   =    -865.01199924 Ry
     estimated scf accuracy    <       0.30714195 Ry

     iteration #  7     ecut=   100.00 Ry     beta=0.50
     Davidson diagonalization with overlap
     ethr =  1.48E-04,  avg # of iterations =  6.2

     total cpu time spent up to now is      417.7 secs

     total energy              =    -864.98998595 Ry
     Harris-Foulkes estimate   =    -865.01414874 Ry
     estimated scf accuracy    <       0.06238416 Ry

     iteration #  8     ecut=   100.00 Ry     beta=0.50
     Davidson diagonalization with overlap
     ethr =  3.00E-05,  avg # of iterations =  1.9

     total cpu time spent up to now is      452.4 secs

     total energy              =    -864.98162397 Ry
     Harris-Foulkes estimate   =    -864.99239864 Ry
     estimated scf accuracy    <       0.02075524 Ry

     iteration #  9     ecut=   100.00 Ry     beta=0.50
     Davidson diagonalization with overlap
     ethr =  9.98E-06,  avg # of iterations =  7.2

     total cpu time spent up to now is      517.8 secs

     total energy              =    -864.99579991 Ry
     Harris-Foulkes estimate   =    -864.99700814 Ry
     estimated scf accuracy    <       0.00625832 Ry

     iteration # 10     ecut=   100.00 Ry     beta=0.50
     Davidson diagonalization with overlap
     ethr =  3.01E-06,  avg # of iterations =  1.6

     total cpu time spent up to now is      551.5 secs

     total energy              =    -864.99414229 Ry
     Harris-Foulkes estimate   =    -864.99587167 Ry
     estimated scf accuracy    <       0.00406412 Ry

     iteration # 11     ecut=   100.00 Ry     beta=0.50
     Davidson diagonalization with overlap
     ethr =  1.95E-06,  avg # of iterations =  3.0

     total cpu time spent up to now is      596.6 secs

     total energy              =    -864.99499654 Ry
     Harris-Foulkes estimate   =    -864.99502709 Ry
     estimated scf accuracy    <       0.00009176 Ry

     iteration # 12     ecut=   100.00 Ry     beta=0.50
     Davidson diagonalization with overlap
     ethr =  4.41E-08,  avg # of iterations =  4.0

     total cpu time spent up to now is      662.8 secs

     total energy              =    -864.99505372 Ry
     Harris-Foulkes estimate   =    -864.99505898 Ry
     estimated scf accuracy    <       0.00002321 Ry

     iteration # 13     ecut=   100.00 Ry     beta=0.50
     Davidson diagonalization with overlap
     ethr =  1.12E-08,  avg # of iterations =  2.0

     total cpu time spent up to now is      698.0 secs

     total energy              =    -864.99504835 Ry
     Harris-Foulkes estimate   =    -864.99505567 Ry
     estimated scf accuracy    <       0.00001428 Ry

     iteration # 14     ecut=   100.00 Ry     beta=0.50
     Davidson diagonalization with overlap
     ethr =  6.87E-09,  avg # of iterations =  3.4

     total cpu time spent up to now is      751.9 secs

     total energy              =    -864.99505237 Ry
     Harris-Foulkes estimate   =    -864.99505354 Ry
     estimated scf accuracy    <       0.00000352 Ry

     iteration # 15     ecut=   100.00 Ry     beta=0.50
     Davidson diagonalization with overlap
     ethr =  1.69E-09,  avg # of iterations =  1.4

     total cpu time spent up to now is      785.8 secs

     total energy              =    -864.99505170 Ry
     Harris-Foulkes estimate   =    -864.99505251 Ry
     estimated scf accuracy    <       0.00000137 Ry

     iteration # 16     ecut=   100.00 Ry     beta=0.50
     Davidson diagonalization with overlap
     ethr =  6.61E-10,  avg # of iterations =  4.0

     total cpu time spent up to now is      844.7 secs

     total energy              =    -864.99505251 Ry
     Harris-Foulkes estimate   =    -864.99505271 Ry
     estimated scf accuracy    <       0.00000068 Ry

     iteration # 17     ecut=   100.00 Ry     beta=0.50
     Davidson diagonalization with overlap
     ethr =  3.26E-10,  avg # of iterations =  1.0

     total cpu time spent up to now is      878.2 secs

     total energy              =    -864.99505235 Ry
     Harris-Foulkes estimate   =    -864.99505253 Ry
     estimated scf accuracy    <       0.00000033 Ry

     iteration # 18     ecut=   100.00 Ry     beta=0.50
     Davidson diagonalization with overlap
     ethr =  1.58E-10,  avg # of iterations =  4.0

     total cpu time spent up to now is      933.7 secs

     total energy              =    -864.99505252 Ry
     Harris-Foulkes estimate   =    -864.99505254 Ry
     estimated scf accuracy    <       0.00000010 Ry

     iteration # 19     ecut=   100.00 Ry     beta=0.50
     Davidson diagonalization with overlap
     ethr =  4.70E-11,  avg # of iterations =  1.0

     total cpu time spent up to now is      966.8 secs

     total energy              =    -864.99505248 Ry
     Harris-Foulkes estimate   =    -864.99505252 Ry
     estimated scf accuracy    <       0.00000007 Ry

     iteration # 20     ecut=   100.00 Ry     beta=0.50
     Davidson diagonalization with overlap
     ethr =  3.41E-11,  avg # of iterations =  4.0

     total cpu time spent up to now is     1016.6 secs

     End of self-consistent calculation

          k = 0.0000 0.0000 0.0000 ( 90065 PWs)   bands (ev):

   -20.9563 -20.8732 -18.4144 -18.3630 -18.1335 -18.1129 -17.8754 -17.8660
   -17.7380 -17.7373 -16.9628 -16.9622 -13.9690 -13.9561 -13.8048 -13.8018
   -12.2148 -12.2073 -12.0299 -12.0143 -11.7667 -11.7309 -11.6493 -11.5738
   -10.2116 -10.0716 -10.0141  -9.9753  -9.0026  -8.8779  -8.7934  -8.7322
    -8.5020  -8.4905  -8.0134  -7.8085  -7.6185  -7.6089  -6.9712  -6.8332
    -6.8249  -6.6857  -6.6832  -6.6482  -6.5595  -6.5020  -6.1443  -6.0748
    -6.0332  -5.9550  -5.9259  -5.8195  -5.7526  -5.7011  -5.5960  -5.4750
    -5.4093  -5.4039  -5.1432  -4.8802  -4.8271  -4.7487  -4.6471  -4.6368
    -4.4822  -4.4787  -4.2924  -4.2418  -4.1720  -4.0615  -4.0368  -3.8530
    -3.8033  -3.6619  -3.6565  -3.6488  -3.5848  -3.5072  -3.4257  -3.4232
    -3.3041  -3.2538  -3.1916  -3.1916  -3.1539  -3.0445  -2.8710  -2.8336
    -2.7938  -2.7187  -2.6179  -2.6137  -1.4529  -1.2150  -1.0922  -1.0545
    -0.7729  -0.3930  -0.2200  -0.0540   0.0548   0.1024   0.3804   0.4215
     4.1457   4.9008   5.4703   5.4876   5.7146   5.7796   5.8622   5.9927
     6.0414   6.1388   6.4345   6.4470   6.4910   6.7242   6.7644   6.9390
     7.0024   7.0635   7.0863   7.3707

          k = 0.0000 0.0000-0.2234 ( 90066 PWs)   bands (ev):

   -20.9563 -20.8732 -18.4144 -18.3630 -18.1333 -18.1133 -17.8713 -17.8698
   -17.7390 -17.7366 -16.9628 -16.9622 -13.9761 -13.9496 -13.8053 -13.8005
   -12.2145 -12.2076 -12.0316 -12.0130 -11.7666 -11.7462 -11.6273 -11.5796
   -10.1628 -10.1511  -9.9889  -9.9722  -8.9572  -8.9265  -8.8048  -8.7096
    -8.5157  -8.4870  -8.0117  -7.8043  -7.6199  -7.6087  -6.9719  -6.8341
    -6.7997  -6.6966  -6.6811  -6.6689  -6.5415  -6.5398  -6.1562  -6.0110
    -6.0042  -5.9814  -5.8840  -5.8175  -5.7799  -5.7545  -5.5784  -5.4991
    -5.4234  -5.3976  -5.1161  -4.9074  -4.8267  -4.7406  -4.6581  -4.5916
    -4.5136  -4.4340  -4.3251  -4.2433  -4.1668  -4.0874  -4.0589  -3.8181
    -3.7852  -3.6724  -3.6627  -3.6529  -3.5340  -3.5262  -3.4350  -3.4303
    -3.2995  -3.2647  -3.2207  -3.1833  -3.1202  -3.0329  -2.8945  -2.8457
    -2.7942  -2.7049  -2.6212  -2.6130  -1.4525  -1.2155  -1.0914  -1.0536
    -0.7726  -0.3923  -0.2187  -0.0594   0.0443   0.1180   0.3921   0.4065
     4.1523   4.9125   5.3929   5.6119   5.6795   5.7010   5.8611   6.0148
     6.0323   6.1427   6.2933   6.4818   6.6497   6.7336   6.7784   6.9354
     7.0694   7.0848   7.1838   7.2354

          k = 0.0000-0.3634-0.1151 ( 90010 PWs)   bands (ev):

   -20.9345 -20.8966 -18.3886 -18.3711 -18.1441 -18.1194 -17.8706 -17.8695
   -17.7402 -17.7376 -16.9807 -16.9419 -13.9825 -13.9600 -13.7975 -13.7897
   -12.2193 -12.2035 -12.0319 -12.0112 -11.7701 -11.7374 -11.6515 -11.5652
   -10.1774 -10.1214  -9.9872  -9.9800  -8.9567  -8.9009  -8.8661  -8.7776
    -8.5650  -8.3549  -8.0189  -7.8387  -7.5573  -7.5489  -6.9993  -6.8081
    -6.7860  -6.6897  -6.6567  -6.6274  -6.5866  -6.5756  -6.1336  -6.1033
    -5.9910  -5.9730  -5.9297  -5.8311  -5.8286  -5.7339  -5.4780  -5.4482
    -5.4262  -5.3965  -5.1482  -4.9582  -4.8651  -4.8020  -4.7263  -4.6360
    -4.4052  -4.3441  -4.3131  -4.2968  -4.2116  -4.0593  -4.0260  -3.8615
    -3.7990  -3.6749  -3.6730  -3.6237  -3.5837  -3.4756  -3.4172  -3.4062
    -3.3289  -3.2916  -3.1668  -3.1639  -3.0805  -2.9938  -2.9301  -2.8732
    -2.8204  -2.7591  -2.5834  -2.5806  -1.3096  -1.2766  -1.0751  -1.0530
    -0.7656  -0.4840  -0.2425  -0.0592   0.0387   0.0712   0.4167   0.4614
     4.5549   4.7364   5.1801   5.2854   5.6385   5.7288   5.7902   5.9528
     6.0849   6.1807   6.3654   6.5505   6.7299   6.7341   6.8544   6.9383
     7.0017   7.1435   7.1584   7.2269

          k = 0.0000-0.3634-0.3385 ( 90050 PWs)   bands (ev):

   -20.9345 -20.8966 -18.3886 -18.3711 -18.1443 -18.1191 -17.8743 -17.8661
   -17.7407 -17.7369 -16.9807 -16.9419 -13.9796 -13.9631 -13.7944 -13.7928
   -12.2201 -12.2034 -12.0329 -12.0103 -11.7698 -11.7309 -11.6482 -11.5762
   -10.1893 -10.0801 -10.0099  -9.9837  -8.9822  -8.9099  -8.8467  -8.7641
    -8.5625  -8.3542  -8.0168  -7.8449  -7.5559  -7.5490  -6.9953  -6.7998
    -6.7797  -6.7153  -6.6849  -6.6203  -6.5696  -6.5522  -6.1639  -6.1491
    -5.9509  -5.9192  -5.8879  -5.8661  -5.8155  -5.7873  -5.4788  -5.4593
    -5.4265  -5.3947  -5.1328  -4.9507  -4.8922  -4.8068  -4.6766  -4.6482
    -4.4349  -4.3300  -4.3176  -4.2823  -4.2417  -4.0501  -4.0357  -3.8050
    -3.7843  -3.6789  -3.6738  -3.6156  -3.6143  -3.5136  -3.4270  -3.4195
    -3.3200  -3.2207  -3.2175  -3.1311  -3.0731  -3.0265  -2.9094  -2.9040
    -2.8159  -2.7479  -2.5907  -2.5788  -1.3091  -1.2758  -1.0754  -1.0523
    -0.7664  -0.4841  -0.2317  -0.0734   0.0319   0.0782   0.4341   0.4488
     4.5531   4.7441   5.1981   5.3353   5.5803   5.6694   5.7750   5.8275
     6.2055   6.2531   6.4718   6.4792   6.6290   6.8742   6.8924   6.9445
     6.9638   7.0931   7.1057   7.2547

          k = 0.3333 0.0401 0.0324 ( 90090 PWs)   bands (ev):

   -20.9392 -20.8755 -18.5539 -18.4135 -18.1204 -17.9671 -17.8723 -17.8381
   -17.7346 -17.7327 -17.0172 -16.9212 -13.9688 -13.9531 -13.8149 -13.8050
   -12.2445 -12.1995 -12.0606 -12.0256 -11.7516 -11.7260 -11.6284 -11.5621
   -10.2410 -10.1192  -9.9675  -9.9517  -9.0202  -8.8659  -8.8239  -8.7629
    -8.5659  -8.4887  -7.9848  -7.8203  -7.5778  -7.5192  -6.9431  -6.7833
    -6.7629  -6.7049  -6.6358  -6.6047  -6.5331  -6.4837  -6.1486  -6.1064
    -5.9873  -5.9569  -5.8803  -5.8369  -5.7999  -5.7342  -5.6622  -5.4978
    -5.4867  -5.4153  -5.1204  -4.9179  -4.8366  -4.7585  -4.6479  -4.5480
    -4.4985  -4.3960  -4.3174  -4.2808  -4.2285  -4.1223  -3.9958  -3.8673
    -3.8044  -3.7098  -3.6742  -3.6268  -3.5996  -3.5261  -3.4410  -3.3670
    -3.2717  -3.2614  -3.2267  -3.1873  -3.0945  -2.9715  -2.9225  -2.8452
    -2.7892  -2.7049  -2.5919  -2.5716  -1.5698  -1.1276  -1.0835  -1.0741
    -0.6150  -0.4194  -0.3459  -0.0118   0.0583   0.0965   0.3827   0.3943
     4.4797   5.0876   5.3443   5.5151   5.5841   5.5993   5.7392   5.9326
     5.9734   6.0622   6.2150   6.3357   6.4572   6.5924   6.6361   6.6918
     6.7956   6.9210   6.9762   7.1496

          k = 0.3333 0.0401-0.1909 ( 90108 PWs)   bands (ev):

   -20.9392 -20.8755 -18.5539 -18.4135 -18.1202 -17.9688 -17.8677 -17.8412
   -17.7348 -17.7326 -17.0172 -16.9212 -13.9747 -13.9470 -13.8147 -13.8053
   -12.2441 -12.1997 -12.0620 -12.0245 -11.7556 -11.7255 -11.6214 -11.5661
   -10.1915 -10.1750  -9.9744  -9.9407  -9.0000  -8.8676  -8.8378  -8.7671
    -8.5763  -8.4768  -7.9863  -7.8174  -7.5765  -7.5185  -6.9498  -6.7976
    -6.7343  -6.6951  -6.6469  -6.6006  -6.5419  -6.5075  -6.1373  -6.0886
    -6.0142  -5.9304  -5.8981  -5.8536  -5.7881  -5.7282  -5.6353  -5.4847
    -5.4639  -5.4360  -5.1546  -4.9265  -4.8516  -4.7479  -4.6555  -4.5526
    -4.4964  -4.3767  -4.2973  -4.2923  -4.2381  -4.1109  -4.0016  -3.8881
    -3.7740  -3.7280  -3.6817  -3.6342  -3.5774  -3.5379  -3.4288  -3.3824
    -3.2794  -3.2669  -3.2022  -3.1387  -3.0713  -3.0471  -2.9091  -2.8568
    -2.7841  -2.7028  -2.5929  -2.5731  -1.5676  -1.1272  -1.0835  -1.0746
    -0.6155  -0.4211  -0.3464  -0.0128   0.0711   0.0878   0.3713   0.4042
     4.4796   5.1118   5.3394   5.4348   5.5961   5.6642   5.7925   5.8824
     5.9117   6.1064   6.1509   6.2973   6.4703   6.5818   6.6835   6.7883
     6.8677   6.9434   6.9867   7.1641

          k = 0.3333-0.3233-0.0826 ( 90073 PWs)   bands (ev):

   -20.9335 -20.8811 -18.5723 -18.4028 -18.1021 -17.9739 -17.8665 -17.8431
   -17.7354 -17.7330 -17.0122 -16.9299 -13.9768 -13.9501 -13.8109 -13.8038
   -12.2520 -12.1981 -12.0641 -12.0203 -11.7529 -11.7301 -11.6198 -11.5614
   -10.2274 -10.1793  -9.9423  -9.9229  -9.0609  -8.9089  -8.8201  -8.7178
    -8.5992  -8.3680  -7.9885  -7.8133  -7.5632  -7.5445  -7.0046  -6.8757
    -6.7381  -6.6406  -6.6197  -6.5635  -6.5457  -6.4942  -6.1925  -6.1063
    -6.0505  -5.9440  -5.9171  -5.8136  -5.7467  -5.7149  -5.7000  -5.4584
    -5.4467  -5.3405  -5.1301  -4.9833  -4.8980  -4.7532  -4.6950  -4.6115
    -4.4629  -4.4044  -4.3216  -4.2685  -4.2619  -4.0562  -3.9652  -3.8605
    -3.7706  -3.7222  -3.6835  -3.6239  -3.5617  -3.5305  -3.4097  -3.3739
    -3.3313  -3.2685  -3.2330  -3.1528  -3.1121  -3.0566  -2.8956  -2.8071
    -2.7700  -2.6917  -2.6107  -2.5678  -1.3770  -1.2943  -1.1580  -1.0199
    -0.6003  -0.4333  -0.3468   0.0041   0.0780   0.1113   0.3759   0.4040
     4.7870   4.9805   5.2186   5.3497   5.5989   5.6399   5.7251   5.8372
     5.8760   5.9371   6.0989   6.1426   6.3825   6.4332   6.5257   6.7266
     6.7687   7.0649   7.0837   7.2141

          k = 0.3333-0.3233-0.3060 ( 90043 PWs)   bands (ev):

   -20.9335 -20.8811 -18.5723 -18.4028 -18.1023 -17.9726 -17.8703 -17.8402
   -17.7356 -17.7329 -17.0122 -16.9299 -13.9715 -13.9555 -13.8118 -13.8030
   -12.2521 -12.1980 -12.0636 -12.0200 -11.7571 -11.7258 -11.6143 -11.5671
   -10.2645 -10.1365  -9.9490  -9.9204  -9.0585  -8.9263  -8.8136  -8.7125
    -8.5940  -8.3713  -7.9856  -7.8171  -7.5640  -7.5434  -7.0068  -6.8765
    -6.7440  -6.6650  -6.6370  -6.5302  -6.5088  -6.4891  -6.1728  -6.1245
    -6.0398  -5.9879  -5.9235  -5.8315  -5.7618  -5.7244  -5.6686  -5.4800
    -5.4231  -5.3245  -5.1156  -4.9678  -4.9205  -4.7336  -4.6907  -4.6246
    -4.4853  -4.3814  -4.3247  -4.2742  -4.2623  -4.0455  -3.9624  -3.8810
    -3.7675  -3.7293  -3.6935  -3.6058  -3.5463  -3.5337  -3.4246  -3.3964
    -3.3026  -3.2584  -3.2484  -3.1880  -3.1063  -3.0220  -2.8870  -2.8199
    -2.7599  -2.6993  -2.6065  -2.5750  -1.3778  -1.2937  -1.1581  -1.0194
    -0.6008  -0.4337  -0.3457   0.0023   0.0862   0.1088   0.3581   0.4184
     4.7942   4.9894   5.2308   5.3839   5.5067   5.6328   5.6727   5.8197
     5.8570   6.0213   6.0632   6.2627   6.2913   6.4420   6.5674   6.8369
     6.8769   6.9094   7.0546   7.1531

     highest occupied, lowest unoccupied level (ev):     0.4614    4.1457

!    total energy              =    -864.99505250 Ry
     Harris-Foulkes estimate   =    -864.99505251 Ry
     estimated scf accuracy    <          9.4E-09 Ry

     total all-electron energy =     -3221.583020 Ry

     The total energy is the sum of the following terms:

     one-electron contribution =    -818.39406433 Ry
     hartree contribution      =     479.63726784 Ry
     xc contribution           =    -205.15866086 Ry
     ewald contribution        =     -70.19194273 Ry
     Dispersion Correction     =      -0.36059416 Ry
     one-center paw contrib.   =    -250.52705828 Ry

     convergence has been achieved in  20 iterations

     Forces acting on atoms (cartesian axes, Ry/au):

     atom    1 type  1   force =     0.00054279   -0.00255071   -0.00247863
     atom    2 type  1   force =    -0.00054279    0.00255071    0.00247863
     atom    3 type  4   force =    -0.00183275   -0.00432004    0.00218632
     atom    4 type  4   force =     0.00183275    0.00432004   -0.00218632
     atom    5 type  4   force =    -0.00109020    0.00368290    0.00033436
     atom    6 type  4   force =     0.00109020   -0.00368290   -0.00033436
     atom    7 type  2   force =     0.00116811    0.00100029   -0.00021452
     atom    8 type  2   force =    -0.00116811   -0.00100029    0.00021452
     atom    9 type  3   force =    -0.00065828   -0.00030034    0.00047566
     atom   10 type  3   force =     0.00065828    0.00030034   -0.00047566
     atom   11 type  2   force =    -0.00530376   -0.00458635   -0.00863614
     atom   12 type  2   force =     0.00530376    0.00458635    0.00863614
     atom   13 type  1   force =    -0.00002102   -0.00034086   -0.00055196
     atom   14 type  1   force =     0.00002102    0.00034086    0.00055196
     atom   15 type  3   force =     0.00167594    0.00078020    0.00084466
     atom   16 type  3   force =    -0.00167594   -0.00078020   -0.00084466
     atom   17 type  3   force =    -0.00007201    0.00020332   -0.00015537
     atom   18 type  3   force =     0.00007201   -0.00020332    0.00015537
     atom   19 type  1   force =    -0.00069782   -0.00026950   -0.00351369
     atom   20 type  1   force =     0.00069782    0.00026950    0.00351369
     atom   21 type  3   force =     0.00175782    0.00024086    0.00129909
     atom   22 type  3   force =    -0.00175782   -0.00024086   -0.00129909
     atom   23 type  3   force =     0.00006762    0.00058322    0.00007214
     atom   24 type  3   force =    -0.00006762   -0.00058322   -0.00007214
     atom   25 type  1   force =     0.00249629    0.00050856    0.00265704
     atom   26 type  1   force =    -0.00249629   -0.00050856   -0.00265704
     atom   27 type  3   force =    -0.00125646   -0.00015392   -0.00125382
     atom   28 type  3   force =     0.00125646    0.00015392    0.00125382
     atom   29 type  3   force =     0.00020115    0.00135052    0.00037480
     atom   30 type  3   force =    -0.00020115   -0.00135052   -0.00037480
     atom   31 type  1   force =     0.00463191    0.00245337    0.00587171
     atom   32 type  1   force =    -0.00463191   -0.00245337   -0.00587171
     atom   33 type  3   force =     0.00016786   -0.00070917   -0.00001547
     atom   34 type  3   force =    -0.00016786    0.00070917    0.00001547
     atom   35 type  3   force =    -0.00378806    0.00039837    0.00145558
     atom   36 type  3   force =     0.00378806   -0.00039837   -0.00145558
     atom   37 type  3   force =    -0.00201228    0.00041563    0.00099643
     atom   38 type  3   force =     0.00201228   -0.00041563   -0.00099643
     atom   39 type  1   force =     0.00472774   -0.00284401   -0.00195159
     atom   40 type  1   force =    -0.00472774    0.00284401    0.00195159
     atom   41 type  3   force =     0.00122119    0.00147030    0.00196407
     atom   42 type  3   force =    -0.00122119   -0.00147030   -0.00196407
     atom   43 type  3   force =     0.00027673   -0.00095026    0.00018280
     atom   44 type  3   force =    -0.00027673    0.00095026   -0.00018280
     atom   45 type  3   force =    -0.00199488    0.00203514    0.00194858
     atom   46 type  3   force =     0.00199488   -0.00203514   -0.00194858
     atom   47 type  2   force =     0.00242943    0.00374489   -0.00107639
     atom   48 type  2   force =    -0.00242943   -0.00374489    0.00107639
     atom   49 type  2   force =    -0.00006299    0.00174576   -0.00058603
     atom   50 type  2   force =     0.00006299   -0.00174576    0.00058603
     atom   51 type  3   force =     0.00048394   -0.00142388   -0.00045730
     atom   52 type  3   force =    -0.00048394    0.00142388    0.00045730
     atom   53 type  3   force =    -0.00012688    0.00020390   -0.00072280
     atom   54 type  3   force =     0.00012688   -0.00020390    0.00072280
     atom   55 type  3   force =    -0.00109024   -0.00055776   -0.00010476
     atom   56 type  3   force =     0.00109024    0.00055776    0.00010476
     atom   57 type  1   force =    -0.00288938    0.00066030   -0.00224544
     atom   58 type  1   force =     0.00288938   -0.00066030    0.00224544
     atom   59 type  3   force =     0.00260475   -0.00149099    0.00107194
     atom   60 type  3   force =    -0.00260475    0.00149099   -0.00107194
     atom   61 type  3   force =     0.00113165    0.00004894    0.00016667
     atom   62 type  3   force =    -0.00113165   -0.00004894   -0.00016667
     atom   63 type  1   force =     0.00348668   -0.00214178    0.00083369
     atom   64 type  1   force =    -0.00348668    0.00214178   -0.00083369
     atom   65 type  3   force =     0.00026936    0.00102646   -0.00012782
     atom   66 type  3   force =    -0.00026936   -0.00102646    0.00012782
     atom   67 type  3   force =    -0.00291244   -0.00011885   -0.00022233
     atom   68 type  3   force =     0.00291244    0.00011885    0.00022233
     atom   69 type  1   force =     0.00061074   -0.00303856   -0.00059488
     atom   70 type  1   force =    -0.00061074    0.00303856    0.00059488
     atom   71 type  3   force =    -0.00041710    0.00044936   -0.00122538
     atom   72 type  3   force =     0.00041710   -0.00044936    0.00122538
     atom   73 type  3   force =    -0.00091321    0.00050254   -0.00073001
     atom   74 type  3   force =     0.00091321   -0.00050254    0.00073001
     atom   75 type  1   force =     0.00357750    0.00348186    0.00017780
     atom   76 type  1   force =    -0.00357750   -0.00348186   -0.00017780
     atom   77 type  3   force =    -0.00354069   -0.00147471    0.00077503
     atom   78 type  3   force =     0.00354069    0.00147471   -0.00077503
     atom   79 type  3   force =     0.00022859   -0.00067535    0.00054637
     atom   80 type  3   force =    -0.00022859    0.00067535   -0.00054637
     atom   81 type  3   force =    -0.00022076   -0.00046703    0.00082377
     atom   82 type  3   force =     0.00022076    0.00046703   -0.00082377
     atom   83 type  1   force =     0.00071803   -0.00132829    0.00355097
     atom   84 type  1   force =    -0.00071803    0.00132829   -0.00355097
     atom   85 type  3   force =    -0.00065759    0.00092211   -0.00086998
     atom   86 type  3   force =     0.00065759   -0.00092211    0.00086998
     atom   87 type  3   force =    -0.00147922    0.00079572   -0.00031014
     atom   88 type  3   force =     0.00147922   -0.00079572    0.00031014
     atom   89 type  3   force =     0.00056657   -0.00062041   -0.00013803
     atom   90 type  3   force =    -0.00056657    0.00062041    0.00013803

     Total force =     0.032233     Total SCF correction =     0.000145


     Computing stress (Cartesian axis) and pressure

          total   stress  (Ry/bohr**3)                   (kbar)     P=   -5.69
  -0.00002876   0.00000782  -0.00000579         -4.23      1.15     -0.85
   0.00000782  -0.00003756  -0.00000619          1.15     -5.53     -0.91
  -0.00000579  -0.00000619  -0.00004965         -0.85     -0.91     -7.30


     Writing output data file scf.save
 
     init_run     :     28.53s CPU     29.56s WALL (       1 calls)
     electrons    :    946.77s CPU    986.50s WALL (       1 calls)
     forces       :     15.13s CPU     15.29s WALL (       1 calls)
     stress       :     49.60s CPU     49.81s WALL (       1 calls)

     Called by init_run:
     wfcinit      :     19.09s CPU     20.01s WALL (       1 calls)
     potinit      :      3.25s CPU      3.27s WALL (       1 calls)

     Called by electrons:
     c_bands      :    838.86s CPU    872.68s WALL (      20 calls)
     sum_band     :     93.75s CPU     98.49s WALL (      20 calls)
     v_of_rho     :      2.15s CPU      2.32s WALL (      21 calls)
     newd         :      4.99s CPU      5.97s WALL (      21 calls)
     PAW_pot      :      6.23s CPU      6.23s WALL (      21 calls)
     mix_rho      :      0.55s CPU      0.57s WALL (      20 calls)

     Called by c_bands:
     init_us_2    :      6.21s CPU      6.23s WALL (     344 calls)
     cegterg      :    816.39s CPU    850.18s WALL (     160 calls)

     Called by sum_band:
     sum_band:bec :      0.05s CPU      0.05s WALL (     160 calls)
     addusdens    :      5.07s CPU      6.01s WALL (      20 calls)

     Called by *egterg:
     h_psi        :    475.16s CPU    501.02s WALL (     690 calls)
     s_psi        :     87.51s CPU     87.51s WALL (     690 calls)
     g_psi        :      2.59s CPU      2.59s WALL (     522 calls)
     cdiaghg      :     31.10s CPU     31.09s WALL (     682 calls)

     Called by h_psi:
     h_psi:pot    :    471.86s CPU    497.66s WALL (     690 calls)
     h_psi:calbec :     91.37s CPU     91.59s WALL (     690 calls)
     vloc_psi     :    293.18s CPU    318.76s WALL (     690 calls)
     add_vuspsi   :     87.31s CPU     87.31s WALL (     690 calls)

     General routines
     calbec       :    133.07s CPU    133.40s WALL (     890 calls)
     fft          :      2.47s CPU      2.74s WALL (     297 calls)
     fftw         :    316.50s CPU    345.05s WALL (  134962 calls)
 
     Parallel routines
     fft_scatter  :     86.60s CPU    110.18s WALL (  135259 calls)
 
     PWSCF        : 17m26.42s CPU    18m40.58s WALL

 
   This run was terminated on:   6:47:25  19Dec2017            

=------------------------------------------------------------------------------=
   JOB DONE.
=------------------------------------------------------------------------------=
