
     Program PWSCF v.6.1 (svn rev. 13369) starts on 13Nov2017 at 12:24: 4 

     This program is part of the open-source Quantum ESPRESSO suite
     for quantum simulation of materials; please cite
         "P. Giannozzi et al., J. Phys.:Condens. Matter 21 395502 (2009);
          URL http://www.quantum-espresso.org", 
     in publications or presentations arising from this work. More details at
     http://www.quantum-espresso.org/quote

     Parallel version (MPI), running on     8 processors
     R & G space division:  proc/nbgrp/npool/nimage =       8
     Waiting for input...
     Reading input from standard input

     Current dimensions of program PWSCF are:
     Max number of different atomic species (ntypx) = 10
     Max number of k-points (npk) =  40000
     Max angular momentum in pseudopotentials (lmaxx) =  3
               file C.pbe-n-kjpaw_psl.0.1.UPF: wavefunction(s)  2P renormalized
               file N.pbe-n-kjpaw_psl.0.1.UPF: wavefunction(s)  2P renormalized
               file H.pbe-kjpaw_psl.0.1.UPF: wavefunction(s)  1S renormalized
               file O.pbe-n-kjpaw_psl.0.1.UPF: wavefunction(s)  2P renormalized

     -------------------------------------
     Parameters for Dispersion Correction:
     -------------------------------------
       atom      VdW radius       C_6     

        C          2.744         60.710
        N          2.640         42.670
        H          1.892          4.857
        O          2.536         24.284

     Subspace diagonalization in iterative solution of the eigenvalue problem:
     a serial algorithm will be used

 
     Parallelization info
     --------------------
     sticks:   dense  smooth     PW     G-vecs:    dense   smooth      PW
     Min         955     955    252               107609   107609   14544
     Max         956     956    253               107616   107616   14547
     Sum        7645    7645   2017               860901   860901  116367
 


     bravais-lattice index     =            0
     lattice parameter (alat)  =      13.9277  a.u.
     unit-cell volume          =    6371.9979 (a.u.)^3
     number of atoms/cell      =          112
     number of atomic types    =            4
     number of electrons       =       352.00
     number of Kohn-Sham states=          211
     kinetic-energy cutoff     =     100.0000  Ry
     charge density cutoff     =     400.0000  Ry
     convergence threshold     =      1.0E-08
     mixing beta               =       0.5000
     number of iterations used =            8  plain     mixing
     Exchange-correlation      =  SLA  PW   PBX  PBC ( 1  4  3  4 0 0)

     celldm(1)=  13.927660  celldm(2)=   0.000000  celldm(3)=   0.000000
     celldm(4)=   0.000000  celldm(5)=   0.000000  celldm(6)=   0.000000

     crystal axes: (cart. coord. in units of alat)
               a(1) = (   1.000000   0.000000   0.000000 )  
               a(2) = (   0.000000   1.238067   0.000000 )  
               a(3) = (   0.000000   0.000000   1.905009 )  

     reciprocal axes: (cart. coord. in units 2 pi/alat)
               b(1) = (  1.000000  0.000000  0.000000 )  
               b(2) = (  0.000000  0.807711  0.000000 )  
               b(3) = (  0.000000  0.000000  0.524932 )  


     PseudoPot. # 1 for  C read from file:
     /scratch/ahofstet/pseudo/C.pbe-n-kjpaw_psl.0.1.UPF
     MD5 check sum: 430fe95172b1e11ef3f8ed03bac87931
     Pseudo is Projector augmented-wave + core cor, Zval =  4.0
     Generated using "atomic" code by A. Dal Corso  v.5.0.99 svn rev. 10869
     Shape of augmentation charge: BESSEL
     Using radial grid of 1073 points,  4 beta functions with: 
                l(1) =   0
                l(2) =   0
                l(3) =   1
                l(4) =   1
     Q(r) pseudized with 0 coefficients 


     PseudoPot. # 2 for  N read from file:
     /scratch/ahofstet/pseudo/N.pbe-n-kjpaw_psl.0.1.UPF
     MD5 check sum: f73187c8b701007e77325f868c9291d7
     Pseudo is Projector augmented-wave + core cor, Zval =  5.0
     Generated using "atomic" code by A. Dal Corso  v.5.0.99 svn rev. 10869
     Shape of augmentation charge: PSQ
     Using radial grid of 1085 points,  4 beta functions with: 
                l(1) =   0
                l(2) =   0
                l(3) =   1
                l(4) =   1
     Q(r) pseudized with 0 coefficients 


     PseudoPot. # 3 for  H read from file:
     /scratch/ahofstet/pseudo/H.pbe-kjpaw_psl.0.1.UPF
     MD5 check sum: 94e484f906d9e9773b2f6e52662335b2
     Pseudo is Projector augmented-wave, Zval =  1.0
     Generated using "atomic" code by A. Dal Corso  v.5.0.99 svn rev. 10869
     Shape of augmentation charge: PSQ
     Using radial grid of  929 points,  2 beta functions with: 
                l(1) =   0
                l(2) =   0
     Q(r) pseudized with 0 coefficients 


     PseudoPot. # 4 for  O read from file:
     /scratch/ahofstet/pseudo/O.pbe-n-kjpaw_psl.0.1.UPF
     MD5 check sum: 3f94a2996a3169367d6eb21d9b593f20
     Pseudo is Projector augmented-wave + core cor, Zval =  6.0
     Generated using "atomic" code by A. Dal Corso  v.5.0.99 svn rev. 10869
     Shape of augmentation charge: BESSEL
     Using radial grid of 1095 points,  4 beta functions with: 
                l(1) =   0
                l(2) =   0
                l(3) =   1
                l(4) =   1
     Q(r) pseudized with 0 coefficients 


     atomic species   valence    mass     pseudopotential
        C              4.00    12.01070      C( 1.00)
        N              5.00    14.00670      N( 1.00)
        H              1.00     1.00794      H( 1.00)
        O              6.00    15.99940      O( 1.00)

      2 Sym. Ops. (no inversion) found ( 1 have fractional translation)



   Cartesian axes

     site n.     atom                  positions (alat units)
         1           O   tau(   1) = (   0.1919238   0.0247683   0.7964611  )
         2           O   tau(   2) = (   0.3080638   1.2132810   1.7489386  )
         3           O   tau(   3) = (   0.8080638   0.6438192   0.1560708  )
         4           O   tau(   4) = (   0.6919238   0.5942651   1.1085483  )
         5           O   tau(   5) = (   0.1800762   0.1066334   1.0816309  )
         6           O   tau(   6) = (   0.3199896   1.1314134   0.1290903  )
         7           O   tau(   7) = (   0.8199896   0.7256868   1.7759191  )
         8           O   tau(   8) = (   0.6800762   0.5124000   0.8233785  )
         9           O   tau(   9) = (   0.9045808   1.0064256   0.7552650  )
        10           O   tau(  10) = (   0.5954191   0.2316397   1.7077146  )
        11           O   tau(  11) = (   0.0954191   0.3873937   0.1972947  )
        12           O   tau(  12) = (   0.4045808   0.8506746   1.1497444  )
        13           O   tau(  13) = (   0.3939923   1.1290046   0.4831740  )
        14           O   tau(  14) = (   0.1059766   0.1090862   1.4356244  )
        15           O   tau(  15) = (   0.6059766   0.5099472   0.4693850  )
        16           O   tau(  16) = (   0.8939923   0.7280956   1.4218354  )
        17           O   tau(  17) = (   0.1017637   0.1451892   0.5149770  )
        18           O   tau(  18) = (   0.3981610   1.0929087   1.4674212  )
        19           O   tau(  19) = (   0.8981610   0.7641915   0.4375882  )
        20           O   tau(  20) = (   0.6017637   0.4738442   1.3900324  )
        21           O   tau(  21) = (   0.6213915   0.9010468   0.6584644  )
        22           O   tau(  22) = (   0.8785569   0.3370224   1.6107931  )
        23           O   tau(  23) = (   0.3785569   0.2820110   0.2942163  )
        24           O   tau(  24) = (   0.1213915   0.9560534   1.2465450  )
        25           C   tau(  25) = (   0.1048812   1.2268569   0.6170806  )
        26           C   tau(  26) = (   0.3950671   0.0112252   1.5695637  )
        27           C   tau(  27) = (   0.8950671   0.6078082   0.3354457  )
        28           C   tau(  28) = (   0.6048812   0.6302434   1.2879288  )
        29           C   tau(  29) = (   0.7900817   0.1089591   1.0795859  )
        30           C   tau(  30) = (   0.7099874   1.1291679   0.1269760  )
        31           C   tau(  31) = (   0.2099874   0.7279323   1.7780334  )
        32           C   tau(  32) = (   0.2900817   0.5100743   0.8254234  )
        33           C   tau(  33) = (   0.9027869   0.1525048   0.9136800  )
        34           C   tau(  34) = (   0.5972476   1.0855803   1.8661161  )
        35           C   tau(  35) = (   0.0972476   0.7715199   0.0388933  )
        36           C   tau(  36) = (   0.4027869   0.4665286   0.9913294  )
        37           C   tau(  37) = (   0.0981956   0.0913744   0.9372964  )
        38           C   tau(  38) = (   0.4018286   1.1466792   1.8897557  )
        39           C   tau(  39) = (   0.9018286   0.7104210   0.0152536  )
        40           C   tau(  40) = (   0.5981956   0.5276590   0.9677130  )
        41           C   tau(  41) = (   0.7953572   0.0645186   0.7550081  )
        42           C   tau(  42) = (   0.7046283   1.1735433   1.7073967  )
        43           C   tau(  43) = (   0.2046283   0.6835569   0.1976127  )
        44           C   tau(  44) = (   0.2953572   0.5545148   1.1500012  )
        45           C   tau(  45) = (   0.6561773   1.2303828   1.0429711  )
        46           C   tau(  46) = (   0.8439189   0.0077007   0.0902995  )
        47           C   tau(  47) = (   0.3439189   0.6113327   1.8147099  )
        48           C   tau(  48) = (   0.1561773   0.6267174   0.8620383  )
        49           C   tau(  49) = (   0.7173095   0.9840343   0.8031689  )
        50           C   tau(  50) = (   0.7827130   0.2540206   1.7555418  )
        51           C   tau(  51) = (   0.2827130   0.3650128   0.1494676  )
        52           C   tau(  52) = (   0.2173095   0.8730659   1.1018404  )
        53           C   tau(  53) = (   0.9093820   1.1682157   0.6472234  )
        54           C   tau(  54) = (   0.5905738   0.0698576   1.5996631  )
        55           C   tau(  55) = (   0.0905738   0.5491758   0.3053462  )
        56           C   tau(  56) = (   0.4093820   0.6888845   1.2577860  )
        57           C   tau(  57) = (   0.6500680   1.1789282   0.8455472  )
        58           C   tau(  58) = (   0.8499657   0.0591206   1.7978779  )
        59           C   tau(  59) = (   0.3499657   0.5599128   0.1071314  )
        60           C   tau(  60) = (   0.1500680   0.6781720   1.0594622  )
        61           C   tau(  61) = (   0.2161816   1.0718861   0.5349160  )
        62           C   tau(  62) = (   0.2837681   0.1662115   1.4874265  )
        63           C   tau(  63) = (   0.7837681   0.4528219   0.4175829  )
        64           C   tau(  64) = (   0.7161816   0.7852141   1.3700934  )
        65           H   tau(  65) = (   0.3932366   1.1417395   0.3488587  )
        66           H   tau(  66) = (   0.1067759   0.0963625   1.3013033  )
        67           H   tau(  67) = (   0.6067759   0.5226710   0.6037061  )
        68           H   tau(  68) = (   0.8932366   0.7153607   1.5561506  )
        69           H   tau(  69) = (   0.2171422   0.1662202   0.4479870  )
        70           H   tau(  70) = (   0.2827893   1.0719186   1.4004141  )
        71           H   tau(  71) = (   0.7827893   0.7851816   0.5045953  )
        72           H   tau(  72) = (   0.7171422   0.4528133   1.4570224  )
        73           H   tau(  73) = (   0.8198475   0.1672795   1.2120676  )
        74           H   tau(  74) = (   0.6802281   1.0709113   0.2594832  )
        75           H   tau(  75) = (   0.1802281   0.7861889   1.6455261  )
        76           H   tau(  76) = (   0.3198475   0.4517539   0.6929417  )
        77           H   tau(  77) = (   0.5599838   1.1760354   1.1414131  )
        78           H   tau(  78) = (   0.9401543   0.0620654   0.1886849  )
        79           H   tau(  79) = (   0.4401543   0.5569680   1.7163245  )
        80           H   tau(  80) = (   0.0599838   0.6810648   0.7635963  )
        81           H   tau(  81) = (   0.8499534   1.1430072   0.5121763  )
        82           H   tau(  82) = (   0.6499496   0.0950726   1.4645929  )
        83           H   tau(  83) = (   0.1499496   0.5239608   0.4404164  )
        84           H   tau(  84) = (   0.3499534   0.7140930   1.3928330  )
        85           H   tau(  85) = (   0.5144688   1.1993915   0.7881135  )
        86           H   tau(  86) = (   0.9855298   0.0386424   1.7403681  )
        87           H   tau(  87) = (   0.4855298   0.5803910   0.1646413  )
        88           H   tau(  88) = (   0.0144688   0.6577087   1.1168958  )
        89           H   tau(  89) = (   0.2261429   0.9614121   0.6345836  )
        90           H   tau(  90) = (   0.2737727   0.2766646   1.5871138  )
        91           H   tau(  91) = (   0.7737727   0.3423688   0.3178955  )
        92           H   tau(  92) = (   0.7261429   0.8956881   1.2704258  )
        93           H   tau(  93) = (   0.1402267   1.0214804   0.4169178  )
        94           H   tau(  94) = (   0.3597359   0.2166550   1.3694535  )
        95           H   tau(  95) = (   0.8597359   0.4023784   0.5355559  )
        96           H   tau(  96) = (   0.6402267   0.8356198   1.4880916  )
        97           H   tau(  97) = (   0.7344536   0.1688808   0.6689995  )
        98           H   tau(  98) = (   0.7654767   1.0691781   1.6213525  )
        99           H   tau(  99) = (   0.2654767   0.7879221   0.2836569  )
       100           H   tau( 100) = (   0.2344536   0.4501526   1.2360098  )
       101           H   tau( 101) = (   0.9149363   0.3002229   0.8916753  )
       102           H   tau( 102) = (   0.5851197   0.9378547   1.8441522  )
       103           H   tau( 103) = (   0.0851197   0.9192455   0.0608572  )
       104           H   tau( 104) = (   0.4149363   0.3188105   1.0133340  )
       105           H   tau( 105) = (   0.7151048   0.8904759   0.9186718  )
       106           H   tau( 106) = (   0.7849766   0.3475685   1.8710505  )
       107           H   tau( 107) = (   0.2849766   0.2714649   0.0339588  )
       108           H   tau( 108) = (   0.2151048   0.9666243   0.9863375  )
       109           H   tau( 109) = (   0.5483906   0.9921861   0.5901647  )
       110           H   tau( 110) = (   0.9515889   0.2459035   1.5424915  )
       111           H   tau( 111) = (   0.4515889   0.3731299   0.3625178  )
       112           H   tau( 112) = (   0.0483906   0.8649141   1.3148446  )

     number of k points=     8
                       cart. coord. in units 2pi/alat
        k(    1) = (   0.0000000   0.0000000   0.0000000), wk =   0.1666667
        k(    2) = (   0.0000000   0.0000000  -0.2624659), wk =   0.1666667
        k(    3) = (   0.0000000  -0.4038554   0.0000000), wk =   0.1666667
        k(    4) = (   0.0000000  -0.4038554  -0.2624659), wk =   0.1666667
        k(    5) = (   0.3333333   0.0000000   0.0000000), wk =   0.3333333
        k(    6) = (   0.3333333   0.0000000  -0.2624659), wk =   0.3333333
        k(    7) = (   0.3333333  -0.4038554   0.0000000), wk =   0.3333333
        k(    8) = (   0.3333333  -0.4038554  -0.2624659), wk =   0.3333333

     Dense  grid:   860901 G-vectors     FFT dimensions: (  90, 120, 180)

     Estimated max dynamical RAM per process >     949.72MB

     Estimated total allocated dynamical RAM >    7597.79MB

     Check: negative/imaginary core charge=   -0.000003    0.000000

     Initial potential from superposition of free atoms

     starting charge  351.99784, renormalised to  352.00000
     Starting wfc are  304 randomized atomic wfcs
     Checking if some PAW data can be deallocated... 

     total cpu time spent up to now is       54.9 secs

     per-process dynamical memory:   630.1 Mb

     Self-consistent Calculation

     iteration #  1     ecut=   100.00 Ry     beta=0.50
     Davidson diagonalization with overlap
     ethr =  1.00E-02,  avg # of iterations =  4.2

     total cpu time spent up to now is      242.2 secs

     total energy              =   -1792.58969532 Ry
     Harris-Foulkes estimate   =   -1797.87222715 Ry
     estimated scf accuracy    <      10.21735905 Ry

     iteration #  2     ecut=   100.00 Ry     beta=0.50
     Davidson diagonalization with overlap
     ethr =  2.90E-03,  avg # of iterations =  3.0

     total cpu time spent up to now is      343.2 secs

     total energy              =   -1793.80881058 Ry
     Harris-Foulkes estimate   =   -1794.29046203 Ry
     estimated scf accuracy    <       1.14396404 Ry

     iteration #  3     ecut=   100.00 Ry     beta=0.50
     Davidson diagonalization with overlap
     ethr =  3.25E-04,  avg # of iterations =  7.0

     total cpu time spent up to now is      549.9 secs

     total energy              =   -1794.32933285 Ry
     Harris-Foulkes estimate   =   -1794.57130828 Ry
     estimated scf accuracy    <       0.59221744 Ry

     iteration #  4     ecut=   100.00 Ry     beta=0.50
     Davidson diagonalization with overlap
     ethr =  1.68E-04,  avg # of iterations =  2.1

     total cpu time spent up to now is      638.6 secs

     total energy              =   -1794.31847081 Ry
     Harris-Foulkes estimate   =   -1794.38648049 Ry
     estimated scf accuracy    <       0.13204401 Ry

     iteration #  5     ecut=   100.00 Ry     beta=0.50
     Davidson diagonalization with overlap
     ethr =  3.75E-05,  avg # of iterations =  6.6

     total cpu time spent up to now is      851.1 secs

     total energy              =   -1794.40658737 Ry
     Harris-Foulkes estimate   =   -1794.47222467 Ry
     estimated scf accuracy    <       0.20202532 Ry

     iteration #  6     ecut=   100.00 Ry     beta=0.50
     Davidson diagonalization with overlap
     ethr =  3.75E-05,  avg # of iterations =  1.0

     total cpu time spent up to now is      935.7 secs

     total energy              =   -1794.36925461 Ry
     Harris-Foulkes estimate   =   -1794.41391312 Ry
     estimated scf accuracy    <       0.08210438 Ry

     iteration #  7     ecut=   100.00 Ry     beta=0.50
     Davidson diagonalization with overlap
     ethr =  2.33E-05,  avg # of iterations =  6.6

     total cpu time spent up to now is     1130.3 secs

     total energy              =   -1794.41038612 Ry
     Harris-Foulkes estimate   =   -1794.41484567 Ry
     estimated scf accuracy    <       0.01613515 Ry

     iteration #  8     ecut=   100.00 Ry     beta=0.50
     Davidson diagonalization with overlap
     ethr =  4.58E-06,  avg # of iterations =  1.4

     total cpu time spent up to now is     1215.6 secs

     total energy              =   -1794.40696150 Ry
     Harris-Foulkes estimate   =   -1794.41077921 Ry
     estimated scf accuracy    <       0.00795854 Ry

     iteration #  9     ecut=   100.00 Ry     beta=0.50
     Davidson diagonalization with overlap
     ethr =  2.26E-06,  avg # of iterations =  6.8

     total cpu time spent up to now is     1390.8 secs

     total energy              =   -1794.41015072 Ry
     Harris-Foulkes estimate   =   -1794.41015633 Ry
     estimated scf accuracy    <       0.00046309 Ry

     iteration # 10     ecut=   100.00 Ry     beta=0.50
     Davidson diagonalization with overlap
     ethr =  1.32E-07,  avg # of iterations =  1.8

     total cpu time spent up to now is     1476.9 secs

     total energy              =   -1794.40994305 Ry
     Harris-Foulkes estimate   =   -1794.41016776 Ry
     estimated scf accuracy    <       0.00045186 Ry

     iteration # 11     ecut=   100.00 Ry     beta=0.50
     Davidson diagonalization with overlap
     ethr =  1.28E-07,  avg # of iterations =  3.2

     total cpu time spent up to now is     1576.9 secs

     total energy              =   -1794.41000181 Ry
     Harris-Foulkes estimate   =   -1794.41001601 Ry
     estimated scf accuracy    <       0.00003773 Ry

     iteration # 12     ecut=   100.00 Ry     beta=0.50
     Davidson diagonalization with overlap
     ethr =  1.07E-08,  avg # of iterations =  4.0

     total cpu time spent up to now is     1754.6 secs

     total energy              =   -1794.41003048 Ry
     Harris-Foulkes estimate   =   -1794.41003611 Ry
     estimated scf accuracy    <       0.00001475 Ry

     iteration # 13     ecut=   100.00 Ry     beta=0.50
     Davidson diagonalization with overlap
     ethr =  4.19E-09,  avg # of iterations =  1.0

     total cpu time spent up to now is     1839.5 secs

     total energy              =   -1794.41002731 Ry
     Harris-Foulkes estimate   =   -1794.41003095 Ry
     estimated scf accuracy    <       0.00000531 Ry

     iteration # 14     ecut=   100.00 Ry     beta=0.50
     Davidson diagonalization with overlap
     ethr =  1.51E-09,  avg # of iterations =  4.0

     total cpu time spent up to now is     2009.8 secs

     total energy              =   -1794.41003126 Ry
     Harris-Foulkes estimate   =   -1794.41003360 Ry
     estimated scf accuracy    <       0.00000666 Ry

     iteration # 15     ecut=   100.00 Ry     beta=0.50
     Davidson diagonalization with overlap
     ethr =  1.51E-09,  avg # of iterations =  1.0

     total cpu time spent up to now is     2094.6 secs

     total energy              =   -1794.41002971 Ry
     Harris-Foulkes estimate   =   -1794.41003141 Ry
     estimated scf accuracy    <       0.00000276 Ry

     iteration # 16     ecut=   100.00 Ry     beta=0.50
     Davidson diagonalization with overlap
     ethr =  7.83E-10,  avg # of iterations =  4.0

     total cpu time spent up to now is     2253.5 secs

     total energy              =   -1794.41003170 Ry
     Harris-Foulkes estimate   =   -1794.41003202 Ry
     estimated scf accuracy    <       0.00000161 Ry

     iteration # 17     ecut=   100.00 Ry     beta=0.50
     Davidson diagonalization with overlap
     ethr =  4.58E-10,  avg # of iterations =  1.0

     total cpu time spent up to now is     2338.5 secs

     total energy              =   -1794.41003129 Ry
     Harris-Foulkes estimate   =   -1794.41003171 Ry
     estimated scf accuracy    <       0.00000106 Ry

     iteration # 18     ecut=   100.00 Ry     beta=0.50
     Davidson diagonalization with overlap
     ethr =  3.01E-10,  avg # of iterations =  2.4

     total cpu time spent up to now is     2427.0 secs

     total energy              =   -1794.41003131 Ry
     Harris-Foulkes estimate   =   -1794.41003136 Ry
     estimated scf accuracy    <       0.00000027 Ry

     iteration # 19     ecut=   100.00 Ry     beta=0.50
     Davidson diagonalization with overlap
     ethr =  7.63E-11,  avg # of iterations =  4.0

     total cpu time spent up to now is     2592.4 secs

     total energy              =   -1794.41003151 Ry
     Harris-Foulkes estimate   =   -1794.41003152 Ry
     estimated scf accuracy    <       0.00000001 Ry

     iteration # 20     ecut=   100.00 Ry     beta=0.50
     Davidson diagonalization with overlap
     ethr =  4.16E-12,  avg # of iterations =  1.0

     total cpu time spent up to now is     2677.2 secs

     End of self-consistent calculation

          k = 0.0000 0.0000 0.0000 (107583 PWs)   bands (ev):

   -20.8590 -20.8389 -20.8310 -20.8301 -19.7351 -19.6995 -19.6720 -19.6648
   -19.3546 -19.2533 -19.2390 -19.1776 -18.6318 -18.6164 -18.4832 -18.4684
   -18.1228 -18.0842 -18.0566 -18.0548 -17.8089 -17.8019 -17.7954 -17.7877
   -14.2161 -14.2155 -14.2150 -14.2095 -12.4446 -12.3987 -12.3732 -12.3510
   -11.5172 -11.4810 -11.4765 -11.4480 -11.2086 -11.1653 -11.1528 -11.1101
    -9.9661  -9.9325  -9.9195  -9.8473  -8.9578  -8.9384  -8.8909  -8.7623
    -8.4881  -8.4875  -8.4345  -8.4209  -7.7035  -7.6874  -7.6449  -7.6321
    -7.0565  -7.0280  -6.9047  -6.8479  -6.6602  -6.5486  -6.4486  -6.4478
    -6.3355  -6.2796  -6.2331  -6.1847  -5.9654  -5.9440  -5.8348  -5.6228
    -5.5948  -5.5465  -5.5112  -5.4620  -5.3307  -5.2448  -5.1971  -5.1570
    -5.0681  -5.0274  -4.9633  -4.9403  -4.7894  -4.7640  -4.7328  -4.6662
    -4.5208  -4.4561  -4.4387  -4.3375  -4.1252  -4.0928  -4.0290  -3.9865
    -3.8889  -3.7668  -3.7453  -3.7436  -3.6537  -3.6306  -3.6087  -3.5228
    -3.2183  -3.0706  -3.0497  -2.9901  -2.9405  -2.8962  -2.8883  -2.8723
    -2.5351  -2.4239  -2.4048  -2.2873  -2.2589  -2.2139  -2.1139  -2.0873
    -1.9438  -1.8975  -1.8790  -1.8717  -1.6326  -1.6001  -1.5412  -1.5356
    -1.5214  -1.4326  -1.3989  -1.3371  -1.3230  -1.3075  -1.2374  -1.1769
    -1.1653  -1.1329  -1.0953  -0.9822  -0.9692  -0.9208  -0.9028  -0.9025
    -0.8313  -0.7623  -0.6674  -0.6413  -0.5455  -0.3627  -0.3474  -0.3109
    -0.1318  -0.1044  -0.0936  -0.0585   0.0359   0.1468   0.1546   0.1806
     0.1841   0.2968   0.3057   0.3176   0.4876   0.6500   0.6558   0.6782
     0.7429   0.7588   0.7749   0.8678   1.0096   1.0652   1.3090   1.3787
     5.4978   5.5391   5.8958   5.9539   6.2570   6.3291   6.3779   6.4192
     6.9568   7.2872   7.8305   7.9821   8.0559   8.2303   8.3215   8.4024
     8.4130   8.4643   8.6483   8.7037   8.7468   8.7714   8.8181   8.8674
     9.0735   9.0965   9.1863   9.1992   9.2760   9.3319   9.3573   9.3649
     9.3963   9.5390   9.5516

          k = 0.0000 0.0000-0.2625 (107632 PWs)   bands (ev):

   -20.8472 -20.8470 -20.8327 -20.8326 -19.7164 -19.7164 -19.6683 -19.6683
   -19.3016 -19.3015 -19.2203 -19.2202 -18.5546 -18.5543 -18.5416 -18.5413
   -18.0935 -18.0935 -18.0599 -18.0599 -17.8132 -17.8131 -17.7849 -17.7847
   -14.2161 -14.2160 -14.2121 -14.2119 -12.4227 -12.4226 -12.3611 -12.3611
   -11.5001 -11.5001 -11.4589 -11.4588 -11.1845 -11.1845 -11.1384 -11.1382
    -9.9491  -9.9490  -9.8832  -9.8830  -8.9370  -8.9370  -8.8448  -8.8446
    -8.4660  -8.4659  -8.4388  -8.4387  -7.6932  -7.6931  -7.6414  -7.6413
    -7.0485  -7.0484  -6.8774  -6.8774  -6.6076  -6.6075  -6.4245  -6.4244
    -6.2982  -6.2981  -6.2355  -6.2354  -5.9879  -5.9878  -5.7213  -5.7212
    -5.5405  -5.5403  -5.4975  -5.4974  -5.3042  -5.3039  -5.1765  -5.1762
    -5.0294  -5.0293  -4.8469  -4.8469  -4.8131  -4.8131  -4.7440  -4.7439
    -4.5214  -4.5213  -4.4037  -4.4037  -4.0876  -4.0875  -3.9763  -3.9762
    -3.9062  -3.9061  -3.7129  -3.7128  -3.6090  -3.6089  -3.5573  -3.5572
    -3.1579  -3.1578  -3.0305  -3.0305  -2.9464  -2.9462  -2.8613  -2.8612
    -2.4915  -2.4915  -2.3493  -2.3489  -2.2308  -2.2305  -2.0811  -2.0811
    -1.9418  -1.9416  -1.8499  -1.8498  -1.5977  -1.5976  -1.5250  -1.5248
    -1.4526  -1.4526  -1.3965  -1.3964  -1.2905  -1.2905  -1.2374  -1.2372
    -1.1587  -1.1586  -1.0699  -1.0699  -0.9534  -0.9534  -0.8804  -0.8804
    -0.8330  -0.8329  -0.6278  -0.6278  -0.4593  -0.4593  -0.3186  -0.3182
    -0.1164  -0.1161  -0.0630  -0.0629   0.1063   0.1063   0.1593   0.1593
     0.2348   0.2350   0.2780   0.2780   0.5956   0.5957   0.6649   0.6650
     0.7428   0.7430   0.8267   0.8267   1.0429   1.0429   1.3414   1.3416
     5.5182   5.5187   5.9253   5.9257   6.2895   6.2898   6.4002   6.4004
     7.0966   7.0966   7.9673   7.9673   8.1681   8.1681   8.3276   8.3277
     8.4073   8.4075   8.6545   8.6551   8.8321   8.8323   8.8981   8.8982
     8.9560   8.9562   9.1115   9.1116   9.3073   9.3077   9.4220   9.4223
     9.5670   9.5671   9.6703

          k = 0.0000-0.4039 0.0000 (107658 PWs)   bands (ev):

   -20.8490 -20.8490 -20.8305 -20.8304 -19.7049 -19.7047 -19.6858 -19.6857
   -19.3007 -19.3006 -19.2073 -19.2073 -18.6242 -18.6241 -18.4760 -18.4760
   -18.1060 -18.1060 -18.0518 -18.0516 -17.8107 -17.8107 -17.7870 -17.7869
   -14.2238 -14.2235 -14.2041 -14.2039 -12.4108 -12.4108 -12.3746 -12.3745
   -11.5151 -11.5151 -11.4426 -11.4426 -11.1915 -11.1914 -11.1292 -11.1291
    -9.9460  -9.9460  -9.8899  -9.8899  -8.9506  -8.9505  -8.8134  -8.8134
    -8.5047  -8.5047  -8.4171  -8.4170  -7.6823  -7.6822  -7.6562  -7.6561
    -6.9893  -6.9892  -6.9535  -6.9534  -6.5544  -6.5544  -6.4602  -6.4600
    -6.3206  -6.3206  -6.2080  -6.2079  -5.9350  -5.9349  -5.7530  -5.7529
    -5.5911  -5.5910  -5.4848  -5.4847  -5.3430  -5.3429  -5.1254  -5.1251
    -5.0301  -5.0301  -4.9511  -4.9511  -4.8395  -4.8392  -4.6492  -4.6491
    -4.5533  -4.5532  -4.2884  -4.2882  -4.1544  -4.1543  -3.9575  -3.9574
    -3.8265  -3.8264  -3.7244  -3.7244  -3.6029  -3.6029  -3.5544  -3.5543
    -3.1959  -3.1958  -3.1047  -3.1047  -2.9400  -2.9399  -2.8590  -2.8589
    -2.5231  -2.5231  -2.3030  -2.3029  -2.1981  -2.1980  -2.1197  -2.1196
    -1.9319  -1.9318  -1.8061  -1.8059  -1.6006  -1.6003  -1.5614  -1.5613
    -1.4676  -1.4675  -1.3968  -1.3967  -1.2607  -1.2606  -1.2081  -1.2080
    -1.1052  -1.1052  -1.0758  -1.0758  -0.9523  -0.9522  -0.8980  -0.8978
    -0.8593  -0.8590  -0.6903  -0.6902  -0.4626  -0.4624  -0.2865  -0.2861
    -0.1667  -0.1663  -0.0272  -0.0270   0.0985   0.0988   0.1761   0.1761
     0.2391   0.2391   0.3229   0.3230   0.6144   0.6145   0.6737   0.6737
     0.6903   0.6904   0.7850   0.7852   1.1126   1.1126   1.2773   1.2775
     5.4958   5.4963   5.9380   5.9384   6.2887   6.2889   6.4122   6.4124
     7.3141   7.3141   7.5894   7.5895   8.1794   8.1796   8.4620   8.4621
     8.5629   8.5632   8.6898   8.6901   8.7423   8.7428   8.8329   8.8330
     8.9697   8.9700   9.0041   9.0046   9.1785   9.1786   9.4639   9.4646
     9.5567   9.5575   9.6546

          k = 0.0000-0.4039-0.2625 (107504 PWs)   bands (ev):

   -20.8407 -20.8405 -20.8393 -20.8390 -19.6971 -19.6969 -19.6919 -19.6917
   -19.2664 -19.2664 -19.2520 -19.2519 -18.5547 -18.5544 -18.5415 -18.5413
   -18.0902 -18.0901 -18.0628 -18.0625 -17.8131 -17.8129 -17.7850 -17.7848
   -14.2236 -14.2234 -14.2043 -14.2041 -12.3935 -12.3934 -12.3920 -12.3919
   -11.5101 -11.5100 -11.4458 -11.4458 -11.1727 -11.1725 -11.1519 -11.1517
    -9.9266  -9.9264  -9.9092  -9.9090  -8.8967  -8.8966  -8.8774  -8.8773
    -8.4836  -8.4835  -8.4238  -8.4236  -7.6826  -7.6826  -7.6581  -7.6580
    -6.9883  -6.9880  -6.9583  -6.9582  -6.5395  -6.5395  -6.4683  -6.4680
    -6.2671  -6.2670  -6.2654  -6.2653  -5.9601  -5.9600  -5.7603  -5.7602
    -5.5175  -5.5174  -5.5117  -5.5116  -5.3517  -5.3514  -5.1789  -5.1785
    -4.9529  -4.9528  -4.9019  -4.9017  -4.8548  -4.8545  -4.7509  -4.7506
    -4.5188  -4.5187  -4.3314  -4.3313  -4.0621  -4.0620  -4.0107  -4.0105
    -3.8230  -3.8229  -3.7196  -3.7194  -3.5836  -3.5834  -3.5438  -3.5437
    -3.1789  -3.1788  -3.1678  -3.1677  -2.9240  -2.9239  -2.8823  -2.8822
    -2.5227  -2.5227  -2.2952  -2.2951  -2.1698  -2.1697  -2.1363  -2.1363
    -1.9117  -1.9116  -1.8299  -1.8297  -1.5765  -1.5762  -1.5443  -1.5442
    -1.5022  -1.5021  -1.3982  -1.3979  -1.2001  -1.2000  -1.1972  -1.1971
    -1.1346  -1.1345  -1.0794  -1.0792  -0.9868  -0.9866  -0.9372  -0.9369
    -0.8604  -0.8599  -0.6773  -0.6769  -0.4283  -0.4282  -0.2950  -0.2945
    -0.1543  -0.1539  -0.0394  -0.0392   0.1163   0.1165   0.1902   0.1904
     0.2507   0.2508   0.2532   0.2534   0.6481   0.6483   0.6658   0.6659
     0.7063   0.7065   0.7732   0.7735   1.1081   1.1082   1.2744   1.2746
     5.4966   5.4971   5.9390   5.9395   6.2932   6.2935   6.4028   6.4031
     7.3550   7.3558   7.5482   7.5491   8.1992   8.1995   8.4110   8.4114
     8.5404   8.5407   8.6780   8.6786   8.8189   8.8196   8.8869   8.8871
     8.9912   8.9919   9.0010   9.0013   9.2168   9.2170   9.3290   9.3295
     9.5022   9.5034   9.6195

          k = 0.3333 0.0000 0.0000 (107622 PWs)   bands (ev):

   -20.8527 -20.8430 -20.8284 -20.8283 -19.7140 -19.6932 -19.6689 -19.6647
   -19.3672 -19.3223 -19.2310 -19.2084 -18.5991 -18.5923 -18.4584 -18.4474
   -18.1248 -18.0886 -18.0774 -18.0618 -17.8080 -17.8055 -17.7899 -17.7866
   -14.2241 -14.2236 -14.2207 -14.2181 -12.4493 -12.4273 -12.3847 -12.3740
   -11.4680 -11.4459 -11.4393 -11.4270 -11.1918 -11.1692 -11.1445 -11.1184
    -9.8999  -9.8889  -9.8853  -9.8380  -8.9791  -8.9697  -8.8846  -8.8242
    -8.4943  -8.4939  -8.4198  -8.4147  -7.7586  -7.7477  -7.6939  -7.6870
    -7.0483  -7.0346  -6.8827  -6.8534  -6.6476  -6.5331  -6.4930  -6.4756
    -6.3011  -6.2657  -6.2275  -6.1851  -5.8768  -5.8499  -5.8474  -5.7572
    -5.6822  -5.6296  -5.6284  -5.5756  -5.3106  -5.1995  -5.1182  -5.0985
    -4.9554  -4.9493  -4.9256  -4.9218  -4.8929  -4.8406  -4.7052  -4.6348
    -4.5687  -4.4834  -4.3994  -4.3431  -4.1652  -4.1507  -3.9604  -3.9547
    -3.8825  -3.8667  -3.7945  -3.7380  -3.6049  -3.5545  -3.5347  -3.4903
    -3.2590  -3.2276  -3.1423  -3.1331  -2.9490  -2.8846  -2.8811  -2.8740
    -2.3218  -2.3092  -2.2899  -2.2330  -2.2073  -2.1728  -2.0822  -2.0298
    -1.9260  -1.9007  -1.8646  -1.8062  -1.6214  -1.5926  -1.5880  -1.5463
    -1.4649  -1.4312  -1.4104  -1.3861  -1.3437  -1.2545  -1.2359  -1.2256
    -1.1589  -1.1570  -1.1103  -1.0399  -0.9410  -0.9353  -0.8472  -0.8382
    -0.8168  -0.7546  -0.6701  -0.6116  -0.5204  -0.4173  -0.4134  -0.3976
    -0.1418  -0.1196  -0.0959  -0.0305   0.0473   0.0684   0.1454   0.2026
     0.2038   0.2619   0.3379   0.3418   0.5741   0.6232   0.6495   0.7030
     0.7225   0.7372   0.7740   0.8016   1.0709   1.1165   1.2228   1.2830
     5.6430   5.6792   5.8494   5.8898   6.3231   6.3734   6.3787   6.4231
     7.0807   7.2110   7.8198   7.9357   7.9855   8.1311   8.2439   8.2890
     8.4123   8.4249   8.5639   8.5928   8.7107   8.7339   8.7489   8.8835
     8.9730   9.0282   9.0630   9.1611   9.2180   9.2416   9.4495   9.4589
     9.5269   9.6031   9.6769

          k = 0.3333 0.0000-0.2625 (107642 PWs)   bands (ev):

   -20.8436 -20.8435 -20.8330 -20.8328 -19.7022 -19.7022 -19.6678 -19.6678
   -19.3203 -19.3202 -19.2533 -19.2532 -18.5270 -18.5269 -18.5151 -18.5150
   -18.1110 -18.1110 -18.0632 -18.0632 -17.8057 -17.8056 -17.7891 -17.7890
   -14.2234 -14.2233 -14.2199 -14.2198 -12.4379 -12.4379 -12.3791 -12.3791
   -11.4549 -11.4549 -11.4343 -11.4343 -11.1784 -11.1784 -11.1376 -11.1375
    -9.8945  -9.8944  -9.8578  -9.8576  -8.9549  -8.9549  -8.8794  -8.8793
    -8.4678  -8.4677  -8.4441  -8.4440  -7.7423  -7.7423  -7.6994  -7.6994
    -7.0356  -7.0356  -6.8734  -6.8734  -6.5902  -6.5902  -6.4824  -6.4824
    -6.2825  -6.2824  -6.1863  -6.1863  -5.8924  -5.8923  -5.7738  -5.7737
    -5.7023  -5.7023  -5.6082  -5.6081  -5.2003  -5.2002  -5.1591  -5.1589
    -4.9600  -4.9600  -4.8816  -4.8816  -4.7952  -4.7952  -4.7588  -4.7587
    -4.5184  -4.5183  -4.3958  -4.3958  -4.0791  -4.0790  -4.0111  -4.0109
    -3.8844  -3.8843  -3.7657  -3.7657  -3.5826  -3.5824  -3.4939  -3.4938
    -3.2257  -3.2257  -3.1531  -3.1529  -2.9261  -2.9260  -2.8892  -2.8891
    -2.3149  -2.3147  -2.2535  -2.2534  -2.1991  -2.1990  -2.0512  -2.0512
    -1.9026  -1.9025  -1.8274  -1.8273  -1.5756  -1.5755  -1.5491  -1.5491
    -1.4674  -1.4673  -1.4346  -1.4345  -1.2858  -1.2857  -1.2349  -1.2348
    -1.1698  -1.1698  -1.0959  -1.0958  -0.9386  -0.9386  -0.8403  -0.8403
    -0.7796  -0.7796  -0.6324  -0.6323  -0.4849  -0.4848  -0.4002  -0.4000
    -0.1208  -0.1207  -0.0415  -0.0413   0.0438   0.0438   0.1639   0.1639
     0.2703   0.2704   0.3058   0.3058   0.6185   0.6186   0.6545   0.6547
     0.7363   0.7364   0.7809   0.7809   1.0977   1.0978   1.2534   1.2536
     5.6596   5.6601   5.8709   5.8714   6.3480   6.3482   6.4026   6.4027
     7.1417   7.1417   7.8565   7.8565   8.0913   8.0913   8.3204   8.3205
     8.4307   8.4310   8.5722   8.5722   8.6369   8.6372   8.8612   8.8613
     8.9619   8.9621   9.0322   9.0323   9.2439   9.2439   9.4167   9.4169
     9.5767   9.5768   9.7871

          k = 0.3333-0.4039 0.0000 (107558 PWs)   bands (ev):

   -20.8470 -20.8470 -20.8292 -20.8292 -19.6917 -19.6915 -19.6817 -19.6815
   -19.3363 -19.3363 -19.2263 -19.2263 -18.5954 -18.5954 -18.4530 -18.4530
   -18.1025 -18.1024 -18.0732 -18.0731 -17.8106 -17.8105 -17.7845 -17.7845
   -14.2266 -14.2264 -14.2166 -14.2163 -12.4196 -12.4195 -12.3998 -12.3998
   -11.4633 -11.4632 -11.4194 -11.4193 -11.1771 -11.1770 -11.1422 -11.1421
    -9.8939  -9.8938  -9.8632  -9.8631  -8.9639  -8.9639  -8.8568  -8.8568
    -8.4972  -8.4971  -8.4182  -8.4181  -7.7486  -7.7486  -7.7010  -7.7010
    -6.9729  -6.9728  -6.9544  -6.9544  -6.5607  -6.5606  -6.4754  -6.4753
    -6.2669  -6.2668  -6.2412  -6.2412  -5.8609  -5.8608  -5.7845  -5.7845
    -5.7225  -5.7225  -5.6075  -5.6075  -5.1984  -5.1983  -5.1240  -5.1240
    -5.0190  -5.0189  -4.9236  -4.9236  -4.8073  -4.8072  -4.6599  -4.6599
    -4.5488  -4.5487  -4.3379  -4.3378  -4.1514  -4.1513  -3.9420  -3.9420
    -3.8391  -3.8389  -3.7050  -3.7049  -3.6114  -3.6114  -3.5629  -3.5629
    -3.2557  -3.2556  -3.1936  -3.1935  -2.9411  -2.9411  -2.8766  -2.8765
    -2.3467  -2.3467  -2.2436  -2.2436  -2.1290  -2.1289  -2.0442  -2.0441
    -1.8900  -1.8899  -1.8413  -1.8412  -1.5812  -1.5811  -1.5447  -1.5447
    -1.4481  -1.4480  -1.4113  -1.4113  -1.3161  -1.3160  -1.2283  -1.2282
    -1.1391  -1.1390  -1.0847  -1.0846  -0.9642  -0.9642  -0.9047  -0.9046
    -0.7571  -0.7569  -0.6679  -0.6679  -0.4665  -0.4665  -0.3574  -0.3571
    -0.1652  -0.1650  -0.0628  -0.0626   0.1132   0.1133   0.1602   0.1603
     0.2756   0.2757   0.3160   0.3161   0.5904   0.5905   0.6361   0.6361
     0.7350   0.7350   0.7945   0.7946   1.1140   1.1141   1.2116   1.2119
     5.6527   5.6532   5.8810   5.8815   6.3413   6.3414   6.4145   6.4146
     7.4098   7.4099   7.5664   7.5664   8.0306   8.0306   8.2367   8.2367
     8.4863   8.4865   8.6228   8.6231   8.7309   8.7310   8.7954   8.7956
     8.8814   8.8814   9.0092   9.0093   9.2990   9.2993   9.5272   9.5278
     9.5914   9.5917   9.6604

          k = 0.3333-0.4039-0.2625 (107660 PWs)   bands (ev):

   -20.8387 -20.8384 -20.8380 -20.8377 -19.6876 -19.6875 -19.6849 -19.6848
   -19.2896 -19.2895 -19.2827 -19.2825 -18.5243 -18.5241 -18.5177 -18.5175
   -18.0943 -18.0941 -18.0805 -18.0802 -17.8039 -17.8037 -17.7901 -17.7899
   -14.2264 -14.2261 -14.2169 -14.2166 -12.4098 -12.4097 -12.4090 -12.4089
   -11.4573 -11.4572 -11.4248 -11.4247 -11.1666 -11.1665 -11.1563 -11.1561
    -9.8815  -9.8812  -9.8721  -9.8718  -8.9187  -8.9184  -8.9089  -8.9086
    -8.4728  -8.4727  -8.4413  -8.4412  -7.7305  -7.7305  -7.7173  -7.7172
    -6.9696  -6.9694  -6.9534  -6.9532  -6.5459  -6.5458  -6.4878  -6.4876
    -6.2636  -6.2634  -6.2385  -6.2383  -5.8649  -5.8648  -5.7806  -5.7805
    -5.6895  -5.6895  -5.6720  -5.6718  -5.1976  -5.1973  -5.1466  -5.1462
    -4.9344  -4.9342  -4.9310  -4.9308  -4.7742  -4.7740  -4.7740  -4.7739
    -4.4745  -4.4742  -4.4035  -4.4033  -4.0439  -4.0436  -4.0168  -4.0165
    -3.8256  -3.8255  -3.7176  -3.7173  -3.5914  -3.5912  -3.5635  -3.5633
    -3.2469  -3.2466  -3.2119  -3.2117  -2.9316  -2.9315  -2.9119  -2.9118
    -2.3410  -2.3408  -2.2314  -2.2311  -2.1105  -2.1103  -2.0648  -2.0646
    -1.8907  -1.8906  -1.8498  -1.8497  -1.5557  -1.5555  -1.5003  -1.5000
    -1.4682  -1.4680  -1.4311  -1.4310  -1.2976  -1.2975  -1.2621  -1.2621
    -1.1366  -1.1364  -1.0993  -1.0989  -0.9620  -0.9619  -0.9181  -0.9179
    -0.7471  -0.7467  -0.6674  -0.6673  -0.4350  -0.4349  -0.3843  -0.3840
    -0.1284  -0.1281  -0.0859  -0.0856   0.1154   0.1155   0.1385   0.1387
     0.2952   0.2953   0.2961   0.2963   0.6252   0.6254   0.6341   0.6343
     0.7391   0.7393   0.7635   0.7637   1.1162   1.1163   1.2126   1.2129
     5.6536   5.6542   5.8798   5.8803   6.3499   6.3501   6.4068   6.4070
     7.4166   7.4173   7.5607   7.5615   8.1130   8.1132   8.1396   8.1400
     8.5145   8.5148   8.5743   8.5748   8.7539   8.7546   8.8082   8.8086
     8.9430   8.9436   9.0137   9.0143   9.2215   9.2217   9.3852   9.3854
     9.6736   9.6743   9.6867

     highest occupied, lowest unoccupied level (ev):     1.3787    5.4958

!    total energy              =   -1794.41003151 Ry
     Harris-Foulkes estimate   =   -1794.41003151 Ry
     estimated scf accuracy    <          7.5E-09 Ry

     total all-electron energy =     -6717.299298 Ry

     The total energy is the sum of the following terms:

     one-electron contribution =    -952.89201126 Ry
     hartree contribution      =     625.75477551 Ry
     xc contribution           =    -378.60608735 Ry
     ewald contribution        =    -593.76980538 Ry
     Dispersion Correction     =      -0.55929789 Ry
     one-center paw contrib.   =    -494.33760514 Ry

     convergence has been achieved in  20 iterations

     Forces acting on atoms (cartesian axes, Ry/au):

     atom    1 type  4   force =     0.00119011    0.00028876   -0.00020514
     atom    2 type  4   force =    -0.00119967   -0.00028700   -0.00020848
     atom    3 type  4   force =    -0.00119967    0.00028700    0.00020848
     atom    4 type  4   force =     0.00119011   -0.00028876    0.00020514
     atom    5 type  4   force =     0.00043041    0.00028290    0.00163322
     atom    6 type  4   force =    -0.00053951   -0.00030166    0.00182104
     atom    7 type  4   force =    -0.00053951    0.00030166   -0.00182104
     atom    8 type  4   force =     0.00043041   -0.00028290   -0.00163322
     atom    9 type  4   force =    -0.00125993   -0.00045821    0.00009352
     atom   10 type  4   force =     0.00125895    0.00045722    0.00011096
     atom   11 type  4   force =     0.00125895   -0.00045722   -0.00011096
     atom   12 type  4   force =    -0.00125993    0.00045821   -0.00009352
     atom   13 type  4   force =    -0.00116864    0.00024684   -0.00021472
     atom   14 type  4   force =     0.00116667   -0.00024928   -0.00019513
     atom   15 type  4   force =     0.00116667    0.00024928    0.00019513
     atom   16 type  4   force =    -0.00116864   -0.00024684    0.00021472
     atom   17 type  4   force =     0.00103318   -0.00055174    0.00038901
     atom   18 type  4   force =    -0.00101733    0.00055602    0.00039643
     atom   19 type  4   force =    -0.00101733   -0.00055602   -0.00039643
     atom   20 type  4   force =     0.00103318    0.00055174   -0.00038901
     atom   21 type  4   force =    -0.00021828   -0.00066623   -0.00107450
     atom   22 type  4   force =     0.00021918    0.00067314   -0.00105656
     atom   23 type  4   force =     0.00021918   -0.00067314    0.00105656
     atom   24 type  4   force =    -0.00021828    0.00066623    0.00107450
     atom   25 type  1   force =    -0.00020883    0.00030212    0.00257276
     atom   26 type  1   force =     0.00020589   -0.00030479    0.00253121
     atom   27 type  1   force =     0.00020589    0.00030479   -0.00253121
     atom   28 type  1   force =    -0.00020883   -0.00030212   -0.00257276
     atom   29 type  1   force =     0.00136187    0.00054784    0.00120290
     atom   30 type  1   force =    -0.00130116   -0.00048280    0.00120173
     atom   31 type  1   force =    -0.00130116    0.00048280   -0.00120173
     atom   32 type  1   force =     0.00136187   -0.00054784   -0.00120290
     atom   33 type  1   force =     0.00032765   -0.00065080   -0.00203918
     atom   34 type  1   force =    -0.00033675    0.00064982   -0.00208686
     atom   35 type  1   force =    -0.00033675   -0.00064982    0.00208686
     atom   36 type  1   force =     0.00032765    0.00065080    0.00203918
     atom   37 type  1   force =    -0.00164914   -0.00125771   -0.00238469
     atom   38 type  1   force =     0.00177583    0.00128761   -0.00246057
     atom   39 type  1   force =     0.00177583   -0.00128761    0.00246057
     atom   40 type  1   force =    -0.00164914    0.00125771    0.00238469
     atom   41 type  1   force =     0.00100449   -0.00102249   -0.00095729
     atom   42 type  1   force =    -0.00101188    0.00102707   -0.00093749
     atom   43 type  1   force =    -0.00101188   -0.00102707    0.00093749
     atom   44 type  1   force =     0.00100449    0.00102249    0.00095729
     atom   45 type  1   force =     0.00157988   -0.00018345   -0.00161768
     atom   46 type  1   force =    -0.00165454    0.00012307   -0.00165830
     atom   47 type  1   force =    -0.00165454   -0.00012307    0.00165830
     atom   48 type  1   force =     0.00157988    0.00018345    0.00161768
     atom   49 type  1   force =     0.00075233   -0.00038842   -0.00019267
     atom   50 type  1   force =    -0.00076066    0.00038805   -0.00024690
     atom   51 type  1   force =    -0.00076066   -0.00038805    0.00024690
     atom   52 type  1   force =     0.00075233    0.00038842    0.00019267
     atom   53 type  1   force =    -0.00011932    0.00172269    0.00174191
     atom   54 type  1   force =     0.00012491   -0.00172706    0.00170964
     atom   55 type  1   force =     0.00012491    0.00172706   -0.00170964
     atom   56 type  1   force =    -0.00011932   -0.00172269   -0.00174191
     atom   57 type  1   force =    -0.00065004    0.00058514    0.00184527
     atom   58 type  1   force =     0.00064902   -0.00057652    0.00178931
     atom   59 type  1   force =     0.00064902    0.00057652   -0.00178931
     atom   60 type  1   force =    -0.00065004   -0.00058514   -0.00184527
     atom   61 type  1   force =     0.00020310   -0.00017138   -0.00050201
     atom   62 type  1   force =    -0.00021174    0.00017361   -0.00053117
     atom   63 type  1   force =    -0.00021174   -0.00017361    0.00053117
     atom   64 type  1   force =     0.00020310    0.00017138    0.00050201
     atom   65 type  3   force =    -0.00004585   -0.00024513    0.00096857
     atom   66 type  3   force =     0.00005461    0.00024483    0.00096227
     atom   67 type  3   force =     0.00005461   -0.00024483   -0.00096227
     atom   68 type  3   force =    -0.00004585    0.00024513   -0.00096857
     atom   69 type  3   force =    -0.00063184    0.00015633    0.00005278
     atom   70 type  3   force =     0.00063249   -0.00015804    0.00006404
     atom   71 type  3   force =     0.00063249    0.00015804   -0.00006404
     atom   72 type  3   force =    -0.00063184   -0.00015633   -0.00005278
     atom   73 type  3   force =     0.00028916   -0.00045159    0.00000204
     atom   74 type  3   force =    -0.00029626    0.00042207    0.00003237
     atom   75 type  3   force =    -0.00029626   -0.00042207   -0.00003237
     atom   76 type  3   force =     0.00028916    0.00045159   -0.00000204
     atom   77 type  3   force =    -0.00037738    0.00012957   -0.00030950
     atom   78 type  3   force =     0.00037662   -0.00013364   -0.00026261
     atom   79 type  3   force =     0.00037662    0.00013364    0.00026261
     atom   80 type  3   force =    -0.00037738   -0.00012957    0.00030950
     atom   81 type  3   force =     0.00035750   -0.00026242   -0.00047775
     atom   82 type  3   force =    -0.00034020    0.00026658   -0.00045909
     atom   83 type  3   force =    -0.00034020   -0.00026658    0.00045909
     atom   84 type  3   force =     0.00035750    0.00026242    0.00047775
     atom   85 type  3   force =    -0.00140911    0.00020978    0.00125266
     atom   86 type  3   force =     0.00140644   -0.00020226    0.00129230
     atom   87 type  3   force =     0.00140644    0.00020226   -0.00129230
     atom   88 type  3   force =    -0.00140911   -0.00020978   -0.00125266
     atom   89 type  3   force =     0.00077497    0.00066128   -0.00054979
     atom   90 type  3   force =    -0.00077516   -0.00067199   -0.00054009
     atom   91 type  3   force =    -0.00077516    0.00067199    0.00054009
     atom   92 type  3   force =     0.00077497   -0.00066128    0.00054979
     atom   93 type  3   force =     0.00023069   -0.00065020   -0.00030734
     atom   94 type  3   force =    -0.00022104    0.00065542   -0.00030469
     atom   95 type  3   force =    -0.00022104   -0.00065542    0.00030469
     atom   96 type  3   force =     0.00023069    0.00065020    0.00030734
     atom   97 type  3   force =    -0.00014089    0.00038838    0.00006393
     atom   98 type  3   force =     0.00015248   -0.00038639    0.00008199
     atom   99 type  3   force =     0.00015248    0.00038639   -0.00008199
     atom  100 type  3   force =    -0.00014089   -0.00038838   -0.00006393
     atom  101 type  3   force =    -0.00079924    0.00048821    0.00016124
     atom  102 type  3   force =     0.00079585   -0.00049182    0.00015945
     atom  103 type  3   force =     0.00079585    0.00049182   -0.00015945
     atom  104 type  3   force =    -0.00079924   -0.00048821   -0.00016124
     atom  105 type  3   force =    -0.00011118    0.00030494    0.00056946
     atom  106 type  3   force =     0.00010163   -0.00029471    0.00058652
     atom  107 type  3   force =     0.00010163    0.00029471   -0.00058652
     atom  108 type  3   force =    -0.00011118   -0.00030494   -0.00056946
     atom  109 type  3   force =     0.00009784   -0.00109629   -0.00021568
     atom  110 type  3   force =    -0.00009818    0.00108276   -0.00019924
     atom  111 type  3   force =    -0.00009818   -0.00108276    0.00019924
     atom  112 type  3   force =     0.00009784    0.00109629    0.00021568

     Total force =     0.016338     Total SCF correction =     0.000166


     Computing stress (Cartesian axis) and pressure

          total   stress  (Ry/bohr**3)                   (kbar)     P=   -4.95
  -0.00002425   0.00000000   0.00000000         -3.57      0.00      0.00
   0.00000000  -0.00003140  -0.00000008          0.00     -4.62     -0.01
   0.00000000  -0.00000008  -0.00004530          0.00     -0.01     -6.66


     Writing output data file scf.save
 
     init_run     :     52.25s CPU     54.19s WALL (       1 calls)
     electrons    :   2532.48s CPU   2622.63s WALL (       1 calls)
     forces       :     25.31s CPU     25.52s WALL (       1 calls)
     stress       :    119.35s CPU    119.70s WALL (       1 calls)

     Called by init_run:
     wfcinit      :     46.42s CPU     48.18s WALL (       1 calls)
     potinit      :      2.14s CPU      2.20s WALL (       1 calls)

     Called by electrons:
     c_bands      :   2301.12s CPU   2378.45s WALL (      20 calls)
     sum_band     :    213.67s CPU    224.52s WALL (      20 calls)
     v_of_rho     :      2.55s CPU      2.81s WALL (      21 calls)
     newd         :      5.40s CPU      6.97s WALL (      21 calls)
     PAW_pot      :      8.96s CPU      8.97s WALL (      21 calls)
     mix_rho      :      0.58s CPU      0.63s WALL (      20 calls)

     Called by c_bands:
     init_us_2    :     10.27s CPU     10.31s WALL (     344 calls)
     cegterg      :   2259.58s CPU   2336.87s WALL (     160 calls)

     Called by sum_band:
     sum_band:bec :      0.13s CPU      0.13s WALL (     160 calls)
     addusdens    :      5.59s CPU      7.12s WALL (      20 calls)

     Called by *egterg:
     h_psi        :   1155.19s CPU   1215.70s WALL (     697 calls)
     s_psi        :    280.81s CPU    280.84s WALL (     697 calls)
     g_psi        :      5.35s CPU      5.35s WALL (     529 calls)
     cdiaghg      :    149.67s CPU    149.69s WALL (     689 calls)

     Called by h_psi:
     h_psi:pot    :   1147.86s CPU   1208.27s WALL (     697 calls)
     h_psi:calbec :    270.34s CPU    270.79s WALL (     697 calls)
     vloc_psi     :    596.52s CPU    656.44s WALL (     697 calls)
     add_vuspsi   :    281.00s CPU    281.04s WALL (     697 calls)

     General routines
     calbec       :    385.96s CPU    386.60s WALL (     897 calls)
     fft          :      1.55s CPU      2.00s WALL (     297 calls)
     fftw         :    638.56s CPU    704.75s WALL (  228230 calls)
 
     Parallel routines
     fft_scatter  :    129.55s CPU    186.96s WALL (  228527 calls)
 
     PWSCF        : 45m42.02s CPU    48m 7.77s WALL

 
   This run was terminated on:  13:12:11  13Nov2017            

=------------------------------------------------------------------------------=
   JOB DONE.
=------------------------------------------------------------------------------=
