
     Program PWSCF v.6.1 (svn rev. 13369) starts on 20Dec2017 at 11:55:45 

     This program is part of the open-source Quantum ESPRESSO suite
     for quantum simulation of materials; please cite
         "P. Giannozzi et al., J. Phys.:Condens. Matter 21 395502 (2009);
          URL http://www.quantum-espresso.org", 
     in publications or presentations arising from this work. More details at
     http://www.quantum-espresso.org/quote

     Parallel version (MPI), running on     8 processors
     R & G space division:  proc/nbgrp/npool/nimage =       8
     Waiting for input...
     Reading input from standard input

     Current dimensions of program PWSCF are:
     Max number of different atomic species (ntypx) = 10
     Max number of k-points (npk) =  40000
     Max angular momentum in pseudopotentials (lmaxx) =  3
               file C.pbe-n-kjpaw_psl.0.1.UPF: wavefunction(s)  2P renormalized
               file N.pbe-n-kjpaw_psl.0.1.UPF: wavefunction(s)  2P renormalized
               file H.pbe-kjpaw_psl.0.1.UPF: wavefunction(s)  1S renormalized
               file O.pbe-n-kjpaw_psl.0.1.UPF: wavefunction(s)  2P renormalized

     -------------------------------------
     Parameters for Dispersion Correction:
     -------------------------------------
       atom      VdW radius       C_6     

        C          2.744         60.710
        N          2.640         42.670
        H          1.892          4.857
        O          2.536         24.284

     Subspace diagonalization in iterative solution of the eigenvalue problem:
     a serial algorithm will be used

 
     Parallelization info
     --------------------
     sticks:   dense  smooth     PW     G-vecs:    dense   smooth      PW
     Min         755     755    198                64342    64342    8735
     Max         756     756    199                64344    64344    8739
     Sum        6047    6047   1589               514743   514743   69901
 


     bravais-lattice index     =            0
     lattice parameter (alat)  =      10.8304  a.u.
     unit-cell volume          =    3809.6280 (a.u.)^3
     number of atoms/cell      =           50
     number of atomic types    =            4
     number of electrons       =       220.00
     number of Kohn-Sham states=          132
     kinetic-energy cutoff     =     100.0000  Ry
     charge density cutoff     =     400.0000  Ry
     convergence threshold     =      1.0E-08
     mixing beta               =       0.5000
     number of iterations used =            8  plain     mixing
     Exchange-correlation      =  SLA  PW   PBX  PBC ( 1  4  3  4 0 0)

     celldm(1)=  10.830398  celldm(2)=   0.000000  celldm(3)=   0.000000
     celldm(4)=   0.000000  celldm(5)=   0.000000  celldm(6)=   0.000000

     crystal axes: (cart. coord. in units of alat)
               a(1) = (   1.000000   0.000000   0.000000 )  
               a(2) = (  -0.208189   1.616218   0.000000 )  
               a(3) = (  -0.395749  -0.218461   1.855450 )  

     reciprocal axes: (cart. coord. in units 2 pi/alat)
               b(1) = (  1.000000  0.128813  0.228457 )  
               b(2) = (  0.000000  0.618728  0.072849 )  
               b(3) = (  0.000000  0.000000  0.538953 )  


     PseudoPot. # 1 for  C read from file:
     /scratch/ahofstet/pseudo/C.pbe-n-kjpaw_psl.0.1.UPF
     MD5 check sum: 430fe95172b1e11ef3f8ed03bac87931
     Pseudo is Projector augmented-wave + core cor, Zval =  4.0
     Generated using "atomic" code by A. Dal Corso  v.5.0.99 svn rev. 10869
     Shape of augmentation charge: BESSEL
     Using radial grid of 1073 points,  4 beta functions with: 
                l(1) =   0
                l(2) =   0
                l(3) =   1
                l(4) =   1
     Q(r) pseudized with 0 coefficients 


     PseudoPot. # 2 for  N read from file:
     /scratch/ahofstet/pseudo/N.pbe-n-kjpaw_psl.0.1.UPF
     MD5 check sum: f73187c8b701007e77325f868c9291d7
     Pseudo is Projector augmented-wave + core cor, Zval =  5.0
     Generated using "atomic" code by A. Dal Corso  v.5.0.99 svn rev. 10869
     Shape of augmentation charge: PSQ
     Using radial grid of 1085 points,  4 beta functions with: 
                l(1) =   0
                l(2) =   0
                l(3) =   1
                l(4) =   1
     Q(r) pseudized with 0 coefficients 


     PseudoPot. # 3 for  H read from file:
     /scratch/ahofstet/pseudo/H.pbe-kjpaw_psl.0.1.UPF
     MD5 check sum: 94e484f906d9e9773b2f6e52662335b2
     Pseudo is Projector augmented-wave, Zval =  1.0
     Generated using "atomic" code by A. Dal Corso  v.5.0.99 svn rev. 10869
     Shape of augmentation charge: PSQ
     Using radial grid of  929 points,  2 beta functions with: 
                l(1) =   0
                l(2) =   0
     Q(r) pseudized with 0 coefficients 


     PseudoPot. # 4 for  O read from file:
     /scratch/ahofstet/pseudo/O.pbe-n-kjpaw_psl.0.1.UPF
     MD5 check sum: 3f94a2996a3169367d6eb21d9b593f20
     Pseudo is Projector augmented-wave + core cor, Zval =  6.0
     Generated using "atomic" code by A. Dal Corso  v.5.0.99 svn rev. 10869
     Shape of augmentation charge: BESSEL
     Using radial grid of 1095 points,  4 beta functions with: 
                l(1) =   0
                l(2) =   0
                l(3) =   1
                l(4) =   1
     Q(r) pseudized with 0 coefficients 


     atomic species   valence    mass     pseudopotential
        C              4.00    12.01070      C( 1.00)
        N              5.00    14.00670      N( 1.00)
        H              1.00     1.00794      H( 1.00)
        O              6.00    15.99940      O( 1.00)

      2 Sym. Ops., with inversion, found



   Cartesian axes

     site n.     atom                  positions (alat units)
         1           O   tau(   1) = (   0.0264092   0.8088247   1.4487041  )
         2           O   tau(   2) = (   0.3696522   0.5889321   0.4067463  )
         3           O   tau(   3) = (   0.5218650   1.1576175   0.9277383  )
         4           O   tau(   4) = (  -0.1258036   0.2401392   0.9277121  )
         5           O   tau(   5) = (  -0.2986349   1.4187572   1.2070272  )
         6           O   tau(   6) = (   0.6946963  -0.0210004   0.6484232  )
         7           O   tau(   7) = (   0.0148713   0.0879908   1.6588864  )
         8           O   tau(   8) = (   0.3811900   1.3097660   0.1965640  )
         9           O   tau(   9) = (   0.4328374  -0.0095426   1.1152055  )
        10           O   tau(  10) = (  -0.0367760   1.4072994   0.7402449  )
        11           O   tau(  11) = (   0.4773009  -0.0244766   1.4948965  )
        12           O   tau(  12) = (  -0.0812395   1.4222333   0.3605539  )
        13           O   tau(  13) = (  -0.4727477   0.8534437   1.6692482  )
        14           O   tau(  14) = (   0.8688090   0.5443131   0.1862022  )
        15           N   tau(  15) = (   0.4548843   0.4727284   1.1961286  )
        16           N   tau(  16) = (  -0.0588229   0.9250284   0.6593217  )
        17           N   tau(  17) = (   0.3415481   0.6720503   1.2375177  )
        18           N   tau(  18) = (   0.0545133   0.7257064   0.6179327  )
        19           N   tau(  19) = (   0.1561196   0.6435694   1.3927778  )
        20           N   tau(  20) = (   0.2399418   0.7541874   0.4626726  )
        21           N   tau(  21) = (  -0.4002896   1.2370732   1.1836189  )
        22           N   tau(  22) = (   0.7963510   0.1606836   0.6718315  )
        23           N   tau(  23) = (   0.4199355   0.9525038   0.9506641  )
        24           N   tau(  24) = (  -0.0238742   0.4452530   0.9047863  )
        25           N   tau(  25) = (  -0.1929309   0.4275376   1.6859812  )
        26           N   tau(  26) = (   0.5889923   0.9702192   0.1694692  )
        27           H   tau(  27) = (  -0.2103422   0.5992151   1.6414112  )
        28           H   tau(  28) = (   0.6064036   0.7985416   0.2140392  )
        29           H   tau(  29) = (  -0.3114857   0.3581747   1.8016025  )
        30           H   tau(  30) = (   0.7075471   1.0395820   0.0538479  )
        31           N   tau(  31) = (   0.4232715   0.0743083   1.3118939  )
        32           N   tau(  32) = (  -0.0272101   1.3234484   0.5435565  )
        33           N   tau(  33) = (  -0.3381074   1.2276845   1.6832820  )
        34           N   tau(  34) = (   0.7341688   0.1700723   0.1721684  )
        35           H   tau(  35) = (  -0.3096162   1.3873102   1.6088437  )
        36           H   tau(  36) = (   0.7056776   0.0104466   0.2466067  )
        37           H   tau(  37) = (  -0.2864186   1.2035860   1.8525790  )
        38           H   tau(  38) = (   0.6824800   0.1941707   0.0028714  )
        39           C   tau(  39) = (   0.1571473   0.4125626   1.4539686  )
        40           C   tau(  40) = (   0.2389141   0.9851942   0.4014818  )
        41           C   tau(  41) = (   0.3446270   0.3174987   1.3260317  )
        42           C   tau(  42) = (   0.0514344   1.0802580   0.5294187  )
        43           C   tau(  43) = (   0.5277691   1.0628034   1.3186786  )
        44           C   tau(  44) = (  -0.1317077   0.3349534   0.5367718  )
        45           C   tau(  45) = (   0.4228890   0.8924287   1.1713873  )
        46           C   tau(  46) = (  -0.0268277   0.5053280   0.6840631  )
        47           C   tau(  47) = (  -0.0148341   0.2973669   1.6100156  )
        48           C   tau(  48) = (   0.4108955   1.1003899   0.2454348  )
        49           C   tau(  49) = (  -0.4274341   1.0443296   1.5740594  )
        50           C   tau(  50) = (   0.8234955   0.3534271   0.2813910  )

     number of k points=     8
                       cart. coord. in units 2pi/alat
        k(    1) = (   0.0000000   0.0000000   0.0000000), wk =   0.1666667
        k(    2) = (   0.0000000   0.0000000  -0.2694764), wk =   0.1666667
        k(    3) = (   0.0000000  -0.3093642  -0.0364246), wk =   0.1666667
        k(    4) = (   0.0000000  -0.3093642  -0.3059010), wk =   0.1666667
        k(    5) = (   0.3333333   0.0429375   0.0761522), wk =   0.3333333
        k(    6) = (   0.3333333   0.0429375  -0.1933241), wk =   0.3333333
        k(    7) = (   0.3333333  -0.2664267   0.0397276), wk =   0.3333333
        k(    8) = (   0.3333333  -0.2664267  -0.2297488), wk =   0.3333333

     Dense  grid:   514743 G-vectors     FFT dimensions: (  72, 120, 135)

     Estimated max dynamical RAM per process >     366.54MB

     Estimated total allocated dynamical RAM >    2932.31MB

     Check: negative/imaginary core charge=   -0.000002    0.000000

     Initial potential from superposition of free atoms

     starting charge  219.99929, renormalised to  220.00000
     Starting wfc are  176 randomized atomic wfcs
     Checking if some PAW data can be deallocated... 

     total cpu time spent up to now is       20.3 secs

     per-process dynamical memory:   266.0 Mb

     Self-consistent Calculation

     iteration #  1     ecut=   100.00 Ry     beta=0.50
     Davidson diagonalization with overlap
     ethr =  1.00E-02,  avg # of iterations =  3.2

     total cpu time spent up to now is       67.8 secs

     total energy              =   -1262.80987681 Ry
     Harris-Foulkes estimate   =   -1265.81844421 Ry
     estimated scf accuracy    <       5.30540169 Ry

     iteration #  2     ecut=   100.00 Ry     beta=0.50
     Davidson diagonalization with overlap
     ethr =  2.41E-03,  avg # of iterations =  3.9

     total cpu time spent up to now is      103.4 secs

     total energy              =   -1263.72178002 Ry
     Harris-Foulkes estimate   =   -1264.63176484 Ry
     estimated scf accuracy    <       1.96578867 Ry

     iteration #  3     ecut=   100.00 Ry     beta=0.50
     Davidson diagonalization with overlap
     ethr =  8.94E-04,  avg # of iterations =  5.8

     total cpu time spent up to now is      136.0 secs

     total energy              =   -1264.08220873 Ry
     Harris-Foulkes estimate   =   -1264.24502879 Ry
     estimated scf accuracy    <       0.37714401 Ry

     iteration #  4     ecut=   100.00 Ry     beta=0.50
     Davidson diagonalization with overlap
     ethr =  1.71E-04,  avg # of iterations =  7.2

     total cpu time spent up to now is      177.8 secs

     total energy              =   -1264.16097012 Ry
     Harris-Foulkes estimate   =   -1264.26125997 Ry
     estimated scf accuracy    <       0.31646322 Ry

     iteration #  5     ecut=   100.00 Ry     beta=0.50
     Davidson diagonalization with overlap
     ethr =  1.44E-04,  avg # of iterations =  2.0

     total cpu time spent up to now is      204.3 secs

     total energy              =   -1264.20423183 Ry
     Harris-Foulkes estimate   =   -1264.21265826 Ry
     estimated scf accuracy    <       0.02382282 Ry

     iteration #  6     ecut=   100.00 Ry     beta=0.50
     Davidson diagonalization with overlap
     ethr =  1.08E-05,  avg # of iterations =  8.2

     total cpu time spent up to now is      250.1 secs

     total energy              =   -1264.21077841 Ry
     Harris-Foulkes estimate   =   -1264.21335933 Ry
     estimated scf accuracy    <       0.00726538 Ry

     iteration #  7     ecut=   100.00 Ry     beta=0.50
     Davidson diagonalization with overlap
     ethr =  3.30E-06,  avg # of iterations =  3.4

     total cpu time spent up to now is      279.3 secs

     total energy              =   -1264.21205001 Ry
     Harris-Foulkes estimate   =   -1264.21250618 Ry
     estimated scf accuracy    <       0.00135738 Ry

     iteration #  8     ecut=   100.00 Ry     beta=0.50
     Davidson diagonalization with overlap
     ethr =  6.17E-07,  avg # of iterations =  3.0

     total cpu time spent up to now is      308.9 secs

     total energy              =   -1264.21231613 Ry
     Harris-Foulkes estimate   =   -1264.21238535 Ry
     estimated scf accuracy    <       0.00020346 Ry

     iteration #  9     ecut=   100.00 Ry     beta=0.50
     Davidson diagonalization with overlap
     ethr =  9.25E-08,  avg # of iterations =  3.0

     total cpu time spent up to now is      347.4 secs

     total energy              =   -1264.21237511 Ry
     Harris-Foulkes estimate   =   -1264.21240762 Ry
     estimated scf accuracy    <       0.00009864 Ry

     iteration # 10     ecut=   100.00 Ry     beta=0.50
     Davidson diagonalization with overlap
     ethr =  4.48E-08,  avg # of iterations =  2.0

     total cpu time spent up to now is      373.8 secs

     total energy              =   -1264.21238852 Ry
     Harris-Foulkes estimate   =   -1264.21239572 Ry
     estimated scf accuracy    <       0.00002235 Ry

     iteration # 11     ecut=   100.00 Ry     beta=0.50
     Davidson diagonalization with overlap
     ethr =  1.02E-08,  avg # of iterations =  3.5

     total cpu time spent up to now is      403.4 secs

     total energy              =   -1264.21239304 Ry
     Harris-Foulkes estimate   =   -1264.21239503 Ry
     estimated scf accuracy    <       0.00000601 Ry

     iteration # 12     ecut=   100.00 Ry     beta=0.50
     Davidson diagonalization with overlap
     ethr =  2.73E-09,  avg # of iterations =  3.0

     total cpu time spent up to now is      432.4 secs

     total energy              =   -1264.21239436 Ry
     Harris-Foulkes estimate   =   -1264.21239457 Ry
     estimated scf accuracy    <       0.00000078 Ry

     iteration # 13     ecut=   100.00 Ry     beta=0.50
     Davidson diagonalization with overlap
     ethr =  3.53E-10,  avg # of iterations =  3.1

     total cpu time spent up to now is      473.0 secs

     total energy              =   -1264.21239461 Ry
     Harris-Foulkes estimate   =   -1264.21239468 Ry
     estimated scf accuracy    <       0.00000019 Ry

     iteration # 14     ecut=   100.00 Ry     beta=0.50
     Davidson diagonalization with overlap
     ethr =  8.80E-11,  avg # of iterations =  2.0

     total cpu time spent up to now is      500.5 secs

     total energy              =   -1264.21239464 Ry
     Harris-Foulkes estimate   =   -1264.21239466 Ry
     estimated scf accuracy    <       0.00000005 Ry

     iteration # 15     ecut=   100.00 Ry     beta=0.50
     Davidson diagonalization with overlap
     ethr =  2.30E-11,  avg # of iterations =  3.0

     total cpu time spent up to now is      533.7 secs

     total energy              =   -1264.21239465 Ry
     Harris-Foulkes estimate   =   -1264.21239466 Ry
     estimated scf accuracy    <       0.00000002 Ry

     iteration # 16     ecut=   100.00 Ry     beta=0.50
     Davidson diagonalization with overlap
     ethr =  1.04E-11,  avg # of iterations =  2.0

     total cpu time spent up to now is      560.4 secs

     End of self-consistent calculation

          k = 0.0000 0.0000 0.0000 ( 64317 PWs)   bands (ev):

   -24.0529 -24.0448 -23.5237 -23.5059 -23.0248 -23.0199 -21.8037 -21.7909
   -20.3102 -20.3084 -19.6263 -19.6065 -19.1120 -19.0936 -18.9028 -18.9003
   -16.3728 -16.3327 -15.7620 -15.7444 -15.5176 -15.4581 -15.1902 -15.1778
   -15.0607 -15.0582 -14.0431 -14.0280 -12.1510 -12.1483 -10.7674 -10.7579
   -10.1501 -10.1019  -9.2361  -9.1301  -8.5258  -8.4920  -8.2464  -8.1770
    -7.9730  -7.9306  -7.5874  -7.5649  -6.7509  -6.7080  -6.5921  -6.4869
    -6.3665  -6.3614  -6.2700  -6.2691  -6.1665  -6.0910  -6.0068  -5.9439
    -5.9231  -5.8693  -5.6653  -5.6564  -5.5517  -5.3737  -4.9615  -4.9186
    -4.7013  -4.4507  -4.0392  -3.8985  -3.8238  -3.8179  -3.7120  -3.5190
    -3.4289  -3.3672  -3.1787  -3.1444  -3.0723  -3.0499  -2.9150  -2.6763
    -2.5398  -2.3724  -1.6591  -1.6488  -1.1908  -1.1851  -0.8201  -0.7630
    -0.6212  -0.5921  -0.4728  -0.4482  -0.2683  -0.0466   0.0179   0.0471
     0.1687   0.2579   0.3614   0.4453   0.5022   0.5083   0.5702   0.7639
     0.7703   0.7986   0.8970   0.9736   1.0669   1.1901   3.7014   3.7290
     4.2226   4.2481   4.3950   4.4141   5.0107   5.1300   5.3824   5.3842
     5.7012   5.8274   7.5848   7.8371   7.9216   8.1308   8.2409   8.2592
     8.3520   8.4942   8.7577   8.8544

          k = 0.0000 0.0000-0.2695 ( 64322 PWs)   bands (ev):

   -24.0529 -24.0449 -23.5237 -23.5059 -23.0241 -23.0206 -21.8037 -21.7909
   -20.3106 -20.3079 -19.6251 -19.6075 -19.1120 -19.0942 -18.9030 -18.8996
   -16.3631 -16.3430 -15.7628 -15.7439 -15.5165 -15.4586 -15.1910 -15.1768
   -15.0594 -15.0593 -14.0415 -14.0295 -12.1561 -12.1432 -10.7705 -10.7511
   -10.1420 -10.1178  -9.2264  -9.1350  -8.5246  -8.4919  -8.2377  -8.1680
    -7.9985  -7.9351  -7.5979  -7.5541  -6.7811  -6.6285  -6.5523  -6.5519
    -6.3767  -6.3529  -6.3099  -6.2338  -6.1476  -6.0741  -5.9984  -5.9686
    -5.9157  -5.8717  -5.7671  -5.5773  -5.5605  -5.4212  -4.9322  -4.9248
    -4.6516  -4.4487  -4.0208  -3.9420  -3.8757  -3.8017  -3.6425  -3.5373
    -3.4281  -3.3940  -3.1958  -3.1475  -3.0625  -2.9735  -2.9462  -2.7603
    -2.4581  -2.4058  -1.6483  -1.6274  -1.2159  -1.1884  -0.8341  -0.7343
    -0.6197  -0.6071  -0.4736  -0.4575  -0.2719  -0.0230   0.0151   0.0339
     0.2045   0.2477   0.3700   0.4421   0.4934   0.5000   0.5664   0.7410
     0.7610   0.8210   0.9111   0.9727   1.0901   1.1599   3.6858   3.7422
     4.2143   4.2552   4.3399   4.4767   5.0398   5.1102   5.3626   5.3928
     5.7131   5.8267   7.7398   7.7563   7.9118   8.0085   8.2129   8.2374
     8.3884   8.4661   8.7409   8.7721

          k = 0.0000-0.3094-0.0364 ( 64342 PWs)   bands (ev):

   -24.0519 -24.0444 -23.5235 -23.5106 -23.0226 -23.0187 -21.8036 -21.7909
   -20.3103 -20.3089 -19.6254 -19.6068 -19.1038 -19.1016 -18.9075 -18.8965
   -16.3628 -16.3370 -15.7947 -15.7414 -15.5049 -15.4268 -15.2040 -15.1789
   -15.0650 -15.0615 -14.0335 -14.0289 -12.1683 -12.1476 -10.7772 -10.7497
   -10.1222 -10.1163  -9.1765  -9.1540  -8.5461  -8.5033  -8.2926  -8.1430
    -8.0033  -7.9276  -7.5456  -7.5236  -6.7308  -6.6950  -6.5414  -6.4972
    -6.4113  -6.3607  -6.2985  -6.2764  -6.1852  -6.1280  -6.0847  -6.0098
    -5.8567  -5.8350  -5.7652  -5.6013  -5.5202  -5.3889  -4.9484  -4.9286
    -4.5968  -4.5287  -4.0069  -3.8743  -3.8345  -3.7901  -3.6096  -3.5696
    -3.3834  -3.3467  -3.3258  -3.1457  -3.0627  -2.9853  -2.9048  -2.7655
    -2.4750  -2.4151  -1.6592  -1.6488  -1.1897  -1.1818  -0.8112  -0.7908
    -0.6553  -0.5748  -0.5199  -0.4406  -0.1856  -0.1006   0.0118   0.0418
     0.2367   0.2698   0.4119   0.4172   0.4797   0.5406   0.6161   0.6913
     0.8213   0.8552   0.8600   0.8940   1.0457   1.1890   3.6849   3.7844
     4.2176   4.2195   4.3837   4.3927   5.0570   5.0967   5.3768   5.3787
     5.6769   5.8261   7.7579   7.8425   7.8607   7.9978   8.2219   8.2347
     8.2702   8.4720   8.7246   8.8825

          k = 0.0000-0.3094-0.3059 ( 64396 PWs)   bands (ev):

   -24.0518 -24.0445 -23.5235 -23.5106 -23.0219 -23.0194 -21.8035 -21.7909
   -20.3108 -20.3084 -19.6246 -19.6074 -19.1042 -19.1018 -18.9072 -18.8964
   -16.3557 -16.3446 -15.7893 -15.7451 -15.5075 -15.4278 -15.1924 -15.1890
   -15.0657 -15.0601 -14.0351 -14.0269 -12.1642 -12.1517 -10.7714 -10.7548
   -10.1250 -10.1161  -9.1721  -9.1525  -8.5448  -8.5073  -8.2955  -8.1498
    -7.9683  -7.9649  -7.5815  -7.4698  -6.7693  -6.6422  -6.5443  -6.5282
    -6.3939  -6.3527  -6.2928  -6.2729  -6.2042  -6.1302  -6.1123  -5.9726
    -5.8650  -5.8137  -5.7157  -5.6798  -5.5438  -5.4006  -4.9943  -4.8620
    -4.5521  -4.5097  -3.9931  -3.8830  -3.8721  -3.7986  -3.5992  -3.5545
    -3.4663  -3.3368  -3.3189  -3.1536  -3.0355  -2.9756  -2.8432  -2.8094
    -2.4614  -2.4469  -1.6443  -1.6321  -1.2257  -1.1681  -0.8358  -0.7773
    -0.6635  -0.5687  -0.4862  -0.4636  -0.1976  -0.0881   0.0033   0.0456
     0.2449   0.2743   0.4187   0.4213   0.4832   0.5323   0.5960   0.7137
     0.8230   0.8254   0.8510   0.9040   1.0944   1.1493   3.6913   3.7754
     4.2047   4.2353   4.3249   4.4553   5.0731   5.0949   5.3718   5.3719
     5.7029   5.8058   7.8367   7.8488   7.9028   8.0099   8.1695   8.2369
     8.2806   8.3346   8.4707   8.7756

          k = 0.3333 0.0429 0.0762 ( 64324 PWs)   bands (ev):

   -24.0505 -24.0450 -23.5233 -23.5074 -23.0225 -23.0182 -21.8030 -21.7917
   -20.3164 -20.3133 -19.6232 -19.6053 -19.1048 -19.0901 -18.9163 -18.9032
   -16.3556 -16.3343 -15.7894 -15.7520 -15.5028 -15.4415 -15.2016 -15.1904
   -15.0559 -15.0436 -14.0441 -14.0334 -12.1591 -12.1387 -10.7786 -10.7582
   -10.1192 -10.1062  -9.2151  -9.1381  -8.5663  -8.5364  -8.3082  -8.1877
    -7.9837  -7.8688  -7.5228  -7.4941  -6.7003  -6.6687  -6.5795  -6.5692
    -6.4408  -6.3870  -6.2798  -6.2643  -6.1958  -6.1569  -6.0719  -6.0218
    -5.8351  -5.8130  -5.7481  -5.6264  -5.4053  -5.3809  -4.9604  -4.9011
    -4.7061  -4.5310  -4.0283  -3.8871  -3.8453  -3.8154  -3.6567  -3.5284
    -3.3756  -3.3125  -3.2113  -3.0919  -3.0308  -2.9955  -2.9371  -2.7740
    -2.4986  -2.4279  -1.6583  -1.6146  -1.2198  -1.0860  -0.8024  -0.7895
    -0.6965  -0.5399  -0.4430  -0.3944  -0.1710  -0.0714   0.0350   0.0562
     0.2062   0.2565   0.3402   0.3587   0.4592   0.5068   0.6286   0.7239
     0.7658   0.8241   0.9112   0.9525   1.0405   1.1091   3.6873   3.7702
     4.1682   4.1888   4.4867   4.4993   5.0613   5.0982   5.3062   5.3431
     5.5743   5.6640   7.7969   7.8923   8.1189   8.1623   8.2810   8.3036
     8.4059   8.6437   8.9852   9.1807

          k = 0.3333 0.0429-0.1933 ( 64333 PWs)   bands (ev):

   -24.0505 -24.0450 -23.5233 -23.5074 -23.0219 -23.0189 -21.8030 -21.7917
   -20.3160 -20.3137 -19.6234 -19.6049 -19.1051 -19.0901 -18.9163 -18.9031
   -16.3509 -16.3390 -15.7890 -15.7538 -15.5003 -15.4428 -15.1997 -15.1924
   -15.0545 -15.0445 -14.0440 -14.0335 -12.1600 -12.1375 -10.7814 -10.7544
   -10.1247 -10.1043  -9.1998  -9.1511  -8.5809  -8.5189  -8.3110  -8.1886
    -7.9623  -7.8863  -7.5310  -7.5003  -6.7239  -6.6445  -6.5916  -6.5499
    -6.4492  -6.3725  -6.2749  -6.2400  -6.2172  -6.1881  -6.0209  -5.9977
    -5.8319  -5.8252  -5.7650  -5.5771  -5.5492  -5.3466  -4.9403  -4.8723
    -4.6964  -4.5512  -4.0184  -3.8992  -3.8711  -3.8199  -3.6320  -3.5304
    -3.3836  -3.2912  -3.2002  -3.1149  -3.0724  -2.9568  -2.9459  -2.7614
    -2.5291  -2.3920  -1.6640  -1.6332  -1.1788  -1.1123  -0.8079  -0.7707
    -0.6748  -0.5556  -0.4390  -0.4088  -0.1770  -0.0602   0.0124   0.0711
     0.2276   0.2318   0.3491   0.3509   0.4612   0.5106   0.6171   0.7299
     0.7810   0.8157   0.9130   0.9501   1.0355   1.1086   3.6881   3.7685
     4.1533   4.2003   4.4624   4.5312   5.0534   5.1040   5.2892   5.3851
     5.5602   5.6461   7.7967   7.9020   8.1344   8.1497   8.2405   8.3126
     8.3898   8.7631   9.0641   9.0704

          k = 0.3333-0.2664 0.0397 ( 64331 PWs)   bands (ev):

   -24.0498 -24.0444 -23.5258 -23.5083 -23.0211 -23.0170 -21.8049 -21.7901
   -20.3166 -20.3137 -19.6231 -19.6047 -19.0969 -19.0925 -18.9153 -18.9112
   -16.3552 -16.3351 -15.7626 -15.7450 -15.5166 -15.4674 -15.1984 -15.1911
   -15.0553 -15.0448 -14.0426 -14.0271 -12.1616 -12.1506 -10.7693 -10.7529
   -10.1325 -10.1005  -9.1807  -9.1576  -8.5424  -8.5162  -8.2001  -8.1373
    -8.0653  -7.9553  -7.5506  -7.5315  -6.8215  -6.6675  -6.6029  -6.5167
    -6.4649  -6.3839  -6.3355  -6.2490  -6.1257  -6.0746  -6.0305  -5.9684
    -5.9220  -5.8434  -5.6932  -5.5788  -5.4991  -5.3849  -4.9569  -4.8980
    -4.6773  -4.5789  -4.0340  -3.8718  -3.8640  -3.8014  -3.5222  -3.4506
    -3.3961  -3.2955  -3.1761  -3.1498  -3.0594  -3.0192  -2.9241  -2.8616
    -2.5356  -2.4082  -1.6538  -1.6203  -1.2122  -1.0791  -0.8015  -0.7350
    -0.6455  -0.5647  -0.4869  -0.4511  -0.2161  -0.0781   0.0511   0.0863
     0.1699   0.2559   0.3731   0.4364   0.5078   0.5367   0.5744   0.6738
     0.7514   0.8310   0.8937   0.9499   1.0251   1.0969   3.7087   3.7606
     4.1580   4.1925   4.4877   4.5185   5.0305   5.1193   5.2978   5.3269
     5.6014   5.6733   7.7447   7.9034   8.1301   8.2105   8.2426   8.3129
     8.5549   8.5774   8.7518   9.1167

          k = 0.3333-0.2664-0.2297 ( 64335 PWs)   bands (ev):

   -24.0498 -24.0444 -23.5259 -23.5083 -23.0204 -23.0177 -21.8049 -21.7900
   -20.3162 -20.3141 -19.6229 -19.6047 -19.0973 -19.0923 -18.9151 -18.9113
   -16.3533 -16.3373 -15.7608 -15.7459 -15.5182 -15.4669 -15.1985 -15.1911
   -15.0560 -15.0433 -14.0417 -14.0279 -12.1598 -12.1524 -10.7720 -10.7485
   -10.1295 -10.1071  -9.1916  -9.1432  -8.5400  -8.5193  -8.2032  -8.1331
    -8.0525  -7.9778  -7.5694  -7.5056  -6.8220  -6.6837  -6.5925  -6.5507
    -6.4338  -6.3971  -6.2989  -6.2672  -6.1220  -6.0802  -6.0076  -5.9210
    -5.9078  -5.8531  -5.6891  -5.6703  -5.5033  -5.3782  -4.9537  -4.8829
    -4.6733  -4.5761  -3.9990  -3.9080  -3.8523  -3.8385  -3.5322  -3.4201
    -3.4039  -3.2788  -3.1938  -3.1492  -3.0576  -3.0082  -2.9593  -2.8468
    -2.5277  -2.3988  -1.6663  -1.6324  -1.1673  -1.1078  -0.8030  -0.7246
    -0.6218  -0.5639  -0.4905  -0.4608  -0.2160  -0.0910   0.0513   0.0882
     0.1942   0.2226   0.3798   0.4315   0.5080   0.5375   0.5788   0.6466
     0.7792   0.8307   0.9154   0.9295   1.0278   1.0887   3.7150   3.7558
     4.1520   4.1951   4.4738   4.5349   5.0378   5.1070   5.2970   5.3646
     5.5814   5.6554   7.7404   7.9287   8.1346   8.1475   8.2518   8.3308
     8.5516   8.5797   8.8225   9.1084

     highest occupied, lowest unoccupied level (ev):     1.1901    3.6849

!    total energy              =   -1264.21239465 Ry
     Harris-Foulkes estimate   =   -1264.21239466 Ry
     estimated scf accuracy    <          4.3E-09 Ry

     total all-electron energy =     -4782.018888 Ry

     The total energy is the sum of the following terms:

     one-electron contribution =    -679.66472314 Ry
     hartree contribution      =     429.68884429 Ry
     xc contribution           =    -244.94631211 Ry
     ewald contribution        =    -423.45829103 Ry
     Dispersion Correction     =      -0.22682804 Ry
     one-center paw contrib.   =    -345.60508461 Ry

     convergence has been achieved in  16 iterations

     Forces acting on atoms (cartesian axes, Ry/au):

     atom    1 type  4   force =    -0.00161420    0.00021247    0.00108802
     atom    2 type  4   force =     0.00161420   -0.00021247   -0.00108802
     atom    3 type  4   force =    -0.00049846    0.00110928    0.00136590
     atom    4 type  4   force =     0.00049846   -0.00110928   -0.00136590
     atom    5 type  4   force =    -0.00049543   -0.00054499    0.00027732
     atom    6 type  4   force =     0.00049543    0.00054499   -0.00027732
     atom    7 type  4   force =    -0.00010628    0.00012498   -0.00121276
     atom    8 type  4   force =     0.00010628   -0.00012498    0.00121276
     atom    9 type  4   force =     0.00035672    0.00013942    0.00076087
     atom   10 type  4   force =    -0.00035672   -0.00013942   -0.00076087
     atom   11 type  4   force =     0.00095379    0.00199956    0.00289310
     atom   12 type  4   force =    -0.00095379   -0.00199956   -0.00289310
     atom   13 type  4   force =     0.00086697   -0.00044665   -0.00004779
     atom   14 type  4   force =    -0.00086697    0.00044665    0.00004779
     atom   15 type  2   force =     0.00038501    0.00006949    0.00327736
     atom   16 type  2   force =    -0.00038501   -0.00006949   -0.00327736
     atom   17 type  2   force =    -0.00063976    0.00071118    0.00124836
     atom   18 type  2   force =     0.00063976   -0.00071118   -0.00124836
     atom   19 type  2   force =     0.00135357   -0.00180212    0.00050409
     atom   20 type  2   force =    -0.00135357    0.00180212   -0.00050409
     atom   21 type  2   force =     0.00011101    0.00201185   -0.00086395
     atom   22 type  2   force =    -0.00011101   -0.00201185    0.00086395
     atom   23 type  2   force =     0.00085978   -0.00061737   -0.00061564
     atom   24 type  2   force =    -0.00085978    0.00061737    0.00061564
     atom   25 type  2   force =     0.00365160   -0.00062840   -0.00116289
     atom   26 type  2   force =    -0.00365160    0.00062840    0.00116289
     atom   27 type  3   force =    -0.00035266    0.00010572    0.00026451
     atom   28 type  3   force =     0.00035266   -0.00010572   -0.00026451
     atom   29 type  3   force =    -0.00043661   -0.00035900   -0.00083430
     atom   30 type  3   force =     0.00043661    0.00035900    0.00083430
     atom   31 type  2   force =    -0.00130176    0.00056751   -0.00300729
     atom   32 type  2   force =     0.00130176   -0.00056751    0.00300729
     atom   33 type  2   force =     0.00036899    0.00068176    0.00043185
     atom   34 type  2   force =    -0.00036899   -0.00068176   -0.00043185
     atom   35 type  3   force =    -0.00019651    0.00064959    0.00034906
     atom   36 type  3   force =     0.00019651   -0.00064959   -0.00034906
     atom   37 type  3   force =    -0.00027923    0.00047179    0.00001161
     atom   38 type  3   force =     0.00027923   -0.00047179   -0.00001161
     atom   39 type  1   force =     0.00171512    0.00047778   -0.00191345
     atom   40 type  1   force =    -0.00171512   -0.00047778    0.00191345
     atom   41 type  1   force =    -0.00328688   -0.00122519   -0.00155401
     atom   42 type  1   force =     0.00328688    0.00122519    0.00155401
     atom   43 type  1   force =     0.00097180   -0.00075077    0.00062593
     atom   44 type  1   force =    -0.00097180    0.00075077   -0.00062593
     atom   45 type  1   force =    -0.00118953   -0.00204384    0.00028160
     atom   46 type  1   force =     0.00118953    0.00204384   -0.00028160
     atom   47 type  1   force =    -0.00180782    0.00157513    0.00026289
     atom   48 type  1   force =     0.00180782   -0.00157513   -0.00026289
     atom   49 type  1   force =    -0.00043934   -0.00141801   -0.00154011
     atom   50 type  1   force =     0.00043934    0.00141801    0.00154011

     Total force =     0.015350     Total SCF correction =     0.000147


     Computing stress (Cartesian axis) and pressure

          total   stress  (Ry/bohr**3)                   (kbar)     P=   -0.89
  -0.00001200   0.00000342   0.00000134         -1.77      0.50      0.20
   0.00000342  -0.00000235  -0.00000350          0.50     -0.35     -0.51
   0.00000134  -0.00000350  -0.00000380          0.20     -0.51     -0.56


     Writing output data file scf.save
 
     init_run     :     19.08s CPU     19.63s WALL (       1 calls)
     electrons    :    525.34s CPU    540.27s WALL (       1 calls)
     forces       :     10.12s CPU     10.20s WALL (       1 calls)
     stress       :     32.55s CPU     32.74s WALL (       1 calls)

     Called by init_run:
     wfcinit      :     12.45s CPU     12.95s WALL (       1 calls)
     potinit      :      2.40s CPU      2.42s WALL (       1 calls)

     Called by electrons:
     c_bands      :    461.13s CPU    473.89s WALL (      16 calls)
     sum_band     :     56.52s CPU     58.07s WALL (      16 calls)
     v_of_rho     :      1.27s CPU      1.39s WALL (      17 calls)
     newd         :      2.43s CPU      2.85s WALL (      17 calls)
     PAW_pot      :      3.73s CPU      3.73s WALL (      17 calls)
     mix_rho      :      0.27s CPU      0.30s WALL (      16 calls)

     Called by c_bands:
     init_us_2    :      3.19s CPU      3.21s WALL (     280 calls)
     cegterg      :    447.84s CPU    460.50s WALL (     128 calls)

     Called by sum_band:
     sum_band:bec :      0.04s CPU      0.04s WALL (     128 calls)
     addusdens    :      2.44s CPU      2.87s WALL (      16 calls)

     Called by *egterg:
     h_psi        :    265.62s CPU    273.11s WALL (     603 calls)
     s_psi        :     46.55s CPU     46.57s WALL (     603 calls)
     g_psi        :      1.38s CPU      1.39s WALL (     467 calls)
     cdiaghg      :     28.44s CPU     28.44s WALL (     595 calls)

     Called by h_psi:
     h_psi:pot    :    263.62s CPU    271.06s WALL (     603 calls)
     h_psi:calbec :     46.32s CPU     46.43s WALL (     603 calls)
     vloc_psi     :    170.78s CPU    178.08s WALL (     603 calls)
     add_vuspsi   :     46.53s CPU     46.55s WALL (     603 calls)

     General routines
     calbec       :     70.57s CPU     70.73s WALL (     771 calls)
     fft          :      0.94s CPU      1.13s WALL (     245 calls)
     fftw         :    186.26s CPU    193.98s WALL (  104936 calls)
 
     Parallel routines
     fft_scatter  :     43.53s CPU     48.19s WALL (  105181 calls)
 
     PWSCF        :  9m52.39s CPU    10m 9.35s WALL

 
   This run was terminated on:  12: 5:55  20Dec2017            

=------------------------------------------------------------------------------=
   JOB DONE.
=------------------------------------------------------------------------------=
