
     Program PWSCF v.6.1 (svn rev. 13369) starts on 20Dec2017 at 11:53:41 

     This program is part of the open-source Quantum ESPRESSO suite
     for quantum simulation of materials; please cite
         "P. Giannozzi et al., J. Phys.:Condens. Matter 21 395502 (2009);
          URL http://www.quantum-espresso.org", 
     in publications or presentations arising from this work. More details at
     http://www.quantum-espresso.org/quote

     Parallel version (MPI), running on     8 processors
     R & G space division:  proc/nbgrp/npool/nimage =       8
     Waiting for input...
     Reading input from standard input

     Current dimensions of program PWSCF are:
     Max number of different atomic species (ntypx) = 10
     Max number of k-points (npk) =  40000
     Max angular momentum in pseudopotentials (lmaxx) =  3
               file C.pbe-n-kjpaw_psl.0.1.UPF: wavefunction(s)  2P renormalized
               file N.pbe-n-kjpaw_psl.0.1.UPF: wavefunction(s)  2P renormalized
               file H.pbe-kjpaw_psl.0.1.UPF: wavefunction(s)  1S renormalized
               file O.pbe-n-kjpaw_psl.0.1.UPF: wavefunction(s)  2P renormalized

     -------------------------------------
     Parameters for Dispersion Correction:
     -------------------------------------
       atom      VdW radius       C_6     

        C          2.744         60.710
        N          2.640         42.670
        H          1.892          4.857
        O          2.536         24.284

     Subspace diagonalization in iterative solution of the eigenvalue problem:
     a serial algorithm will be used

 
     Parallelization info
     --------------------
     sticks:   dense  smooth     PW     G-vecs:    dense   smooth      PW
     Min         873     873    234               101424   101424   14175
     Max         874     874    235               101426   101426   14177
     Sum        6987    6987   1877               811401   811401  113409
 


     bravais-lattice index     =            0
     lattice parameter (alat)  =      10.0583  a.u.
     unit-cell volume          =    6006.6265 (a.u.)^3
     number of atoms/cell      =           96
     number of atomic types    =            4
     number of electrons       =       344.00
     number of Kohn-Sham states=          206
     kinetic-energy cutoff     =     100.0000  Ry
     charge density cutoff     =     400.0000  Ry
     convergence threshold     =      1.0E-08
     mixing beta               =       0.5000
     number of iterations used =            8  plain     mixing
     Exchange-correlation      =  SLA  PW   PBX  PBC ( 1  4  3  4 0 0)

     celldm(1)=  10.058256  celldm(2)=   0.000000  celldm(3)=   0.000000
     celldm(4)=   0.000000  celldm(5)=   0.000000  celldm(6)=   0.000000

     crystal axes: (cart. coord. in units of alat)
               a(1) = (   1.000000   0.000000   0.000000 )  
               a(2) = (   0.000000   2.170762   0.000000 )  
               a(3) = (  -0.350275   0.000000   2.719257 )  

     reciprocal axes: (cart. coord. in units 2 pi/alat)
               b(1) = (  1.000000  0.000000  0.128813 )  
               b(2) = (  0.000000  0.460668  0.000000 )  
               b(3) = (  0.000000  0.000000  0.367748 )  


     PseudoPot. # 1 for  C read from file:
     /scratch/ahofstet/pseudo/C.pbe-n-kjpaw_psl.0.1.UPF
     MD5 check sum: 430fe95172b1e11ef3f8ed03bac87931
     Pseudo is Projector augmented-wave + core cor, Zval =  4.0
     Generated using "atomic" code by A. Dal Corso  v.5.0.99 svn rev. 10869
     Shape of augmentation charge: BESSEL
     Using radial grid of 1073 points,  4 beta functions with: 
                l(1) =   0
                l(2) =   0
                l(3) =   1
                l(4) =   1
     Q(r) pseudized with 0 coefficients 


     PseudoPot. # 2 for  N read from file:
     /scratch/ahofstet/pseudo/N.pbe-n-kjpaw_psl.0.1.UPF
     MD5 check sum: f73187c8b701007e77325f868c9291d7
     Pseudo is Projector augmented-wave + core cor, Zval =  5.0
     Generated using "atomic" code by A. Dal Corso  v.5.0.99 svn rev. 10869
     Shape of augmentation charge: PSQ
     Using radial grid of 1085 points,  4 beta functions with: 
                l(1) =   0
                l(2) =   0
                l(3) =   1
                l(4) =   1
     Q(r) pseudized with 0 coefficients 


     PseudoPot. # 3 for  H read from file:
     /scratch/ahofstet/pseudo/H.pbe-kjpaw_psl.0.1.UPF
     MD5 check sum: 94e484f906d9e9773b2f6e52662335b2
     Pseudo is Projector augmented-wave, Zval =  1.0
     Generated using "atomic" code by A. Dal Corso  v.5.0.99 svn rev. 10869
     Shape of augmentation charge: PSQ
     Using radial grid of  929 points,  2 beta functions with: 
                l(1) =   0
                l(2) =   0
     Q(r) pseudized with 0 coefficients 


     PseudoPot. # 4 for  O read from file:
     /scratch/ahofstet/pseudo/O.pbe-n-kjpaw_psl.0.1.UPF
     MD5 check sum: 3f94a2996a3169367d6eb21d9b593f20
     Pseudo is Projector augmented-wave + core cor, Zval =  6.0
     Generated using "atomic" code by A. Dal Corso  v.5.0.99 svn rev. 10869
     Shape of augmentation charge: BESSEL
     Using radial grid of 1095 points,  4 beta functions with: 
                l(1) =   0
                l(2) =   0
                l(3) =   1
                l(4) =   1
     Q(r) pseudized with 0 coefficients 


     atomic species   valence    mass     pseudopotential
        C              4.00    12.01070      C( 1.00)
        N              5.00    14.00670      N( 1.00)
        H              1.00     1.00794      H( 1.00)
        O              6.00    15.99940      O( 1.00)

      2 Sym. Ops., with inversion, found



   Cartesian axes

     site n.     atom                  positions (alat units)
         1           O   tau(   1) = (  -0.0659563   1.7341696   0.9629197  )
         2           O   tau(   2) = (   0.8908203   0.6488329   0.3966828  )
         3           O   tau(   3) = (   0.7156818   0.4365929   1.7563372  )
         4           O   tau(   4) = (  -0.2410949   1.5219295   2.3225741  )
         5           O   tau(   5) = (   0.1940190   0.3010895   1.3245152  )
         6           O   tau(   6) = (   0.6309262   1.3864823   0.0351052  )
         7           O   tau(   7) = (   0.4557064   1.8696729   1.3947417  )
         8           O   tau(   8) = (   0.0187993   0.7842801   2.6841517  )
         9           O   tau(   9) = (   0.4558469   0.7668163   0.7859407  )
        10           O   tau(  10) = (   0.3689611   1.8521943   0.5739428  )
        11           O   tau(  11) = (   0.1938785   1.4039461   1.9333162  )
        12           O   tau(  12) = (   0.2807643   0.3185681   2.1453141  )
        13           O   tau(  13) = (   0.1524504   0.2405210   0.5208861  )
        14           O   tau(  14) = (   0.6723953   1.3258670   0.8388945  )
        15           O   tau(  15) = (   0.4972750   1.9302414   2.1983708  )
        16           O   tau(  16) = (  -0.0226698   0.8448954   1.8803624  )
        17           H   tau(  17) = (   0.0661686   0.4042877   0.4903021  )
        18           H   tau(  18) = (   0.7586727   1.4896363   0.8693992  )
        19           H   tau(  19) = (   0.5835569   1.7664747   2.2289548  )
        20           H   tau(  20) = (  -0.1089473   0.6811261   1.8498577  )
        21           N   tau(  21) = (   0.0581373   2.1094257   1.1319001  )
        22           N   tau(  22) = (   0.7667743   1.0240618   0.2277187  )
        23           N   tau(  23) = (   0.5915881   0.0613368   1.5873568  )
        24           N   tau(  24) = (  -0.1170488   1.1467006   2.4915382  )
        25           H   tau(  25) = (   0.2003842   2.0149966   1.2285406  )
        26           H   tau(  26) = (   0.6245086   0.9296304   0.1310822  )
        27           H   tau(  27) = (   0.4493412   0.1557658   1.4907163  )
        28           H   tau(  28) = (   0.0252168   1.2411320   2.5881747  )
        29           N   tau(  29) = (   0.7218417   2.0927349   0.8499607  )
        30           N   tau(  30) = (   0.1030410   1.0073264   0.5097063  )
        31           N   tau(  31) = (  -0.0721162   0.0780275   1.8692961  )
        32           N   tau(  32) = (   0.5466845   1.1634360   2.2095506  )
        33           H   tau(  33) = (   0.6018560   1.9871687   0.7358363  )
        34           H   tau(  34) = (   0.2229946   0.9017488   0.6238470  )
        35           H   tau(  35) = (   0.0478694   0.1835937   1.9834206  )
        36           H   tau(  36) = (   0.4267309   1.2690136   2.0954099  )
        37           N   tau(  37) = (   0.7550895   0.5624960   1.0297389  )
        38           N   tau(  38) = (   0.0697205   1.6478959   0.3301091  )
        39           N   tau(  39) = (  -0.1053640   1.6082665   1.6895180  )
        40           N   tau(  40) = (   0.5800049   0.5228665   2.3891478  )
        41           N   tau(  41) = (   0.5295700   0.3300070   0.7598152  )
        42           N   tau(  42) = (   0.2952552   1.4153591   0.5999952  )
        43           N   tau(  43) = (   0.1201555   1.8407554   1.9594417  )
        44           N   tau(  44) = (   0.3544702   0.7554033   2.1192617  )
        45           C   tau(  45) = (  -0.0938756   1.9655431   0.9797583  )
        46           C   tau(  46) = (   0.9187471   0.8800861   0.3798568  )
        47           C   tau(  47) = (   0.7436010   0.2052193   1.7394986  )
        48           C   tau(  48) = (  -0.2690216   1.2906763   2.3394001  )
        49           C   tau(  49) = (   0.6885286   0.1724410   0.8882343  )
        50           C   tau(  50) = (   0.1363007   1.2578262   0.4715203  )
        51           C   tau(  51) = (  -0.0388031   1.9983214   1.8310226  )
        52           C   tau(  52) = (   0.5134248   0.9129362   2.2477366  )
        53           C   tau(  53) = (   0.8316708   0.3113146   1.0548459  )
        54           C   tau(  54) = (  -0.0068317   1.3967134   0.3049550  )
        55           C   tau(  55) = (  -0.1819454   1.8594478   1.6644110  )
        56           C   tau(  56) = (   0.6565571   0.7740490   2.4143019  )
        57           C   tau(  57) = (   0.0389758   0.1980388   1.1813614  )
        58           C   tau(  58) = (   0.7859081   1.2834431   0.1782790  )
        59           C   tau(  59) = (   0.6107496   1.9727236   1.5378955  )
        60           C   tau(  60) = (  -0.1361827   0.8873193   2.5409779  )
        61           C   tau(  61) = (   0.5692075   0.5758135   0.8517191  )
        62           C   tau(  62) = (   0.2555834   1.6611732   0.5081336  )
        63           C   tau(  63) = (   0.0805179   1.5949490   1.8675378  )
        64           C   tau(  64) = (   0.3941421   0.5095892   2.2111233  )
        65           C   tau(  65) = (   0.4141147   0.2821351   0.5117777  )
        66           C   tau(  66) = (   0.4107295   1.3674719   0.8480303  )
        67           C   tau(  67) = (   0.2356107   1.8886273   2.2074792  )
        68           C   tau(  68) = (   0.2389959   0.8032905   1.8712266  )
        69           H   tau(  69) = (   0.4599955   0.4469011   0.3954885  )
        70           H   tau(  70) = (   0.3648546   1.5322409   0.9643164  )
        71           H   tau(  71) = (   0.1897299   1.7238613   2.3237683  )
        72           H   tau(  72) = (   0.2848708   0.6385215   1.7549405  )
        73           H   tau(  73) = (   0.5043208   0.1134004   0.4354519  )
        74           H   tau(  74) = (   0.3205319   1.1987324   0.9243472  )
        75           H   tau(  75) = (   0.1454046   2.0573620   2.2838050  )
        76           H   tau(  76) = (   0.3291935   0.9720300   1.7949097  )
        77           C   tau(  77) = (   0.8066320   0.7759214   1.1985053  )
        78           C   tau(  78) = (   0.0182118   1.8613270   0.1613317  )
        79           C   tau(  79) = (  -0.1569066   1.3948410   1.5207515  )
        80           C   tau(  80) = (   0.6315136   0.3094354   2.5579252  )
        81           H   tau(  81) = (   0.6225108   0.8526289   1.2542079  )
        82           H   tau(  82) = (   0.2023447   1.9380125   0.1056328  )
        83           H   tau(  83) = (   0.0272146   1.3181335   1.4650490  )
        84           H   tau(  84) = (   0.4473807   0.2327499   2.6136241  )
        85           H   tau(  85) = (  -0.0958314   0.6981127   1.3618379  )
        86           H   tau(  86) = (   0.9206934   1.7835082  -0.0020093  )
        87           H   tau(  87) = (   0.7455569   1.4726497   1.3574190  )
        88           H   tau(  88) = (  -0.2709680   0.3872542   2.7212662  )
        89           O   tau(  89) = (  -0.0432721   0.9618943   1.0887332  )
        90           O   tau(  90) = (   0.8681141   2.0473175   0.2710595  )
        91           O   tau(  91) = (   0.6929975   1.2088681   1.6305237  )
        92           O   tau(  92) = (  -0.2183887   0.1234450   2.4481974  )
        93           H   tau(  93) = (   0.8446757   1.0782621   0.9964153  )
        94           H   tau(  94) = (  -0.0198361   2.1636981   0.3633711  )
        95           H   tau(  95) = (  -0.1949503   1.0925003   1.7228416  )
        96           H   tau(  96) = (   0.6695615   0.0070643   2.3558858  )

     number of k points=    12
                       cart. coord. in units 2pi/alat
        k(    1) = (   0.0000000   0.0000000   0.0000000), wk =   0.1250000
        k(    2) = (   0.0000000   0.0000000  -0.1838738), wk =   0.1250000
        k(    3) = (   0.0000000  -0.2303338   0.0000000), wk =   0.1250000
        k(    4) = (   0.0000000  -0.2303338  -0.1838738), wk =   0.1250000
        k(    5) = (   0.2500000   0.0000000   0.0322032), wk =   0.2500000
        k(    6) = (   0.2500000   0.0000000  -0.1516706), wk =   0.2500000
        k(    7) = (   0.2500000  -0.2303338   0.0322032), wk =   0.2500000
        k(    8) = (   0.2500000  -0.2303338  -0.1516706), wk =   0.2500000
        k(    9) = (  -0.5000000   0.0000000  -0.0644063), wk =   0.1250000
        k(   10) = (  -0.5000000   0.0000000  -0.2482801), wk =   0.1250000
        k(   11) = (  -0.5000000  -0.2303338  -0.0644063), wk =   0.1250000
        k(   12) = (  -0.5000000  -0.2303338  -0.2482801), wk =   0.1250000

     Dense  grid:   811401 G-vectors     FFT dimensions: (  72, 144, 180)

     Estimated max dynamical RAM per process >    1032.54MB

     Estimated total allocated dynamical RAM >    8260.36MB

     Check: negative/imaginary core charge=   -0.000002    0.000000

     Initial potential from superposition of free atoms

     starting charge  343.99838, renormalised to  344.00000
     Starting wfc are  288 randomized atomic wfcs
     Checking if some PAW data can be deallocated... 

     total cpu time spent up to now is       65.8 secs

     per-process dynamical memory:   766.7 Mb

     Self-consistent Calculation

     iteration #  1     ecut=   100.00 Ry     beta=0.50
     Davidson diagonalization with overlap
     ethr =  1.00E-02,  avg # of iterations =  3.8

     total cpu time spent up to now is      268.4 secs

     total energy              =   -1837.77824039 Ry
     Harris-Foulkes estimate   =   -1842.66260706 Ry
     estimated scf accuracy    <       9.13710225 Ry

     iteration #  2     ecut=   100.00 Ry     beta=0.50
     Davidson diagonalization with overlap
     ethr =  2.66E-03,  avg # of iterations =  3.0

     total cpu time spent up to now is      394.2 secs

     total energy              =   -1839.18424895 Ry
     Harris-Foulkes estimate   =   -1839.94576677 Ry
     estimated scf accuracy    <       1.61460374 Ry

     iteration #  3     ecut=   100.00 Ry     beta=0.50
     Davidson diagonalization with overlap
     ethr =  4.69E-04,  avg # of iterations =  7.4

     total cpu time spent up to now is      584.7 secs

     total energy              =   -1839.59909278 Ry
     Harris-Foulkes estimate   =   -1839.80913669 Ry
     estimated scf accuracy    <       0.50354881 Ry

     iteration #  4     ecut=   100.00 Ry     beta=0.50
     Davidson diagonalization with overlap
     ethr =  1.46E-04,  avg # of iterations =  3.1

     total cpu time spent up to now is      699.9 secs

     total energy              =   -1839.67992236 Ry
     Harris-Foulkes estimate   =   -1839.69498406 Ry
     estimated scf accuracy    <       0.05973834 Ry

     iteration #  5     ecut=   100.00 Ry     beta=0.50
     Davidson diagonalization with overlap
     ethr =  1.74E-05,  avg # of iterations =  8.1

     total cpu time spent up to now is      926.7 secs

     total energy              =   -1839.69540509 Ry
     Harris-Foulkes estimate   =   -1839.70257858 Ry
     estimated scf accuracy    <       0.01893134 Ry

     iteration #  6     ecut=   100.00 Ry     beta=0.50
     Davidson diagonalization with overlap
     ethr =  5.50E-06,  avg # of iterations =  2.0

     total cpu time spent up to now is     1034.4 secs

     total energy              =   -1839.69662094 Ry
     Harris-Foulkes estimate   =   -1839.69781929 Ry
     estimated scf accuracy    <       0.00292651 Ry

     iteration #  7     ecut=   100.00 Ry     beta=0.50
     Davidson diagonalization with overlap
     ethr =  8.51E-07,  avg # of iterations =  6.8

     total cpu time spent up to now is     1252.6 secs

     total energy              =   -1839.69814945 Ry
     Harris-Foulkes estimate   =   -1839.69852876 Ry
     estimated scf accuracy    <       0.00123128 Ry

     iteration #  8     ecut=   100.00 Ry     beta=0.50
     Davidson diagonalization with overlap
     ethr =  3.58E-07,  avg # of iterations =  2.0

     total cpu time spent up to now is     1356.3 secs

     total energy              =   -1839.69808616 Ry
     Harris-Foulkes estimate   =   -1839.69824536 Ry
     estimated scf accuracy    <       0.00035401 Ry

     iteration #  9     ecut=   100.00 Ry     beta=0.50
     Davidson diagonalization with overlap
     ethr =  1.03E-07,  avg # of iterations =  3.0

     total cpu time spent up to now is     1527.8 secs

     total energy              =   -1839.69824339 Ry
     Harris-Foulkes estimate   =   -1839.69826473 Ry
     estimated scf accuracy    <       0.00007433 Ry

     iteration # 10     ecut=   100.00 Ry     beta=0.50
     Davidson diagonalization with overlap
     ethr =  2.16E-08,  avg # of iterations =  1.3

     total cpu time spent up to now is     1628.0 secs

     total energy              =   -1839.69823588 Ry
     Harris-Foulkes estimate   =   -1839.69824727 Ry
     estimated scf accuracy    <       0.00002630 Ry

     iteration # 11     ecut=   100.00 Ry     beta=0.50
     Davidson diagonalization with overlap
     ethr =  7.65E-09,  avg # of iterations =  3.0

     total cpu time spent up to now is     1791.8 secs

     total energy              =   -1839.69824590 Ry
     Harris-Foulkes estimate   =   -1839.69824693 Ry
     estimated scf accuracy    <       0.00000329 Ry

     iteration # 12     ecut=   100.00 Ry     beta=0.50
     Davidson diagonalization with overlap
     ethr =  9.55E-10,  avg # of iterations =  1.2

     total cpu time spent up to now is     1891.3 secs

     total energy              =   -1839.69824543 Ry
     Harris-Foulkes estimate   =   -1839.69824609 Ry
     estimated scf accuracy    <       0.00000117 Ry

     iteration # 13     ecut=   100.00 Ry     beta=0.50
     Davidson diagonalization with overlap
     ethr =  3.39E-10,  avg # of iterations =  4.0

     total cpu time spent up to now is     2076.7 secs

     total energy              =   -1839.69824612 Ry
     Harris-Foulkes estimate   =   -1839.69824632 Ry
     estimated scf accuracy    <       0.00000071 Ry

     iteration # 14     ecut=   100.00 Ry     beta=0.50
     Davidson diagonalization with overlap
     ethr =  2.06E-10,  avg # of iterations =  1.0

     total cpu time spent up to now is     2175.8 secs

     total energy              =   -1839.69824598 Ry
     Harris-Foulkes estimate   =   -1839.69824614 Ry
     estimated scf accuracy    <       0.00000031 Ry

     iteration # 15     ecut=   100.00 Ry     beta=0.50
     Davidson diagonalization with overlap
     ethr =  9.12E-11,  avg # of iterations =  4.0

     total cpu time spent up to now is     2340.2 secs

     total energy              =   -1839.69824611 Ry
     Harris-Foulkes estimate   =   -1839.69824611 Ry
     estimated scf accuracy    <       0.00000003 Ry

     iteration # 16     ecut=   100.00 Ry     beta=0.50
     Davidson diagonalization with overlap
     ethr =  7.83E-12,  avg # of iterations =  2.0

     total cpu time spent up to now is     2443.3 secs

     total energy              =   -1839.69824610 Ry
     Harris-Foulkes estimate   =   -1839.69824611 Ry
     estimated scf accuracy    <       0.00000003 Ry

     iteration # 17     ecut=   100.00 Ry     beta=0.50
     Davidson diagonalization with overlap
     ethr =  7.65E-12,  avg # of iterations =  3.0

     total cpu time spent up to now is     2556.9 secs

     End of self-consistent calculation

          k = 0.0000 0.0000 0.0000 (101285 PWs)   bands (ev):

   -20.0099 -19.9785 -19.8755 -19.8511 -19.6447 -19.5945 -19.5078 -19.4655
   -18.8053 -18.7765 -18.7431 -18.7226 -18.6612 -18.6437 -18.5032 -18.5030
   -18.1987 -18.1817 -18.1503 -18.1474 -17.9317 -17.9277 -17.8692 -17.8600
   -16.9141 -16.9138 -16.8083 -16.8041 -15.9650 -15.9379 -15.9239 -15.8908
   -15.4667 -15.4595 -15.4182 -15.4161 -12.2021 -12.1947 -12.1518 -12.1464
   -10.8696 -10.8640 -10.8556 -10.8463 -10.1328 -10.0963 -10.0737 -10.0336
    -9.2514  -9.1844  -9.0972  -9.0876  -9.0367  -9.0152  -9.0124  -8.9816
    -8.2374  -8.2164  -7.8113  -7.7633  -7.1780  -7.1235  -7.0565  -7.0511
    -7.0313  -7.0157  -6.8691  -6.8326  -6.4402  -6.3702  -6.2500  -6.2101
    -6.0924  -6.0721  -5.7619  -5.6626  -5.6547  -5.5827  -5.4963  -5.3805
    -5.3328  -5.1328  -4.9946  -4.9514  -4.9248  -4.7413  -4.7280  -4.6462
    -4.5833  -4.5631  -4.4938  -4.4613  -4.3426  -4.3330  -4.2716  -4.1970
    -4.0368  -3.9415  -3.8782  -3.8563  -3.7516  -3.7450  -3.7396  -3.6811
    -3.6270  -3.5920  -3.5180  -3.3823  -3.3716  -3.2813  -3.2471  -3.2237
    -3.1796  -3.1449  -2.9807  -2.9725  -2.8167  -2.8006  -2.7364  -2.7285
    -2.6248  -2.5618  -2.5597  -2.5576  -2.2098  -2.0912  -1.8001  -1.6988
    -1.5023  -1.5018  -1.2417  -1.1837  -0.7839  -0.7195  -0.6077  -0.5577
    -0.5547  -0.3952  -0.3278  -0.1704  -0.0827  -0.0658  -0.0100   0.0432
     0.0622   0.1259   0.1335   0.1468   0.1597   0.2347   0.2579   0.2983
     0.3297   0.3735   0.4204   0.4422   0.4695   0.5192   0.5802   0.6018
     0.6953   0.7653   0.7930   0.8134   0.8879   0.8887   1.0013   1.0056
     2.1629   2.1699   2.1987   2.2369   5.3654   5.4575   5.7460   5.8351
     6.2391   6.3234   6.3606   6.5238   6.7472   6.9454   7.1719   7.2449
     7.3474   8.0242   8.1013   8.1590   8.3348   8.4101   8.4333   8.9398
     9.0623   9.1888   9.2302   9.2597   9.2692   9.3690   9.4207   9.4873
     9.5316   9.6486   9.8539   9.9363   9.9628  10.0136

          k = 0.0000 0.0000-0.1839 (101396 PWs)   bands (ev):

   -19.9961 -19.9960 -19.8613 -19.8610 -19.6245 -19.6238 -19.4833 -19.4815
   -18.7953 -18.7920 -18.7316 -18.7290 -18.6524 -18.6524 -18.5031 -18.5030
   -18.1903 -18.1901 -18.1489 -18.1487 -17.9300 -17.9299 -17.8644 -17.8643
   -16.9140 -16.9140 -16.8062 -16.8062 -15.9562 -15.9559 -15.9028 -15.9028
   -15.4638 -15.4625 -15.4176 -15.4165 -12.1987 -12.1986 -12.1489 -12.1488
   -10.8672 -10.8665 -10.8513 -10.8506 -10.1206 -10.1193 -10.0489 -10.0477
    -9.2262  -9.2258  -9.0685  -9.0683  -9.0464  -9.0464  -8.9927  -8.9924
    -8.2271  -8.2270  -7.7871  -7.7871  -7.1531  -7.1529  -7.0511  -7.0505
    -7.0278  -7.0278  -6.8472  -6.8468  -6.4122  -6.4120  -6.2232  -6.2232
    -6.0835  -6.0831  -5.7171  -5.7170  -5.6205  -5.6204  -5.4264  -5.4262
    -5.2678  -5.2666  -4.9355  -4.9349  -4.8796  -4.8796  -4.6501  -4.6499
    -4.5524  -4.5521  -4.4688  -4.4686  -4.3281  -4.3277  -4.3049  -4.3046
    -3.9839  -3.9836  -3.8149  -3.8146  -3.7664  -3.7660  -3.7116  -3.7113
    -3.5861  -3.5843  -3.4719  -3.4717  -3.3516  -3.3511  -3.2289  -3.2272
    -3.1834  -3.1832  -2.9382  -2.9379  -2.7965  -2.7959  -2.7575  -2.7566
    -2.5993  -2.5990  -2.5515  -2.5508  -2.1594  -2.1592  -1.7359  -1.7355
    -1.5074  -1.5072  -1.2103  -1.2100  -0.7669  -0.7666  -0.5663  -0.5662
    -0.4961  -0.4959  -0.2373  -0.2363  -0.0712  -0.0711   0.0118   0.0128
     0.0992   0.0995   0.1422   0.1434   0.1931   0.1940   0.2954   0.2963
     0.3224   0.3227   0.4478   0.4498   0.4915   0.4915   0.5900   0.5908
     0.7228   0.7235   0.8143   0.8143   0.8849   0.8856   1.0028   1.0037
     2.1657   2.1658   2.2182   2.2183   5.4056   5.4062   5.7933   5.7943
     6.2702   6.2708   6.4541   6.4548   6.8318   6.8320   7.2143   7.2143
     7.5615   7.5621   8.2158   8.2163   8.3638   8.3646   8.8362   8.8364
     9.1308   9.1308   9.2197   9.2203   9.3006   9.3007   9.3881   9.3885
     9.5919   9.5921   9.7702   9.7702  10.0453  10.0456

          k = 0.0000-0.2303 0.0000 (101410 PWs)   bands (ev):

   -19.9536 -19.9535 -19.9244 -19.9242 -19.5705 -19.5673 -19.5249 -19.5206
   -18.7932 -18.7897 -18.7338 -18.7310 -18.5783 -18.5774 -18.5691 -18.5682
   -18.1841 -18.1839 -18.1457 -18.1454 -17.9117 -17.9113 -17.9079 -17.9076
   -16.8553 -16.8547 -16.8504 -16.8500 -15.9539 -15.9536 -15.9085 -15.9084
   -15.4632 -15.4619 -15.4173 -15.4161 -12.1824 -12.1817 -12.1670 -12.1663
   -10.8797 -10.8789 -10.8410 -10.8403 -10.1252 -10.1237 -10.0421 -10.0407
    -9.1761  -9.1756  -9.1225  -9.1222  -9.0685  -9.0681  -8.9863  -8.9860
    -8.0292  -8.0286  -7.9961  -7.9955  -7.1066  -7.1057  -7.0897  -7.0889
    -7.0443  -7.0437  -6.8363  -6.8360  -6.3701  -6.3692  -6.2687  -6.2678
    -5.9150  -5.9144  -5.8578  -5.8571  -5.5631  -5.5628  -5.4953  -5.4948
    -5.2619  -5.2606  -4.9650  -4.9644  -4.8089  -4.8089  -4.6586  -4.6582
    -4.5793  -4.5789  -4.4626  -4.4624  -4.3705  -4.3704  -4.2584  -4.2583
    -3.9872  -3.9871  -3.8700  -3.8695  -3.7852  -3.7845  -3.6924  -3.6922
    -3.5853  -3.5853  -3.4772  -3.4754  -3.3198  -3.3192  -3.2767  -3.2760
    -3.0260  -3.0256  -2.9767  -2.9765  -2.8723  -2.8722  -2.7457  -2.7455
    -2.6267  -2.6266  -2.5455  -2.5453  -1.9824  -1.9824  -1.8356  -1.8350
    -1.4474  -1.4470  -1.3951  -1.3944  -0.7220  -0.7219  -0.6095  -0.6094
    -0.2730  -0.2728  -0.2365  -0.2363  -0.1311  -0.1303  -0.1020  -0.1016
     0.0827   0.0849   0.1087   0.1095   0.2102   0.2110   0.3323   0.3325
     0.3820   0.3827   0.4435   0.4442   0.4835   0.4837   0.5406   0.5419
     0.7271   0.7278   0.8303   0.8307   0.8974   0.8984   1.0140   1.0149
     2.1424   2.1429   2.2258   2.2262   5.4095   5.4102   5.7980   5.7990
     6.2914   6.2928   6.4036   6.4050   6.8973   6.8977   7.1103   7.1104
     7.6839   7.6842   8.1464   8.1467   8.4354   8.4356   8.6547   8.6553
     9.0873   9.0873   9.2656   9.2658   9.3741   9.3742   9.5211   9.5216
     9.6629   9.6639   9.7929   9.7929   9.8931   9.8932

          k = 0.0000-0.2303-0.1839 (101304 PWs)   bands (ev):

   -19.9533 -19.9524 -19.9257 -19.9245 -19.5694 -19.5660 -19.5261 -19.5216
   -18.7931 -18.7895 -18.7340 -18.7311 -18.5771 -18.5756 -18.5710 -18.5694
   -18.1840 -18.1835 -18.1460 -18.1455 -17.9112 -17.9107 -17.9086 -17.9081
   -16.8553 -16.8547 -16.8505 -16.8500 -15.9539 -15.9535 -15.9086 -15.9084
   -15.4631 -15.4618 -15.4173 -15.4161 -12.1825 -12.1818 -12.1670 -12.1662
   -10.8796 -10.8788 -10.8411 -10.8404 -10.1252 -10.1236 -10.0422 -10.0408
    -9.1756  -9.1751  -9.1223  -9.1220  -9.0678  -9.0674  -8.9879  -8.9875
    -8.0264  -8.0256  -7.9990  -7.9981  -7.1052  -7.1040  -7.0912  -7.0902
    -7.0436  -7.0431  -6.8379  -6.8376  -6.3517  -6.3507  -6.2904  -6.2894
    -5.9020  -5.9009  -5.8693  -5.8682  -5.5612  -5.5609  -5.4952  -5.4947
    -5.2485  -5.2470  -5.0006  -4.9999  -4.7928  -4.7927  -4.6525  -4.6521
    -4.5804  -4.5801  -4.4219  -4.4215  -4.4152  -4.4148  -4.2570  -4.2566
    -3.9778  -3.9776  -3.8210  -3.8199  -3.8112  -3.8108  -3.7589  -3.7583
    -3.5231  -3.5208  -3.4942  -3.4933  -3.3042  -3.3029  -3.3027  -3.3020
    -3.0235  -3.0228  -3.0046  -3.0041  -2.8083  -2.8073  -2.7945  -2.7939
    -2.5893  -2.5883  -2.5724  -2.5713  -1.9837  -1.9831  -1.8374  -1.8364
    -1.4452  -1.4444  -1.3961  -1.3950  -0.7246  -0.7239  -0.6098  -0.6092
    -0.2531  -0.2528  -0.2525  -0.2520  -0.1337  -0.1332  -0.1080  -0.1074
     0.0966   0.0985   0.1325   0.1338   0.1667   0.1680   0.3625   0.3629
     0.3774   0.3785   0.4529   0.4540   0.4621   0.4629   0.5418   0.5433
     0.7153   0.7161   0.8447   0.8453   0.8894   0.8907   1.0156   1.0165
     2.1423   2.1428   2.2260   2.2265   5.4050   5.4056   5.8053   5.8064
     6.2921   6.2935   6.4008   6.4023   6.9030   6.9034   7.1037   7.1038
     7.7644   7.7652   7.9056   7.9063   8.6315   8.6324   8.8764   8.8766
     8.9445   8.9451   9.1890   9.1892   9.4129   9.4134   9.4333   9.4336
     9.6538   9.6546   9.6914   9.6921   9.8102   9.8108

          k = 0.2500 0.0000 0.0322 (101428 PWs)   bands (ev):

   -19.9664 -19.9594 -19.8643 -19.8616 -19.6064 -19.6035 -19.5064 -19.5034
   -18.8141 -18.7928 -18.7376 -18.7183 -18.6358 -18.6357 -18.4981 -18.4967
   -18.2108 -18.1956 -18.1720 -18.1590 -17.9489 -17.9432 -17.8777 -17.8709
   -16.9027 -16.8939 -16.8176 -16.8037 -15.9951 -15.9676 -15.9172 -15.8778
   -15.4703 -15.4650 -15.4190 -15.4136 -12.2131 -12.1791 -12.1588 -12.1323
   -10.8990 -10.8912 -10.8532 -10.8389 -10.1195 -10.1139 -10.0520 -10.0332
    -9.2709  -9.2328  -9.0920  -9.0714  -9.0540  -9.0239  -8.9822  -8.9571
    -8.2279  -8.2150  -7.8158  -7.7731  -7.1269  -7.1264  -7.0604  -7.0497
    -7.0375  -7.0231  -6.8937  -6.8210  -6.4078  -6.3513  -6.2336  -6.1706
    -5.9545  -5.9421  -5.7278  -5.7025  -5.6374  -5.6129  -5.4529  -5.4172
    -5.3455  -5.1276  -5.0390  -5.0077  -4.8967  -4.8932  -4.7556  -4.6475
    -4.6141  -4.5323  -4.5016  -4.4511  -4.4210  -4.3930  -4.3319  -4.2130
    -4.0850  -4.0197  -3.9146  -3.8961  -3.8529  -3.8005  -3.7817  -3.7334
    -3.6268  -3.4967  -3.4773  -3.4149  -3.3501  -3.3114  -3.2499  -3.2247
    -3.1412  -3.0378  -2.9703  -2.9559  -2.8783  -2.7661  -2.7199  -2.6783
    -2.6449  -2.6015  -2.5251  -2.5242  -2.1108  -2.0267  -1.7891  -1.6657
    -1.4035  -1.3813  -1.0822  -1.0532  -0.7900  -0.7566  -0.5856  -0.5609
    -0.3953  -0.3425  -0.2438  -0.1680  -0.0929  -0.0512  -0.0149   0.0204
     0.1177   0.1398   0.1458   0.1874   0.1887   0.2157   0.2258   0.2985
     0.3007   0.3364   0.3864   0.4321   0.4645   0.4774   0.5296   0.5506
     0.7152   0.7303   0.7769   0.8389   0.8770   0.8795   1.0096   1.0270
     2.1633   2.1708   2.2658   2.2962   5.3925   5.4119   5.6509   5.6854
     6.2047   6.2794   6.3197   6.4746   6.8134   6.8251   7.1363   7.1730
     7.6969   7.9596   8.3558   8.3577   8.5106   8.5122   8.5833   8.6637
     8.8539   8.9731   9.0794   9.1835   9.3268   9.3435   9.4605   9.5085
     9.6432   9.6836   9.7938   9.8706   9.8847   9.9894

          k = 0.2500 0.0000-0.1517 (101461 PWs)   bands (ev):

   -19.9729 -19.9505 -19.8737 -19.8547 -19.6192 -19.5848 -19.5232 -19.4924
   -18.8067 -18.8032 -18.7283 -18.7245 -18.6421 -18.6294 -18.4977 -18.4973
   -18.2094 -18.1999 -18.1688 -18.1594 -17.9466 -17.9456 -17.8781 -17.8704
   -16.9007 -16.8965 -16.8124 -16.8082 -15.9946 -15.9692 -15.9138 -15.8801
   -15.4685 -15.4664 -15.4209 -15.4121 -12.2055 -12.1943 -12.1479 -12.1356
   -10.9116 -10.8743 -10.8534 -10.8429 -10.1285 -10.1007 -10.0600 -10.0293
    -9.2733  -9.2314  -9.1013  -9.0655  -9.0353  -9.0243  -9.0068  -8.9465
    -8.2263  -8.2170  -7.7961  -7.7930  -7.1401  -7.1119  -7.0618  -7.0563
    -7.0315  -7.0244  -6.8575  -6.8568  -6.4003  -6.3711  -6.1923  -6.1912
    -5.9524  -5.9419  -5.7489  -5.6863  -5.6486  -5.5916  -5.4807  -5.3986
    -5.2956  -5.2694  -5.0126  -4.9751  -4.9131  -4.8373  -4.7156  -4.6222
    -4.5991  -4.5486  -4.5469  -4.4816  -4.3999  -4.3863  -4.3177  -4.2908
    -4.0846  -4.0419  -3.8794  -3.8753  -3.8523  -3.8151  -3.7632  -3.7329
    -3.5922  -3.5560  -3.4392  -3.3997  -3.3276  -3.3242  -3.2779  -3.2265
    -3.1400  -3.0981  -2.9409  -2.9395  -2.8458  -2.7890  -2.7347  -2.6808
    -2.6186  -2.6088  -2.5781  -2.4828  -2.0899  -2.0588  -1.7269  -1.7140
    -1.4191  -1.3652  -1.0888  -1.0501  -0.7915  -0.7475  -0.5741  -0.5729
    -0.4219  -0.3160  -0.2280  -0.1895  -0.0966  -0.0419  -0.0111   0.0016
     0.1303   0.1364   0.1565   0.1822   0.1885   0.2219   0.2377   0.2786
     0.2977   0.3304   0.4100   0.4165   0.4452   0.4928   0.5210   0.5629
     0.7036   0.7368   0.7978   0.8232   0.8619   0.8925   1.0170   1.0204
     2.1618   2.1737   2.2753   2.2857   5.3655   5.4435   5.6491   5.6836
     6.2252   6.2266   6.4048   6.4195   6.7499   6.9081   7.1367   7.1721
     7.6426   7.9635   8.2897   8.4027   8.4563   8.4960   8.6800   8.8210
     8.8747   8.9875   9.0119   9.1485   9.2630   9.3520   9.4624   9.5799
     9.6173   9.7351   9.7443   9.7697   9.8161   9.9175

          k = 0.2500-0.2303 0.0322 (101420 PWs)   bands (ev):

   -19.9285 -19.9278 -19.9080 -19.9071 -19.5703 -19.5667 -19.5394 -19.5351
   -18.8069 -18.8036 -18.7310 -18.7279 -18.5639 -18.5624 -18.5560 -18.5545
   -18.1994 -18.1988 -18.1609 -18.1603 -17.9286 -17.9281 -17.9181 -17.9177
   -16.8534 -16.8529 -16.8428 -16.8424 -15.9787 -15.9783 -15.9033 -15.9031
   -15.4676 -15.4663 -15.4163 -15.4152 -12.1922 -12.1915 -12.1503 -12.1496
   -10.8903 -10.8896 -10.8622 -10.8615 -10.1105 -10.1090 -10.0395 -10.0381
    -9.1691  -9.1687  -9.1308  -9.1305  -9.0716  -9.0712  -8.9994  -8.9990
    -8.0211  -8.0203  -7.9938  -7.9931  -7.1036  -7.1032  -7.0786  -7.0781
    -7.0230  -7.0228  -6.8539  -6.8535  -6.3480  -6.3471  -6.2391  -6.2382
    -5.8449  -5.8438  -5.7945  -5.7933  -5.5557  -5.5554  -5.5043  -5.5039
    -5.2907  -5.2895  -4.9900  -4.9895  -4.8778  -4.8774  -4.7283  -4.7278
    -4.5954  -4.5951  -4.5036  -4.5034  -4.3739  -4.3737  -4.2349  -4.2346
    -4.0109  -4.0104  -3.9081  -3.9072  -3.8620  -3.8611  -3.7347  -3.7330
    -3.5812  -3.5811  -3.4339  -3.4326  -3.3557  -3.3545  -3.2750  -3.2744
    -3.0670  -3.0667  -2.9611  -2.9609  -2.8224  -2.8217  -2.7091  -2.7085
    -2.5959  -2.5952  -2.5500  -2.5493  -1.9489  -1.9486  -1.8305  -1.8297
    -1.2873  -1.2866  -1.2331  -1.2321  -0.7225  -0.7218  -0.6135  -0.6131
    -0.2224  -0.2218  -0.1965  -0.1957  -0.1081  -0.1078  -0.0565  -0.0560
     0.0602   0.0616   0.1503   0.1510   0.1982   0.1986   0.3129   0.3132
     0.3628   0.3639   0.4211   0.4221   0.4552   0.4562   0.4989   0.4998
     0.7354   0.7364   0.8219   0.8230   0.8699   0.8705   1.0338   1.0348
     2.1901   2.1907   2.2493   2.2497   5.4005   5.4014   5.6729   5.6743
     6.2328   6.2343   6.3836   6.3849   6.9153   6.9156   7.0453   7.0454
     7.9071   7.9077   8.1938   8.1942   8.5286   8.5287   8.8072   8.8078
     8.9446   8.9450   9.0570   9.0571   9.3174   9.3178   9.4808   9.4816
     9.6774   9.6777   9.7561   9.7567   9.8768   9.8770

          k = 0.2500-0.2303-0.1517 (101428 PWs)   bands (ev):

   -19.9285 -19.9282 -19.9075 -19.9070 -19.5707 -19.5673 -19.5389 -19.5346
   -18.8070 -18.8036 -18.7309 -18.7279 -18.5645 -18.5634 -18.5550 -18.5538
   -18.1990 -18.1988 -18.1611 -18.1608 -17.9277 -17.9273 -17.9188 -17.9184
   -16.8534 -16.8529 -16.8428 -16.8424 -15.9786 -15.9783 -15.9033 -15.9032
   -15.4676 -15.4663 -15.4163 -15.4152 -12.1924 -12.1916 -12.1501 -12.1494
   -10.8945 -10.8939 -10.8577 -10.8571 -10.1104 -10.1089 -10.0399 -10.0385
    -9.1691  -9.1688  -9.1321  -9.1319  -9.0695  -9.0692  -9.0000  -8.9997
    -8.0198  -8.0190  -7.9951  -7.9943  -7.1020  -7.1011  -7.0801  -7.0790
    -7.0234  -7.0232  -6.8550  -6.8546  -6.3336  -6.3326  -6.2550  -6.2541
    -5.8400  -5.8390  -5.8019  -5.8009  -5.5510  -5.5510  -5.5059  -5.5056
    -5.2675  -5.2661  -4.9904  -4.9895  -4.9329  -4.9328  -4.7295  -4.7290
    -4.5547  -4.5542  -4.4984  -4.4982  -4.3622  -4.3620  -4.2495  -4.2491
    -4.0077  -4.0072  -3.9031  -3.9021  -3.8597  -3.8594  -3.7826  -3.7818
    -3.5380  -3.5365  -3.4518  -3.4510  -3.3513  -3.3500  -3.2748  -3.2739
    -3.0623  -3.0620  -2.9706  -2.9702  -2.8152  -2.8143  -2.7072  -2.7063
    -2.6039  -2.6031  -2.5464  -2.5456  -1.9493  -1.9488  -1.8314  -1.8304
    -1.2911  -1.2905  -1.2287  -1.2279  -0.7178  -0.7175  -0.6176  -0.6173
    -0.2323  -0.2322  -0.1838  -0.1836  -0.0996  -0.0986  -0.0649  -0.0640
     0.0502   0.0519   0.1622   0.1634   0.1983   0.1994   0.2965   0.2968
     0.3759   0.3771   0.4166   0.4173   0.4473   0.4483   0.5075   0.5081
     0.7447   0.7457   0.8119   0.8127   0.8733   0.8738   1.0330   1.0340
     2.1905   2.1911   2.2488   2.2492   5.4020   5.4029   5.6711   5.6725
     6.2335   6.2349   6.3846   6.3858   6.9077   6.9079   7.0558   7.0558
     7.9192   7.9199   8.1068   8.1073   8.6531   8.6537   8.7589   8.7597
     8.9649   8.9655   9.0927   9.0931   9.3203   9.3205   9.4656   9.4664
     9.5923   9.5927   9.7813   9.7817   9.9723   9.9731

          k =-0.5000 0.0000-0.0644 (101484 PWs)   bands (ev):

   -19.9152 -19.9048 -19.8885 -19.8783 -19.5598 -19.5582 -19.5558 -19.5542
   -18.8248 -18.8052 -18.7346 -18.7146 -18.6214 -18.6117 -18.4926 -18.4925
   -18.2171 -18.2168 -18.1955 -18.1700 -17.9655 -17.9572 -17.8879 -17.8823
   -16.8866 -16.8719 -16.8280 -16.8089 -16.0241 -15.9721 -15.9375 -15.8633
   -15.4737 -15.4694 -15.4241 -15.4091 -12.2084 -12.1949 -12.1434 -12.1250
   -10.9396 -10.8843 -10.8601 -10.8441 -10.1225 -10.1041 -10.0477 -10.0269
    -9.2935  -9.2560  -9.1134  -9.0788  -9.0497  -9.0117  -8.9756  -8.9225
    -8.2167  -8.2111  -7.8255  -7.7791  -7.1014  -7.0906  -7.0693  -7.0621
    -7.0533  -7.0242  -6.8910  -6.8270  -6.3693  -6.3302  -6.2222  -6.1358
    -5.8399  -5.8000  -5.7196  -5.6822  -5.6588  -5.6186  -5.4890  -5.4102
    -5.3114  -5.1166  -5.0497  -4.9717  -4.9511  -4.9475  -4.7979  -4.7577
    -4.6345  -4.6160  -4.5326  -4.4802  -4.4395  -4.3952  -4.3277  -4.1949
    -4.1606  -4.0943  -3.9596  -3.9590  -3.9049  -3.8897  -3.8127  -3.7499
    -3.5698  -3.5596  -3.4744  -3.4259  -3.3310  -3.2671  -3.2632  -3.2010
    -3.0573  -3.0380  -3.0367  -2.9680  -2.8521  -2.7791  -2.6502  -2.6260
    -2.6259  -2.5779  -2.5446  -2.5325  -1.9789  -1.9383  -1.8256  -1.7044
    -1.2411  -1.1900  -0.9629  -0.9144  -0.7817  -0.7686  -0.5958  -0.5574
    -0.2490  -0.2230  -0.1482  -0.1244  -0.0750  -0.0705  -0.0582  -0.0563
     0.0676   0.1544   0.1692   0.1926   0.1970   0.2057   0.2094   0.2870
     0.3282   0.3289   0.3624   0.3840   0.4206   0.4666   0.4926   0.5325
     0.7177   0.7267   0.8161   0.8177   0.8377   0.8607   1.0256   1.0297
     2.1657   2.2029   2.3298   2.3431   5.4016   5.4395   5.4735   5.4814
     6.1716   6.2007   6.3499   6.4166   6.8302   6.9237   7.0476   7.0788
     7.9889   8.1020   8.3194   8.3928   8.4747   8.5404   8.5947   8.7336
     8.9955   9.1126   9.1430   9.2804   9.3121   9.4116   9.4520   9.5087
     9.5281   9.5360   9.5384   9.8116   9.8828   9.9828

          k =-0.5000 0.0000-0.2483 (101526 PWs)   bands (ev):

   -19.9110 -19.9109 -19.8825 -19.8823 -19.5598 -19.5582 -19.5557 -19.5543
   -18.8177 -18.8145 -18.7250 -18.7218 -18.6167 -18.6167 -18.4925 -18.4925
   -18.2182 -18.2180 -18.1818 -18.1816 -17.9613 -17.9612 -17.8851 -17.8850
   -16.8804 -16.8802 -16.8174 -16.8173 -16.0071 -16.0068 -15.8918 -15.8917
   -15.4720 -15.4708 -15.4171 -15.4160 -12.2026 -12.2018 -12.1340 -12.1333
   -10.9166 -10.9162 -10.8480 -10.8476 -10.1144 -10.1131 -10.0375 -10.0363
    -9.2733  -9.2732  -9.0965  -9.0962  -9.0415  -9.0413  -8.9396  -8.9394
    -8.2141  -8.2141  -7.8023  -7.8023  -7.0974  -7.0968  -7.0614  -7.0605
    -7.0450  -7.0447  -6.8575  -6.8571  -6.3565  -6.3562  -6.1674  -6.1671
    -5.8238  -5.8236  -5.7101  -5.7100  -5.6325  -5.6322  -5.4382  -5.4379
    -5.2744  -5.2737  -5.0246  -5.0245  -4.8533  -4.8524  -4.7759  -4.7754
    -4.6276  -4.6273  -4.5232  -4.5231  -4.3833  -4.3829  -4.3467  -4.3467
    -4.1244  -4.1243  -3.9481  -3.9471  -3.8530  -3.8512  -3.8170  -3.8167
    -3.5883  -3.5882  -3.3585  -3.3576  -3.2990  -3.2979  -3.2876  -3.2870
    -3.0636  -3.0635  -2.9841  -2.9837  -2.8225  -2.8217  -2.6710  -2.6709
    -2.5774  -2.5771  -2.5298  -2.5292  -1.9633  -1.9632  -1.7597  -1.7592
    -1.2180  -1.2179  -0.9352  -0.9349  -0.7769  -0.7768  -0.5773  -0.5771
    -0.2417  -0.2413  -0.1204  -0.1189  -0.0849  -0.0837  -0.0549  -0.0538
     0.1012   0.1014   0.1638   0.1638   0.2036   0.2040   0.2679   0.2683
     0.3207   0.3213   0.3932   0.3937   0.4345   0.4355   0.5131   0.5133
     0.7227   0.7242   0.8128   0.8131   0.8506   0.8507   1.0265   1.0274
     2.1854   2.1855   2.3354   2.3355   5.4209   5.4210   5.4771   5.4779
     6.1822   6.1837   6.3864   6.3875   6.8723   6.8723   7.0664   7.0664
     8.0277   8.0289   8.3939   8.3946   8.4641   8.4647   8.7569   8.7571
     8.8900   8.8900   9.2667   9.2673   9.3490   9.3492   9.4519   9.4519
     9.5775   9.5778   9.7383   9.7386   9.8446   9.8449

          k =-0.5000-0.2303-0.0644 (101516 PWs)   bands (ev):

   -19.8994 -19.8990 -19.8907 -19.8902 -19.5648 -19.5627 -19.5608 -19.5588
   -18.8195 -18.8163 -18.7292 -18.7261 -18.5501 -18.5488 -18.5402 -18.5388
   -18.2145 -18.2143 -18.1760 -18.1757 -17.9439 -17.9435 -17.9306 -17.9303
   -16.8502 -16.8497 -16.8365 -16.8361 -15.9991 -15.9987 -15.9021 -15.9019
   -15.4716 -15.4704 -15.4162 -15.4151 -12.1971 -12.1963 -12.1384 -12.1377
   -10.9096 -10.9092 -10.8732 -10.8728 -10.0944 -10.0930 -10.0393 -10.0380
    -9.1569  -9.1567  -9.1485  -9.1484  -9.0728  -9.0727  -9.0092  -9.0089
    -8.0151  -8.0142  -7.9874  -7.9865  -7.1015  -7.1008  -7.0626  -7.0615
    -7.0115  -7.0113  -6.8691  -6.8686  -6.3225  -6.3217  -6.2281  -6.2271
    -5.7641  -5.7635  -5.7355  -5.7348  -5.5387  -5.5386  -5.5053  -5.5050
    -5.3019  -5.3009  -5.0516  -5.0516  -4.9054  -4.9045  -4.7998  -4.7995
    -4.5928  -4.5928  -4.4924  -4.4922  -4.4611  -4.4610  -4.1912  -4.1910
    -4.0692  -4.0692  -3.9442  -3.9442  -3.8823  -3.8818  -3.7977  -3.7967
    -3.6269  -3.6269  -3.4294  -3.4284  -3.3394  -3.3381  -3.2277  -3.2275
    -3.1038  -3.1036  -3.0119  -3.0119  -2.7788  -2.7779  -2.6519  -2.6518
    -2.5766  -2.5764  -2.5280  -2.5273  -1.9068  -1.9065  -1.8322  -1.8314
    -1.1202  -1.1197  -1.0590  -1.0583  -0.7087  -0.7086  -0.6230  -0.6230
    -0.1668  -0.1667  -0.1452  -0.1449  -0.1046  -0.1041  -0.1003  -0.0997
     0.1300   0.1310   0.1375   0.1376   0.2150   0.2159   0.2917   0.2917
     0.3551   0.3553   0.3911   0.3918   0.4321   0.4326   0.4563   0.4570
     0.7378   0.7393   0.7905   0.7911   0.8740   0.8744   1.0379   1.0389
     2.2446   2.2452   2.2724   2.2729   5.4315   5.4322   5.4641   5.4654
     6.1817   6.1831   6.3880   6.3891   6.9102   6.9102   7.0231   7.0232
     8.0015   8.0027   8.4193   8.4202   8.5700   8.5711   8.7924   8.7925
     8.8513   8.8518   9.0985   9.0988   9.3816   9.3817   9.5265   9.5266
     9.5897   9.5902   9.7554   9.7557   9.9171   9.9173

          k =-0.5000-0.2303-0.2483 (101480 PWs)   bands (ev):

   -19.8994 -19.8990 -19.8908 -19.8903 -19.5648 -19.5626 -19.5608 -19.5587
   -18.8194 -18.8163 -18.7293 -18.7261 -18.5497 -18.5482 -18.5408 -18.5392
   -18.2154 -18.2148 -18.1752 -18.1746 -17.9449 -17.9444 -17.9298 -17.9294
   -16.8501 -16.8496 -16.8366 -16.8361 -15.9992 -15.9988 -15.9020 -15.9018
   -15.4717 -15.4704 -15.4162 -15.4150 -12.1967 -12.1959 -12.1390 -12.1383
   -10.8974 -10.8966 -10.8861 -10.8854 -10.0947 -10.0933 -10.0385 -10.0371
    -9.1535  -9.1533  -9.1529  -9.1526  -9.0686  -9.0684  -9.0131  -9.0127
    -8.0117  -8.0107  -7.9906  -7.9897  -7.0880  -7.0869  -7.0837  -7.0829
    -7.0032  -7.0030  -6.8688  -6.8683  -6.3179  -6.3170  -6.2372  -6.2363
    -5.7790  -5.7779  -5.7134  -5.7123  -5.5351  -5.5349  -5.5224  -5.5223
    -5.2750  -5.2737  -5.0318  -5.0317  -4.9606  -4.9595  -4.8252  -4.8248
    -4.5574  -4.5570  -4.4997  -4.4996  -4.3469  -4.3465  -4.3015  -4.3011
    -4.0443  -4.0436  -3.9841  -3.9832  -3.8526  -3.8523  -3.8509  -3.8505
    -3.5186  -3.5173  -3.4904  -3.4900  -3.3414  -3.3400  -3.2268  -3.2262
    -3.0778  -3.0776  -3.0400  -3.0396  -2.7816  -2.7808  -2.6079  -2.6069
    -2.5966  -2.5958  -2.5463  -2.5454  -1.9132  -1.9127  -1.8256  -1.8245
    -1.1177  -1.1171  -1.0634  -1.0623  -0.7104  -0.7099  -0.6214  -0.6213
    -0.1594  -0.1589  -0.1482  -0.1475  -0.1145  -0.1124  -0.0972  -0.0962
     0.1223   0.1238   0.1563   0.1575   0.2112   0.2120   0.2743   0.2750
     0.3674   0.3684   0.3876   0.3889   0.4348   0.4358   0.4568   0.4574
     0.7376   0.7391   0.7899   0.7906   0.8740   0.8744   1.0370   1.0380
     2.2459   2.2465   2.2708   2.2713   5.4354   5.4365   5.4600   5.4617
     6.1813   6.1828   6.3895   6.3906   6.9282   6.9282   7.0016   7.0018
     8.0044   8.0056   8.4476   8.4487   8.4953   8.4961   8.8309   8.8317
     8.8731   8.8734   9.1579   9.1584   9.2444   9.2451   9.5556   9.5558
     9.5658   9.5668   9.7779   9.7782   9.9618   9.9625

     highest occupied, lowest unoccupied level (ev):     2.3431    5.3654

!    total energy              =   -1839.69824611 Ry
     Harris-Foulkes estimate   =   -1839.69824611 Ry
     estimated scf accuracy    <          1.8E-09 Ry

     total all-electron energy =     -6934.811613 Ry

     The total energy is the sum of the following terms:

     one-electron contribution =    -973.71891291 Ry
     hartree contribution      =     632.27624219 Ry
     xc contribution           =    -375.12101469 Ry
     ewald contribution        =    -613.88817894 Ry
     Dispersion Correction     =      -0.46598278 Ry
     one-center paw contrib.   =    -508.78039897 Ry

     convergence has been achieved in  17 iterations

     Forces acting on atoms (cartesian axes, Ry/au):

     atom    1 type  4   force =     0.00070609    0.00084126    0.00003570
     atom    2 type  4   force =    -0.00087969   -0.00056758    0.00005817
     atom    3 type  4   force =    -0.00070609   -0.00084126   -0.00003570
     atom    4 type  4   force =     0.00087969    0.00056758   -0.00005817
     atom    5 type  4   force =    -0.00312062    0.00314728   -0.00313782
     atom    6 type  4   force =     0.00290265    0.00329478    0.00292779
     atom    7 type  4   force =     0.00312062   -0.00314728    0.00313782
     atom    8 type  4   force =    -0.00290265   -0.00329478   -0.00292779
     atom    9 type  4   force =     0.00069017    0.00172555   -0.00217100
     atom   10 type  4   force =    -0.00088341    0.00143732    0.00204539
     atom   11 type  4   force =    -0.00069017   -0.00172555    0.00217100
     atom   12 type  4   force =     0.00088341   -0.00143732   -0.00204539
     atom   13 type  4   force =     0.00419557    0.00628240    0.00353134
     atom   14 type  4   force =    -0.00430182    0.00613383   -0.00355962
     atom   15 type  4   force =    -0.00419557   -0.00628240   -0.00353134
     atom   16 type  4   force =     0.00430182   -0.00613383    0.00355962
     atom   17 type  3   force =    -0.00008474   -0.00131132    0.00094874
     atom   18 type  3   force =     0.00014608   -0.00117151   -0.00091562
     atom   19 type  3   force =     0.00008474    0.00131132   -0.00094874
     atom   20 type  3   force =    -0.00014608    0.00117151    0.00091562
     atom   21 type  2   force =    -0.00253155    0.00324248    0.00085873
     atom   22 type  2   force =     0.00234304    0.00298783   -0.00097356
     atom   23 type  2   force =     0.00253155   -0.00324248   -0.00085873
     atom   24 type  2   force =    -0.00234304   -0.00298783    0.00097356
     atom   25 type  3   force =     0.00001996    0.00017825   -0.00058893
     atom   26 type  3   force =     0.00007910    0.00027284    0.00063578
     atom   27 type  3   force =    -0.00001996   -0.00017825    0.00058893
     atom   28 type  3   force =    -0.00007910   -0.00027284   -0.00063578
     atom   29 type  2   force =    -0.00220707    0.00222200    0.00043953
     atom   30 type  2   force =     0.00202558    0.00207013   -0.00055186
     atom   31 type  2   force =     0.00220707   -0.00222200   -0.00043953
     atom   32 type  2   force =    -0.00202558   -0.00207013    0.00055186
     atom   33 type  3   force =     0.00042825    0.00077481    0.00057801
     atom   34 type  3   force =    -0.00043225    0.00084230   -0.00057447
     atom   35 type  3   force =    -0.00042825   -0.00077481   -0.00057801
     atom   36 type  3   force =     0.00043225   -0.00084230    0.00057447
     atom   37 type  2   force =    -0.00249014   -0.00814532    0.00307117
     atom   38 type  2   force =     0.00248738   -0.00811412   -0.00307539
     atom   39 type  2   force =     0.00249014    0.00814532   -0.00307117
     atom   40 type  2   force =    -0.00248738    0.00811412    0.00307539
     atom   41 type  2   force =     0.00312269   -0.00027517   -0.00455588
     atom   42 type  2   force =    -0.00317868   -0.00017688    0.00448332
     atom   43 type  2   force =    -0.00312269    0.00027517    0.00455588
     atom   44 type  2   force =     0.00317868    0.00017688   -0.00448332
     atom   45 type  1   force =     0.00077522   -0.00121328    0.00131594
     atom   46 type  1   force =    -0.00040103    0.00056354   -0.00125456
     atom   47 type  1   force =    -0.00077522    0.00121328   -0.00131594
     atom   48 type  1   force =     0.00040103   -0.00056354    0.00125456
     atom   49 type  1   force =     0.01080544   -0.00226876   -0.00466906
     atom   50 type  1   force =    -0.01070332   -0.00257224    0.00482638
     atom   51 type  1   force =    -0.01080544    0.00226876    0.00466906
     atom   52 type  1   force =     0.01070332    0.00257224   -0.00482638
     atom   53 type  1   force =     0.00112434    0.00307423   -0.00121894
     atom   54 type  1   force =    -0.00141763    0.00309135    0.00089384
     atom   55 type  1   force =    -0.00112434   -0.00307423    0.00121894
     atom   56 type  1   force =     0.00141763   -0.00309135   -0.00089384
     atom   57 type  1   force =    -0.00208886   -0.00244403    0.00326169
     atom   58 type  1   force =     0.00252152   -0.00254362   -0.00282293
     atom   59 type  1   force =     0.00208886    0.00244403   -0.00326169
     atom   60 type  1   force =    -0.00252152    0.00254362    0.00282293
     atom   61 type  1   force =    -0.00255209   -0.00115939    0.00057522
     atom   62 type  1   force =     0.00286334   -0.00079448   -0.00040302
     atom   63 type  1   force =     0.00255209    0.00115939   -0.00057522
     atom   64 type  1   force =    -0.00286334    0.00079448    0.00040302
     atom   65 type  1   force =    -0.00578601   -0.00236283    0.00178236
     atom   66 type  1   force =     0.00580998   -0.00234555   -0.00182921
     atom   67 type  1   force =     0.00578601    0.00236283   -0.00178236
     atom   68 type  1   force =    -0.00580998    0.00234555    0.00182921
     atom   69 type  3   force =    -0.00002766   -0.00170881    0.00099978
     atom   70 type  3   force =     0.00002122   -0.00171091   -0.00099359
     atom   71 type  3   force =     0.00002766    0.00170881   -0.00099978
     atom   72 type  3   force =    -0.00002122    0.00171091    0.00099359
     atom   73 type  3   force =     0.00071550   -0.00037006   -0.00015600
     atom   74 type  3   force =    -0.00072071   -0.00037921    0.00016410
     atom   75 type  3   force =    -0.00071550    0.00037006    0.00015600
     atom   76 type  3   force =     0.00072071    0.00037921   -0.00016410
     atom   77 type  1   force =    -0.00174527    0.00034047    0.00234683
     atom   78 type  1   force =     0.00176404    0.00030160   -0.00238353
     atom   79 type  1   force =     0.00174527   -0.00034047   -0.00234683
     atom   80 type  1   force =    -0.00176404   -0.00030160    0.00238353
     atom   81 type  3   force =     0.00268039   -0.00169716    0.00159892
     atom   82 type  3   force =    -0.00267741   -0.00169348   -0.00157976
     atom   83 type  3   force =    -0.00268039    0.00169716   -0.00159892
     atom   84 type  3   force =     0.00267741    0.00169348    0.00157976
     atom   85 type  3   force =     0.00038076   -0.00075519    0.00068575
     atom   86 type  3   force =    -0.00038938   -0.00075045   -0.00067962
     atom   87 type  3   force =    -0.00038076    0.00075519   -0.00068575
     atom   88 type  3   force =     0.00038938    0.00075045    0.00067962
     atom   89 type  4   force =    -0.00204003    0.00327497   -0.00508888
     atom   90 type  4   force =     0.00205262    0.00330743    0.00510741
     atom   91 type  4   force =     0.00204003   -0.00327497    0.00508888
     atom   92 type  4   force =    -0.00205262   -0.00330743   -0.00510741
     atom   93 type  3   force =     0.00052572   -0.00168987    0.00113776
     atom   94 type  3   force =    -0.00053806   -0.00171874   -0.00114861
     atom   95 type  3   force =    -0.00052572    0.00168987   -0.00113776
     atom   96 type  3   force =     0.00053806    0.00171874    0.00114861

     Total force =     0.047009     Total SCF correction =     0.000091


     Computing stress (Cartesian axis) and pressure

          total   stress  (Ry/bohr**3)                   (kbar)     P=  -13.30
  -0.00010057  -0.00000014  -0.00004186        -14.79     -0.02     -6.16
  -0.00000014  -0.00010664  -0.00000026         -0.02    -15.69     -0.04
  -0.00004186  -0.00000026  -0.00006396         -6.16     -0.04     -9.41


     Writing output data file scf.save
 
     init_run     :     62.03s CPU     65.15s WALL (       1 calls)
     electrons    :   2365.59s CPU   2491.24s WALL (       1 calls)
     forces       :     28.74s CPU     28.99s WALL (       1 calls)
     stress       :    226.59s CPU    227.21s WALL (       1 calls)

     Called by init_run:
     wfcinit      :     50.72s CPU     53.69s WALL (       1 calls)
     potinit      :      4.00s CPU      4.03s WALL (       1 calls)

     Called by electrons:
     c_bands      :   2120.98s CPU   2228.20s WALL (      17 calls)
     sum_band     :    228.51s CPU    245.47s WALL (      17 calls)
     v_of_rho     :      2.40s CPU      2.64s WALL (      18 calls)
     newd         :      5.56s CPU      6.74s WALL (      18 calls)
     PAW_pot      :      7.36s CPU      7.37s WALL (      18 calls)
     mix_rho      :      0.66s CPU      0.71s WALL (      17 calls)

     Called by c_bands:
     init_us_2    :     14.60s CPU     14.69s WALL (     444 calls)
     cegterg      :   2058.42s CPU   2165.37s WALL (     204 calls)

     Called by sum_band:
     sum_band:bec :      0.13s CPU      0.13s WALL (     204 calls)
     addusdens    :      6.14s CPU      7.30s WALL (      17 calls)

     Called by *egterg:
     h_psi        :   1168.57s CPU   1252.81s WALL (     920 calls)
     s_psi        :    186.93s CPU    186.94s WALL (     920 calls)
     g_psi        :      6.64s CPU      6.64s WALL (     704 calls)
     cdiaghg      :    126.67s CPU    126.69s WALL (     908 calls)

     Called by h_psi:
     h_psi:pot    :   1158.39s CPU   1242.45s WALL (     920 calls)
     h_psi:calbec :    201.36s CPU    201.89s WALL (     920 calls)
     vloc_psi     :    770.42s CPU    853.83s WALL (     920 calls)
     add_vuspsi   :    186.61s CPU    186.72s WALL (     920 calls)

     General routines
     calbec       :    300.72s CPU    301.56s WALL (    1184 calls)
     fft          :      4.91s CPU      5.29s WALL (     258 calls)
     fftw         :    825.24s CPU    923.67s WALL (  280596 calls)
 
     Parallel routines
     fft_scatter  :    222.62s CPU    315.92s WALL (  280854 calls)
 
     PWSCF        : 44m57.91s CPU    48m38.01s WALL

 
   This run was terminated on:  12:42:19  20Dec2017            

=------------------------------------------------------------------------------=
   JOB DONE.
=------------------------------------------------------------------------------=
