
     Program PWSCF v.6.1 (svn rev. 13369) starts on  7Dec2017 at  1:51:33 

     This program is part of the open-source Quantum ESPRESSO suite
     for quantum simulation of materials; please cite
         "P. Giannozzi et al., J. Phys.:Condens. Matter 21 395502 (2009);
          URL http://www.quantum-espresso.org", 
     in publications or presentations arising from this work. More details at
     http://www.quantum-espresso.org/quote

     Parallel version (MPI), running on     8 processors
     R & G space division:  proc/nbgrp/npool/nimage =       8
     Waiting for input...
     Reading input from standard input

     Current dimensions of program PWSCF are:
     Max number of different atomic species (ntypx) = 10
     Max number of k-points (npk) =  40000
     Max angular momentum in pseudopotentials (lmaxx) =  3
               file C.pbe-n-kjpaw_psl.0.1.UPF: wavefunction(s)  2P renormalized
               file N.pbe-n-kjpaw_psl.0.1.UPF: wavefunction(s)  2P renormalized
               file H.pbe-kjpaw_psl.0.1.UPF: wavefunction(s)  1S renormalized
               file O.pbe-n-kjpaw_psl.0.1.UPF: wavefunction(s)  2P renormalized

     -------------------------------------
     Parameters for Dispersion Correction:
     -------------------------------------
       atom      VdW radius       C_6     

        C          2.744         60.710
        N          2.640         42.670
        H          1.892          4.857
        O          2.536         24.284

     Subspace diagonalization in iterative solution of the eigenvalue problem:
     a serial algorithm will be used

 
     Parallelization info
     --------------------
     sticks:   dense  smooth     PW     G-vecs:    dense   smooth      PW
     Min        1290    1290    338               193901   193901   26076
     Max        1292    1292    340               193903   193903   26079
     Sum       10329   10329   2713              1551213  1551213  208623
 


     bravais-lattice index     =            0
     lattice parameter (alat)  =      16.9907  a.u.
     unit-cell volume          =   11484.5368 (a.u.)^3
     number of atoms/cell      =          172
     number of atomic types    =            4
     number of electrons       =       440.00
     number of Kohn-Sham states=          264
     kinetic-energy cutoff     =     100.0000  Ry
     charge density cutoff     =     400.0000  Ry
     convergence threshold     =      1.0E-08
     mixing beta               =       0.5000
     number of iterations used =            8  plain     mixing
     Exchange-correlation      =  SLA  PW   PBX  PBC ( 1  4  3  4 0 0)

     celldm(1)=  16.990717  celldm(2)=   0.000000  celldm(3)=   0.000000
     celldm(4)=   0.000000  celldm(5)=   0.000000  celldm(6)=   0.000000

     crystal axes: (cart. coord. in units of alat)
               a(1) = (   1.000000   0.000000   0.000000 )  
               a(2) = (   0.000000   1.123667   0.000000 )  
               a(3) = (   0.000000   0.000000   2.083727 )  

     reciprocal axes: (cart. coord. in units 2 pi/alat)
               b(1) = (  1.000000  0.000000  0.000000 )  
               b(2) = (  0.000000  0.889944  0.000000 )  
               b(3) = (  0.000000  0.000000  0.479909 )  


     PseudoPot. # 1 for  C read from file:
     /scratch/ahofstet/pseudo/C.pbe-n-kjpaw_psl.0.1.UPF
     MD5 check sum: 430fe95172b1e11ef3f8ed03bac87931
     Pseudo is Projector augmented-wave + core cor, Zval =  4.0
     Generated using "atomic" code by A. Dal Corso  v.5.0.99 svn rev. 10869
     Shape of augmentation charge: BESSEL
     Using radial grid of 1073 points,  4 beta functions with: 
                l(1) =   0
                l(2) =   0
                l(3) =   1
                l(4) =   1
     Q(r) pseudized with 0 coefficients 


     PseudoPot. # 2 for  N read from file:
     /scratch/ahofstet/pseudo/N.pbe-n-kjpaw_psl.0.1.UPF
     MD5 check sum: f73187c8b701007e77325f868c9291d7
     Pseudo is Projector augmented-wave + core cor, Zval =  5.0
     Generated using "atomic" code by A. Dal Corso  v.5.0.99 svn rev. 10869
     Shape of augmentation charge: PSQ
     Using radial grid of 1085 points,  4 beta functions with: 
                l(1) =   0
                l(2) =   0
                l(3) =   1
                l(4) =   1
     Q(r) pseudized with 0 coefficients 


     PseudoPot. # 3 for  H read from file:
     /scratch/ahofstet/pseudo/H.pbe-kjpaw_psl.0.1.UPF
     MD5 check sum: 94e484f906d9e9773b2f6e52662335b2
     Pseudo is Projector augmented-wave, Zval =  1.0
     Generated using "atomic" code by A. Dal Corso  v.5.0.99 svn rev. 10869
     Shape of augmentation charge: PSQ
     Using radial grid of  929 points,  2 beta functions with: 
                l(1) =   0
                l(2) =   0
     Q(r) pseudized with 0 coefficients 


     PseudoPot. # 4 for  O read from file:
     /scratch/ahofstet/pseudo/O.pbe-n-kjpaw_psl.0.1.UPF
     MD5 check sum: 3f94a2996a3169367d6eb21d9b593f20
     Pseudo is Projector augmented-wave + core cor, Zval =  6.0
     Generated using "atomic" code by A. Dal Corso  v.5.0.99 svn rev. 10869
     Shape of augmentation charge: BESSEL
     Using radial grid of 1095 points,  4 beta functions with: 
                l(1) =   0
                l(2) =   0
                l(3) =   1
                l(4) =   1
     Q(r) pseudized with 0 coefficients 


     atomic species   valence    mass     pseudopotential
        C              4.00    12.01070      C( 1.00)
        N              5.00    14.00670      N( 1.00)
        H              1.00     1.00794      H( 1.00)
        O              6.00    15.99940      O( 1.00)

     No symmetry found
          (note:  3 additional sym.ops. were found but ignored
           their fractional translations are incommensurate with FFT grid)


   Cartesian axes

     site n.     atom                  positions (alat units)
         1           N   tau(   1) = (   0.8102419   0.0875023   0.2627798  )
         2           N   tau(   2) = (   0.6897581   1.0361644   1.3046434  )
         3           N   tau(   3) = (   0.1897581   0.6493357   0.7790838  )
         4           N   tau(   4) = (   0.3102419   0.4743310   1.8209474  )
         5           C   tau(   5) = (   0.8588237  -0.0009343   0.1351319  )
         6           C   tau(   6) = (   0.6411763   1.1246011   1.1769955  )
         7           C   tau(   7) = (   0.1411763   0.5608991   0.9067317  )
         8           C   tau(   8) = (   0.3588237   0.5627677   1.9485953  )
         9           H   tau(   9) = (   0.7823960   1.0269361   0.1246616  )
        10           H   tau(  10) = (   0.7176040   0.0967307   1.1665252  )
        11           H   tau(  11) = (   0.2176040   0.4651027   0.9172021  )
        12           H   tau(  12) = (   0.2823960   0.6585640   1.9590657  )
        13           C   tau(  13) = (   0.0140500   1.0625962   0.1568426  )
        14           C   tau(  14) = (   0.4859500   0.0610706   1.1987063  )
        15           C   tau(  15) = (   0.9859500   0.5007628   0.8850210  )
        16           C   tau(  16) = (   0.5140500   0.6229040   1.9268846  )
        17           H   tau(  17) = (   0.0800544   1.1108169   0.2466945  )
        18           H   tau(  18) = (   0.4199456   0.0128498   1.2885581  )
        19           H   tau(  19) = (   0.9199456   0.5489836   0.7951691  )
        20           H   tau(  20) = (   0.5800544   0.5746832   1.8370328  )
        21           C   tau(  21) = (   0.0691586   0.9499103   0.0728542  )
        22           C   tau(  22) = (   0.4308414   0.1737564   1.1147178  )
        23           C   tau(  23) = (   0.9308414   0.3880770   0.9690094  )
        24           C   tau(  24) = (   0.5691586   0.7355898   2.0108730  )
        25           H   tau(  25) = (   0.1759449   0.9011713   0.1051692  )
        26           H   tau(  26) = (   0.3240551   0.2224954   1.1470328  )
        27           H   tau(  27) = (   0.8240551   0.3393379   0.9366945  )
        28           H   tau(  28) = (   0.6759449   0.7843288   1.9785581  )
        29           C   tau(  29) = (   0.0020208   0.8915708   2.0237411  )
        30           C   tau(  30) = (   0.4979792   0.2320959   0.9818775  )
        31           C   tau(  31) = (   0.9979792   0.3297374   1.1018498  )
        32           C   tau(  32) = (   0.5020208   0.7939293   0.0599862  )
        33           H   tau(  33) = (   0.0353336   0.7799356   1.9887444  )
        34           H   tau(  34) = (   0.4646664   0.3437312   0.9468807  )
        35           H   tau(  35) = (   0.9646664   0.2181022   1.1368465  )
        36           H   tau(  36) = (   0.5353336   0.9055645   0.0949829  )
        37           C   tau(  37) = (   0.9175454   0.9719596   1.9250251  )
        38           C   tau(  38) = (   0.5824546   0.1517071   0.8831615  )
        39           C   tau(  39) = (   0.0824546   0.4101262   1.2005657  )
        40           C   tau(  40) = (   0.4175454   0.7135405   0.1587021  )
        41           H   tau(  41) = (   0.8922736   0.9185768   1.8185476  )
        42           H   tau(  42) = (   0.6077264   0.2050899   0.7766839  )
        43           H   tau(  43) = (   0.1077264   0.3567434   1.3070433  )
        44           H   tau(  44) = (   0.3922736   0.7669233   0.2651797  )
        45           C   tau(  45) = (   0.8815878   0.0033172   1.9397177  )
        46           C   tau(  46) = (   0.6184122   1.1203495   0.8978541  )
        47           C   tau(  47) = (   0.1184122   0.5651506   1.1858731  )
        48           C   tau(  48) = (   0.3815878   0.5585162   0.1440095  )
        49           H   tau(  49) = (   0.8706394   0.0663287   1.8362429  )
        50           H   tau(  50) = (   0.6293606   1.0573381   0.7943793  )
        51           H   tau(  51) = (   0.1293606   0.6281620   1.2893480  )
        52           H   tau(  52) = (   0.3706394   0.4955047   0.2474843  )
        53           C   tau(  53) = (   0.8652267   0.0778642   2.0699450  )
        54           C   tau(  54) = (   0.6347733   1.0458025   1.0280813  )
        55           C   tau(  55) = (   0.1347733   0.6396976   1.0556459  )
        56           C   tau(  56) = (   0.3652267   0.4839691   0.0137823  )
        57           H   tau(  57) = (   0.8554718   0.1989487   2.0692264  )
        58           H   tau(  58) = (   0.6445282   0.9247180   1.0273627  )
        59           H   tau(  59) = (   0.1445282   0.7607821   1.0563645  )
        60           H   tau(  60) = (   0.3554718   0.3628846   0.0145009  )
        61           C   tau(  61) = (   0.8740727   0.2365313   0.2754732  )
        62           C   tau(  62) = (   0.6259273   0.8871354   1.3173369  )
        63           C   tau(  63) = (   0.1259273   0.7983647   0.7663904  )
        64           C   tau(  64) = (   0.3740727   0.3253021   1.8082540  )
        65           H   tau(  65) = (   0.9831692   0.2352581   0.2187186  )
        66           H   tau(  66) = (   0.5168308   0.8884087   1.2605823  )
        67           H   tau(  67) = (   0.0168308   0.7970914   0.8231450  )
        68           H   tau(  68) = (   0.4831692   0.3265753   1.8650086  )
        69           C   tau(  69) = (   0.7839715   0.3636327   0.2107365  )
        70           C   tau(  70) = (   0.7160285   0.7600341   1.2526002  )
        71           C   tau(  71) = (   0.2160285   0.9254660   0.8311271  )
        72           C   tau(  72) = (   0.2839715   0.1982007   1.8729907  )
        73           H   tau(  73) = (   0.6676146   0.3434228   0.1819005  )
        74           H   tau(  74) = (   0.8323854   0.7802439   1.2237641  )
        75           H   tau(  75) = (   0.3323854   0.9052562   0.8599632  )
        76           H   tau(  76) = (   0.1676146   0.2184106   1.9018268  )
        77           C   tau(  77) = (   0.8451948   0.4996065   0.1866207  )
        78           C   tau(  78) = (   0.6548052   0.6240602   1.2284843  )
        79           C   tau(  79) = (   0.1548052   1.0614399   0.8552430  )
        80           C   tau(  80) = (   0.3451948   0.0622269   1.8971066  )
        81           H   tau(  81) = (   0.7794312   0.5821160   0.1258856  )
        82           H   tau(  82) = (   0.7205688   0.5415508   1.1677493  )
        83           H   tau(  83) = (   0.2205688   0.0202826   0.9159780  )
        84           H   tau(  84) = (   0.2794312   1.1033841   1.9578416  )
        85           C   tau(  85) = (   0.9889294   0.5463329   0.2390241  )
        86           C   tau(  86) = (   0.5110706   0.5773338   1.2808877  )
        87           C   tau(  87) = (   0.0110706   1.1081663   0.8028396  )
        88           C   tau(  88) = (   0.4889294   0.0155005   1.8447032  )
        89           H   tau(  89) = (   0.0405822   0.6405267   0.1819926  )
        90           H   tau(  90) = (   0.4594178   0.4831400   1.2238562  )
        91           H   tau(  91) = (   0.9594178   0.0786933   0.8598710  )
        92           H   tau(  92) = (   0.5405822   1.0449734   1.9017346  )
        93           C   tau(  93) = (   0.0558000   0.4976547   0.3675004  )
        94           C   tau(  94) = (   0.4442000   0.6260121   1.4093640  )
        95           C   tau(  95) = (   0.9442000   1.0594880   0.6743632  )
        96           C   tau(  96) = (   0.5558000   0.0641787   1.7162269  )
        97           H   tau(  97) = (   0.1568128   0.5550711   0.4031138  )
        98           H   tau(  98) = (   0.3431872   0.5685956   1.4449774  )
        99           H   tau(  99) = (   0.8431872   1.1169045   0.6387499  )
       100           H   tau( 100) = (   0.6568128   0.0067622   1.6806135  )
       101           C   tau( 101) = (   0.9936028   0.3932666   0.4712378  )
       102           C   tau( 102) = (   0.5063972   0.7304001   1.5131014  )
       103           C   tau( 103) = (   0.0063972   0.9551000   0.5706258  )
       104           C   tau( 104) = (   0.4936028   0.1685667   1.6124894  )
       105           H   tau( 105) = (   0.0219058   0.4102900   0.5883528  )
       106           H   tau( 106) = (   0.4780942   0.7133768   1.6302164  )
       107           H   tau( 107) = (   0.9780942   0.9721233   0.4535108  )
       108           H   tau( 108) = (   0.5219058   0.1515434   1.4953744  )
       109           C   tau( 109) = (   0.9008797   0.2799863   0.4350057  )
       110           C   tau( 110) = (   0.5991203   0.8436804   1.4768693  )
       111           C   tau( 111) = (   0.0991203   0.8418197   0.6068579  )
       112           C   tau( 112) = (   0.4008797   0.2818471   1.6487215  )
       113           H   tau( 113) = (   0.8467463   0.2136718   0.5210463  )
       114           H   tau( 114) = (   0.6532537   0.9099950   1.5629099  )
       115           H   tau( 115) = (   0.1532537   0.7755051   0.5208173  )
       116           H   tau( 116) = (   0.3467463   0.3481616   1.5626810  )
       117           C   tau( 117) = (   0.6547715   0.0742715   0.3071682  )
       118           C   tau( 118) = (   0.8452285   1.0493952   1.3490318  )
       119           C   tau( 119) = (   0.3452285   0.6361049   0.7346954  )
       120           C   tau( 120) = (   0.1547715   0.4875618   1.7765591  )
       121           H   tau( 121) = (   0.6328949   0.1626108   0.3900370  )
       122           H   tau( 122) = (   0.8671051   0.9610559   1.4319006  )
       123           H   tau( 123) = (   0.3671051   0.7244442   0.6518266  )
       124           H   tau( 124) = (   0.1328949   0.3992225   1.6936903  )
       125           C   tau( 125) = (   0.6204409   1.0517566   0.3817151  )
       126           C   tau( 126) = (   0.8795591   0.0719101   1.4235787  )
       127           C   tau( 127) = (   0.3795591   0.4899232   0.6601485  )
       128           C   tau( 128) = (   0.1204409   0.6337435   1.7020122  )
       129           H   tau( 129) = (   0.6999877   0.9608989   0.3685223  )
       130           H   tau( 130) = (   0.8000123   0.1627679   1.4103859  )
       131           H   tau( 131) = (   0.3000123   0.3990655   0.6733414  )
       132           H   tau( 132) = (   0.1999877   0.7246013   1.7152050  )
       133           C   tau( 133) = (   0.4976219   1.0351907   0.4680816  )
       134           C   tau( 134) = (   1.0023781   0.0884760   1.5099453  )
       135           C   tau( 135) = (   0.5023781   0.4733574   0.5737820  )
       136           C   tau( 136) = (  -0.0023781   0.6503094   1.6156456  )
       137           H   tau( 137) = (   0.4875306   0.9330714   0.5336080  )
       138           H   tau( 138) = (   0.0124694   0.1905953   1.5754716  )
       139           H   tau( 139) = (   0.5124694   0.3712381   0.5082556  )
       140           H   tau( 140) = (   0.9875306   0.7524287   1.5501193  )
       141           C   tau( 141) = (   0.3775713   0.0167470   0.4794076  )
       142           C   tau( 142) = (   0.1224287   1.1069197   1.5212712  )
       143           C   tau( 143) = (   0.6224287   0.5785804   0.5624560  )
       144           C   tau( 144) = (   0.8775713   0.5450864   1.6043196  )
       145           H   tau( 145) = (   0.3068972   0.0082614   0.5779984  )
       146           H   tau( 146) = (   0.1931028   1.1154053   1.6198620  )
       147           H   tau( 147) = (   0.6931028   0.5700948   0.4638653  )
       148           H   tau( 148) = (   0.8068972   0.5535720   1.5057289  )
       149           C   tau( 149) = (   0.3311351   0.1103630   0.3676755  )
       150           C   tau( 150) = (   0.1688649   1.0133037   1.4095391  )
       151           C   tau( 151) = (   0.6688649   0.6721964   0.6741881  )
       152           C   tau( 152) = (   0.8311351   0.4514703   1.7160518  )
       153           H   tau( 153) = (   0.2273383   0.1713019   0.3863603  )
       154           H   tau( 154) = (   0.2726617   0.9523648   1.4282239  )
       155           H   tau( 155) = (   0.7726617   0.7331353   0.6555034  )
       156           H   tau( 156) = (   0.7273383   0.3905315   1.6973670  )
       157           C   tau( 157) = (   0.3940623   0.1169880   0.2205984  )
       158           C   tau( 158) = (   0.1059377   1.0066788   1.2624621  )
       159           C   tau( 159) = (   0.6059377   0.6788213   0.8212652  )
       160           C   tau( 160) = (   0.8940623   0.4448454   1.8631288  )
       161           H   tau( 161) = (   0.3170871   0.1406514   0.1294230  )
       162           H   tau( 162) = (   0.1829129   0.9830153   1.1712866  )
       163           H   tau( 163) = (   0.6829129   0.7024848   0.9124406  )
       164           H   tau( 164) = (   0.8170871   0.4211820   1.9543042  )
       165           C   tau( 165) = (   0.5384793   0.0898723   0.1863928  )
       166           C   tau( 166) = (   0.9615207   1.0337945   1.2282565  )
       167           C   tau( 167) = (   0.4615207   0.6517056   0.8554708  )
       168           C   tau( 168) = (   0.0384793   0.4719611   1.8973344  )
       169           H   tau( 169) = (   0.5739174   0.0815604   0.0703440  )
       170           H   tau( 170) = (   0.9260826   1.0421064   1.1122076  )
       171           H   tau( 171) = (   0.4260826   0.6433938   0.9715196  )
       172           H   tau( 172) = (   0.0739174   0.4802730   2.0133832  )

     number of k points=     4
                       cart. coord. in units 2pi/alat
        k(    1) = (   0.0000000   0.0000000   0.0000000), wk =   0.5000000
        k(    2) = (   0.0000000  -0.4449718   0.0000000), wk =   0.5000000
        k(    3) = (  -0.5000000   0.0000000   0.0000000), wk =   0.5000000
        k(    4) = (  -0.5000000  -0.4449718   0.0000000), wk =   0.5000000

     Dense  grid:  1551213 G-vectors     FFT dimensions: ( 120, 125, 225)

     Estimated max dynamical RAM per process >    1746.02MB

     Estimated total allocated dynamical RAM >   13968.16MB

     Check: negative/imaginary core charge=   -0.000002    0.000000

     Initial potential from superposition of free atoms

     starting charge  439.99568, renormalised to  440.00000
     Starting wfc are  436 randomized atomic wfcs
     Checking if some PAW data can be deallocated... 

     total cpu time spent up to now is       75.3 secs

     per-process dynamical memory:   987.6 Mb

     Self-consistent Calculation

     iteration #  1     ecut=   100.00 Ry     beta=0.50
     Davidson diagonalization with overlap
     ethr =  1.00E-02,  avg # of iterations =  5.0

     total cpu time spent up to now is      270.5 secs

     total energy              =   -1757.53805267 Ry
     Harris-Foulkes estimate   =   -1766.93072204 Ry
     estimated scf accuracy    <      18.08100299 Ry

     iteration #  2     ecut=   100.00 Ry     beta=0.50
     Davidson diagonalization with overlap
     ethr =  4.11E-03,  avg # of iterations =  1.0

     total cpu time spent up to now is      365.9 secs

     total energy              =   -1756.31062866 Ry
     Harris-Foulkes estimate   =   -1758.24510972 Ry
     estimated scf accuracy    <       3.13845107 Ry

     iteration #  3     ecut=   100.00 Ry     beta=0.50
     Davidson diagonalization with overlap
     ethr =  7.13E-04,  avg # of iterations =  5.0

     total cpu time spent up to now is      611.3 secs

     total energy              =   -1761.90868860 Ry
     Harris-Foulkes estimate   =   -1762.77928435 Ry
     estimated scf accuracy    <       8.24784889 Ry

     iteration #  4     ecut=   100.00 Ry     beta=0.50
     Davidson diagonalization with overlap
     ethr =  7.13E-04,  avg # of iterations =  1.0

     total cpu time spent up to now is      706.7 secs

     total energy              =   -1763.81852503 Ry
     Harris-Foulkes estimate   =   -1761.92356679 Ry
     estimated scf accuracy    <       6.71506496 Ry

     iteration #  5     ecut=   100.00 Ry     beta=0.50
     Davidson diagonalization with overlap
     ethr =  7.13E-04,  avg # of iterations =  1.0

     total cpu time spent up to now is      802.1 secs

     total energy              =   -1756.33034104 Ry
     Harris-Foulkes estimate   =   -1763.86601676 Ry
     estimated scf accuracy    <       9.84474727 Ry

     iteration #  6     ecut=   100.00 Ry     beta=0.50
     Davidson diagonalization with overlap
     ethr =  7.13E-04,  avg # of iterations =  5.0

     total cpu time spent up to now is     1030.3 secs

     total energy              =   -1760.64440556 Ry
     Harris-Foulkes estimate   =   -1762.15311609 Ry
     estimated scf accuracy    <       5.88772966 Ry

     iteration #  7     ecut=   100.00 Ry     beta=0.50
     Davidson diagonalization with overlap
     ethr =  7.13E-04,  avg # of iterations =  1.0

     total cpu time spent up to now is     1125.6 secs

     total energy              =   -1759.85931052 Ry
     Harris-Foulkes estimate   =   -1760.69699919 Ry
     estimated scf accuracy    <       3.48318557 Ry

     iteration #  8     ecut=   100.00 Ry     beta=0.50
     Davidson diagonalization with overlap
     ethr =  7.13E-04,  avg # of iterations =  2.0

     total cpu time spent up to now is     1226.7 secs

     total energy              =   -1759.32563357 Ry
     Harris-Foulkes estimate   =   -1760.06584091 Ry
     estimated scf accuracy    <       1.48049999 Ry

     iteration #  9     ecut=   100.00 Ry     beta=0.50
     Davidson diagonalization with overlap
     ethr =  3.36E-04,  avg # of iterations =  6.0

     total cpu time spent up to now is     1408.0 secs

     total energy              =   -1760.04058662 Ry
     Harris-Foulkes estimate   =   -1760.09378257 Ry
     estimated scf accuracy    <       0.09426905 Ry

     iteration # 10     ecut=   100.00 Ry     beta=0.50
     Davidson diagonalization with overlap
     c_bands:  1 eigenvalues not converged
     c_bands:  1 eigenvalues not converged
     ethr =  2.14E-05,  avg # of iterations = 16.5

     total cpu time spent up to now is     1572.4 secs

     total energy              =   -1760.05159650 Ry
     Harris-Foulkes estimate   =   -1760.05719816 Ry
     estimated scf accuracy    <       0.00811428 Ry

     iteration # 11     ecut=   100.00 Ry     beta=0.50
     Davidson diagonalization with overlap
     ethr =  1.84E-06,  avg # of iterations =  5.0

     total cpu time spent up to now is     1816.5 secs

     total energy              =   -1760.05604726 Ry
     Harris-Foulkes estimate   =   -1760.08875039 Ry
     estimated scf accuracy    <       0.06078343 Ry

     iteration # 12     ecut=   100.00 Ry     beta=0.50
     Davidson diagonalization with overlap
     ethr =  1.84E-06,  avg # of iterations =  5.0

     total cpu time spent up to now is     2040.3 secs

     total energy              =   -1760.06940861 Ry
     Harris-Foulkes estimate   =   -1760.06863335 Ry
     estimated scf accuracy    <       0.00066058 Ry

     iteration # 13     ecut=   100.00 Ry     beta=0.50
     Davidson diagonalization with overlap
     ethr =  1.50E-07,  avg # of iterations =  8.8

     total cpu time spent up to now is     2268.9 secs

     total energy              =   -1760.06875692 Ry
     Harris-Foulkes estimate   =   -1760.07027514 Ry
     estimated scf accuracy    <       0.00532882 Ry

     iteration # 14     ecut=   100.00 Ry     beta=0.50
     Davidson diagonalization with overlap
     ethr =  1.50E-07,  avg # of iterations =  4.0

     total cpu time spent up to now is     2388.9 secs

     total energy              =   -1760.06857097 Ry
     Harris-Foulkes estimate   =   -1760.06889106 Ry
     estimated scf accuracy    <       0.00233442 Ry

     iteration # 15     ecut=   100.00 Ry     beta=0.50
     Davidson diagonalization with overlap
     ethr =  1.50E-07,  avg # of iterations =  4.0

     total cpu time spent up to now is     2515.2 secs

     total energy              =   -1760.06840371 Ry
     Harris-Foulkes estimate   =   -1760.06870110 Ry
     estimated scf accuracy    <       0.00122491 Ry

     iteration # 16     ecut=   100.00 Ry     beta=0.50
     Davidson diagonalization with overlap
     ethr =  1.50E-07,  avg # of iterations =  3.2

     total cpu time spent up to now is     2620.8 secs

     total energy              =   -1760.06801043 Ry
     Harris-Foulkes estimate   =   -1760.06844694 Ry
     estimated scf accuracy    <       0.00060905 Ry

     iteration # 17     ecut=   100.00 Ry     beta=0.50
     Davidson diagonalization with overlap
     ethr =  1.38E-07,  avg # of iterations =  9.2

     total cpu time spent up to now is     2833.8 secs

     total energy              =   -1760.06836684 Ry
     Harris-Foulkes estimate   =   -1760.06852675 Ry
     estimated scf accuracy    <       0.00039056 Ry

     iteration # 18     ecut=   100.00 Ry     beta=0.50
     Davidson diagonalization with overlap
     ethr =  8.88E-08,  avg # of iterations =  1.0

     total cpu time spent up to now is     2929.1 secs

     total energy              =   -1760.06833242 Ry
     Harris-Foulkes estimate   =   -1760.06838092 Ry
     estimated scf accuracy    <       0.00013076 Ry

     iteration # 19     ecut=   100.00 Ry     beta=0.50
     Davidson diagonalization with overlap
     ethr =  2.97E-08,  avg # of iterations =  4.0

     total cpu time spent up to now is     3103.1 secs

     total energy              =   -1760.06840274 Ry
     Harris-Foulkes estimate   =   -1760.06840029 Ry
     estimated scf accuracy    <       0.00000444 Ry

     iteration # 20     ecut=   100.00 Ry     beta=0.50
     Davidson diagonalization with overlap
     ethr =  1.01E-09,  avg # of iterations =  3.0

     total cpu time spent up to now is     3212.2 secs

     total energy              =   -1760.06840069 Ry
     Harris-Foulkes estimate   =   -1760.06840338 Ry
     estimated scf accuracy    <       0.00000866 Ry

     iteration # 21     ecut=   100.00 Ry     beta=0.50
     Davidson diagonalization with overlap
     ethr =  1.01E-09,  avg # of iterations =  1.0

     total cpu time spent up to now is     3307.0 secs

     total energy              =   -1760.06839932 Ry
     Harris-Foulkes estimate   =   -1760.06840086 Ry
     estimated scf accuracy    <       0.00000469 Ry

     iteration # 22     ecut=   100.00 Ry     beta=0.50
     Davidson diagonalization with overlap
     ethr =  1.01E-09,  avg # of iterations =  2.2

     total cpu time spent up to now is     3404.9 secs

     total energy              =   -1760.06839864 Ry
     Harris-Foulkes estimate   =   -1760.06839956 Ry
     estimated scf accuracy    <       0.00000192 Ry

     iteration # 23     ecut=   100.00 Ry     beta=0.50
     Davidson diagonalization with overlap
     ethr =  4.36E-10,  avg # of iterations =  5.2

     total cpu time spent up to now is     3583.5 secs

     total energy              =   -1760.06839951 Ry
     Harris-Foulkes estimate   =   -1760.06839953 Ry
     estimated scf accuracy    <       0.00000011 Ry

     iteration # 24     ecut=   100.00 Ry     beta=0.50
     Davidson diagonalization with overlap
     ethr =  2.55E-11,  avg # of iterations =  3.5

     total cpu time spent up to now is     3695.7 secs

     total energy              =   -1760.06839950 Ry
     Harris-Foulkes estimate   =   -1760.06839953 Ry
     estimated scf accuracy    <       0.00000009 Ry

     iteration # 25     ecut=   100.00 Ry     beta=0.50
     Davidson diagonalization with overlap
     ethr =  1.94E-11,  avg # of iterations =  4.0

     total cpu time spent up to now is     3814.9 secs

     End of self-consistent calculation

          k = 0.0000 0.0000 0.0000 (193939 PWs)   bands (ev):

   -17.8135 -17.8112 -17.8109 -17.8088 -15.3387 -15.3274 -15.3173 -15.3167
   -15.3110 -15.3032 -15.2950 -15.2878 -14.8996 -14.8617 -14.8263 -14.7994
   -13.4184 -13.4180 -13.4137 -13.4098 -13.3760 -13.3607 -13.3595 -13.3416
   -13.3360 -13.3220 -13.2902 -13.2843 -13.2681 -13.2598 -13.2443 -13.2410
   -13.2180 -13.2174 -13.2074 -13.2045 -12.4180 -12.3881 -12.3858 -12.3578
   -10.8035 -10.7918 -10.7772 -10.7716 -10.7659 -10.7504 -10.7429 -10.7289
   -10.1127 -10.0710 -10.0530 -10.0043  -9.8448  -9.8089  -9.7995  -9.7892
    -9.7814  -9.7640  -9.7637  -9.7633  -9.4461  -9.4432  -9.4289  -9.4006
    -8.1063  -8.0520  -8.0491  -8.0433  -8.0067  -7.9938  -7.9800  -7.9443
    -7.4308  -7.3866  -7.3688  -7.3172  -7.0958  -7.0952  -7.0935  -7.0801
    -7.0493  -7.0441  -7.0277  -7.0250  -6.9681  -6.9677  -6.9521  -6.9373
    -6.5546  -6.4977  -6.4948  -6.4827  -6.4678  -6.4455  -6.3941  -6.3937
    -6.2207  -6.1993  -6.0645  -6.0611  -5.8872  -5.8769  -5.8703  -5.8354
    -5.8151  -5.7993  -5.7268  -5.6758  -5.3417  -5.3357  -5.3076  -5.2742
    -5.2625  -5.2421  -5.2388  -5.2195  -5.2132  -5.1344  -5.1339  -5.0634
    -4.8730  -4.8685  -4.8683  -4.8662  -4.7190  -4.7130  -4.6928  -4.6778
    -4.6577  -4.6552  -4.6437  -4.6366  -4.1579  -4.1108  -4.1074  -4.1007
    -4.0805  -4.0298  -4.0270  -4.0166  -3.5991  -3.5835  -3.5696  -3.5498
    -3.5436  -3.5434  -3.4992  -3.4811  -3.4234  -3.4101  -3.4081  -3.3985
    -3.3923  -3.3496  -3.3245  -3.3178  -3.3075  -3.2964  -3.2874  -3.2272
    -3.2013  -3.1847  -3.1283  -3.1051  -3.0842  -3.0775  -3.0059  -2.9936
    -2.7708  -2.7640  -2.7169  -2.6518  -2.6517  -2.6490  -2.6392  -2.6252
    -2.6113  -2.5660  -2.4988  -2.4700  -2.1178  -2.1065  -2.0345  -1.9934
    -1.9800  -1.9508  -1.8785  -1.8761  -1.8630  -1.8596  -1.8571  -1.7845
    -0.7874  -0.7514  -0.7490  -0.7469  -0.6116  -0.5959  -0.5866  -0.5395
    -0.4895  -0.4847  -0.4679  -0.4531  -0.0501  -0.0446   0.0376   0.0470
     0.1665   0.1883   0.1906   0.1914   0.2406   0.2864   0.3010   0.3486
     0.7442   0.7584   0.8244   0.8387   3.4058   3.4722   3.5075   3.5265
     3.6018   3.7025   3.7133   3.7291   3.7524   3.7525   3.7938   3.8485
     4.4649   4.4924   4.6602   4.7019   4.8889   4.9809   5.0036   5.0116
     5.0239   5.0901   5.1650   5.2552   5.2557   5.5813   5.7033   5.9783
     6.0630   6.2550   6.2950   6.3294   6.3939   6.4227   6.4476   6.5358
     6.5727   6.6150   6.6159   6.6273   6.6699   6.6957   6.7308   6.8275

          k = 0.0000-0.4450 0.0000 (193820 PWs)   bands (ev):

   -17.8118 -17.8118 -17.8103 -17.8103 -15.3366 -15.3366 -15.3204 -15.3204
   -15.3166 -15.3166 -15.2847 -15.2847 -14.8513 -14.8513 -14.8271 -14.8271
   -13.4200 -13.4200 -13.4034 -13.4034 -13.3717 -13.3717 -13.3670 -13.3670
   -13.3360 -13.3360 -13.2816 -13.2816 -13.2777 -13.2777 -13.2347 -13.2347
   -13.2130 -13.2130 -13.2025 -13.2025 -12.3999 -12.3999 -12.3688 -12.3688
   -10.8013 -10.8013 -10.7739 -10.7739 -10.7404 -10.7404 -10.7327 -10.7327
   -10.1004 -10.1004 -10.0579 -10.0579  -9.8147  -9.8147  -9.7832  -9.7832
    -9.7757  -9.7757  -9.7564  -9.7564  -9.4697  -9.4697  -9.3982  -9.3982
    -8.0679  -8.0679  -8.0446  -8.0446  -8.0065  -8.0064  -7.9832  -7.9832
    -7.3826  -7.3826  -7.3686  -7.3686  -7.1027  -7.1027  -7.0653  -7.0653
    -7.0441  -7.0441  -7.0253  -7.0253  -6.9806  -6.9806  -6.9522  -6.9522
    -6.5306  -6.5306  -6.4884  -6.4884  -6.4830  -6.4830  -6.4021  -6.4021
    -6.1237  -6.1237  -6.0333  -6.0333  -5.9244  -5.9244  -5.8243  -5.8243
    -5.7852  -5.7852  -5.7531  -5.7531  -5.3684  -5.3684  -5.2767  -5.2767
    -5.2544  -5.2544  -5.2196  -5.2196  -5.1638  -5.1638  -5.0921  -5.0921
    -4.8675  -4.8675  -4.8571  -4.8571  -4.7725  -4.7725  -4.6845  -4.6845
    -4.6561  -4.6561  -4.6260  -4.6260  -4.1300  -4.1300  -4.0750  -4.0750
    -4.0440  -4.0440  -4.0171  -4.0171  -3.5991  -3.5991  -3.5792  -3.5792
    -3.5124  -3.5124  -3.4844  -3.4844  -3.4676  -3.4676  -3.4217  -3.4217
    -3.3873  -3.3873  -3.3531  -3.3531  -3.2910  -3.2910  -3.2725  -3.2725
    -3.1523  -3.1523  -3.1050  -3.1050  -3.0615  -3.0615  -3.0148  -3.0148
    -2.7461  -2.7461  -2.7146  -2.7146  -2.6484  -2.6484  -2.6081  -2.6081
    -2.5663  -2.5663  -2.5278  -2.5278  -2.1299  -2.1299  -1.9994  -1.9994
    -1.9727  -1.9727  -1.8687  -1.8687  -1.8571  -1.8571  -1.8233  -1.8233
    -0.7575  -0.7575  -0.7209  -0.7209  -0.6010  -0.6010  -0.5713  -0.5712
    -0.5272  -0.5272  -0.4684  -0.4684  -0.0241  -0.0241   0.0454   0.0454
     0.1936   0.1936   0.2088   0.2088   0.2513   0.2513   0.2964   0.2964
     0.7827   0.7827   0.8015   0.8015   3.4800   3.4800   3.5688   3.5688
     3.5912   3.5912   3.7110   3.7110   3.7477   3.7477   3.8109   3.8109
     4.4380   4.4380   4.7400   4.7400   4.9700   4.9700   5.0408   5.0408
     5.0468   5.0468   5.2153   5.2153   5.5853   5.5853   5.7883   5.7883
     5.9770   5.9770   6.2653   6.2653   6.3202   6.3202   6.4331   6.4331
     6.4744   6.4744   6.5319   6.5319   6.7043   6.7043   6.7143   6.7146

          k =-0.5000 0.0000 0.0000 (193834 PWs)   bands (ev):

   -17.8109 -17.8109 -17.8100 -17.8100 -15.3453 -15.3453 -15.3382 -15.3382
   -15.3024 -15.3024 -15.2958 -15.2958 -14.8395 -14.8395 -14.8230 -14.8230
   -13.3983 -13.3983 -13.3898 -13.3898 -13.3888 -13.3888 -13.3636 -13.3636
   -13.3152 -13.3152 -13.3003 -13.3003 -13.2438 -13.2438 -13.2338 -13.2338
   -13.2154 -13.2154 -13.2114 -13.2114 -12.4063 -12.4063 -12.4051 -12.4051
   -10.8151 -10.8151 -10.7882 -10.7881 -10.7485 -10.7485 -10.7241 -10.7241
   -10.0608 -10.0608  -9.9923  -9.9923  -9.8515  -9.8515  -9.8353  -9.8353
    -9.7813  -9.7813  -9.7619  -9.7619  -9.4464  -9.4464  -9.4048  -9.4048
    -8.0659  -8.0659  -8.0445  -8.0445  -8.0417  -8.0417  -8.0182  -8.0182
    -7.3750  -7.3750  -7.3397  -7.3397  -7.1045  -7.1045  -7.0941  -7.0941
    -7.0625  -7.0625  -7.0256  -7.0256  -6.9721  -6.9721  -6.9297  -6.9297
    -6.4911  -6.4911  -6.4686  -6.4686  -6.4397  -6.4397  -6.3908  -6.3908
    -6.1267  -6.1267  -6.0898  -6.0898  -5.8670  -5.8670  -5.8006  -5.8006
    -5.7846  -5.7846  -5.7120  -5.7120  -5.3309  -5.3309  -5.2995  -5.2995
    -5.2489  -5.2489  -5.2154  -5.2154  -5.1639  -5.1639  -5.0845  -5.0845
    -4.8578  -4.8578  -4.8392  -4.8392  -4.7602  -4.7602  -4.7228  -4.7227
    -4.6883  -4.6882  -4.6614  -4.6614  -4.2001  -4.2001  -4.1234  -4.1233
    -4.0827  -4.0827  -4.0363  -4.0363  -3.5566  -3.5566  -3.5328  -3.5328
    -3.4906  -3.4906  -3.4746  -3.4746  -3.4458  -3.4458  -3.4179  -3.4179
    -3.4137  -3.4137  -3.3617  -3.3617  -3.3227  -3.3227  -3.2990  -3.2990
    -3.1321  -3.1321  -3.1099  -3.1099  -3.0786  -3.0785  -3.0461  -3.0461
    -2.7567  -2.7567  -2.6920  -2.6920  -2.6467  -2.6467  -2.5878  -2.5878
    -2.5714  -2.5714  -2.4933  -2.4933  -2.0538  -2.0538  -2.0189  -2.0189
    -1.9968  -1.9968  -1.9287  -1.9287  -1.8734  -1.8734  -1.8144  -1.8144
    -0.7592  -0.7592  -0.7308  -0.7308  -0.5830  -0.5830  -0.5639  -0.5639
    -0.5000  -0.5000  -0.4852  -0.4852  -0.0224  -0.0224   0.0147   0.0147
     0.1509   0.1509   0.2282   0.2282   0.2671   0.2672   0.3239   0.3240
     0.7517   0.7517   0.8367   0.8367   3.5162   3.5163   3.5516   3.5516
     3.6304   3.6304   3.6464   3.6464   3.7667   3.7667   3.8493   3.8493
     4.5229   4.5229   4.5772   4.5772   4.9883   4.9883   5.0448   5.0448
     5.1261   5.1261   5.1382   5.1382   5.6675   5.6675   5.8503   5.8504
     6.0515   6.0515   6.0989   6.0989   6.2957   6.2957   6.3506   6.3506
     6.4961   6.4961   6.5930   6.5930   6.6978   6.6978   6.7626   6.7626

          k =-0.5000-0.4450 0.0000 (193992 PWs)   bands (ev):

   -17.8105 -17.8105 -17.8104 -17.8103 -15.3453 -15.3453 -15.3362 -15.3362
   -15.3069 -15.3069 -15.3024 -15.3024 -14.8272 -14.8272 -14.8202 -14.8202
   -13.4055 -13.4055 -13.4033 -13.4033 -13.3724 -13.3724 -13.3660 -13.3660
   -13.3188 -13.3188 -13.3128 -13.3128 -13.2391 -13.2391 -13.2356 -13.2356
   -13.2108 -13.2108 -13.2070 -13.2070 -12.4049 -12.4049 -12.4036 -12.4036
   -10.7924 -10.7924 -10.7875 -10.7875 -10.7413 -10.7413 -10.7375 -10.7375
   -10.0499 -10.0499 -10.0453 -10.0453  -9.8455  -9.8455  -9.8319  -9.8319
    -9.7635  -9.7635  -9.7475  -9.7475  -9.4390  -9.4390  -9.4281  -9.4281
    -8.0967  -8.0967  -8.0608  -8.0608  -8.0230  -8.0230  -7.9984  -7.9984
    -7.3699  -7.3699  -7.3556  -7.3556  -7.0951  -7.0951  -7.0852  -7.0852
    -7.0252  -7.0252  -7.0089  -7.0089  -7.0036  -7.0036  -6.9776  -6.9776
    -6.4912  -6.4912  -6.4505  -6.4505  -6.4329  -6.4329  -6.4267  -6.4267
    -6.1150  -6.1150  -6.0200  -6.0200  -5.8894  -5.8894  -5.7876  -5.7876
    -5.7613  -5.7613  -5.7286  -5.7286  -5.3335  -5.3335  -5.3184  -5.3184
    -5.2462  -5.2462  -5.2147  -5.2147  -5.1305  -5.1305  -5.1088  -5.1088
    -4.8499  -4.8499  -4.8380  -4.8380  -4.7546  -4.7546  -4.7319  -4.7319
    -4.7073  -4.7073  -4.7023  -4.7023  -4.1608  -4.1608  -4.1504  -4.1504
    -4.0542  -4.0541  -4.0012  -4.0012  -3.6115  -3.6115  -3.5669  -3.5669
    -3.5006  -3.5006  -3.4717  -3.4717  -3.4368  -3.4368  -3.4158  -3.4158
    -3.3980  -3.3980  -3.3547  -3.3547  -3.3474  -3.3474  -3.3241  -3.3241
    -3.1033  -3.1033  -3.0753  -3.0753  -3.0577  -3.0577  -3.0546  -3.0546
    -2.7314  -2.7314  -2.6944  -2.6944  -2.6505  -2.6505  -2.6088  -2.6088
    -2.5586  -2.5586  -2.5302  -2.5302  -2.0467  -2.0467  -2.0379  -2.0379
    -1.9929  -1.9929  -1.9505  -1.9504  -1.8415  -1.8415  -1.8192  -1.8192
    -0.7260  -0.7260  -0.7087  -0.7087  -0.5819  -0.5819  -0.5654  -0.5654
    -0.5415  -0.5415  -0.5252  -0.5252   0.0089   0.0089   0.0225   0.0225
     0.1681   0.1681   0.2106   0.2106   0.2764   0.2764   0.3015   0.3016
     0.7995   0.7995   0.7995   0.7996   3.5431   3.5431   3.5977   3.5977
     3.6342   3.6342   3.6694   3.6694   3.7675   3.7675   3.7685   3.7685
     4.4860   4.4860   4.5360   4.5360   5.0201   5.0201   5.0683   5.0684
     5.1895   5.1895   5.1971   5.1971   5.7882   5.7882   5.8551   5.8551
     5.9889   5.9889   6.0574   6.0575   6.1802   6.1802   6.3155   6.3155
     6.4544   6.4544   6.4774   6.4776   6.6797   6.6804   6.7297   6.7297

     highest occupied, lowest unoccupied level (ev):     0.8387    3.4058

!    total energy              =   -1760.06839952 Ry
     Harris-Foulkes estimate   =   -1760.06839952 Ry
     estimated scf accuracy    <          5.7E-09 Ry

     total all-electron energy =     -6937.447759 Ry

     The total energy is the sum of the following terms:

     one-electron contribution =   -1049.93264633 Ry
     hartree contribution      =     673.86587181 Ry
     xc contribution           =    -427.85248545 Ry
     ewald contribution        =    -363.35106082 Ry
     Dispersion Correction     =      -0.76434482 Ry
     one-center paw contrib.   =    -592.03373392 Ry

     convergence has been achieved in  25 iterations

     Forces acting on atoms (cartesian axes, Ry/au):

     atom    1 type  2   force =     0.00006178    0.00113773   -0.00058581
     atom    2 type  2   force =    -0.00006093   -0.00113789   -0.00058567
     atom    3 type  2   force =    -0.00005960    0.00113704    0.00058664
     atom    4 type  2   force =     0.00006010   -0.00113700    0.00058540
     atom    5 type  1   force =     0.00066148   -0.00066802   -0.00089953
     atom    6 type  1   force =    -0.00066087    0.00066894   -0.00087985
     atom    7 type  1   force =    -0.00066173   -0.00066347    0.00087947
     atom    8 type  1   force =     0.00066029    0.00066539    0.00090168
     atom    9 type  3   force =    -0.00032713    0.00018173    0.00004921
     atom   10 type  3   force =     0.00032762   -0.00018134    0.00004908
     atom   11 type  3   force =     0.00032667    0.00018224   -0.00004940
     atom   12 type  3   force =    -0.00032737   -0.00018179   -0.00004886
     atom   13 type  1   force =    -0.00016290    0.00123785   -0.00015223
     atom   14 type  1   force =     0.00016423   -0.00123677   -0.00014655
     atom   15 type  1   force =     0.00016464    0.00122517    0.00014412
     atom   16 type  1   force =    -0.00016478   -0.00122440    0.00015488
     atom   17 type  3   force =     0.00073230   -0.00000710    0.00018760
     atom   18 type  3   force =    -0.00073348    0.00000649    0.00018872
     atom   19 type  3   force =    -0.00073282   -0.00000680   -0.00018808
     atom   20 type  3   force =     0.00073325    0.00000682   -0.00018846
     atom   21 type  1   force =     0.00011292   -0.00007777    0.00010542
     atom   22 type  1   force =    -0.00011039    0.00007849    0.00010918
     atom   23 type  1   force =    -0.00011284   -0.00007149   -0.00011293
     atom   24 type  1   force =     0.00011229    0.00007113   -0.00009953
     atom   25 type  3   force =    -0.00012965   -0.00011732    0.00021106
     atom   26 type  3   force =     0.00012917    0.00011816    0.00021046
     atom   27 type  3   force =     0.00012969   -0.00011717   -0.00021135
     atom   28 type  3   force =    -0.00012892    0.00011815   -0.00021023
     atom   29 type  1   force =    -0.00029939   -0.00008742    0.00106099
     atom   30 type  1   force =     0.00030092    0.00008295    0.00105447
     atom   31 type  1   force =     0.00029872   -0.00010223   -0.00105862
     atom   32 type  1   force =    -0.00030120    0.00009934   -0.00105729
     atom   33 type  3   force =     0.00036420   -0.00008406   -0.00020517
     atom   34 type  3   force =    -0.00036350    0.00008314   -0.00020654
     atom   35 type  3   force =    -0.00036437   -0.00008412    0.00020546
     atom   36 type  3   force =     0.00036400    0.00008445    0.00020658
     atom   37 type  1   force =    -0.00038293   -0.00015067    0.00014832
     atom   38 type  1   force =     0.00038226    0.00014887    0.00015798
     atom   39 type  1   force =     0.00038234   -0.00015675   -0.00015834
     atom   40 type  1   force =    -0.00038187    0.00015579   -0.00014822
     atom   41 type  3   force =     0.00029237    0.00056817    0.00080882
     atom   42 type  3   force =    -0.00029294   -0.00056960    0.00081021
     atom   43 type  3   force =    -0.00029251    0.00056840   -0.00080839
     atom   44 type  3   force =     0.00029291   -0.00056937   -0.00081046
     atom   45 type  1   force =    -0.00015328    0.00000368   -0.00011232
     atom   46 type  1   force =     0.00015312   -0.00000262   -0.00012302
     atom   47 type  1   force =     0.00015286   -0.00000295    0.00011914
     atom   48 type  1   force =    -0.00015202    0.00000625    0.00011528
     atom   49 type  3   force =    -0.00026212    0.00022872    0.00012888
     atom   50 type  3   force =     0.00026204   -0.00022763    0.00013003
     atom   51 type  3   force =     0.00026202    0.00022809   -0.00012987
     atom   52 type  3   force =    -0.00026191   -0.00022742   -0.00012943
     atom   53 type  1   force =    -0.00032849    0.00043392    0.00115600
     atom   54 type  1   force =     0.00032809   -0.00043236    0.00115520
     atom   55 type  1   force =     0.00032773    0.00043772   -0.00115904
     atom   56 type  1   force =    -0.00032784   -0.00043996   -0.00115316
     atom   57 type  3   force =     0.00014237   -0.00032228    0.00040060
     atom   58 type  3   force =    -0.00014235    0.00032134    0.00040001
     atom   59 type  3   force =    -0.00014225   -0.00032101   -0.00040111
     atom   60 type  3   force =     0.00014215    0.00032043   -0.00039995
     atom   61 type  1   force =    -0.00019905   -0.00033142   -0.00001921
     atom   62 type  1   force =     0.00019928    0.00033168   -0.00000398
     atom   63 type  1   force =     0.00019760   -0.00034643    0.00000346
     atom   64 type  1   force =    -0.00019841    0.00034571    0.00001946
     atom   65 type  3   force =     0.00012552   -0.00024856   -0.00055493
     atom   66 type  3   force =    -0.00012538    0.00024880   -0.00055547
     atom   67 type  3   force =    -0.00012586   -0.00024818    0.00055530
     atom   68 type  3   force =     0.00012580    0.00024831    0.00055533
     atom   69 type  1   force =     0.00036669   -0.00028662   -0.00020808
     atom   70 type  1   force =    -0.00036831    0.00028552   -0.00019414
     atom   71 type  1   force =    -0.00036608   -0.00029582    0.00019336
     atom   72 type  1   force =     0.00036833    0.00029513    0.00021154
     atom   73 type  3   force =     0.00044631   -0.00025305    0.00045588
     atom   74 type  3   force =    -0.00044667    0.00025284    0.00045536
     atom   75 type  3   force =    -0.00044531   -0.00025261   -0.00045533
     atom   76 type  3   force =     0.00044639    0.00025249   -0.00045533
     atom   77 type  1   force =     0.00002550    0.00016882    0.00003642
     atom   78 type  1   force =    -0.00002606   -0.00016903    0.00002096
     atom   79 type  1   force =    -0.00002400    0.00018469   -0.00002303
     atom   80 type  1   force =     0.00002392   -0.00018310   -0.00003381
     atom   81 type  3   force =    -0.00003986   -0.00029121   -0.00026772
     atom   82 type  3   force =     0.00003939    0.00029191   -0.00026819
     atom   83 type  3   force =     0.00004013   -0.00029088    0.00026811
     atom   84 type  3   force =    -0.00003948    0.00029208    0.00026792
     atom   85 type  1   force =    -0.00013458   -0.00079656   -0.00004416
     atom   86 type  1   force =     0.00013579    0.00079606   -0.00002868
     atom   87 type  1   force =     0.00013378   -0.00078534    0.00002452
     atom   88 type  1   force =    -0.00013556    0.00078535    0.00004820
     atom   89 type  3   force =    -0.00031710   -0.00057465    0.00005139
     atom   90 type  3   force =     0.00031761    0.00057531    0.00005035
     atom   91 type  3   force =     0.00031675   -0.00057442   -0.00005112
     atom   92 type  3   force =    -0.00031736    0.00057464   -0.00005037
     atom   93 type  1   force =     0.00016759   -0.00012818   -0.00038432
     atom   94 type  1   force =    -0.00016735    0.00012865   -0.00036704
     atom   95 type  1   force =    -0.00017005   -0.00013372    0.00036575
     atom   96 type  1   force =     0.00016787    0.00013581    0.00038595
     atom   97 type  3   force =    -0.00027663    0.00031661    0.00017492
     atom   98 type  3   force =     0.00027632   -0.00031666    0.00017505
     atom   99 type  3   force =     0.00027735    0.00031601   -0.00017486
     atom  100 type  3   force =    -0.00027580   -0.00031683   -0.00017491
     atom  101 type  1   force =     0.00028279   -0.00028165    0.00065296
     atom  102 type  1   force =    -0.00028230    0.00028168    0.00067001
     atom  103 type  1   force =    -0.00028239   -0.00026921   -0.00067139
     atom  104 type  1   force =     0.00028222    0.00026872   -0.00065227
     atom  105 type  3   force =     0.00029197    0.00012547   -0.00030020
     atom  106 type  3   force =    -0.00029243   -0.00012559   -0.00029897
     atom  107 type  3   force =    -0.00029246    0.00012546    0.00029936
     atom  108 type  3   force =     0.00029209   -0.00012533    0.00029940
     atom  109 type  1   force =    -0.00069856    0.00092242   -0.00005101
     atom  110 type  1   force =     0.00069832   -0.00092235   -0.00005703
     atom  111 type  1   force =     0.00069665    0.00091561    0.00005502
     atom  112 type  1   force =    -0.00069804   -0.00091289    0.00005129
     atom  113 type  3   force =     0.00020770    0.00005905    0.00048683
     atom  114 type  3   force =    -0.00020736   -0.00005834    0.00048727
     atom  115 type  3   force =    -0.00020767    0.00005859   -0.00048769
     atom  116 type  3   force =     0.00020724   -0.00005798   -0.00048738
     atom  117 type  1   force =    -0.00096666   -0.00072008    0.00059288
     atom  118 type  1   force =     0.00096616    0.00072108    0.00057800
     atom  119 type  1   force =     0.00096516   -0.00073404   -0.00057875
     atom  120 type  1   force =    -0.00096704    0.00073447   -0.00059233
     atom  121 type  3   force =     0.00049126    0.00010122   -0.00044534
     atom  122 type  3   force =    -0.00049142   -0.00010122   -0.00044493
     atom  123 type  3   force =    -0.00049133    0.00010127    0.00044471
     atom  124 type  3   force =     0.00049131   -0.00010098    0.00044564
     atom  125 type  1   force =    -0.00034927    0.00015245   -0.00019346
     atom  126 type  1   force =     0.00035032   -0.00015247   -0.00021284
     atom  127 type  1   force =     0.00034915    0.00015121    0.00021150
     atom  128 type  1   force =    -0.00034942   -0.00015398    0.00019537
     atom  129 type  3   force =     0.00034322   -0.00023317   -0.00016875
     atom  130 type  3   force =    -0.00034317    0.00023324   -0.00016919
     atom  131 type  3   force =    -0.00034350   -0.00023399    0.00016885
     atom  132 type  3   force =     0.00034325    0.00023347    0.00016904
     atom  133 type  1   force =     0.00074536   -0.00011630    0.00006509
     atom  134 type  1   force =    -0.00074593    0.00011576    0.00007542
     atom  135 type  1   force =    -0.00074533   -0.00012933   -0.00007784
     atom  136 type  1   force =     0.00074496    0.00012734   -0.00006411
     atom  137 type  3   force =    -0.00050223    0.00007648   -0.00026231
     atom  138 type  3   force =     0.00050220   -0.00007622   -0.00026230
     atom  139 type  3   force =     0.00050221    0.00007652    0.00026227
     atom  140 type  3   force =    -0.00050247   -0.00007551    0.00026179
     atom  141 type  1   force =     0.00012872    0.00055422   -0.00056801
     atom  142 type  1   force =    -0.00012974   -0.00055453   -0.00055156
     atom  143 type  1   force =    -0.00012670    0.00056354    0.00054912
     atom  144 type  1   force =     0.00012897   -0.00056355    0.00056795
     atom  145 type  3   force =     0.00022645    0.00009570   -0.00018227
     atom  146 type  3   force =    -0.00022594   -0.00009563   -0.00018141
     atom  147 type  3   force =    -0.00022644    0.00009590    0.00018255
     atom  148 type  3   force =     0.00022590   -0.00009538    0.00018127
     atom  149 type  1   force =     0.00067733   -0.00023825    0.00101493
     atom  150 type  1   force =    -0.00067707    0.00023810    0.00103198
     atom  151 type  1   force =    -0.00067453   -0.00024622   -0.00103352
     atom  152 type  1   force =     0.00067626    0.00024485   -0.00101350
     atom  153 type  3   force =     0.00069379   -0.00062308   -0.00032661
     atom  154 type  3   force =    -0.00069374    0.00062307   -0.00032695
     atom  155 type  3   force =    -0.00069416   -0.00062376    0.00032662
     atom  156 type  3   force =     0.00069401    0.00062323    0.00032702
     atom  157 type  1   force =    -0.00089363   -0.00009179    0.00029600
     atom  158 type  1   force =     0.00089239    0.00009222    0.00031303
     atom  159 type  1   force =     0.00089535   -0.00009149   -0.00031299
     atom  160 type  1   force =    -0.00089221    0.00009173   -0.00029517
     atom  161 type  3   force =    -0.00019237    0.00047674   -0.00031322
     atom  162 type  3   force =     0.00019210   -0.00047663   -0.00031327
     atom  163 type  3   force =     0.00019216    0.00047655    0.00031262
     atom  164 type  3   force =    -0.00019229   -0.00047658    0.00031331
     atom  165 type  1   force =     0.00064739   -0.00059936   -0.00123170
     atom  166 type  1   force =    -0.00064615    0.00059899   -0.00124990
     atom  167 type  1   force =    -0.00064605   -0.00060079    0.00124987
     atom  168 type  1   force =     0.00064613    0.00060021    0.00123220
     atom  169 type  3   force =     0.00010693   -0.00047109    0.00004786
     atom  170 type  3   force =    -0.00010743    0.00047137    0.00004677
     atom  171 type  3   force =    -0.00010777   -0.00047130   -0.00004543
     atom  172 type  3   force =     0.00010664    0.00047119   -0.00004823

     Total force =     0.010280     Total SCF correction =     0.000096


     Computing stress (Cartesian axis) and pressure

          total   stress  (Ry/bohr**3)                   (kbar)     P=   -7.25
  -0.00005075   0.00000000   0.00000000         -7.46      0.00      0.00
   0.00000000  -0.00004666  -0.00000000          0.00     -6.86     -0.00
   0.00000000  -0.00000000  -0.00005052          0.00     -0.00     -7.43


     Writing output data file scf.save
 
     init_run     :     71.51s CPU     74.64s WALL (       1 calls)
     electrons    :   3581.11s CPU   3739.84s WALL (       1 calls)
     forces       :     34.12s CPU     34.65s WALL (       1 calls)
     stress       :    260.84s CPU    261.44s WALL (       1 calls)

     Called by init_run:
     wfcinit      :     58.95s CPU     61.80s WALL (       1 calls)
     potinit      :      4.20s CPU      4.24s WALL (       1 calls)

     Called by electrons:
     c_bands      :   3217.43s CPU   3350.11s WALL (      25 calls)
     sum_band     :    329.52s CPU    350.47s WALL (      25 calls)
     v_of_rho     :      6.39s CPU      6.95s WALL (      26 calls)
     newd         :     15.29s CPU     19.86s WALL (      26 calls)
     PAW_pot      :     10.20s CPU     10.20s WALL (      26 calls)
     mix_rho      :      1.87s CPU      1.99s WALL (      25 calls)

     Called by c_bands:
     init_us_2    :     18.65s CPU     18.74s WALL (     212 calls)
     cegterg      :   3140.51s CPU   3273.09s WALL (     100 calls)

     Called by sum_band:
     sum_band:bec :      0.13s CPU      0.12s WALL (     100 calls)
     addusdens    :     16.50s CPU     20.97s WALL (      25 calls)

     Called by *egterg:
     h_psi        :   1699.88s CPU   1808.28s WALL (     531 calls)
     s_psi        :    345.02s CPU    345.06s WALL (     531 calls)
     g_psi        :      8.60s CPU      8.61s WALL (     427 calls)
     cdiaghg      :    129.06s CPU    129.09s WALL (     527 calls)

     Called by h_psi:
     h_psi:pot    :   1687.62s CPU   1795.89s WALL (     531 calls)
     h_psi:calbec :    373.26s CPU    373.74s WALL (     531 calls)
     vloc_psi     :    968.75s CPU   1076.48s WALL (     531 calls)
     add_vuspsi   :    345.61s CPU    345.67s WALL (     531 calls)

     General routines
     calbec       :    533.86s CPU    534.55s WALL (     651 calls)
     fft          :     11.52s CPU     12.51s WALL (     362 calls)
     fftw         :   1015.33s CPU   1138.99s WALL (  184188 calls)
 
     Parallel routines
     fft_scatter  :    215.00s CPU    338.21s WALL (  184550 calls)
 
     PWSCF        :     1h 5m CPU        1h 9m WALL

 
   This run was terminated on:   3: 0:40   7Dec2017            

=------------------------------------------------------------------------------=
   JOB DONE.
=------------------------------------------------------------------------------=
