
     Program PWSCF v.6.1 (svn rev. 13369) starts on  4Nov2017 at  4:43: 5 

     This program is part of the open-source Quantum ESPRESSO suite
     for quantum simulation of materials; please cite
         "P. Giannozzi et al., J. Phys.:Condens. Matter 21 395502 (2009);
          URL http://www.quantum-espresso.org", 
     in publications or presentations arising from this work. More details at
     http://www.quantum-espresso.org/quote

     Parallel version (MPI), running on     8 processors
     R & G space division:  proc/nbgrp/npool/nimage =       8
     Waiting for input...
     Reading input from standard input

     Current dimensions of program PWSCF are:
     Max number of different atomic species (ntypx) = 10
     Max number of k-points (npk) =  40000
     Max angular momentum in pseudopotentials (lmaxx) =  3
               file C.pbe-n-kjpaw_psl.0.1.UPF: wavefunction(s)  2P renormalized
               file N.pbe-n-kjpaw_psl.0.1.UPF: wavefunction(s)  2P renormalized
               file H.pbe-kjpaw_psl.0.1.UPF: wavefunction(s)  1S renormalized
               file O.pbe-n-kjpaw_psl.0.1.UPF: wavefunction(s)  2P renormalized

     -------------------------------------
     Parameters for Dispersion Correction:
     -------------------------------------
       atom      VdW radius       C_6     

        C          2.744         60.710
        N          2.640         42.670
        H          1.892          4.857
        O          2.536         24.284

     Subspace diagonalization in iterative solution of the eigenvalue problem:
     a serial algorithm will be used

 
     Parallelization info
     --------------------
     sticks:   dense  smooth     PW     G-vecs:    dense   smooth      PW
     Min         689     689    187                56345    56345    7997
     Max         690     690    188                56349    56349    7999
     Sum        5517    5517   1499               450773   450773   63985
 


     bravais-lattice index     =            0
     lattice parameter (alat)  =      22.7391  a.u.
     unit-cell volume          =    3337.0249 (a.u.)^3
     number of atoms/cell      =           56
     number of atomic types    =            4
     number of electrons       =       168.00
     number of Kohn-Sham states=          100
     kinetic-energy cutoff     =     100.0000  Ry
     charge density cutoff     =     400.0000  Ry
     convergence threshold     =      1.0E-08
     mixing beta               =       0.5000
     number of iterations used =            8  plain     mixing
     Exchange-correlation      =  SLA  PW   PBX  PBC ( 1  4  3  4 0 0)

     celldm(1)=  22.739075  celldm(2)=   0.000000  celldm(3)=   0.000000
     celldm(4)=   0.000000  celldm(5)=   0.000000  celldm(6)=   0.000000

     crystal axes: (cart. coord. in units of alat)
               a(1) = (   1.000000   0.000000   0.000000 )  
               a(2) = (   0.000000   0.334547   0.000000 )  
               a(3) = (  -0.457678   0.000000   0.848368 )  

     reciprocal axes: (cart. coord. in units 2 pi/alat)
               b(1) = (  1.000000  0.000000  0.539481 )  
               b(2) = (  0.000000  2.989120  0.000000 )  
               b(3) = (  0.000000  0.000000  1.178733 )  


     PseudoPot. # 1 for  C read from file:
     /scratch/ahofstet/pseudo/C.pbe-n-kjpaw_psl.0.1.UPF
     MD5 check sum: 430fe95172b1e11ef3f8ed03bac87931
     Pseudo is Projector augmented-wave + core cor, Zval =  4.0
     Generated using "atomic" code by A. Dal Corso  v.5.0.99 svn rev. 10869
     Shape of augmentation charge: BESSEL
     Using radial grid of 1073 points,  4 beta functions with: 
                l(1) =   0
                l(2) =   0
                l(3) =   1
                l(4) =   1
     Q(r) pseudized with 0 coefficients 


     PseudoPot. # 2 for  N read from file:
     /scratch/ahofstet/pseudo/N.pbe-n-kjpaw_psl.0.1.UPF
     MD5 check sum: f73187c8b701007e77325f868c9291d7
     Pseudo is Projector augmented-wave + core cor, Zval =  5.0
     Generated using "atomic" code by A. Dal Corso  v.5.0.99 svn rev. 10869
     Shape of augmentation charge: PSQ
     Using radial grid of 1085 points,  4 beta functions with: 
                l(1) =   0
                l(2) =   0
                l(3) =   1
                l(4) =   1
     Q(r) pseudized with 0 coefficients 


     PseudoPot. # 3 for  H read from file:
     /scratch/ahofstet/pseudo/H.pbe-kjpaw_psl.0.1.UPF
     MD5 check sum: 94e484f906d9e9773b2f6e52662335b2
     Pseudo is Projector augmented-wave, Zval =  1.0
     Generated using "atomic" code by A. Dal Corso  v.5.0.99 svn rev. 10869
     Shape of augmentation charge: PSQ
     Using radial grid of  929 points,  2 beta functions with: 
                l(1) =   0
                l(2) =   0
     Q(r) pseudized with 0 coefficients 


     PseudoPot. # 4 for  O read from file:
     /scratch/ahofstet/pseudo/O.pbe-n-kjpaw_psl.0.1.UPF
     MD5 check sum: 3f94a2996a3169367d6eb21d9b593f20
     Pseudo is Projector augmented-wave + core cor, Zval =  6.0
     Generated using "atomic" code by A. Dal Corso  v.5.0.99 svn rev. 10869
     Shape of augmentation charge: BESSEL
     Using radial grid of 1095 points,  4 beta functions with: 
                l(1) =   0
                l(2) =   0
                l(3) =   1
                l(4) =   1
     Q(r) pseudized with 0 coefficients 


     atomic species   valence    mass     pseudopotential
        C              4.00    12.01070      C( 1.00)
        N              5.00    14.00670      N( 1.00)
        H              1.00     1.00794      H( 1.00)
        O              6.00    15.99940      O( 1.00)

      4 Sym. Ops., with inversion, found ( 2 have fractional translation)



   Cartesian axes

     site n.     atom                  positions (alat units)
         1           N   tau(   1) = (  -0.0739259   0.0911316   0.4140058  )
         2           N   tau(   2) = (   0.8450868  -0.0761417   0.0101783  )
         3           N   tau(   3) = (   0.6162477   0.2434151   0.4343624  )
         4           N   tau(   4) = (  -0.3027650   0.4106884   0.8381899  )
         5           C   tau(   5) = (   0.0326046   0.0734582   0.3842299  )
         6           C   tau(   6) = (   0.7385564   0.2407316   0.0399542  )
         7           C   tau(   7) = (   0.5097173   0.2610884   0.4641383  )
         8           C   tau(   8) = (  -0.1962345   0.0938151   0.8084140  )
         9           N   tau(   9) = (   0.0527017  -0.0015731   0.3030783  )
        10           N   tau(  10) = (   0.7184592   0.1657002   0.1211058  )
        11           N   tau(  11) = (   0.4896201   0.3361198   0.5452899  )
        12           N   tau(  12) = (  -0.1761374   0.1688465   0.7272624  )
        13           H   tau(  13) = (  -0.0062429  -0.0612926   0.2938175  )
        14           H   tau(  14) = (   0.7774038   0.1059807   0.1303666  )
        15           H   tau(  15) = (   0.5485647   0.3958393   0.5545507  )
        16           H   tau(  16) = (  -0.2350820   0.2285660   0.7180016  )
        17           H   tau(  17) = (   0.1320171  -0.0265050   0.2900059  )
        18           H   tau(  18) = (   0.6391438   0.1407683   0.1341783  )
        19           H   tau(  19) = (   0.4103047   0.3610516   0.5583624  )
        20           H   tau(  20) = (  -0.0968220   0.1937783   0.7141900  )
        21           N   tau(  21) = (   0.1209938   0.1353621   0.4183559  )
        22           N   tau(  22) = (   0.6501671   0.3026355   0.0058282  )
        23           N   tau(  23) = (   0.4213280   0.1991845   0.4300123  )
        24           N   tau(  24) = (  -0.1078453   0.0319112   0.8425400  )
        25           C   tau(  25) = (   0.0978402   0.2195067   0.4884759  )
        26           C   tau(  26) = (   0.2156425   0.0522334   0.7840765  )
        27           C   tau(  27) = (   0.4444816   0.1150400   0.3598923  )
        28           C   tau(  28) = (   0.3266793   0.2823133   0.0642918  )
        29           N   tau(  29) = (   0.1850225   0.2818838   0.5197855  )
        30           N   tau(  30) = (   0.1284603   0.1146104   0.7527668  )
        31           N   tau(  31) = (   0.3572994   0.0526629   0.3285827  )
        32           N   tau(  32) = (   0.4138615   0.2199362   0.0956014  )
        33           H   tau(  33) = (   0.2593923   0.2591319   0.4844130  )
        34           H   tau(  34) = (   0.0540905   0.0918586   0.7881394  )
        35           H   tau(  35) = (   0.2829296   0.0754148   0.3639553  )
        36           H   tau(  36) = (   0.4882313   0.2426881   0.0602289  )
        37           H   tau(  37) = (   0.1695191   0.3661589   0.5223785  )
        38           H   tau(  38) = (   0.1439636   0.1988856   0.7501739  )
        39           H   tau(  39) = (   0.3728027  -0.0316123   0.3259897  )
        40           H   tau(  40) = (   0.3983582   0.1356611   0.0981944  )
        41           C   tau(  41) = (  -0.0123138   0.2456826   0.5216613  )
        42           C   tau(  42) = (   0.3257965   0.0784093   0.7508910  )
        43           C   tau(  43) = (   0.5546356   0.0888641   0.3267069  )
        44           C   tau(  44) = (   0.2165253   0.2561374   0.0974772  )
        45           H   tau(  45) = (  -0.0268099   0.3131894   0.5792719  )
        46           H   tau(  46) = (   0.3402926   0.1459161   0.6932804  )
        47           H   tau(  47) = (   0.5691317   0.0213572   0.2690963  )
        48           H   tau(  48) = (   0.2020292   0.1886306   0.1550878  )
        49           C   tau(  49) = (  -0.0944589   0.1763575   0.4815569  )
        50           C   tau(  50) = (   0.4079416   0.0090842   0.7909954  )
        51           C   tau(  51) = (   0.6367807   0.1581891   0.3668113  )
        52           C   tau(  52) = (   0.1343802   0.3254625   0.0573728  )
        53           H   tau(  53) = (  -0.1811825   0.1883036   0.5052337  )
        54           H   tau(  54) = (   0.4946652   0.0210303   0.7673186  )
        55           H   tau(  55) = (   0.7235043   0.1462430   0.3431345  )
        56           H   tau(  56) = (   0.0476566   0.3135164   0.0810496  )

     number of k points=    12
                       cart. coord. in units 2pi/alat
        k(    1) = (   0.0000000   0.0000000   0.0000000), wk =   0.1000000
        k(    2) = (   0.0000000   0.0000000  -0.5893667), wk =   0.1000000
        k(    3) = (   0.0000000   0.5978239   0.0000000), wk =   0.2000000
        k(    4) = (   0.0000000   0.5978239  -0.5893667), wk =   0.2000000
        k(    5) = (   0.0000000   1.1956479   0.0000000), wk =   0.2000000
        k(    6) = (   0.0000000   1.1956479  -0.5893667), wk =   0.2000000
        k(    7) = (  -0.5000000   0.0000000  -0.2697403), wk =   0.1000000
        k(    8) = (  -0.5000000   0.0000000  -0.8591070), wk =   0.1000000
        k(    9) = (  -0.5000000   0.5978239  -0.2697403), wk =   0.2000000
        k(   10) = (  -0.5000000   0.5978239  -0.8591070), wk =   0.2000000
        k(   11) = (  -0.5000000   1.1956479  -0.2697403), wk =   0.2000000
        k(   12) = (  -0.5000000   1.1956479  -0.8591070), wk =   0.2000000

     Dense  grid:   450773 G-vectors     FFT dimensions: ( 150,  50, 144)

     Estimated max dynamical RAM per process >     298.15MB

     Estimated total allocated dynamical RAM >    2385.23MB

     Check: negative/imaginary core charge=   -0.000002    0.000000

     Initial potential from superposition of free atoms

     starting charge  167.99899, renormalised to  168.00000
     Starting wfc are  152 randomized atomic wfcs
     Checking if some PAW data can be deallocated... 

     total cpu time spent up to now is       19.0 secs

     per-process dynamical memory:   290.7 Mb

     Self-consistent Calculation

     iteration #  1     ecut=   100.00 Ry     beta=0.50
     Davidson diagonalization with overlap
     ethr =  1.00E-02,  avg # of iterations =  3.0

     total cpu time spent up to now is       57.1 secs

     total energy              =    -773.84401082 Ry
     Harris-Foulkes estimate   =    -777.31112182 Ry
     estimated scf accuracy    <       6.49073561 Ry

     iteration #  2     ecut=   100.00 Ry     beta=0.50
     Davidson diagonalization with overlap
     ethr =  3.86E-03,  avg # of iterations =  2.4

     total cpu time spent up to now is       80.9 secs

     total energy              =    -774.77200741 Ry
     Harris-Foulkes estimate   =    -774.96947827 Ry
     estimated scf accuracy    <       0.50441309 Ry

     iteration #  3     ecut=   100.00 Ry     beta=0.50
     Davidson diagonalization with overlap
     ethr =  3.00E-04,  avg # of iterations =  5.4

     total cpu time spent up to now is      124.2 secs

     total energy              =    -775.05407507 Ry
     Harris-Foulkes estimate   =    -775.14605688 Ry
     estimated scf accuracy    <       0.22769995 Ry

     iteration #  4     ecut=   100.00 Ry     beta=0.50
     Davidson diagonalization with overlap
     ethr =  1.36E-04,  avg # of iterations =  7.1

     total cpu time spent up to now is      149.5 secs

     total energy              =    -775.05719034 Ry
     Harris-Foulkes estimate   =    -775.08320341 Ry
     estimated scf accuracy    <       0.05958879 Ry

     iteration #  5     ecut=   100.00 Ry     beta=0.50
     Davidson diagonalization with overlap
     ethr =  3.55E-05,  avg # of iterations =  6.2

     total cpu time spent up to now is      189.2 secs

     total energy              =    -775.08268856 Ry
     Harris-Foulkes estimate   =    -775.09961456 Ry
     estimated scf accuracy    <       0.05101551 Ry

     iteration #  6     ecut=   100.00 Ry     beta=0.50
     Davidson diagonalization with overlap
     ethr =  3.04E-05,  avg # of iterations =  1.9

     total cpu time spent up to now is      210.0 secs

     total energy              =    -775.08109559 Ry
     Harris-Foulkes estimate   =    -775.08752413 Ry
     estimated scf accuracy    <       0.01277381 Ry

     iteration #  7     ecut=   100.00 Ry     beta=0.50
     Davidson diagonalization with overlap
     ethr =  7.60E-06,  avg # of iterations =  6.0

     total cpu time spent up to now is      248.1 secs

     total energy              =    -775.08639247 Ry
     Harris-Foulkes estimate   =    -775.08716838 Ry
     estimated scf accuracy    <       0.00205603 Ry

     iteration #  8     ecut=   100.00 Ry     beta=0.50
     Davidson diagonalization with overlap
     ethr =  1.22E-06,  avg # of iterations =  1.6

     total cpu time spent up to now is      268.7 secs

     total energy              =    -775.08643524 Ry
     Harris-Foulkes estimate   =    -775.08658975 Ry
     estimated scf accuracy    <       0.00033225 Ry

     iteration #  9     ecut=   100.00 Ry     beta=0.50
     Davidson diagonalization with overlap
     ethr =  1.98E-07,  avg # of iterations =  4.0

     total cpu time spent up to now is      306.6 secs

     total energy              =    -775.08668437 Ry
     Harris-Foulkes estimate   =    -775.08678971 Ry
     estimated scf accuracy    <       0.00029869 Ry

     iteration # 10     ecut=   100.00 Ry     beta=0.50
     Davidson diagonalization with overlap
     ethr =  1.78E-07,  avg # of iterations =  1.0

     total cpu time spent up to now is      326.7 secs

     total energy              =    -775.08665590 Ry
     Harris-Foulkes estimate   =    -775.08669945 Ry
     estimated scf accuracy    <       0.00008047 Ry

     iteration # 11     ecut=   100.00 Ry     beta=0.50
     Davidson diagonalization with overlap
     ethr =  4.79E-08,  avg # of iterations =  4.0

     total cpu time spent up to now is      362.6 secs

     total energy              =    -775.08670469 Ry
     Harris-Foulkes estimate   =    -775.08672563 Ry
     estimated scf accuracy    <       0.00005560 Ry

     iteration # 12     ecut=   100.00 Ry     beta=0.50
     Davidson diagonalization with overlap
     ethr =  3.31E-08,  avg # of iterations =  1.0

     total cpu time spent up to now is      382.7 secs

     total energy              =    -775.08669923 Ry
     Harris-Foulkes estimate   =    -775.08670747 Ry
     estimated scf accuracy    <       0.00001515 Ry

     iteration # 13     ecut=   100.00 Ry     beta=0.50
     Davidson diagonalization with overlap
     ethr =  9.02E-09,  avg # of iterations =  4.2

     total cpu time spent up to now is      419.3 secs

     total energy              =    -775.08670945 Ry
     Harris-Foulkes estimate   =    -775.08671253 Ry
     estimated scf accuracy    <       0.00000902 Ry

     iteration # 14     ecut=   100.00 Ry     beta=0.50
     Davidson diagonalization with overlap
     ethr =  5.37E-09,  avg # of iterations =  1.0

     total cpu time spent up to now is      439.4 secs

     total energy              =    -775.08670856 Ry
     Harris-Foulkes estimate   =    -775.08670979 Ry
     estimated scf accuracy    <       0.00000302 Ry

     iteration # 15     ecut=   100.00 Ry     beta=0.50
     Davidson diagonalization with overlap
     ethr =  1.80E-09,  avg # of iterations =  4.0

     total cpu time spent up to now is      472.6 secs

     total energy              =    -775.08671002 Ry
     Harris-Foulkes estimate   =    -775.08671004 Ry
     estimated scf accuracy    <       0.00000026 Ry

     iteration # 16     ecut=   100.00 Ry     beta=0.50
     Davidson diagonalization with overlap
     ethr =  1.57E-10,  avg # of iterations =  1.3

     total cpu time spent up to now is      493.0 secs

     total energy              =    -775.08670994 Ry
     Harris-Foulkes estimate   =    -775.08671003 Ry
     estimated scf accuracy    <       0.00000024 Ry

     iteration # 17     ecut=   100.00 Ry     beta=0.50
     Davidson diagonalization with overlap
     ethr =  1.40E-10,  avg # of iterations =  3.2

     total cpu time spent up to now is      515.3 secs

     total energy              =    -775.08670995 Ry
     Harris-Foulkes estimate   =    -775.08670996 Ry
     estimated scf accuracy    <       0.00000003 Ry

     iteration # 18     ecut=   100.00 Ry     beta=0.50
     Davidson diagonalization with overlap
     ethr =  1.81E-11,  avg # of iterations =  4.5

     total cpu time spent up to now is      553.1 secs

     End of self-consistent calculation

          k = 0.0000 0.0000 0.0000 ( 56331 PWs)   bands (ev):

   -18.4681 -18.4372 -18.4069 -18.4041 -16.5525 -16.4928 -16.4753 -16.4222
   -15.4807 -15.4360 -15.3909 -15.3567 -14.1816 -14.1789 -14.1676 -14.1335
   -11.7315 -11.7262 -11.6440 -11.5581  -9.4228  -9.3795  -9.2187  -9.1939
    -8.9963  -8.9124  -8.8328  -8.8044  -6.8834  -6.8393  -6.7506  -6.7198
    -6.6880  -6.4913  -6.4851  -6.3417  -5.6349  -5.5452  -5.4370  -5.4138
    -5.0811  -4.9844  -4.7068  -4.6869  -4.2994  -4.2807  -4.2748  -4.2380
    -4.0741  -4.0103  -4.0097  -3.8968  -3.1663  -3.1277  -3.1157  -3.0750
    -3.0492  -3.0016  -2.8353  -2.7560  -2.6887  -2.5904  -2.5678  -2.5253
    -1.0266  -0.9214  -0.7881  -0.7364  -0.4958  -0.2526  -0.1562  -0.1401
     0.1861   0.2210   0.3066   0.4993   0.7689   0.9161   0.9657   1.0782
     1.4524   1.4639   1.4688   1.6171   5.4550   5.5766   5.5800   5.7582
     6.0982   6.1466   6.2039   6.4490   6.7080   7.1612   7.7765   8.0506
     8.0523   8.0525   8.9794   9.0801

          k = 0.0000 0.0000-0.5894 ( 56304 PWs)   bands (ev):

   -18.4535 -18.4535 -18.4047 -18.4047 -16.5303 -16.5303 -16.4413 -16.4413
   -15.4363 -15.4363 -15.3969 -15.3969 -14.1805 -14.1805 -14.1495 -14.1495
   -11.6933 -11.6933 -11.6374 -11.6374  -9.4110  -9.4110  -9.2094  -9.2094
    -8.9355  -8.9355  -8.8197  -8.8197  -6.8202  -6.8202  -6.7642  -6.7642
    -6.6180  -6.6180  -6.4245  -6.4245  -5.5938  -5.5938  -5.4270  -5.4270
    -4.8952  -4.8952  -4.8141  -4.8141  -4.3007  -4.3007  -4.2419  -4.2419
    -4.0129  -4.0129  -3.9751  -3.9751  -3.1548  -3.1548  -3.1181  -3.1181
    -2.9664  -2.9664  -2.7581  -2.7581  -2.7287  -2.7287  -2.5328  -2.5328
    -0.9717  -0.9717  -0.7642  -0.7642  -0.3524  -0.3524  -0.1941  -0.1941
     0.1902   0.1902   0.4088   0.4088   0.9263   0.9263   0.9907   0.9907
     1.4479   1.4479   1.5430   1.5430   5.4794   5.4794   5.6429   5.6429
     6.1921   6.1921   6.3147   6.3147   6.9660   6.9660   7.7504   7.7504
     8.1810   8.1810   9.0989   9.0989

          k = 0.0000 0.5978 0.0000 ( 56318 PWs)   bands (ev):

   -18.3249 -18.2976 -18.2700 -18.2665 -16.5703 -16.5218 -16.5097 -16.4691
   -15.4718 -15.4469 -15.3852 -15.3632 -14.3805 -14.3786 -14.3359 -14.3000
   -11.8450 -11.8007 -11.6857 -11.6668  -9.3067  -9.3065  -9.1200  -9.0728
    -8.9631  -8.9054  -8.8237  -8.8027  -6.9522  -6.9503  -6.8145  -6.6923
    -6.6709  -6.6121  -6.4942  -6.4576  -5.7414  -5.6786  -5.4901  -5.4655
    -5.0730  -4.9762  -4.7207  -4.7169  -4.4026  -4.3944  -4.3314  -4.2988
    -4.1508  -4.0695  -4.0635  -4.0223  -3.7156  -3.5933  -3.5825  -3.5271
    -2.8377  -2.7408  -2.6073  -2.5786  -2.0013  -1.9467  -1.7318  -1.7001
    -1.0126  -0.9329  -0.8519  -0.7262  -0.6157  -0.5330  -0.4094  -0.3523
     0.2939   0.4226   0.5216   0.6435   1.0557   1.1149   1.1636   1.2270
     1.5864   1.7261   1.7290   1.8771   5.3180   5.3836   5.5651   5.7141
     6.0559   6.1073   6.1663   6.3288   7.1433   7.3847   7.8772   8.0437
     8.1217   8.2518   8.8490   8.9573

          k = 0.0000 0.5978-0.5894 ( 56362 PWs)   bands (ev):

   -18.3118 -18.3118 -18.2678 -18.2678 -16.5525 -16.5525 -16.4829 -16.4829
   -15.4406 -15.4406 -15.3941 -15.3941 -14.3801 -14.3801 -14.3166 -14.3166
   -11.7720 -11.7720 -11.7291 -11.7291  -9.3104  -9.3104  -9.1053  -9.1053
    -8.9091  -8.9091  -8.8196  -8.8196  -6.8790  -6.8790  -6.8185  -6.8185
    -6.6610  -6.6610  -6.4869  -6.4869  -5.7061  -5.7061  -5.4948  -5.4948
    -4.8992  -4.8992  -4.8210  -4.8210  -4.3827  -4.3827  -4.3251  -4.3251
    -4.1009  -4.1009  -4.0393  -4.0393  -3.6344  -3.6344  -3.5911  -3.5911
    -2.7903  -2.7903  -2.5733  -2.5733  -1.9839  -1.9839  -1.7165  -1.7165
    -0.9395  -0.9395  -0.8174  -0.8174  -0.5901  -0.5901  -0.3955  -0.3955
     0.3552   0.3552   0.5834   0.5834   1.1176   1.1176   1.1914   1.1914
     1.6648   1.6648   1.8014   1.8014   5.3789   5.3789   5.5450   5.5450
     6.1092   6.1092   6.2684   6.2684   7.2692   7.2692   7.8966   7.8966
     8.2660   8.2660   8.8916   8.8916

          k = 0.0000 1.1956 0.0000 ( 56378 PWs)   bands (ev):

   -18.0163 -18.0029 -17.9803 -17.9769 -16.7063 -16.6865 -16.6632 -16.6537
   -15.4420 -15.4339 -15.3662 -15.3653 -14.6375 -14.6360 -14.5573 -14.5489
   -11.9797 -11.9556 -11.8105 -11.8057  -9.1781  -9.1408  -9.0723  -8.9966
    -8.9432  -8.9031  -8.8323  -8.8307  -7.0241  -7.0177  -6.8334  -6.8008
    -6.6093  -6.5461  -6.4460  -6.4390  -5.8112  -5.7923  -5.6130  -5.5721
    -5.1328  -5.1118  -5.0212  -4.8869  -4.6768  -4.6315  -4.5379  -4.5310
    -4.2325  -4.1918  -4.1659  -4.1203  -3.6653  -3.5878  -3.5227  -3.5159
    -2.7279  -2.6987  -2.5372  -2.5303  -1.6261  -1.5450  -1.5279  -1.4758
    -0.9464  -0.8754  -0.6328  -0.6135  -0.5555  -0.5470  -0.4056  -0.3744
     0.9780   1.0957   1.1176   1.2224   1.2460   1.2465   1.2787   1.3035
     2.0434   2.1178   2.1295   2.2817   4.6584   4.7584   5.2146   5.2899
     6.1175   6.2153   6.3008   6.3072   7.6655   7.9223   8.0672   8.2057
     8.3467   8.4001   8.5504   8.5672

          k = 0.0000 1.1956-0.5894 ( 56400 PWs)   bands (ev):

   -18.0087 -18.0087 -17.9796 -17.9796 -16.6973 -16.6973 -16.6574 -16.6574
   -15.4229 -15.4229 -15.3820 -15.3820 -14.6361 -14.6361 -14.5530 -14.5530
   -11.9009 -11.9009 -11.8778 -11.8778  -9.1667  -9.1667  -9.0262  -9.0262
    -8.9151  -8.9151  -8.8356  -8.8356  -6.9163  -6.9163  -6.8939  -6.8939
    -6.6263  -6.6263  -6.4418  -6.4418  -5.7868  -5.7868  -5.6113  -5.6113
    -5.0938  -5.0938  -4.9724  -4.9724  -4.5909  -4.5909  -4.5660  -4.5660
    -4.2056  -4.2056  -4.1781  -4.1781  -3.6167  -3.6167  -3.5440  -3.5440
    -2.6875  -2.6875  -2.5199  -2.5199  -1.5927  -1.5927  -1.4928  -1.4928
    -0.7991  -0.7991  -0.7588  -0.7588  -0.5736  -0.5736  -0.3865  -0.3865
     1.0410   1.0410   1.1584   1.1584   1.2553   1.2553   1.3048   1.3048
     2.0949   2.0949   2.2050   2.2050   4.8717   4.8717   5.0426   5.0426
     6.1610   6.1610   6.2987   6.2987   7.9098   7.9098   8.1551   8.1551
     8.3761   8.3761   8.6465   8.6465

          k =-0.5000 0.0000-0.2697 ( 56290 PWs)   bands (ev):

   -18.4642 -18.4355 -18.4112 -18.4059 -16.5466 -16.4912 -16.4762 -16.4273
   -15.4624 -15.4560 -15.3775 -15.3715 -14.1882 -14.1789 -14.1663 -14.1256
   -11.7297 -11.7291 -11.6464 -11.5566  -9.3126  -9.3059  -9.2924  -9.2769
    -9.0027  -8.9140  -8.8717  -8.8124  -6.8760  -6.8464  -6.7464  -6.7067
    -6.5801  -6.5650  -6.4248  -6.3985  -5.5503  -5.5479  -5.4913  -5.4814
    -5.1052  -4.9379  -4.7039  -4.6776  -4.2991  -4.2953  -4.2723  -4.2277
    -4.0595  -4.0502  -4.0233  -3.8854  -3.1793  -3.1650  -3.1312  -3.0194
    -2.9752  -2.9447  -2.8967  -2.8740  -2.7353  -2.7254  -2.4405  -2.3869
    -1.0411  -0.9025  -0.7788  -0.7123  -0.5191  -0.2867  -0.1441  -0.1412
     0.1968   0.2216   0.3029   0.4863   0.7537   0.9021   0.9343   1.0926
     1.3064   1.5160   1.6107   1.6169   5.4349   5.5642   5.6220   5.7769
     6.0947   6.1759   6.2148   6.4335   6.7665   7.1018   7.3856   7.9527
     8.5056   8.5099   8.5525   9.0226

          k =-0.5000 0.0000-0.8591 ( 56324 PWs)   bands (ev):

   -18.4512 -18.4512 -18.4073 -18.4073 -16.5285 -16.5285 -16.4423 -16.4423
   -15.4217 -15.4217 -15.4130 -15.4130 -14.1880 -14.1880 -14.1408 -14.1408
   -11.6965 -11.6965 -11.6351 -11.6351  -9.3249  -9.3249  -9.2837  -9.2837
    -8.9404  -8.9404  -8.8404  -8.8404  -6.8067  -6.8067  -6.7748  -6.7748
    -6.5198  -6.5198  -6.4984  -6.4984  -5.5259  -5.5259  -5.5186  -5.5186
    -4.9002  -4.9002  -4.7864  -4.7864  -4.2962  -4.2962  -4.2458  -4.2458
    -4.0465  -4.0465  -3.9585  -3.9585  -3.1594  -3.1594  -3.0518  -3.0518
    -3.0094  -3.0094  -2.8992  -2.8992  -2.6724  -2.6724  -2.4523  -2.4523
    -0.9625  -0.9625  -0.7490  -0.7490  -0.3911  -0.3911  -0.1892  -0.1892
     0.1890   0.1890   0.4021   0.4021   0.8935   0.8935   1.0018   1.0018
     1.4037   1.4037   1.6228   1.6228   5.5024   5.5024   5.6084   5.6084
     6.2094   6.2094   6.3108   6.3108   6.8596   6.8596   7.7950   7.7950
     8.4800   8.4800   8.8074   8.8074

          k =-0.5000 0.5978-0.2697 ( 56326 PWs)   bands (ev):

   -18.3209 -18.2957 -18.2743 -18.2684 -16.5664 -16.5207 -16.5102 -16.4723
   -15.4602 -15.4510 -15.3810 -15.3771 -14.3879 -14.3878 -14.3242 -14.2931
   -11.8494 -11.7990 -11.6834 -11.6685  -9.2353  -9.2266  -9.1601  -9.1534
    -8.9707  -8.9269  -8.8441  -8.8047  -6.9480  -6.9428  -6.8028  -6.7183
    -6.6652  -6.5505  -6.5128  -6.4793  -5.7005  -5.6056  -5.5802  -5.4898
    -5.0803  -4.9495  -4.7211  -4.7093  -4.4119  -4.3942  -4.3277  -4.2901
    -4.1662  -4.1120  -4.0528  -4.0103  -3.6613  -3.6376  -3.5782  -3.5109
    -2.9508  -2.9213  -2.4577  -2.4062  -2.0396  -1.9391  -1.7262  -1.7022
    -1.0227  -0.9217  -0.8657  -0.7401  -0.6074  -0.5601  -0.3801  -0.3414
     0.2939   0.4254   0.5170   0.6473   0.9444   0.9546   1.2497   1.3462
     1.6158   1.7283   1.7597   1.8674   5.3555   5.3589   5.5673   5.7159
     5.9989   6.1717   6.1791   6.3044   7.1333   7.3080   7.6884   8.1022
     8.2600   8.6612   8.7686   8.9661

          k =-0.5000 0.5978-0.8591 ( 56346 PWs)   bands (ev):

   -18.3093 -18.3093 -18.2705 -18.2705 -16.5513 -16.5513 -16.4835 -16.4835
   -15.4244 -15.4244 -15.4114 -15.4114 -14.3883 -14.3883 -14.3074 -14.3074
   -11.7766 -11.7766 -11.7255 -11.7255  -9.2213  -9.2213  -9.1828  -9.1828
    -8.9173  -8.9173  -8.8333  -8.8333  -6.8711  -6.8711  -6.8157  -6.8157
    -6.6536  -6.6536  -6.4926  -6.4926  -5.6463  -5.6463  -5.5540  -5.5540
    -4.9044  -4.9044  -4.7983  -4.7983  -4.3912  -4.3912  -4.3236  -4.3236
    -4.1419  -4.1419  -4.0219  -4.0219  -3.6387  -3.6387  -3.5543  -3.5543
    -2.9313  -2.9313  -2.4401  -2.4401  -1.9764  -1.9764  -1.7199  -1.7199
    -0.9423  -0.9423  -0.8215  -0.8215  -0.6025  -0.6025  -0.3799  -0.3799
     0.3537   0.3537   0.5718   0.5718   0.9815   0.9815   1.3096   1.3096
     1.6684   1.6684   1.8201   1.8201   5.3908   5.3908   5.5360   5.5360
     6.1385   6.1385   6.2369   6.2369   7.2076   7.2076   7.9139   7.9139
     8.4640   8.4640   8.7833   8.7833

          k =-0.5000 1.1956-0.2697 ( 56374 PWs)   bands (ev):

   -18.0127 -18.0006 -17.9840 -17.9794 -16.7058 -16.6862 -16.6633 -16.6540
   -15.4405 -15.4228 -15.3757 -15.3671 -14.6504 -14.6492 -14.5436 -14.5372
   -11.9846 -11.9527 -11.8139 -11.8032  -9.1043  -9.1035  -9.0583  -9.0378
    -8.9459  -8.9358  -8.8599  -8.8597  -7.0230  -7.0100  -6.8390  -6.8017
    -6.6717  -6.5801  -6.3992  -6.3956  -5.7905  -5.7246  -5.6500  -5.5878
    -5.1394  -5.1115  -5.0177  -4.8993  -4.6730  -4.6346  -4.5250  -4.5229
    -4.2311  -4.1815  -4.1642  -4.1458  -3.6015  -3.5952  -3.5477  -3.5228
    -2.8928  -2.8619  -2.3808  -2.3512  -1.6456  -1.5605  -1.5276  -1.4868
    -0.9414  -0.8676  -0.6440  -0.5968  -0.5541  -0.5356  -0.4097  -0.3807
     0.9377   0.9558   1.0719   1.1371   1.2004   1.2659   1.4098   1.4918
     2.0650   2.1115   2.1292   2.2755   4.6949   4.7372   5.2241   5.2676
     6.0785   6.2302   6.2762   6.3361   7.7006   7.9793   8.0427   8.2070
     8.2093   8.5145   8.5648   8.7179

          k =-0.5000 1.1956-0.8591 ( 56376 PWs)   bands (ev):

   -18.0056 -18.0056 -17.9829 -17.9829 -16.6970 -16.6970 -16.6576 -16.6576
   -15.4096 -15.4096 -15.3947 -15.3947 -14.6492 -14.6492 -14.5404 -14.5404
   -11.9048 -11.9048 -11.8752 -11.8752  -9.0843  -9.0843  -9.0755  -9.0755
    -8.9171  -8.9171  -8.8707  -8.8707  -6.9110  -6.9110  -6.8847  -6.8847
    -6.6899  -6.6899  -6.3950  -6.3950  -5.7284  -5.7284  -5.6526  -5.6526
    -5.1017  -5.1017  -4.9645  -4.9645  -4.6011  -4.6011  -4.5431  -4.5431
    -4.2450  -4.2450  -4.1519  -4.1519  -3.5965  -3.5965  -3.5578  -3.5578
    -2.8420  -2.8420  -2.3601  -2.3601  -1.6022  -1.6022  -1.5021  -1.5021
    -0.8017  -0.8017  -0.7432  -0.7432  -0.5656  -0.5656  -0.3932  -0.3932
     0.9265   0.9265   1.1339   1.1339   1.2310   1.2310   1.4540   1.4540
     2.0854   2.0854   2.2177   2.2177   4.9038   4.9038   5.0101   5.0101
     6.1855   6.1855   6.2837   6.2837   7.8145   7.8145   8.2587   8.2587
     8.3758   8.3758   8.6000   8.6000

     highest occupied, lowest unoccupied level (ev):     2.2817    4.6584

!    total energy              =    -775.08670997 Ry
     Harris-Foulkes estimate   =    -775.08670997 Ry
     estimated scf accuracy    <          2.6E-09 Ry

     total all-electron energy =     -3000.093047 Ry

     The total energy is the sum of the following terms:

     one-electron contribution =    -472.88782936 Ry
     hartree contribution      =     302.90610034 Ry
     xc contribution           =    -171.28235484 Ry
     ewald contribution        =    -194.63672726 Ry
     Dispersion Correction     =      -0.30993358 Ry
     one-center paw contrib.   =    -238.87596528 Ry

     convergence has been achieved in  18 iterations

     Forces acting on atoms (cartesian axes, Ry/au):

     atom    1 type  2   force =    -0.01075861   -0.00515959   -0.03605879
     atom    2 type  2   force =     0.01075861   -0.00515959    0.03605879
     atom    3 type  2   force =     0.01075861    0.00515959    0.03605879
     atom    4 type  2   force =    -0.01075861    0.00515959   -0.03605879
     atom    5 type  1   force =    -0.00052674    0.06301665   -0.01658469
     atom    6 type  1   force =     0.00052674    0.06301665    0.01658469
     atom    7 type  1   force =     0.00052674   -0.06301665    0.01658469
     atom    8 type  1   force =    -0.00052674   -0.06301665   -0.01658469
     atom    9 type  2   force =    -0.01055190   -0.00375154   -0.01456622
     atom   10 type  2   force =     0.01055190   -0.00375154    0.01456622
     atom   11 type  2   force =     0.01055190    0.00375154    0.01456622
     atom   12 type  2   force =    -0.01055190    0.00375154   -0.01456622
     atom   13 type  3   force =    -0.00084852    0.00109735   -0.00466115
     atom   14 type  3   force =     0.00084852    0.00109735    0.00466115
     atom   15 type  3   force =     0.00084852   -0.00109735    0.00466115
     atom   16 type  3   force =    -0.00084852   -0.00109735   -0.00466115
     atom   17 type  3   force =     0.00113780    0.00175803   -0.00098048
     atom   18 type  3   force =    -0.00113780    0.00175803    0.00098048
     atom   19 type  3   force =    -0.00113780   -0.00175803    0.00098048
     atom   20 type  3   force =     0.00113780   -0.00175803   -0.00098048
     atom   21 type  2   force =    -0.02060677   -0.02165986   -0.00469984
     atom   22 type  2   force =     0.02060677   -0.02165986    0.00469984
     atom   23 type  2   force =     0.02060677    0.02165986    0.00469984
     atom   24 type  2   force =    -0.02060677    0.02165986   -0.00469984
     atom   25 type  1   force =    -0.02394194   -0.00344729    0.00564807
     atom   26 type  1   force =     0.02394194   -0.00344729   -0.00564807
     atom   27 type  1   force =     0.02394194    0.00344729   -0.00564807
     atom   28 type  1   force =    -0.02394194    0.00344729    0.00564807
     atom   29 type  2   force =     0.03325570    0.00996795    0.02281764
     atom   30 type  2   force =    -0.03325570    0.00996795   -0.02281764
     atom   31 type  2   force =    -0.03325570   -0.00996795   -0.02281764
     atom   32 type  2   force =     0.03325570   -0.00996795    0.02281764
     atom   33 type  3   force =    -0.00008103    0.00062949    0.00123130
     atom   34 type  3   force =     0.00008103    0.00062949   -0.00123130
     atom   35 type  3   force =     0.00008103   -0.00062949   -0.00123130
     atom   36 type  3   force =    -0.00008103   -0.00062949    0.00123130
     atom   37 type  3   force =     0.01154667   -0.02060907    0.01066020
     atom   38 type  3   force =    -0.01154667   -0.02060907   -0.01066020
     atom   39 type  3   force =    -0.01154667    0.02060907   -0.01066020
     atom   40 type  3   force =     0.01154667    0.02060907    0.01066020
     atom   41 type  1   force =     0.03192849   -0.03487154    0.02504262
     atom   42 type  1   force =    -0.03192849   -0.03487154   -0.02504262
     atom   43 type  1   force =    -0.03192849    0.03487154   -0.02504262
     atom   44 type  1   force =     0.03192849    0.03487154    0.02504262
     atom   45 type  3   force =    -0.00322971    0.00284250    0.00422160
     atom   46 type  3   force =     0.00322971    0.00284250   -0.00422160
     atom   47 type  3   force =     0.00322971   -0.00284250   -0.00422160
     atom   48 type  3   force =    -0.00322971   -0.00284250    0.00422160
     atom   49 type  1   force =    -0.00258216    0.00510711    0.00962886
     atom   50 type  1   force =     0.00258216    0.00510711   -0.00962886
     atom   51 type  1   force =     0.00258216   -0.00510711   -0.00962886
     atom   52 type  1   force =    -0.00258216   -0.00510711    0.00962886
     atom   53 type  3   force =    -0.00106030    0.00414142   -0.00296149
     atom   54 type  3   force =     0.00106030    0.00414142    0.00296149
     atom   55 type  3   force =     0.00106030   -0.00414142    0.00296149
     atom   56 type  3   force =    -0.00106030   -0.00414142   -0.00296149

     Total force =     0.228381     Total SCF correction =     0.000122


     Computing stress (Cartesian axis) and pressure

          total   stress  (Ry/bohr**3)                   (kbar)     P=   40.43
   0.00004516   0.00000000   0.00015159          6.64      0.00     22.30
   0.00000000   0.00049230   0.00000000          0.00     72.42      0.00
   0.00015159   0.00000000   0.00028705         22.30      0.00     42.23


     Writing output data file scf.save
 
     init_run     :     17.42s CPU     18.19s WALL (       1 calls)
     electrons    :    505.22s CPU    534.44s WALL (       1 calls)
     forces       :      8.46s CPU      8.55s WALL (       1 calls)
     stress       :     31.22s CPU     31.34s WALL (       1 calls)

     Called by init_run:
     wfcinit      :     11.00s CPU     11.68s WALL (       1 calls)
     potinit      :      2.21s CPU      2.24s WALL (       1 calls)

     Called by electrons:
     c_bands      :    442.85s CPU    468.04s WALL (      18 calls)
     sum_band     :     54.47s CPU     58.05s WALL (      18 calls)
     v_of_rho     :      1.26s CPU      1.42s WALL (      19 calls)
     newd         :      2.57s CPU      2.61s WALL (      19 calls)
     PAW_pot      :      3.52s CPU      3.52s WALL (      19 calls)
     mix_rho      :      0.30s CPU      0.32s WALL (      18 calls)

     Called by c_bands:
     init_us_2    :      4.40s CPU      4.41s WALL (     468 calls)
     cegterg      :    427.00s CPU    452.12s WALL (     216 calls)

     Called by sum_band:
     sum_band:bec :      0.04s CPU      0.04s WALL (     216 calls)
     addusdens    :      2.70s CPU      2.73s WALL (      18 calls)

     Called by *egterg:
     h_psi        :    279.37s CPU    300.49s WALL (     970 calls)
     s_psi        :     31.60s CPU     31.59s WALL (     970 calls)
     g_psi        :      1.93s CPU      1.93s WALL (     742 calls)
     cdiaghg      :     20.69s CPU     20.72s WALL (     958 calls)

     Called by h_psi:
     h_psi:pot    :    276.82s CPU    297.91s WALL (     970 calls)
     h_psi:calbec :     33.79s CPU     33.90s WALL (     970 calls)
     vloc_psi     :    211.43s CPU    232.41s WALL (     970 calls)
     add_vuspsi   :     31.60s CPU     31.60s WALL (     970 calls)

     General routines
     calbec       :     49.27s CPU     49.44s WALL (    1246 calls)
     fft          :      2.36s CPU      2.63s WALL (     271 calls)
     fftw         :    226.94s CPU    250.52s WALL (  148904 calls)
 
     Parallel routines
     fft_scatter  :     88.25s CPU    104.62s WALL (  149175 calls)
 
     PWSCF        :  9m27.11s CPU     9m58.64s WALL

 
   This run was terminated on:   4:53: 4   4Nov2017            

=------------------------------------------------------------------------------=
   JOB DONE.
=------------------------------------------------------------------------------=
