
     Program PWSCF v.6.1 (svn rev. 13369) starts on 13Nov2017 at 12:24: 6 

     This program is part of the open-source Quantum ESPRESSO suite
     for quantum simulation of materials; please cite
         "P. Giannozzi et al., J. Phys.:Condens. Matter 21 395502 (2009);
          URL http://www.quantum-espresso.org", 
     in publications or presentations arising from this work. More details at
     http://www.quantum-espresso.org/quote

     Parallel version (MPI), running on     8 processors
     R & G space division:  proc/nbgrp/npool/nimage =       8
     Waiting for input...
     Reading input from standard input

     Current dimensions of program PWSCF are:
     Max number of different atomic species (ntypx) = 10
     Max number of k-points (npk) =  40000
     Max angular momentum in pseudopotentials (lmaxx) =  3
               file C.pbe-n-kjpaw_psl.0.1.UPF: wavefunction(s)  2P renormalized
               file N.pbe-n-kjpaw_psl.0.1.UPF: wavefunction(s)  2P renormalized
               file H.pbe-kjpaw_psl.0.1.UPF: wavefunction(s)  1S renormalized
               file O.pbe-n-kjpaw_psl.0.1.UPF: wavefunction(s)  2P renormalized

     -------------------------------------
     Parameters for Dispersion Correction:
     -------------------------------------
       atom      VdW radius       C_6     

        C          2.744         60.710
        N          2.640         42.670
        H          1.892          4.857
        O          2.536         24.284

     Subspace diagonalization in iterative solution of the eigenvalue problem:
     a serial algorithm will be used

 
     Parallelization info
     --------------------
     sticks:   dense  smooth     PW     G-vecs:    dense   smooth      PW
     Min         893     893    238                82178    82178   11239
     Max         894     894    239                82181    82181   11241
     Sum        7149    7149   1905               657437   657437   89921
 


     bravais-lattice index     =            0
     lattice parameter (alat)  =      20.0080  a.u.
     unit-cell volume          =    4866.6460 (a.u.)^3
     number of atoms/cell      =           72
     number of atomic types    =            4
     number of electrons       =       264.00
     number of Kohn-Sham states=          158
     kinetic-energy cutoff     =     100.0000  Ry
     charge density cutoff     =     400.0000  Ry
     convergence threshold     =      1.0E-08
     mixing beta               =       0.5000
     number of iterations used =            8  plain     mixing
     Exchange-correlation      =  SLA  PW   PBX  PBC ( 1  4  3  4 0 0)

     celldm(1)=  20.008042  celldm(2)=   0.000000  celldm(3)=   0.000000
     celldm(4)=   0.000000  celldm(5)=   0.000000  celldm(6)=   0.000000

     crystal axes: (cart. coord. in units of alat)
               a(1) = (   1.000000   0.000000   0.000000 )  
               a(2) = (   0.000000   0.561467   0.000000 )  
               a(3) = (  -0.226371   0.000000   1.082161 )  

     reciprocal axes: (cart. coord. in units 2 pi/alat)
               b(1) = (  1.000000  0.000000  0.209184 )  
               b(2) = (  0.000000  1.781049  0.000000 )  
               b(3) = (  0.000000  0.000000  0.924077 )  


     PseudoPot. # 1 for  C read from file:
     /scratch/ahofstet/pseudo/C.pbe-n-kjpaw_psl.0.1.UPF
     MD5 check sum: 430fe95172b1e11ef3f8ed03bac87931
     Pseudo is Projector augmented-wave + core cor, Zval =  4.0
     Generated using "atomic" code by A. Dal Corso  v.5.0.99 svn rev. 10869
     Shape of augmentation charge: BESSEL
     Using radial grid of 1073 points,  4 beta functions with: 
                l(1) =   0
                l(2) =   0
                l(3) =   1
                l(4) =   1
     Q(r) pseudized with 0 coefficients 


     PseudoPot. # 2 for  N read from file:
     /scratch/ahofstet/pseudo/N.pbe-n-kjpaw_psl.0.1.UPF
     MD5 check sum: f73187c8b701007e77325f868c9291d7
     Pseudo is Projector augmented-wave + core cor, Zval =  5.0
     Generated using "atomic" code by A. Dal Corso  v.5.0.99 svn rev. 10869
     Shape of augmentation charge: PSQ
     Using radial grid of 1085 points,  4 beta functions with: 
                l(1) =   0
                l(2) =   0
                l(3) =   1
                l(4) =   1
     Q(r) pseudized with 0 coefficients 


     PseudoPot. # 3 for  H read from file:
     /scratch/ahofstet/pseudo/H.pbe-kjpaw_psl.0.1.UPF
     MD5 check sum: 94e484f906d9e9773b2f6e52662335b2
     Pseudo is Projector augmented-wave, Zval =  1.0
     Generated using "atomic" code by A. Dal Corso  v.5.0.99 svn rev. 10869
     Shape of augmentation charge: PSQ
     Using radial grid of  929 points,  2 beta functions with: 
                l(1) =   0
                l(2) =   0
     Q(r) pseudized with 0 coefficients 


     PseudoPot. # 4 for  O read from file:
     /scratch/ahofstet/pseudo/O.pbe-n-kjpaw_psl.0.1.UPF
     MD5 check sum: 3f94a2996a3169367d6eb21d9b593f20
     Pseudo is Projector augmented-wave + core cor, Zval =  6.0
     Generated using "atomic" code by A. Dal Corso  v.5.0.99 svn rev. 10869
     Shape of augmentation charge: BESSEL
     Using radial grid of 1095 points,  4 beta functions with: 
                l(1) =   0
                l(2) =   0
                l(3) =   1
                l(4) =   1
     Q(r) pseudized with 0 coefficients 


     atomic species   valence    mass     pseudopotential
        C              4.00    12.01070      C( 1.00)
        N              5.00    14.00670      N( 1.00)
        H              1.00     1.00794      H( 1.00)
        O              6.00    15.99940      O( 1.00)

      4 Sym. Ops., with inversion, found ( 2 have fractional translation)



   Cartesian axes

     site n.     atom                  positions (alat units)
         1           H   tau(   1) = (   0.1325380   0.1664110   0.9818256  )
         2           H   tau(   2) = (   0.5279058   0.4471445   0.6414154  )
         3           H   tau(   3) = (   0.6410912   0.3950560   0.1003351  )
         4           H   tau(   4) = (   0.2457234   0.1143225   0.4407453  )
         5           H   tau(   5) = (   0.2211294   0.2222532   0.8487213  )
         6           H   tau(   6) = (   0.4393143   0.5029867   0.7745198  )
         7           H   tau(   7) = (   0.5524997   0.3392138   0.2334394  )
         8           H   tau(   8) = (   0.3343149   0.0584803   0.3076409  )
         9           H   tau(   9) = (   0.1312489   0.0348445   0.7212664  )
        10           H   tau(  10) = (   0.5291949   0.3155780   0.9019746  )
        11           H   tau(  11) = (   0.6423803   0.5266224   0.3608942  )
        12           H   tau(  12) = (   0.2444343   0.2458889   0.1801861  )
        13           H   tau(  13) = (  -0.0936398   0.2103687   0.9423079  )
        14           H   tau(  14) = (   0.7540835   0.4911022   0.6809331  )
        15           H   tau(  15) = (   0.8672689   0.3510983   0.1398528  )
        16           H   tau(  16) = (   0.0195456   0.0703648   0.4012276  )
        17           H   tau(  17) = (   0.0220348   0.1556736   0.7629039  )
        18           H   tau(  18) = (   0.6384090   0.4364070   0.8603372  )
        19           H   tau(  19) = (   0.7515944   0.4057934   0.3192568  )
        20           H   tau(  20) = (   0.1352202   0.1250599   0.2218235  )
        21           H   tau(  21) = (  -0.1998191   0.1297491   1.0458595  )
        22           H   tau(  22) = (   0.8602629   0.4104826   0.5773815  )
        23           H   tau(  23) = (   0.9734483   0.4317179   0.0363012  )
        24           H   tau(  24) = (  -0.0866337   0.1509844   0.5047792  )
        25           O   tau(  25) = (   0.2716478   0.0424815   0.9148990  )
        26           O   tau(  26) = (   0.3887959   0.3232150   0.7083421  )
        27           O   tau(  27) = (   0.5019814   0.5189854   0.1672617  )
        28           O   tau(  28) = (   0.3848332   0.2382519   0.3738186  )
        29           N   tau(  29) = (  -0.0680178   0.3716730   0.9203495  )
        30           N   tau(  30) = (   0.7284616   0.0909395   0.7028915  )
        31           N   tau(  31) = (   0.8416470   0.1897939   0.1618112  )
        32           N   tau(  32) = (   0.0451676   0.4705274   0.3792692  )
        33           N   tau(  33) = (   0.0028417  -0.0130965   0.8614509  )
        34           N   tau(  34) = (   0.6576021   0.2676370   0.7617902  )
        35           N   tau(  35) = (   0.7707875   0.5745635   0.2207098  )
        36           N   tau(  36) = (   0.1160271   0.2938300   0.3203705  )
        37           N   tau(  37) = (  -0.1413809   0.4584284   0.9778475  )
        38           N   tau(  38) = (   0.8018247   0.1776949   0.6453936  )
        39           N   tau(  39) = (   0.9150101   0.1030386   0.1043132  )
        40           N   tau(  40) = (  -0.0281955   0.3837720   0.4367671  )
        41           O   tau(  41) = (   0.4536600   0.0038073   1.0090149  )
        42           O   tau(  42) = (   0.2067838   0.2845408   0.6142262  )
        43           O   tau(  43) = (   0.3199692   0.5576597   0.0731458  )
        44           O   tau(  44) = (   0.5668454   0.2769262   0.4679345  )
        45           C   tau(  45) = (   0.0829140   0.0804067   0.8007218  )
        46           C   tau(  46) = (   0.5775298   0.3611402   0.8225192  )
        47           C   tau(  47) = (   0.6907152   0.4810603   0.2814389  )
        48           C   tau(  48) = (   0.1960994   0.2003268   0.2596415  )
        49           N   tau(  49) = (   0.0186757   0.4218570   0.8499940  )
        50           N   tau(  50) = (   0.6417680   0.1411235   0.7732470  )
        51           N   tau(  51) = (   0.7549534   0.1396100   0.2321667  )
        52           N   tau(  52) = (   0.1318611   0.4203435   0.3089137  )
        53           C   tau(  53) = (   0.1770063   0.1392217   0.8920632  )
        54           C   tau(  54) = (   0.4834374   0.4199551   0.7311779  )
        55           C   tau(  55) = (   0.5966228   0.4222453   0.1900975  )
        56           C   tau(  56) = (   0.2901917   0.1415118   0.3509828  )
        57           N   tau(  57) = (  -0.1314028   0.1247403   0.9763772  )
        58           N   tau(  58) = (   0.7918465   0.4054738   0.6468639  )
        59           N   tau(  59) = (   0.9050319   0.4367266   0.1057835  )
        60           N   tau(  60) = (  -0.0182174   0.1559931   0.4352968  )
        61           O   tau(  61) = (   0.3716739   0.1936130   1.0301796  )
        62           O   tau(  62) = (   0.2887698   0.4743465   0.5930614  )
        63           O   tau(  63) = (   0.4019552   0.3678540   0.0519811  )
        64           O   tau(  64) = (   0.4848593   0.0871205   0.4890993  )
        65           N   tau(  65) = (   0.3753511   0.0856851   0.9926347  )
        66           N   tau(  66) = (   0.2850927   0.3664186   0.6306063  )
        67           N   tau(  67) = (   0.3982781   0.4757819   0.0895260  )
        68           N   tau(  68) = (   0.4885365   0.1950484   0.4515544  )
        69           C   tau(  69) = (  -0.0947269   0.0105300   0.9416287  )
        70           C   tau(  70) = (   0.7551706   0.2912635   0.6816123  )
        71           C   tau(  71) = (   0.8683560   0.5509370   0.1405320  )
        72           C   tau(  72) = (   0.0184585   0.2702035   0.4005484  )

     number of k points=     8
                       cart. coord. in units 2pi/alat
        k(    1) = (   0.0000000   0.0000000   0.0000000), wk =   0.1666667
        k(    2) = (   0.0000000   0.0000000  -0.4620386), wk =   0.1666667
        k(    3) = (   0.0000000   0.5936829   0.0000000), wk =   0.3333333
        k(    4) = (   0.0000000   0.5936829  -0.4620386), wk =   0.3333333
        k(    5) = (  -0.5000000   0.0000000  -0.1045921), wk =   0.1666667
        k(    6) = (  -0.5000000   0.0000000  -0.5666307), wk =   0.1666667
        k(    7) = (  -0.5000000   0.5936829  -0.1045921), wk =   0.3333333
        k(    8) = (  -0.5000000   0.5936829  -0.5666307), wk =   0.3333333

     Dense  grid:   657437 G-vectors     FFT dimensions: ( 128,  72, 144)

     Estimated max dynamical RAM per process >     550.01MB

     Estimated total allocated dynamical RAM >    4400.07MB

     Check: negative/imaginary core charge=   -0.000002    0.000000

     Initial potential from superposition of free atoms

     starting charge  263.99908, renormalised to  264.00000
     Starting wfc are  216 randomized atomic wfcs
     Checking if some PAW data can be deallocated... 

     total cpu time spent up to now is       28.3 secs

     per-process dynamical memory:   423.3 Mb

     Self-consistent Calculation

     iteration #  1     ecut=   100.00 Ry     beta=0.50
     Davidson diagonalization with overlap
     ethr =  1.00E-02,  avg # of iterations =  3.0

     total cpu time spent up to now is       92.0 secs

     total energy              =   -1424.13744122 Ry
     Harris-Foulkes estimate   =   -1427.89144186 Ry
     estimated scf accuracy    <       6.98504343 Ry

     iteration #  2     ecut=   100.00 Ry     beta=0.50
     Davidson diagonalization with overlap
     ethr =  2.65E-03,  avg # of iterations =  3.0

     total cpu time spent up to now is      139.4 secs

     total energy              =   -1425.23505521 Ry
     Harris-Foulkes estimate   =   -1426.13926581 Ry
     estimated scf accuracy    <       1.93423906 Ry

     iteration #  3     ecut=   100.00 Ry     beta=0.50
     Davidson diagonalization with overlap
     ethr =  7.33E-04,  avg # of iterations =  6.5

     total cpu time spent up to now is      190.8 secs

     total energy              =   -1425.65812061 Ry
     Harris-Foulkes estimate   =   -1425.79162102 Ry
     estimated scf accuracy    <       0.33833723 Ry

     iteration #  4     ecut=   100.00 Ry     beta=0.50
     Davidson diagonalization with overlap
     ethr =  1.28E-04,  avg # of iterations =  9.2

     total cpu time spent up to now is      247.3 secs

     total energy              =   -1425.71197616 Ry
     Harris-Foulkes estimate   =   -1425.73943922 Ry
     estimated scf accuracy    <       0.07054024 Ry

     iteration #  5     ecut=   100.00 Ry     beta=0.50
     Davidson diagonalization with overlap
     ethr =  2.67E-05,  avg # of iterations =  5.2

     total cpu time spent up to now is      295.5 secs

     total energy              =   -1425.72587078 Ry
     Harris-Foulkes estimate   =   -1425.73034557 Ry
     estimated scf accuracy    <       0.01282066 Ry

     iteration #  6     ecut=   100.00 Ry     beta=0.50
     Davidson diagonalization with overlap
     ethr =  4.86E-06,  avg # of iterations =  6.9

     total cpu time spent up to now is      350.7 secs

     total energy              =   -1425.72855078 Ry
     Harris-Foulkes estimate   =   -1425.72937669 Ry
     estimated scf accuracy    <       0.00204479 Ry

     iteration #  7     ecut=   100.00 Ry     beta=0.50
     Davidson diagonalization with overlap
     ethr =  7.75E-07,  avg # of iterations =  4.5

     total cpu time spent up to now is      396.4 secs

     total energy              =   -1425.72895510 Ry
     Harris-Foulkes estimate   =   -1425.72914749 Ry
     estimated scf accuracy    <       0.00049365 Ry

     iteration #  8     ecut=   100.00 Ry     beta=0.50
     Davidson diagonalization with overlap
     ethr =  1.87E-07,  avg # of iterations =  2.9

     total cpu time spent up to now is      439.5 secs

     total energy              =   -1425.72907582 Ry
     Harris-Foulkes estimate   =   -1425.72911623 Ry
     estimated scf accuracy    <       0.00012650 Ry

     iteration #  9     ecut=   100.00 Ry     beta=0.50
     Davidson diagonalization with overlap
     ethr =  4.79E-08,  avg # of iterations =  2.0

     total cpu time spent up to now is      478.3 secs

     total energy              =   -1425.72910146 Ry
     Harris-Foulkes estimate   =   -1425.72910206 Ry
     estimated scf accuracy    <       0.00000664 Ry

     iteration # 10     ecut=   100.00 Ry     beta=0.50
     Davidson diagonalization with overlap
     ethr =  2.51E-09,  avg # of iterations =  3.4

     total cpu time spent up to now is      542.9 secs

     total energy              =   -1425.72910558 Ry
     Harris-Foulkes estimate   =   -1425.72910600 Ry
     estimated scf accuracy    <       0.00000149 Ry

     iteration # 11     ecut=   100.00 Ry     beta=0.50
     Davidson diagonalization with overlap
     ethr =  5.65E-10,  avg # of iterations =  3.0

     total cpu time spent up to now is      585.6 secs

     total energy              =   -1425.72910579 Ry
     Harris-Foulkes estimate   =   -1425.72910593 Ry
     estimated scf accuracy    <       0.00000043 Ry

     iteration # 12     ecut=   100.00 Ry     beta=0.50
     Davidson diagonalization with overlap
     ethr =  1.63E-10,  avg # of iterations =  3.1

     total cpu time spent up to now is      630.6 secs

     total energy              =   -1425.72910590 Ry
     Harris-Foulkes estimate   =   -1425.72910593 Ry
     estimated scf accuracy    <       0.00000009 Ry

     iteration # 13     ecut=   100.00 Ry     beta=0.50
     Davidson diagonalization with overlap
     ethr =  3.46E-11,  avg # of iterations =  3.0

     total cpu time spent up to now is      672.3 secs

     End of self-consistent calculation

          k = 0.0000 0.0000 0.0000 ( 82145 PWs)   bands (ev):

   -25.5158 -25.5115 -25.4797 -25.4756 -21.5719 -21.5674 -21.5402 -21.5377
   -20.9535 -20.9512 -20.9480 -20.9458 -19.9874 -19.9750 -19.9674 -19.9557
   -17.0009 -16.9758 -16.9457 -16.9231 -16.5264 -16.4986 -16.3833 -16.3639
   -14.2326 -14.1989 -14.1037 -14.0802 -12.9919 -12.9746 -12.9516 -12.9482
   -10.9030 -10.8708 -10.8250 -10.7840  -9.6650  -9.6409  -9.4223  -9.4138
    -9.1755  -9.1195  -9.0631  -9.0028  -8.2834  -8.2217  -8.1926  -8.1913
    -7.8614  -7.8480  -7.7380  -7.6366  -7.5965  -7.5109  -7.2932  -7.2418
    -6.7256  -6.6693  -6.6405  -6.6045  -6.4104  -6.3905  -6.2668  -6.1751
    -5.8460  -5.8024  -5.7901  -5.7476  -5.6121  -5.5467  -5.3026  -5.2850
    -5.1945  -5.1898  -4.8063  -4.7994  -4.4187  -4.3485  -4.3421  -4.2387
    -3.9671  -3.9458  -3.8908  -3.8252  -3.7375  -3.7089  -3.6260  -3.6132
    -2.8904  -2.8466  -2.7555  -2.7078  -2.4396  -2.3548  -2.1173  -2.0133
    -1.9749  -1.8964  -1.7234  -1.7121  -1.6935  -1.6336  -1.6173  -1.6143
    -1.5195  -1.4322  -1.3691  -1.3140  -1.0349  -0.9509  -0.8355  -0.8130
    -0.8056  -0.7966  -0.7731  -0.7727  -0.6452  -0.6175  -0.5854  -0.5647
    -0.5502  -0.5305  -0.5032  -0.4608  -0.1453  -0.0953  -0.0818  -0.0657
     1.3702   1.3734   1.4618   1.5114   3.7859   3.8061   3.8254   3.8267
     5.4553   5.5285   5.5405   5.5495   5.8566   6.2332   6.2947   6.5083
     6.8730   6.9760   7.2339   7.2901   7.8810   7.9828   8.2829   8.3119
     8.3136   8.5475   8.5913   8.6180   8.6232   8.7149

          k = 0.0000 0.0000-0.4620 ( 82158 PWs)   bands (ev):

   -25.5138 -25.5138 -25.4775 -25.4775 -21.5698 -21.5698 -21.5389 -21.5389
   -20.9526 -20.9526 -20.9467 -20.9467 -19.9829 -19.9829 -19.9598 -19.9598
   -16.9909 -16.9909 -16.9319 -16.9319 -16.5135 -16.5135 -16.3726 -16.3726
   -14.2174 -14.2174 -14.0903 -14.0903 -12.9841 -12.9841 -12.9490 -12.9490
   -10.8909 -10.8909 -10.8005 -10.8005  -9.6532  -9.6532  -9.4179  -9.4179
    -9.1547  -9.1547  -9.0256  -9.0256  -8.2573  -8.2573  -8.1870  -8.1870
    -7.8531  -7.8531  -7.7073  -7.7073  -7.5350  -7.5350  -7.2683  -7.2683
    -6.7074  -6.7074  -6.6106  -6.6106  -6.4054  -6.4054  -6.2189  -6.2189
    -5.8202  -5.8202  -5.7741  -5.7741  -5.5800  -5.5800  -5.2863  -5.2863
    -5.1982  -5.1982  -4.8020  -4.8020  -4.4020  -4.4020  -4.2709  -4.2709
    -3.9604  -3.9604  -3.8476  -3.8476  -3.7438  -3.7438  -3.6019  -3.6019
    -2.8691  -2.8691  -2.7368  -2.7368  -2.4056  -2.4056  -2.0713  -2.0713
    -1.9053  -1.9053  -1.7518  -1.7518  -1.6587  -1.6587  -1.5884  -1.5884
    -1.5062  -1.5062  -1.3221  -1.3221  -1.0005  -1.0005  -0.8266  -0.8266
    -0.7989  -0.7989  -0.7709  -0.7709  -0.6256  -0.6256  -0.5765  -0.5765
    -0.5445  -0.5445  -0.4762  -0.4762  -0.1281  -0.1281  -0.0674  -0.0674
     1.3701   1.3701   1.4875   1.4875   3.7951   3.7951   3.8274   3.8274
     5.4895   5.4895   5.5410   5.5410   6.0021   6.0021   6.4627   6.4627
     6.8943   6.8943   7.2780   7.2780   7.9381   7.9381   8.2828   8.2828
     8.4690   8.4691   8.5715   8.5715   8.7030   8.7032

          k = 0.0000 0.5937 0.0000 ( 82190 PWs)   bands (ev):

   -25.5114 -25.5092 -25.4814 -25.4794 -21.5557 -21.5521 -21.5396 -21.5371
   -20.9620 -20.9607 -20.9411 -20.9402 -19.9838 -19.9776 -19.9653 -19.9595
   -17.0752 -17.0500 -17.0475 -17.0231 -16.4966 -16.4794 -16.3568 -16.3450
   -14.2057 -14.1853 -14.0781 -14.0639 -12.8883 -12.8791 -12.8675 -12.8648
   -10.8089 -10.7873 -10.7651 -10.7381  -9.6551  -9.6436  -9.4402  -9.4385
    -9.0157  -8.9640  -8.9508  -8.9128  -8.2330  -8.2188  -8.1817  -8.1699
    -7.8300  -7.8064  -7.7029  -7.6291  -7.6202  -7.5708  -7.3058  -7.2665
    -6.8720  -6.8518  -6.8225  -6.7729  -6.6607  -6.6461  -6.4341  -6.4023
    -5.8757  -5.8677  -5.8431  -5.8357  -5.5758  -5.5100  -5.4640  -5.3706
    -5.3569  -5.3137  -5.0517  -5.0414  -4.4241  -4.3743  -4.3321  -4.2851
    -3.8938  -3.8676  -3.8130  -3.7542  -3.7256  -3.6704  -3.6251  -3.5528
    -2.8685  -2.7901  -2.7626  -2.7472  -2.3116  -2.2862  -2.0993  -2.0793
    -1.9276  -1.8943  -1.7368  -1.7015  -1.6893  -1.6486  -1.6212  -1.5941
    -1.5838  -1.5522  -1.4503  -1.4465  -0.9784  -0.9531  -0.8835  -0.8721
    -0.8127  -0.7776  -0.7397  -0.7310  -0.5719  -0.5450  -0.5410  -0.4868
    -0.3596  -0.3285  -0.2105  -0.1928  -0.0780  -0.0731   0.3029   0.3150
     1.4568   1.4705   1.5900   1.6066   3.7622   3.7655   3.7972   3.8105
     5.5528   5.5747   5.6017   5.6144   6.0003   6.2899   6.3680   6.4119
     6.9961   7.0366   7.2087   7.2825   7.9885   8.0027   8.0528   8.0975
     8.3777   8.3793   8.4548   8.6049   8.6717   8.7424

          k = 0.0000 0.5937-0.4620 ( 82188 PWs)   bands (ev):

   -25.5103 -25.5103 -25.4804 -25.4804 -21.5540 -21.5540 -21.5382 -21.5382
   -20.9613 -20.9613 -20.9406 -20.9406 -19.9812 -19.9812 -19.9619 -19.9619
   -17.0672 -17.0672 -17.0307 -17.0307 -16.4882 -16.4882 -16.3506 -16.3506
   -14.1962 -14.1962 -14.0704 -14.0704 -12.8838 -12.8838 -12.8660 -12.8660
   -10.8013 -10.8013 -10.7484 -10.7484  -9.6494  -9.6494  -9.4392  -9.4392
    -8.9981  -8.9981  -8.9237  -8.9237  -8.2234  -8.2234  -8.1786  -8.1786
    -7.8099  -7.8099  -7.6957  -7.6957  -7.5748  -7.5748  -7.2847  -7.2847
    -6.8540  -6.8540  -6.8146  -6.8146  -6.6403  -6.6403  -6.4231  -6.4231
    -5.8685  -5.8685  -5.8439  -5.8439  -5.5478  -5.5478  -5.4206  -5.4206
    -5.3251  -5.3251  -5.0472  -5.0472  -4.4049  -4.4049  -4.3032  -4.3032
    -3.8642  -3.8642  -3.8176  -3.8176  -3.6885  -3.6885  -3.5798  -3.5798
    -2.8364  -2.8364  -2.7487  -2.7487  -2.3045  -2.3045  -2.0805  -2.0805
    -1.9101  -1.9101  -1.7355  -1.7355  -1.6467  -1.6467  -1.6008  -1.6008
    -1.5818  -1.5818  -1.4525  -1.4525  -0.9653  -0.9653  -0.8692  -0.8692
    -0.7986  -0.7986  -0.7389  -0.7389  -0.5624  -0.5624  -0.5114  -0.5114
    -0.3408  -0.3408  -0.2108  -0.2108  -0.0705  -0.0705   0.3095   0.3095
     1.4688   1.4688   1.5937   1.5937   3.7749   3.7749   3.7927   3.7927
     5.5736   5.5736   5.5966   5.5966   6.1277   6.1277   6.4126   6.4126
     7.0078   7.0078   7.2505   7.2505   7.9735   7.9735   8.0742   8.0742
     8.3599   8.3600   8.5831   8.5831   8.6525   8.6525

          k =-0.5000 0.0000-0.1046 ( 82212 PWs)   bands (ev):

   -25.5158 -25.5115 -25.4797 -25.4756 -21.5739 -21.5659 -21.5418 -21.5357
   -20.9535 -20.9512 -20.9480 -20.9458 -19.9874 -19.9750 -19.9674 -19.9556
   -17.0038 -16.9750 -16.9465 -16.9202 -16.5280 -16.4995 -16.3822 -16.3623
   -14.2340 -14.2010 -14.1012 -14.0791 -12.9971 -12.9636 -12.9609 -12.9449
   -10.9121 -10.8480 -10.8412 -10.7805  -9.6649  -9.6310  -9.4399  -9.4156
    -9.2024  -9.0900  -9.0743  -8.9752  -8.3206  -8.2402  -8.1855  -8.1621
    -7.8582  -7.8424  -7.7325  -7.6359  -7.5969  -7.5150  -7.2946  -7.2418
    -6.7361  -6.6724  -6.6216  -6.5851  -6.3872  -6.3627  -6.3002  -6.2599
    -5.8821  -5.8182  -5.8137  -5.6541  -5.5638  -5.5192  -5.3171  -5.2468
    -5.2204  -5.1904  -4.8541  -4.8319  -4.4270  -4.4027  -4.2873  -4.2151
    -4.0001  -3.8979  -3.8498  -3.7990  -3.7704  -3.7406  -3.6856  -3.5334
    -2.8797  -2.8058  -2.7773  -2.7454  -2.4703  -2.4336  -2.1130  -1.9388
    -1.9354  -1.8630  -1.7883  -1.7441  -1.6640  -1.6514  -1.5933  -1.5659
    -1.4780  -1.4771  -1.3522  -1.3438  -1.0221  -0.9499  -0.8578  -0.8461
    -0.8220  -0.8068  -0.7767  -0.7751  -0.6203  -0.5994  -0.5972  -0.5954
    -0.5655  -0.4951  -0.4628  -0.4514  -0.1505  -0.1039  -0.0854  -0.0698
     1.3569   1.3668   1.4677   1.5169   3.7869   3.8085   3.8283   3.8303
     5.4158   5.5091   5.5635   5.5809   5.8984   6.1862   6.2688   6.5281
     6.8383   7.0180   7.2973   7.3050   7.8666   7.9294   8.1071   8.1985
     8.4547   8.4640   8.5851   8.6779   8.7121   8.7943

          k =-0.5000 0.0000-0.5666 ( 82138 PWs)   bands (ev):

   -25.5138 -25.5138 -25.4775 -25.4775 -21.5703 -21.5703 -21.5384 -21.5384
   -20.9526 -20.9526 -20.9467 -20.9467 -19.9829 -19.9829 -19.9598 -19.9598
   -16.9926 -16.9926 -16.9301 -16.9301 -16.5148 -16.5148 -16.3712 -16.3712
   -14.2190 -14.2190 -14.0886 -14.0886 -12.9852 -12.9852 -12.9481 -12.9481
   -10.8919 -10.8919 -10.7989 -10.7989  -9.6488  -9.6488  -9.4274  -9.4274
    -9.1652  -9.1652  -9.0052  -9.0052  -8.2876  -8.2876  -8.1664  -8.1664
    -7.8488  -7.8488  -7.7053  -7.7053  -7.5370  -7.5370  -7.2681  -7.2681
    -6.7113  -6.7113  -6.5998  -6.5998  -6.3420  -6.3420  -6.3164  -6.3164
    -5.8312  -5.8312  -5.7574  -5.7574  -5.5295  -5.5295  -5.2921  -5.2921
    -5.1960  -5.1960  -4.8446  -4.8446  -4.4126  -4.4126  -4.2530  -4.2530
    -3.9721  -3.9721  -3.8190  -3.8190  -3.7215  -3.7215  -3.6240  -3.6240
    -2.8415  -2.8415  -2.7629  -2.7629  -2.4579  -2.4579  -2.0452  -2.0452
    -1.8852  -1.8852  -1.7398  -1.7398  -1.6626  -1.6626  -1.6100  -1.6100
    -1.4453  -1.4453  -1.3613  -1.3613  -0.9902  -0.9902  -0.8388  -0.8388
    -0.8223  -0.8223  -0.7765  -0.7765  -0.6160  -0.6160  -0.5953  -0.5953
    -0.5142  -0.5142  -0.4682  -0.4682  -0.1311  -0.1311  -0.0730  -0.0730
     1.3629   1.3629   1.4913   1.4913   3.7968   3.7968   3.8308   3.8308
     5.4556   5.4556   5.5735   5.5735   6.0037   6.0037   6.4212   6.4212
     6.9489   6.9489   7.3043   7.3043   7.9203   7.9203   8.1464   8.1464
     8.5405   8.5406   8.5900   8.5901   8.6647   8.6647

          k =-0.5000 0.5937-0.1046 ( 82216 PWs)   bands (ev):

   -25.5114 -25.5092 -25.4814 -25.4794 -21.5574 -21.5505 -21.5413 -21.5353
   -20.9620 -20.9607 -20.9411 -20.9402 -19.9838 -19.9776 -19.9654 -19.9594
   -17.0775 -17.0513 -17.0460 -17.0208 -16.4985 -16.4808 -16.3555 -16.3432
   -14.2075 -14.1878 -14.0754 -14.0624 -12.8945 -12.8717 -12.8713 -12.8620
   -10.8105 -10.7784 -10.7708 -10.7400  -9.6543  -9.6366  -9.4503  -9.4404
    -9.0255  -8.9599  -8.9512  -8.9034  -8.2476  -8.1986  -8.1785  -8.1757
    -7.8278  -7.8077  -7.7027  -7.6324  -7.6201  -7.5717  -7.3075  -7.2665
    -6.8734  -6.8655  -6.7937  -6.7118  -6.6843  -6.6705  -6.4541  -6.4455
    -5.9085  -5.8735  -5.8261  -5.7512  -5.5406  -5.4776  -5.4491  -5.3899
    -5.3540  -5.3384  -5.0980  -5.0955  -4.4014  -4.3902  -4.3477  -4.2684
    -3.8641  -3.8178  -3.8078  -3.7409  -3.7302  -3.7000  -3.6851  -3.5390
    -2.8559  -2.7694  -2.7670  -2.7366  -2.3588  -2.3198  -2.0940  -2.0386
    -1.9312  -1.8569  -1.7642  -1.7129  -1.6593  -1.6249  -1.6125  -1.5945
    -1.5767  -1.5397  -1.5026  -1.4405  -0.9699  -0.9589  -0.8912  -0.8659
    -0.8160  -0.8069  -0.7658  -0.7626  -0.5610  -0.5507  -0.4781  -0.4743
    -0.3573  -0.3387  -0.2102  -0.1972  -0.0802  -0.0779   0.3038   0.3165
     1.4491   1.4543   1.5983   1.6152   3.7639   3.7641   3.8004   3.8136
     5.5276   5.5909   5.6069   5.6086   6.0810   6.2380   6.3427   6.4323
     6.9918   7.0442   7.2352   7.2883   7.8454   7.9886   8.0719   8.1323
     8.2547   8.3099   8.4766   8.6607   8.6934   8.8103

          k =-0.5000 0.5937-0.5666 ( 82240 PWs)   bands (ev):

   -25.5103 -25.5103 -25.4804 -25.4804 -21.5546 -21.5546 -21.5377 -21.5377
   -20.9613 -20.9613 -20.9406 -20.9406 -19.9812 -19.9812 -19.9619 -19.9619
   -17.0688 -17.0688 -17.0290 -17.0290 -16.4899 -16.4899 -16.3491 -16.3491
   -14.1982 -14.1982 -14.0684 -14.0684 -12.8863 -12.8863 -12.8634 -12.8634
   -10.7998 -10.7998 -10.7500 -10.7500  -9.6454  -9.6454  -9.4455  -9.4455
    -9.0033  -9.0033  -8.9168  -8.9168  -8.2237  -8.2237  -8.1767  -8.1767
    -7.8093  -7.8093  -7.6962  -7.6962  -7.5763  -7.5763  -7.2856  -7.2856
    -6.8643  -6.8643  -6.7851  -6.7851  -6.6374  -6.6374  -6.4669  -6.4669
    -5.8969  -5.8969  -5.7767  -5.7767  -5.5180  -5.5180  -5.4116  -5.4116
    -5.3467  -5.3467  -5.0974  -5.0974  -4.4005  -4.4005  -4.3035  -4.3035
    -3.8459  -3.8459  -3.7778  -3.7778  -3.7226  -3.7226  -3.5976  -3.5976
    -2.8153  -2.8153  -2.7479  -2.7479  -2.3422  -2.3422  -2.0602  -2.0602
    -1.9037  -1.9037  -1.7233  -1.7233  -1.6587  -1.6587  -1.6021  -1.6021
    -1.5686  -1.5686  -1.4548  -1.4548  -0.9610  -0.9610  -0.8809  -0.8809
    -0.8122  -0.8122  -0.7666  -0.7666  -0.5396  -0.5396  -0.4884  -0.4884
    -0.3456  -0.3456  -0.2125  -0.2125  -0.0769  -0.0769   0.3119   0.3119
     1.4576   1.4576   1.6015   1.6015   3.7755   3.7755   3.7955   3.7955
     5.5549   5.5549   5.6112   5.6112   6.1517   6.1517   6.3951   6.3951
     7.0038   7.0038   7.2707   7.2707   7.9037   7.9037   8.1539   8.1539
     8.2974   8.2974   8.5292   8.5292   8.7368   8.7369

     highest occupied, lowest unoccupied level (ev):     1.6152    3.7622

!    total energy              =   -1425.72910591 Ry
     Harris-Foulkes estimate   =   -1425.72910592 Ry
     estimated scf accuracy    <          6.7E-09 Ry

     total all-electron energy =     -5376.232155 Ry

     The total energy is the sum of the following terms:

     one-electron contribution =    -798.89377609 Ry
     hartree contribution      =     503.42353222 Ry
     xc contribution           =    -285.19538298 Ry
     ewald contribution        =    -451.92573412 Ry
     Dispersion Correction     =      -0.32429877 Ry
     one-center paw contrib.   =    -392.81344617 Ry

     convergence has been achieved in  13 iterations

     Forces acting on atoms (cartesian axes, Ry/au):

     atom    1 type  3   force =     0.00041334   -0.00041056   -0.00137572
     atom    2 type  3   force =    -0.00041334   -0.00041056    0.00137572
     atom    3 type  3   force =    -0.00041334    0.00041056    0.00137572
     atom    4 type  3   force =     0.00041334    0.00041056   -0.00137572
     atom    5 type  3   force =     0.00005115   -0.00095851    0.00010968
     atom    6 type  3   force =    -0.00005115   -0.00095851   -0.00010968
     atom    7 type  3   force =    -0.00005115    0.00095851   -0.00010968
     atom    8 type  3   force =     0.00005115    0.00095851    0.00010968
     atom    9 type  3   force =    -0.00060753    0.00082262   -0.00023023
     atom   10 type  3   force =     0.00060753    0.00082262    0.00023023
     atom   11 type  3   force =     0.00060753   -0.00082262    0.00023023
     atom   12 type  3   force =    -0.00060753   -0.00082262   -0.00023023
     atom   13 type  3   force =    -0.00787122   -0.01665149    0.00724422
     atom   14 type  3   force =     0.00787122   -0.01665149   -0.00724422
     atom   15 type  3   force =     0.00787122    0.01665149   -0.00724422
     atom   16 type  3   force =    -0.00787122    0.01665149    0.00724422
     atom   17 type  3   force =     0.00057488   -0.00023324   -0.00062745
     atom   18 type  3   force =    -0.00057488   -0.00023324    0.00062745
     atom   19 type  3   force =    -0.00057488    0.00023324    0.00062745
     atom   20 type  3   force =     0.00057488    0.00023324   -0.00062745
     atom   21 type  3   force =     0.00021004   -0.00277589   -0.00043379
     atom   22 type  3   force =    -0.00021004   -0.00277589    0.00043379
     atom   23 type  3   force =    -0.00021004    0.00277589    0.00043379
     atom   24 type  3   force =     0.00021004    0.00277589   -0.00043379
     atom   25 type  4   force =     0.00114892    0.00047692    0.00114393
     atom   26 type  4   force =    -0.00114892    0.00047692   -0.00114393
     atom   27 type  4   force =    -0.00114892   -0.00047692   -0.00114393
     atom   28 type  4   force =     0.00114892   -0.00047692    0.00114393
     atom   29 type  2   force =     0.01357757    0.00285057   -0.01206207
     atom   30 type  2   force =    -0.01357757    0.00285057    0.01206207
     atom   31 type  2   force =    -0.01357757   -0.00285057    0.01206207
     atom   32 type  2   force =     0.01357757   -0.00285057   -0.01206207
     atom   33 type  2   force =     0.00263003    0.01248768   -0.00458326
     atom   34 type  2   force =    -0.00263003    0.01248768    0.00458326
     atom   35 type  2   force =    -0.00263003   -0.01248768    0.00458326
     atom   36 type  2   force =     0.00263003   -0.01248768   -0.00458326
     atom   37 type  2   force =     0.00023845    0.01132655    0.00092881
     atom   38 type  2   force =    -0.00023845    0.01132655   -0.00092881
     atom   39 type  2   force =    -0.00023845   -0.01132655   -0.00092881
     atom   40 type  2   force =     0.00023845   -0.01132655    0.00092881
     atom   41 type  4   force =    -0.00223196    0.00086524    0.00062487
     atom   42 type  4   force =     0.00223196    0.00086524   -0.00062487
     atom   43 type  4   force =     0.00223196   -0.00086524   -0.00062487
     atom   44 type  4   force =    -0.00223196   -0.00086524    0.00062487
     atom   45 type  1   force =    -0.00120550   -0.00271386    0.00325144
     atom   46 type  1   force =     0.00120550   -0.00271386   -0.00325144
     atom   47 type  1   force =     0.00120550    0.00271386   -0.00325144
     atom   48 type  1   force =    -0.00120550    0.00271386    0.00325144
     atom   49 type  2   force =    -0.00075284   -0.01032329    0.00231267
     atom   50 type  2   force =     0.00075284   -0.01032329   -0.00231267
     atom   51 type  2   force =     0.00075284    0.01032329   -0.00231267
     atom   52 type  2   force =    -0.00075284    0.01032329    0.00231267
     atom   53 type  1   force =     0.00098055    0.00111993   -0.00171931
     atom   54 type  1   force =    -0.00098055    0.00111993    0.00171931
     atom   55 type  1   force =    -0.00098055   -0.00111993    0.00171931
     atom   56 type  1   force =     0.00098055   -0.00111993   -0.00171931
     atom   57 type  2   force =    -0.00898144    0.01610009    0.00825311
     atom   58 type  2   force =     0.00898144    0.01610009   -0.00825311
     atom   59 type  2   force =     0.00898144   -0.01610009   -0.00825311
     atom   60 type  2   force =    -0.00898144   -0.01610009    0.00825311
     atom   61 type  4   force =     0.00260460    0.00199645   -0.00074437
     atom   62 type  4   force =    -0.00260460    0.00199645    0.00074437
     atom   63 type  4   force =    -0.00260460   -0.00199645    0.00074437
     atom   64 type  4   force =     0.00260460   -0.00199645   -0.00074437
     atom   65 type  2   force =    -0.00188092   -0.00334263   -0.00188320
     atom   66 type  2   force =     0.00188092   -0.00334263    0.00188320
     atom   67 type  2   force =     0.00188092    0.00334263    0.00188320
     atom   68 type  2   force =    -0.00188092    0.00334263   -0.00188320
     atom   69 type  1   force =     0.00384499   -0.01231764   -0.00307094
     atom   70 type  1   force =    -0.00384499   -0.01231764    0.00307094
     atom   71 type  1   force =    -0.00384499    0.01231764    0.00307094
     atom   72 type  1   force =     0.00384499    0.01231764   -0.00307094

     Total force =     0.085212     Total SCF correction =     0.000107


     Computing stress (Cartesian axis) and pressure

          total   stress  (Ry/bohr**3)                   (kbar)     P=   -0.94
  -0.00000415   0.00000000  -0.00000965         -0.61      0.00     -1.42
   0.00000000  -0.00000248   0.00000000          0.00     -0.36      0.00
  -0.00000965   0.00000000  -0.00001253         -1.42      0.00     -1.84


     Writing output data file scf.save
 
     init_run     :     26.67s CPU     27.68s WALL (       1 calls)
     electrons    :    613.63s CPU    644.19s WALL (       1 calls)
     forces       :     14.13s CPU     14.30s WALL (       1 calls)
     stress       :     78.70s CPU     78.98s WALL (       1 calls)

     Called by init_run:
     wfcinit      :     17.38s CPU     18.23s WALL (       1 calls)
     potinit      :      3.25s CPU      3.28s WALL (       1 calls)

     Called by electrons:
     c_bands      :    541.52s CPU    566.96s WALL (      13 calls)
     sum_band     :     63.11s CPU     67.36s WALL (      13 calls)
     v_of_rho     :      1.27s CPU      1.40s WALL (      14 calls)
     newd         :      2.90s CPU      3.49s WALL (      14 calls)
     PAW_pot      :      4.42s CPU      4.43s WALL (      14 calls)
     mix_rho      :      0.32s CPU      0.34s WALL (      13 calls)

     Called by c_bands:
     init_us_2    :      5.36s CPU      5.38s WALL (     232 calls)
     cegterg      :    522.93s CPU    548.31s WALL (     104 calls)

     Called by sum_band:
     sum_band:bec :      0.05s CPU      0.05s WALL (     104 calls)
     addusdens    :      3.19s CPU      3.72s WALL (      13 calls)

     Called by *egterg:
     h_psi        :    313.31s CPU    330.73s WALL (     558 calls)
     s_psi        :     52.05s CPU     52.06s WALL (     558 calls)
     g_psi        :      2.38s CPU      2.38s WALL (     446 calls)
     cdiaghg      :     37.74s CPU     37.74s WALL (     550 calls)

     Called by h_psi:
     h_psi:pot    :    310.03s CPU    327.37s WALL (     558 calls)
     h_psi:calbec :     48.21s CPU     48.39s WALL (     558 calls)
     vloc_psi     :    209.77s CPU    226.93s WALL (     558 calls)
     add_vuspsi   :     52.04s CPU     52.04s WALL (     558 calls)

     General routines
     calbec       :     72.91s CPU     73.18s WALL (     702 calls)
     fft          :      0.98s CPU      1.23s WALL (     206 calls)
     fftw         :    223.67s CPU    242.81s WALL (  107188 calls)
 
     Parallel routines
     fft_scatter  :     60.62s CPU     75.77s WALL (  107394 calls)
 
     PWSCF        : 12m20.83s CPU    13m44.79s WALL

 
   This run was terminated on:  12:37:51  13Nov2017            

=------------------------------------------------------------------------------=
   JOB DONE.
=------------------------------------------------------------------------------=
