
     Program PWSCF v.6.1 (svn rev. 13369) starts on  3Nov2017 at 21:51:29 

     This program is part of the open-source Quantum ESPRESSO suite
     for quantum simulation of materials; please cite
         "P. Giannozzi et al., J. Phys.:Condens. Matter 21 395502 (2009);
          URL http://www.quantum-espresso.org", 
     in publications or presentations arising from this work. More details at
     http://www.quantum-espresso.org/quote

     Parallel version (MPI), running on     8 processors
     R & G space division:  proc/nbgrp/npool/nimage =       8
     Waiting for input...
     Reading input from standard input

     Current dimensions of program PWSCF are:
     Max number of different atomic species (ntypx) = 10
     Max number of k-points (npk) =  40000
     Max angular momentum in pseudopotentials (lmaxx) =  3
               file C.pbe-n-kjpaw_psl.0.1.UPF: wavefunction(s)  2P renormalized
               file N.pbe-n-kjpaw_psl.0.1.UPF: wavefunction(s)  2P renormalized
               file H.pbe-kjpaw_psl.0.1.UPF: wavefunction(s)  1S renormalized
               file O.pbe-n-kjpaw_psl.0.1.UPF: wavefunction(s)  2P renormalized

     -------------------------------------
     Parameters for Dispersion Correction:
     -------------------------------------
       atom      VdW radius       C_6     

        C          2.744         60.710
        N          2.640         42.670
        H          1.892          4.857
        O          2.536         24.284

     Subspace diagonalization in iterative solution of the eigenvalue problem:
     a serial algorithm will be used

 
     Parallelization info
     --------------------
     sticks:   dense  smooth     PW     G-vecs:    dense   smooth      PW
     Min        1740    1740    454               123547   123547   16523
     Max        1741    1741    455               123550   123550   16525
     Sum       13925   13925   3633               988387   988387  132193
 


     bravais-lattice index     =            0
     lattice parameter (alat)  =      15.7473  a.u.
     unit-cell volume          =    7315.4039 (a.u.)^3
     number of atoms/cell      =          112
     number of atomic types    =            4
     number of electrons       =       384.00
     number of Kohn-Sham states=          230
     kinetic-energy cutoff     =     100.0000  Ry
     charge density cutoff     =     400.0000  Ry
     convergence threshold     =      1.0E-08
     mixing beta               =       0.5000
     number of iterations used =            8  plain     mixing
     Exchange-correlation      =  SLA  PW   PBX  PBC ( 1  4  3  4 0 0)

     celldm(1)=  15.747277  celldm(2)=   0.000000  celldm(3)=   0.000000
     celldm(4)=   0.000000  celldm(5)=   0.000000  celldm(6)=   0.000000

     crystal axes: (cart. coord. in units of alat)
               a(1) = (   1.000000   0.000000   0.000000 )  
               a(2) = (   0.000000   1.763449   0.000000 )  
               a(3) = (  -0.317078   0.000000   1.062329 )  

     reciprocal axes: (cart. coord. in units 2 pi/alat)
               b(1) = (  1.000000  0.000000  0.298474 )  
               b(2) = (  0.000000  0.567070  0.000000 )  
               b(3) = (  0.000000  0.000000  0.941328 )  


     PseudoPot. # 1 for  C read from file:
     /scratch/ahofstet/pseudo/C.pbe-n-kjpaw_psl.0.1.UPF
     MD5 check sum: 430fe95172b1e11ef3f8ed03bac87931
     Pseudo is Projector augmented-wave + core cor, Zval =  4.0
     Generated using "atomic" code by A. Dal Corso  v.5.0.99 svn rev. 10869
     Shape of augmentation charge: BESSEL
     Using radial grid of 1073 points,  4 beta functions with: 
                l(1) =   0
                l(2) =   0
                l(3) =   1
                l(4) =   1
     Q(r) pseudized with 0 coefficients 


     PseudoPot. # 2 for  N read from file:
     /scratch/ahofstet/pseudo/N.pbe-n-kjpaw_psl.0.1.UPF
     MD5 check sum: f73187c8b701007e77325f868c9291d7
     Pseudo is Projector augmented-wave + core cor, Zval =  5.0
     Generated using "atomic" code by A. Dal Corso  v.5.0.99 svn rev. 10869
     Shape of augmentation charge: PSQ
     Using radial grid of 1085 points,  4 beta functions with: 
                l(1) =   0
                l(2) =   0
                l(3) =   1
                l(4) =   1
     Q(r) pseudized with 0 coefficients 


     PseudoPot. # 3 for  H read from file:
     /scratch/ahofstet/pseudo/H.pbe-kjpaw_psl.0.1.UPF
     MD5 check sum: 94e484f906d9e9773b2f6e52662335b2
     Pseudo is Projector augmented-wave, Zval =  1.0
     Generated using "atomic" code by A. Dal Corso  v.5.0.99 svn rev. 10869
     Shape of augmentation charge: PSQ
     Using radial grid of  929 points,  2 beta functions with: 
                l(1) =   0
                l(2) =   0
     Q(r) pseudized with 0 coefficients 


     PseudoPot. # 4 for  O read from file:
     /scratch/ahofstet/pseudo/O.pbe-n-kjpaw_psl.0.1.UPF
     MD5 check sum: 3f94a2996a3169367d6eb21d9b593f20
     Pseudo is Projector augmented-wave + core cor, Zval =  6.0
     Generated using "atomic" code by A. Dal Corso  v.5.0.99 svn rev. 10869
     Shape of augmentation charge: BESSEL
     Using radial grid of 1095 points,  4 beta functions with: 
                l(1) =   0
                l(2) =   0
                l(3) =   1
                l(4) =   1
     Q(r) pseudized with 0 coefficients 


     atomic species   valence    mass     pseudopotential
        C              4.00    12.01070      C( 1.00)
        N              5.00    14.00670      N( 1.00)
        H              1.00     1.00794      H( 1.00)
        O              6.00    15.99940      O( 1.00)

      4 Sym. Ops., with inversion, found ( 2 have fractional translation)



   Cartesian axes

     site n.     atom                  positions (alat units)
         1           O   tau(   1) = (   0.2558517   0.4039384   0.7706268  )
         2           O   tau(   2) = (   0.9143905   0.4777863   0.2394624  )
         3           O   tau(   3) = (   0.4270707   1.3595110   0.2917020  )
         4           O   tau(   4) = (  -0.2314681   1.2856631   0.8228663  )
         5           N   tau(   5) = (   0.3728604   0.7464920   0.7412786  )
         6           N   tau(   6) = (   0.0313992   0.1352327   0.2101142  )
         7           N   tau(   7) = (   0.3100620   1.0169574   0.3210501  )
         8           N   tau(   8) = (   0.6515232   1.6282167   0.8522145  )
         9           C   tau(   9) = (   0.3088415   0.6513650   0.6223855  )
        10           C   tau(  10) = (   0.9673803   0.2303597   0.0912211  )
        11           C   tau(  11) = (   0.3740809   1.1120844   0.4399432  )
        12           C   tau(  12) = (  -0.2844579   1.5330897   0.9711076  )
        13           H   tau(  13) = (   0.3805554   0.8668881   0.7132154  )
        14           H   tau(  14) = (   0.0390942   0.0148366   0.1820510  )
        15           H   tau(  15) = (   0.3023670   0.8965613   0.3491133  )
        16           H   tau(  16) = (   0.6438283   1.7486128   0.8802777  )
        17           O   tau(  17) = (   0.4922475   0.4821753   0.0647574  )
        18           O   tau(  18) = (  -0.1662913   0.3995493   0.5959218  )
        19           O   tau(  19) = (   0.1906750   1.2812740   0.9975713  )
        20           O   tau(  20) = (   0.8492138   1.3639000   0.4664070  )
        21           N   tau(  21) = (   0.3311830   0.7121085   0.9010475  )
        22           N   tau(  22) = (  -0.0102782   0.1696162   0.3698832  )
        23           N   tau(  23) = (   0.3517394   1.0513409   0.1612812  )
        24           N   tau(  24) = (   0.6932006   1.5938332   0.6924456  )
        25           C   tau(  25) = (   0.2591461   0.4854511   0.6341590  )
        26           C   tau(  26) = (   0.9176848   0.3962736   0.1029946  )
        27           C   tau(  27) = (   0.4237764   1.2779983   0.4281697  )
        28           C   tau(  28) = (  -0.2347624   1.3671758   0.9593341  )
        29           H   tau(  29) = (   0.3984907   0.6197469   0.9476378  )
        30           H   tau(  30) = (   0.0570295   0.2619778   0.4164734  )
        31           H   tau(  31) = (   0.2844317   1.1437024   0.1146909  )
        32           H   tau(  32) = (   0.6258930   1.5014716   0.6458553  )
        33           O   tau(  33) = (   0.2420911   0.5609279   0.3877749  )
        34           O   tau(  34) = (   0.5835523   0.3207968   0.9189393  )
        35           O   tau(  35) = (   0.4408314   1.2025215   0.6745538  )
        36           O   tau(  36) = (   0.0993701   1.4426525   0.1433895  )
        37           N   tau(  37) = (   0.2954178   0.6959552   0.4714930  )
        38           N   tau(  38) = (   0.6368790   0.1857695   1.0026573  )
        39           N   tau(  39) = (   0.3875046   1.0674942   0.5908358  )
        40           N   tau(  40) = (   0.0460434   1.5776799   0.0596714  )
        41           C   tau(  41) = (   0.1704900   0.7079061   0.9399478  )
        42           C   tau(  42) = (   0.8290288   0.1738186   0.4087834  )
        43           C   tau(  43) = (   0.5124324   1.0555433   0.1223810  )
        44           C   tau(  44) = (  -0.1461064   1.5896308   0.6535453  )
        45           O   tau(  45) = (  -0.0838457   0.7533730   0.9507798  )
        46           O   tau(  46) = (   0.5746931   0.1283517   0.4196154  )
        47           O   tau(  47) = (   0.7667681   1.0100764   0.1115490  )
        48           O   tau(  48) = (   0.1082293   1.6350976   0.6427133  )
        49           N   tau(  49) = (   0.2186444   0.4329454   0.4912385  )
        50           N   tau(  50) = (   0.5601056   0.4487793   1.0224029  )
        51           N   tau(  51) = (   0.4642781   1.3305040   0.5710902  )
        52           N   tau(  52) = (   0.1228169   1.3146701   0.0399259  )
        53           C   tau(  53) = (   0.0954695   0.5974587   1.0497118  )
        54           C   tau(  54) = (   0.7540083   0.2842660   0.5185474  )
        55           C   tau(  55) = (   0.5874529   1.1659907   0.0126169  )
        56           C   tau(  56) = (  -0.0710859   1.4791834   0.5437813  )
        57           C   tau(  57) = (   0.2209207   0.2323169   0.7605231  )
        58           C   tau(  58) = (   0.8794595   0.6494078   0.2293588  )
        59           C   tau(  59) = (   0.4620017   1.5311324   0.3018056  )
        60           C   tau(  60) = (  -0.1965371   1.1140416   0.8329700  )
        61           N   tau(  61) = (   0.0602797   0.8030899   0.8795058  )
        62           N   tau(  62) = (   0.7188185   0.0786348   0.3483415  )
        63           N   tau(  63) = (   0.6226427   0.9603594   0.1828229  )
        64           N   tau(  64) = (  -0.0358961   1.6848146   0.7139873  )
        65           H   tau(  65) = (   0.3221341   0.1748783   0.6983516  )
        66           H   tau(  66) = (  -0.0193271   0.7068463   0.1671872  )
        67           H   tau(  67) = (   0.3607884   1.5885710   0.3639771  )
        68           H   tau(  68) = (   0.7022496   1.0566030   0.8951415  )
        69           H   tau(  69) = (   0.1107716   0.2158594   0.6898036  )
        70           H   tau(  70) = (   0.7693104   0.6658653   0.1586392  )
        71           H   tau(  71) = (   0.5721508   1.5475900   0.3725252  )
        72           H   tau(  72) = (  -0.0863880   1.0975841   0.9036895  )
        73           C   tau(  73) = (   0.1988626   0.1712099   0.9300749  )
        74           C   tau(  74) = (   0.8574014   0.7105148   0.3989106  )
        75           C   tau(  75) = (   0.4840599   1.5922395   0.1322538  )
        76           C   tau(  76) = (  -0.1744789   1.0529345   0.6634182  )
        77           N   tau(  77) = (  -0.0591934   0.6265882   1.0557933  )
        78           N   tau(  78) = (   0.5993454   0.2551365   0.5246289  )
        79           N   tau(  79) = (   0.7421159   1.1368612   0.0065355  )
        80           N   tau(  80) = (   0.0835771   1.5083129   0.5376998  )
        81           H   tau(  81) = (   0.1895616   0.0401564   0.9204621  )
        82           H   tau(  82) = (   0.8481004   0.8415683   0.3892978  )
        83           H   tau(  83) = (   0.4933608   1.7232930   0.1418666  )
        84           H   tau(  84) = (  -0.1651779   0.9218811   0.6730310  )
        85           H   tau(  85) = (   0.3078592   0.1970415   1.0001071  )
        86           H   tau(  86) = (  -0.0336020   0.6846832   0.4689427  )
        87           H   tau(  87) = (   0.3750632   1.5664079   0.0622216  )
        88           H   tau(  88) = (   0.7165244   1.0787662   0.5933860  )
        89           C   tau(  89) = (   0.0486945   0.2384704   1.0150137  )
        90           C   tau(  90) = (   0.7072333   0.6432543   0.4838493  )
        91           C   tau(  91) = (   0.6342279   1.5249790   0.0473151  )
        92           C   tau(  92) = (  -0.0243109   1.1201951   0.5784794  )
        93           H   tau(  93) = (  -0.0234118   0.3110006   0.9313539  )
        94           H   tau(  94) = (   0.6351270   0.5707241   0.4001895  )
        95           H   tau(  95) = (   0.7063342   1.4524488   0.1309749  )
        96           H   tau(  96) = (   0.0477954   1.1927253   0.6621392  )
        97           H   tau(  97) = (  -0.0300178   0.1395212   1.0526848  )
        98           H   tau(  98) = (   0.6285210   0.7422035   0.5215204  )
        99           H   tau(  99) = (   0.7129402   1.6239282   0.0096440  )
       100           H   tau( 100) = (   0.0544014   1.0212459   0.5408083  )
       101           C   tau( 101) = (   0.4001821   0.3366837   0.1022761  )
       102           C   tau( 102) = (   0.7416433   0.5450410   0.6334405  )
       103           C   tau( 103) = (   0.2827403   1.4267656   0.9600526  )
       104           C   tau( 104) = (  -0.0587209   1.2184084   0.4288883  )
       105           H   tau( 105) = (   0.4773011   0.2718006   0.1866757  )
       106           H   tau( 106) = (  -0.1812377   0.6099241   0.7178401  )
       107           H   tau( 107) = (   0.2056214   1.4916488   0.8756530  )
       108           H   tau( 108) = (   0.8641602   1.1535253   0.3444887  )
       109           H   tau( 109) = (   0.2893868   0.3711848   0.1641244  )
       110           H   tau( 110) = (   0.6308480   0.5105399   0.6952888  )
       111           H   tau( 111) = (   0.3935356   1.3922646   0.8982043  )
       112           H   tau( 112) = (   0.0520744   1.2529094   0.3670399  )

     number of k points=     8
                       cart. coord. in units 2pi/alat
        k(    1) = (   0.0000000   0.0000000   0.0000000), wk =   0.1666667
        k(    2) = (   0.0000000   0.0000000  -0.4706641), wk =   0.1666667
        k(    3) = (   0.0000000  -0.2835352   0.0000000), wk =   0.1666667
        k(    4) = (   0.0000000  -0.2835352  -0.4706641), wk =   0.1666667
        k(    5) = (   0.3333333   0.0000000   0.0994914), wk =   0.3333333
        k(    6) = (   0.3333333   0.0000000  -0.3711727), wk =   0.3333333
        k(    7) = (   0.3333333  -0.2835352   0.0994914), wk =   0.3333333
        k(    8) = (   0.3333333  -0.2835352  -0.3711727), wk =   0.3333333

     Dense  grid:   988387 G-vectors     FFT dimensions: ( 108, 180, 120)

     Estimated max dynamical RAM per process >    1179.10MB

     Estimated total allocated dynamical RAM >    9432.78MB

     Check: negative/imaginary core charge=   -0.000002    0.000000

     Initial potential from superposition of free atoms

     starting charge  383.99809, renormalised to  384.00000
     Starting wfc are  328 randomized atomic wfcs
     Checking if some PAW data can be deallocated... 

     total cpu time spent up to now is       70.0 secs

     per-process dynamical memory:   794.4 Mb

     Self-consistent Calculation

     iteration #  1     ecut=   100.00 Ry     beta=0.50
     Davidson diagonalization with overlap
     ethr =  1.00E-02,  avg # of iterations =  3.0

     total cpu time spent up to now is      262.6 secs

     total energy              =   -1978.26275203 Ry
     Harris-Foulkes estimate   =   -1982.74790955 Ry
     estimated scf accuracy    <       9.17709530 Ry

     iteration #  2     ecut=   100.00 Ry     beta=0.50
     Davidson diagonalization with overlap
     ethr =  2.39E-03,  avg # of iterations =  2.8

     total cpu time spent up to now is      372.1 secs

     total energy              =   -1978.77270194 Ry
     Harris-Foulkes estimate   =   -1979.30179650 Ry
     estimated scf accuracy    <       1.18559151 Ry

     iteration #  3     ecut=   100.00 Ry     beta=0.50
     Davidson diagonalization with overlap
     ethr =  3.09E-04,  avg # of iterations =  6.1

     total cpu time spent up to now is      593.2 secs

     total energy              =   -1979.44549731 Ry
     Harris-Foulkes estimate   =   -1979.82177221 Ry
     estimated scf accuracy    <       1.00793880 Ry

     iteration #  4     ecut=   100.00 Ry     beta=0.50
     Davidson diagonalization with overlap
     ethr =  2.62E-04,  avg # of iterations =  1.0

     total cpu time spent up to now is      692.3 secs

     total energy              =   -1979.36290385 Ry
     Harris-Foulkes estimate   =   -1979.52820077 Ry
     estimated scf accuracy    <       0.28845004 Ry

     iteration #  5     ecut=   100.00 Ry     beta=0.50
     Davidson diagonalization with overlap
     ethr =  7.51E-05,  avg # of iterations =  6.8

     total cpu time spent up to now is      902.6 secs

     total energy              =   -1979.55939954 Ry
     Harris-Foulkes estimate   =   -1979.61974894 Ry
     estimated scf accuracy    <       0.24180238 Ry

     iteration #  6     ecut=   100.00 Ry     beta=0.50
     Davidson diagonalization with overlap
     ethr =  6.30E-05,  avg # of iterations =  1.0

     total cpu time spent up to now is     1001.7 secs

     total energy              =   -1979.49326277 Ry
     Harris-Foulkes estimate   =   -1979.56634862 Ry
     estimated scf accuracy    <       0.12265880 Ry

     iteration #  7     ecut=   100.00 Ry     beta=0.50
     Davidson diagonalization with overlap
     ethr =  3.19E-05,  avg # of iterations =  8.2

     total cpu time spent up to now is     1201.7 secs

     total energy              =   -1979.54827483 Ry
     Harris-Foulkes estimate   =   -1979.55535409 Ry
     estimated scf accuracy    <       0.02640622 Ry

     iteration #  8     ecut=   100.00 Ry     beta=0.50
     Davidson diagonalization with overlap
     ethr =  6.88E-06,  avg # of iterations =  1.8

     total cpu time spent up to now is     1302.9 secs

     total energy              =   -1979.54160608 Ry
     Harris-Foulkes estimate   =   -1979.54893905 Ry
     estimated scf accuracy    <       0.01375530 Ry

     iteration #  9     ecut=   100.00 Ry     beta=0.50
     Davidson diagonalization with overlap
     ethr =  3.58E-06,  avg # of iterations =  6.8

     total cpu time spent up to now is     1482.8 secs

     total energy              =   -1979.54714143 Ry
     Harris-Foulkes estimate   =   -1979.54778939 Ry
     estimated scf accuracy    <       0.00148573 Ry

     iteration # 10     ecut=   100.00 Ry     beta=0.50
     Davidson diagonalization with overlap
     ethr =  3.87E-07,  avg # of iterations =  1.8

     total cpu time spent up to now is     1584.2 secs

     total energy              =   -1979.54700986 Ry
     Harris-Foulkes estimate   =   -1979.54723043 Ry
     estimated scf accuracy    <       0.00037893 Ry

     iteration # 11     ecut=   100.00 Ry     beta=0.50
     Davidson diagonalization with overlap
     ethr =  9.87E-08,  avg # of iterations =  4.0

     total cpu time spent up to now is     1766.3 secs

     total energy              =   -1979.54735821 Ry
     Harris-Foulkes estimate   =   -1979.54745261 Ry
     estimated scf accuracy    <       0.00030451 Ry

     iteration # 12     ecut=   100.00 Ry     beta=0.50
     Davidson diagonalization with overlap
     ethr =  7.93E-08,  avg # of iterations =  1.0

     total cpu time spent up to now is     1865.4 secs

     total energy              =   -1979.54730407 Ry
     Harris-Foulkes estimate   =   -1979.54736444 Ry
     estimated scf accuracy    <       0.00014680 Ry

     iteration # 13     ecut=   100.00 Ry     beta=0.50
     Davidson diagonalization with overlap
     ethr =  3.82E-08,  avg # of iterations =  4.0

     total cpu time spent up to now is     2010.5 secs

     total energy              =   -1979.54735679 Ry
     Harris-Foulkes estimate   =   -1979.54735733 Ry
     estimated scf accuracy    <       0.00000234 Ry

     iteration # 14     ecut=   100.00 Ry     beta=0.50
     Davidson diagonalization with overlap
     ethr =  6.10E-10,  avg # of iterations =  3.0

     total cpu time spent up to now is     2145.4 secs

     total energy              =   -1979.54735683 Ry
     Harris-Foulkes estimate   =   -1979.54735728 Ry
     estimated scf accuracy    <       0.00000105 Ry

     iteration # 15     ecut=   100.00 Ry     beta=0.50
     Davidson diagonalization with overlap
     ethr =  2.73E-10,  avg # of iterations =  4.1

     total cpu time spent up to now is     2256.1 secs

     total energy              =   -1979.54735684 Ry
     Harris-Foulkes estimate   =   -1979.54735693 Ry
     estimated scf accuracy    <       0.00000017 Ry

     iteration # 16     ecut=   100.00 Ry     beta=0.50
     Davidson diagonalization with overlap
     ethr =  4.40E-11,  avg # of iterations =  4.0

     total cpu time spent up to now is     2446.1 secs

     total energy              =   -1979.54735701 Ry
     Harris-Foulkes estimate   =   -1979.54735707 Ry
     estimated scf accuracy    <       0.00000016 Ry

     iteration # 17     ecut=   100.00 Ry     beta=0.50
     Davidson diagonalization with overlap
     ethr =  4.15E-11,  avg # of iterations =  1.0

     total cpu time spent up to now is     2545.0 secs

     total energy              =   -1979.54735699 Ry
     Harris-Foulkes estimate   =   -1979.54735702 Ry
     estimated scf accuracy    <       0.00000006 Ry

     iteration # 18     ecut=   100.00 Ry     beta=0.50
     Davidson diagonalization with overlap
     ethr =  1.63E-11,  avg # of iterations =  4.0

     total cpu time spent up to now is     2699.1 secs

     End of self-consistent calculation

          k = 0.0000 0.0000 0.0000 (123507 PWs)   bands (ev):

   -22.7055 -22.7013 -22.6956 -22.6915 -22.4221 -22.4213 -22.4157 -22.4149
   -20.6373 -20.6368 -20.6255 -20.6242 -20.3164 -20.3155 -20.3108 -20.3102
   -18.9570 -18.9451 -18.9365 -18.9261 -16.2142 -16.1836 -16.1204 -16.0916
   -15.5069 -15.5019 -15.4956 -15.4777 -15.0798 -15.0705 -15.0670 -15.0415
   -14.4896 -14.4730 -14.4700 -14.4643 -13.1445 -13.1213 -13.0912 -13.0882
   -12.9638 -12.9477 -12.9459 -12.9386 -11.7402 -11.7245 -11.7137 -11.7052
   -10.2248 -10.1662 -10.1378 -10.0932  -9.4330  -9.4120  -9.4003  -9.3769
    -9.2137  -9.2047  -9.1245  -9.0439  -8.7436  -8.7395  -8.6707  -8.6218
    -8.0264  -8.0093  -7.9958  -7.9924  -7.7304  -7.6727  -7.6294  -7.5425
    -7.2424  -7.1821  -7.1515  -7.0706  -6.9431  -6.7746  -6.7717  -6.5606
    -6.5482  -6.4835  -6.4658  -6.3925  -6.0998  -6.0621  -6.0367  -6.0197
    -5.9514  -5.8435  -5.7770  -5.6605  -5.4423  -5.4001  -5.3632  -5.3630
    -5.3423  -5.3136  -5.2069  -5.1460  -4.8225  -4.8032  -4.6616  -4.6201
    -4.6086  -4.5834  -4.2765  -4.2375  -4.1986  -4.1796  -4.0883  -4.0444
    -3.8145  -3.8020  -3.7369  -3.7178  -3.6656  -3.6121  -3.5077  -3.4289
    -3.3666  -3.3197  -3.3132  -3.2341  -3.0201  -2.9200  -2.8422  -2.7810
    -2.7773  -2.7004  -2.5867  -2.5558  -2.3697  -2.3536  -2.3453  -2.3000
    -2.2800  -2.2185  -2.1371  -2.0993  -1.9937  -1.9155  -1.8203  -1.7491
    -1.6986  -1.6626  -1.6576  -1.6431  -1.5146  -1.4933  -1.4554  -1.4342
    -1.3937  -1.3342  -1.2863  -1.2708  -1.2637  -1.1899  -1.1557  -1.1437
    -1.1184  -1.0496  -0.9684  -0.9614  -0.9122  -0.8269  -0.8038  -0.7868
    -0.7479  -0.7153  -0.7152  -0.5818  -0.4608  -0.4390  -0.4303  -0.4211
     0.1282   0.1501   0.1919   0.2200   0.3233   0.3574   0.3804   0.4018
     1.0516   1.0533   1.1261   1.1483   1.1794   1.2407   1.2798   1.3016
     4.7018   4.7790   4.8787   4.8879   4.9072   4.9188   5.1050   5.1460
     6.5063   6.7619   6.9051   6.9313   7.0367   7.0993   7.1018   7.1506
     7.2117   7.2646   7.3194   7.3442   7.3769   7.4131   7.4668   7.6744
     7.7250   7.7318   7.9280   7.9307   8.0122   8.1160   8.1335   8.1397
     8.1979   8.3246   8.4930   8.5618   8.6004   8.6112

          k = 0.0000 0.0000-0.4707 (123472 PWs)   bands (ev):

   -22.7002 -22.7002 -22.6961 -22.6961 -22.4221 -22.4221 -22.4156 -22.4156
   -20.6325 -20.6325 -20.6315 -20.6315 -20.3126 -20.3126 -20.3117 -20.3117
   -18.9487 -18.9487 -18.9323 -18.9323 -16.1883 -16.1883 -16.1228 -16.1228
   -15.5214 -15.5214 -15.4858 -15.4858 -15.0570 -15.0570 -15.0457 -15.0457
   -14.4870 -14.4870 -14.4622 -14.4622 -13.1313 -13.1313 -13.0701 -13.0701
   -12.9982 -12.9982 -12.9318 -12.9318 -11.7283 -11.7283 -11.6978 -11.6978
   -10.1868 -10.1868 -10.1763 -10.1763  -9.3998  -9.3998  -9.3633  -9.3633
    -9.2270  -9.2270  -9.0536  -9.0536  -8.7154  -8.7154  -8.6540  -8.6540
    -8.0470  -8.0470  -8.0394  -8.0394  -7.6666  -7.6666  -7.6190  -7.6190
    -7.1677  -7.1677  -7.0418  -7.0418  -6.9123  -6.9123  -6.7209  -6.7209
    -6.4907  -6.4907  -6.4450  -6.4450  -6.0705  -6.0705  -5.9536  -5.9536
    -5.9275  -5.9275  -5.6824  -5.6824  -5.4569  -5.4569  -5.4420  -5.4420
    -5.3292  -5.3292  -5.2795  -5.2795  -4.6631  -4.6631  -4.6021  -4.6021
    -4.4474  -4.4474  -4.3776  -4.3776  -4.2783  -4.2783  -4.2178  -4.2178
    -3.6667  -3.6667  -3.6430  -3.6430  -3.5451  -3.5451  -3.4455  -3.4455
    -3.3725  -3.3725  -3.3278  -3.3278  -3.0319  -3.0319  -2.9049  -2.9049
    -2.6912  -2.6912  -2.6353  -2.6353  -2.3228  -2.3228  -2.2892  -2.2892
    -2.2033  -2.2033  -2.1286  -2.1286  -1.9873  -1.9873  -1.8621  -1.8621
    -1.6868  -1.6868  -1.5992  -1.5992  -1.4592  -1.4592  -1.4101  -1.4101
    -1.3554  -1.3554  -1.2606  -1.2606  -1.2167  -1.2167  -1.1520  -1.1520
    -1.0768  -1.0768  -0.9652  -0.9652  -0.8952  -0.8952  -0.8251  -0.8251
    -0.7386  -0.7386  -0.6247  -0.6247  -0.4543  -0.4543  -0.4440  -0.4440
     0.1424   0.1424   0.1860   0.1860   0.3335   0.3335   0.3820   0.3820
     1.0796   1.0796   1.1205   1.1205   1.2154   1.2154   1.2849   1.2849
     4.7662   4.7662   4.8309   4.8309   4.9480   4.9480   5.0958   5.0958
     6.6672   6.6672   6.8292   6.8292   7.0605   7.0605   7.1311   7.1311
     7.1956   7.1956   7.3745   7.3745   7.5201   7.5201   7.5589   7.5589
     7.7783   7.7783   7.8586   7.8586   8.0032   8.0032   8.1535   8.1535
     8.3441   8.3441   8.5201   8.5201   8.5716   8.5716

          k = 0.0000-0.2835 0.0000 (123488 PWs)   bands (ev):

   -22.7038 -22.7038 -22.6931 -22.6931 -22.4217 -22.4217 -22.4153 -22.4153
   -20.6370 -20.6370 -20.6248 -20.6248 -20.3160 -20.3160 -20.3105 -20.3105
   -18.9525 -18.9525 -18.9298 -18.9298 -16.2013 -16.2013 -16.1037 -16.1037
   -15.5062 -15.5062 -15.4849 -15.4849 -15.0781 -15.0781 -15.0513 -15.0513
   -14.4815 -14.4815 -14.4669 -14.4669 -13.1403 -13.1403 -13.0678 -13.0678
   -12.9937 -12.9937 -12.9188 -12.9188 -11.7303 -11.7303 -11.7112 -11.7112
   -10.1840 -10.1840 -10.1299 -10.1299  -9.4164  -9.4164  -9.3937  -9.3937
    -9.2303  -9.2303  -9.0605  -9.0605  -8.7366  -8.7366  -8.6491  -8.6491
    -8.0205  -8.0205  -7.9879  -7.9879  -7.6887  -7.6887  -7.6075  -7.6075
    -7.2106  -7.2106  -7.1152  -7.1152  -6.9143  -6.9143  -6.6174  -6.6174
    -6.4957  -6.4957  -6.4403  -6.4403  -6.1162  -6.1162  -5.9815  -5.9815
    -5.9368  -5.9368  -5.6876  -5.6876  -5.4221  -5.4221  -5.3511  -5.3511
    -5.3309  -5.3309  -5.1707  -5.1707  -4.8131  -4.8131  -4.6564  -4.6564
    -4.5957  -4.5957  -4.2459  -4.2459  -4.1952  -4.1952  -4.0729  -4.0729
    -3.7963  -3.7963  -3.7554  -3.7554  -3.5663  -3.5663  -3.5226  -3.5226
    -3.3591  -3.3591  -3.2996  -3.2996  -2.9317  -2.9317  -2.8000  -2.8000
    -2.7631  -2.7631  -2.5516  -2.5516  -2.3814  -2.3814  -2.3291  -2.3291
    -2.2259  -2.2259  -2.0981  -2.0981  -1.9675  -1.9675  -1.8044  -1.8044
    -1.6786  -1.6786  -1.6462  -1.6462  -1.5021  -1.5021  -1.4305  -1.4305
    -1.3931  -1.3931  -1.2706  -1.2706  -1.1892  -1.1892  -1.1325  -1.1325
    -1.1199  -1.1199  -0.9368  -0.9368  -0.9061  -0.9061  -0.8197  -0.8197
    -0.7352  -0.7352  -0.6254  -0.6254  -0.4458  -0.4458  -0.4261  -0.4261
     0.1315   0.1315   0.2241   0.2241   0.3266   0.3266   0.3952   0.3952
     1.0580   1.0580   1.1253   1.1253   1.2155   1.2155   1.2922   1.2922
     4.7405   4.7405   4.8672   4.8672   4.9307   4.9307   5.1241   5.1241
     6.6036   6.6036   6.9710   6.9710   7.0215   7.0215   7.1323   7.1323
     7.2781   7.2781   7.3006   7.3006   7.4297   7.4297   7.5128   7.5128
     7.6976   7.6976   7.9275   7.9275   8.0966   8.0967   8.2519   8.2519
     8.2675   8.2675   8.5317   8.5317   8.5892   8.5892

          k = 0.0000-0.2835-0.4707 (123560 PWs)   bands (ev):

   -22.7002 -22.7002 -22.6961 -22.6961 -22.4221 -22.4221 -22.4156 -22.4156
   -20.6323 -20.6323 -20.6317 -20.6317 -20.3126 -20.3126 -20.3117 -20.3117
   -18.9487 -18.9487 -18.9323 -18.9323 -16.1883 -16.1883 -16.1228 -16.1228
   -15.5214 -15.5214 -15.4858 -15.4858 -15.0523 -15.0523 -15.0505 -15.0505
   -14.4836 -14.4836 -14.4655 -14.4655 -13.1123 -13.1123 -13.1025 -13.1025
   -12.9597 -12.9597 -12.9569 -12.9569 -11.7192 -11.7192 -11.7070 -11.7070
   -10.2233 -10.2233 -10.1370 -10.1370  -9.4052  -9.4052  -9.3613  -9.3613
    -9.2071  -9.2071  -9.0720  -9.0720  -8.7252  -8.7252  -8.6485  -8.6485
    -8.0569  -8.0569  -8.0311  -8.0311  -7.7011  -7.7011  -7.5780  -7.5780
    -7.1291  -7.1291  -7.0892  -7.0892  -6.9059  -6.9059  -6.7062  -6.7062
    -6.4966  -6.4966  -6.4466  -6.4466  -6.0331  -6.0331  -5.9861  -5.9861
    -5.9391  -5.9391  -5.6906  -5.6906  -5.4666  -5.4666  -5.4288  -5.4288
    -5.3371  -5.3371  -5.2799  -5.2799  -4.6344  -4.6344  -4.6180  -4.6180
    -4.4143  -4.4143  -4.3965  -4.3965  -4.2689  -4.2689  -4.2463  -4.2463
    -3.6904  -3.6904  -3.6001  -3.6001  -3.5644  -3.5644  -3.4136  -3.4136
    -3.3579  -3.3579  -3.3335  -3.3335  -3.0955  -3.0955  -2.8819  -2.8819
    -2.6817  -2.6817  -2.6517  -2.6517  -2.3015  -2.3015  -2.2734  -2.2734
    -2.1831  -2.1831  -2.1749  -2.1749  -1.9600  -1.9600  -1.9066  -1.9066
    -1.6477  -1.6477  -1.6255  -1.6255  -1.4450  -1.4450  -1.4214  -1.4214
    -1.3656  -1.3656  -1.2552  -1.2552  -1.1893  -1.1893  -1.1808  -1.1808
    -1.0212  -1.0212  -0.9941  -0.9941  -0.9060  -0.9060  -0.8640  -0.8640
    -0.6741  -0.6741  -0.6612  -0.6612  -0.4546  -0.4546  -0.4413  -0.4413
     0.1329   0.1329   0.2074   0.2074   0.3244   0.3244   0.3792   0.3792
     1.0854   1.0854   1.1166   1.1166   1.2150   1.2150   1.2847   1.2847
     4.7696   4.7696   4.8263   4.8263   4.9526   4.9526   5.0929   5.0929
     6.7283   6.7283   6.7445   6.7445   7.0744   7.0744   7.1253   7.1253
     7.2414   7.2414   7.3219   7.3219   7.5294   7.5294   7.5794   7.5794
     7.7650   7.7650   7.8213   7.8213   8.0748   8.0748   8.1800   8.1800
     8.3203   8.3203   8.4628   8.4628   8.6618   8.6619

          k = 0.3333 0.0000 0.0995 (123517 PWs)   bands (ev):

   -22.7030 -22.6988 -22.6980 -22.6939 -22.4218 -22.4214 -22.4156 -22.4152
   -20.6343 -20.6336 -20.6284 -20.6273 -20.3151 -20.3143 -20.3123 -20.3116
   -18.9541 -18.9482 -18.9340 -18.9288 -16.2069 -16.1916 -16.1135 -16.0991
   -15.5049 -15.4988 -15.4948 -15.4831 -15.0764 -15.0699 -15.0625 -15.0481
   -14.4840 -14.4741 -14.4706 -14.4664 -13.1327 -13.1136 -13.1058 -13.0975
   -12.9569 -12.9477 -12.9464 -12.9442 -11.7358 -11.7281 -11.7104 -11.7063
   -10.2118 -10.1826 -10.1267 -10.1044  -9.4306  -9.4219  -9.3912  -9.3814
    -9.2142  -9.2093  -9.0997  -9.0594  -8.7455  -8.7434  -8.6577  -8.6337
    -8.0190  -8.0058  -8.0037  -7.9972  -7.7151  -7.6856  -7.5994  -7.5567
    -7.2134  -7.1841  -7.1291  -7.0819  -6.8992  -6.8070  -6.7124  -6.5863
    -6.5476  -6.5231  -6.4489  -6.4134  -6.1017  -6.0701  -6.0272  -6.0214
    -5.9737  -5.8805  -5.8088  -5.7469  -5.4343  -5.3787  -5.3693  -5.3406
    -5.3107  -5.2834  -5.2537  -5.2046  -4.7712  -4.7338  -4.6816  -4.6659
    -4.5330  -4.4845  -4.3709  -4.2972  -4.1935  -4.1518  -4.1172  -4.0888
    -3.8259  -3.8213  -3.7248  -3.7202  -3.6367  -3.6041  -3.4661  -3.4230
    -3.3562  -3.3286  -3.3246  -3.2885  -3.0000  -2.9410  -2.8179  -2.7898
    -2.7198  -2.6829  -2.6201  -2.5968  -2.3359  -2.3302  -2.3177  -2.3062
    -2.2455  -2.1951  -2.1721  -2.1219  -1.9182  -1.8990  -1.8496  -1.8225
    -1.6856  -1.6722  -1.6222  -1.5897  -1.5327  -1.4952  -1.4932  -1.4570
    -1.4187  -1.3442  -1.2533  -1.2410  -1.2226  -1.1978  -1.1833  -1.1374
    -1.1131  -1.0889  -0.9678  -0.9599  -0.8642  -0.8290  -0.8274  -0.7971
    -0.7345  -0.7256  -0.6914  -0.6260  -0.4399  -0.4354  -0.4308  -0.4182
     0.1529   0.1876   0.1911   0.2285   0.3214   0.3316   0.3870   0.4003
     1.0656   1.0667   1.1288   1.1442   1.1835   1.2143   1.2725   1.2802
     4.7144   4.7517   4.8711   4.8758   4.9017   4.9248   5.1249   5.1459
     6.6376   6.7819   6.7930   6.8555   6.8782   6.8792   7.0303   7.0666
     7.2729   7.2894   7.3071   7.3478   7.5114   7.6389   7.6753   7.6825
     7.7458   7.7514   7.8426   7.8460   8.0501   8.0510   8.1532   8.1743
     8.3154   8.3754   8.4233   8.5285   8.5540   8.5973

          k = 0.3333 0.0000-0.3712 (123536 PWs)   bands (ev):

   -22.7042 -22.7001 -22.6962 -22.6921 -22.4225 -22.4215 -22.4162 -22.4153
   -20.6377 -20.6366 -20.6270 -20.6266 -20.3150 -20.3139 -20.3103 -20.3097
   -18.9535 -18.9441 -18.9363 -18.9284 -16.2035 -16.1726 -16.1364 -16.1087
   -15.5216 -15.5205 -15.4886 -15.4816 -15.0602 -15.0525 -15.0501 -15.0452
   -14.4967 -14.4748 -14.4658 -14.4602 -13.1635 -13.0951 -13.0891 -13.0457
   -13.0124 -12.9884 -12.9486 -12.9197 -11.7280 -11.7246 -11.7131 -11.6877
   -10.1950 -10.1852 -10.1769 -10.1696  -9.4014  -9.3926  -9.3756  -9.3565
    -9.2513  -9.2017  -9.0774  -9.0277  -8.7320  -8.6964  -8.6690  -8.6461
    -8.0548  -8.0523  -8.0374  -8.0278  -7.6783  -7.6409  -7.6167  -7.6146
    -7.2069  -7.0982  -7.0688  -7.0243  -6.9885  -6.8552  -6.7972  -6.5684
    -6.4895  -6.4827  -6.4658  -6.4143  -6.1613  -6.0869  -6.0538  -6.0385
    -5.8748  -5.7650  -5.7491  -5.5891  -5.4970  -5.4967  -5.4621  -5.4190
    -5.3330  -5.3009  -5.2630  -5.2188  -4.7808  -4.7631  -4.6253  -4.5843
    -4.5559  -4.5226  -4.3590  -4.2697  -4.2578  -4.2247  -4.2161  -4.1967
    -3.7118  -3.6512  -3.6288  -3.5977  -3.5468  -3.5385  -3.4714  -3.4665
    -3.3949  -3.3548  -3.3341  -3.3142  -3.0918  -2.9998  -2.9412  -2.8302
    -2.6979  -2.6588  -2.6290  -2.5553  -2.4067  -2.3201  -2.3106  -2.2908
    -2.2448  -2.1436  -2.1247  -2.0806  -1.9678  -1.8959  -1.8387  -1.8348
    -1.7744  -1.7155  -1.6732  -1.5593  -1.5152  -1.4377  -1.4061  -1.4043
    -1.3607  -1.3289  -1.2415  -1.2005  -1.1939  -1.1802  -1.1605  -1.1507
    -1.1252  -1.0525  -1.0140  -0.9758  -0.9323  -0.8604  -0.8261  -0.8108
    -0.7953  -0.6802  -0.6670  -0.6253  -0.4519  -0.4382  -0.4306  -0.4195
     0.0918   0.1765   0.2112   0.2372   0.3160   0.3282   0.3700   0.3902
     1.0145   1.0728   1.1289   1.1510   1.2017   1.2325   1.2619   1.3023
     4.7147   4.7965   4.8119   4.8377   4.9140   4.9886   5.0947   5.1175
     6.5790   6.7283   6.7621   6.7996   6.9305   6.9673   7.0452   7.1829
     7.2079   7.2464   7.2679   7.4351   7.4915   7.5403   7.5526   7.6375
     7.7760   7.7954   7.8576   7.9454   8.0971   8.1349   8.1910   8.2446
     8.3668   8.3915   8.4651   8.4668   8.5733   8.5947

          k = 0.3333-0.2835 0.0995 (123558 PWs)   bands (ev):

   -22.7017 -22.7017 -22.6952 -22.6952 -22.4216 -22.4216 -22.4154 -22.4154
   -20.6340 -20.6340 -20.6278 -20.6278 -20.3148 -20.3148 -20.3119 -20.3119
   -18.9515 -18.9515 -18.9310 -18.9310 -16.1998 -16.1998 -16.1058 -16.1058
   -15.5027 -15.5027 -15.4881 -15.4881 -15.0741 -15.0741 -15.0543 -15.0543
   -14.4775 -14.4775 -14.4702 -14.4702 -13.1359 -13.1359 -13.0741 -13.0741
   -12.9936 -12.9936 -12.9188 -12.9188 -11.7292 -11.7292 -11.7108 -11.7108
   -10.1717 -10.1717 -10.1439 -10.1439  -9.4171  -9.4171  -9.3954  -9.3954
    -9.2246  -9.2246  -9.0652  -9.0652  -8.7335  -8.7335  -8.6531  -8.6531
    -8.0166  -8.0166  -7.9930  -7.9930  -7.6663  -7.6663  -7.6179  -7.6179
    -7.1820  -7.1820  -7.1332  -7.1332  -6.8683  -6.8683  -6.6466  -6.6466
    -6.4861  -6.4861  -6.4625  -6.4625  -6.1091  -6.1091  -6.0060  -6.0060
    -5.9374  -5.9374  -5.7531  -5.7531  -5.4223  -5.4223  -5.3456  -5.3456
    -5.2861  -5.2861  -5.2243  -5.2243  -4.7569  -4.7569  -4.6758  -4.6758
    -4.5139  -4.5139  -4.3346  -4.3346  -4.1693  -4.1693  -4.1101  -4.1101
    -3.7877  -3.7877  -3.7647  -3.7647  -3.5451  -3.5451  -3.5216  -3.5216
    -3.3535  -3.3535  -3.3192  -3.3192  -2.9432  -2.9432  -2.8096  -2.8096
    -2.7007  -2.7007  -2.5928  -2.5928  -2.3465  -2.3465  -2.3112  -2.3112
    -2.2041  -2.2041  -2.1369  -2.1369  -1.9254  -1.9254  -1.8510  -1.8510
    -1.6460  -1.6460  -1.6160  -1.6160  -1.5174  -1.5174  -1.4709  -1.4709
    -1.4104  -1.4104  -1.2252  -1.2252  -1.1847  -1.1847  -1.1463  -1.1463
    -1.1424  -1.1424  -0.9496  -0.9496  -0.8624  -0.8624  -0.7983  -0.7983
    -0.7456  -0.7456  -0.6594  -0.6594  -0.4346  -0.4346  -0.4244  -0.4244
     0.1540   0.1540   0.2317   0.2317   0.3219   0.3219   0.3930   0.3930
     1.0648   1.0648   1.1380   1.1380   1.1993   1.1993   1.2760   1.2760
     4.7324   4.7324   4.8779   4.8779   4.9103   4.9103   5.1345   5.1345
     6.6929   6.6929   6.7936   6.7936   6.9501   6.9501   7.0226   7.0226
     7.2985   7.2985   7.3241   7.3241   7.5413   7.5413   7.6441   7.6441
     7.7506   7.7506   7.8823   7.8823   8.0510   8.0510   8.2579   8.2579
     8.3392   8.3392   8.4596   8.4596   8.5440   8.5440

          k = 0.3333-0.2835-0.3712 (123550 PWs)   bands (ev):

   -22.7026 -22.7026 -22.6937 -22.6937 -22.4220 -22.4220 -22.4157 -22.4157
   -20.6372 -20.6372 -20.6268 -20.6268 -20.3145 -20.3145 -20.3100 -20.3100
   -18.9499 -18.9499 -18.9313 -18.9313 -16.1912 -16.1912 -16.1194 -16.1194
   -15.5210 -15.5210 -15.4852 -15.4852 -15.0556 -15.0556 -15.0484 -15.0484
   -14.4856 -14.4856 -14.4631 -14.4631 -13.1338 -13.1338 -13.0771 -13.0771
   -12.9739 -12.9739 -12.9466 -12.9466 -11.7214 -11.7214 -11.7053 -11.7053
   -10.2235 -10.2235 -10.1371 -10.1371  -9.4030  -9.4030  -9.3626  -9.3626
    -9.2121  -9.2121  -9.0685  -9.0685  -8.7242  -8.7242  -8.6492  -8.6492
    -8.0617  -8.0617  -8.0258  -8.0258  -7.6981  -7.6981  -7.5699  -7.5699
    -7.1471  -7.1471  -7.0572  -7.0572  -6.9386  -6.9386  -6.6757  -6.6757
    -6.4646  -6.4646  -6.4411  -6.4411  -6.1362  -6.1362  -6.0133  -6.0133
    -5.8862  -5.8862  -5.6341  -5.6341  -5.4940  -5.4940  -5.4510  -5.4510
    -5.3240  -5.3240  -5.2359  -5.2359  -4.7699  -4.7699  -4.5985  -4.5985
    -4.5328  -4.5328  -4.3072  -4.3072  -4.2520  -4.2520  -4.2123  -4.2123
    -3.6765  -3.6765  -3.6225  -3.6225  -3.5475  -3.5475  -3.4287  -3.4287
    -3.3711  -3.3711  -3.3086  -3.3086  -3.1220  -3.1220  -2.8607  -2.8607
    -2.6804  -2.6804  -2.5942  -2.5942  -2.3713  -2.3713  -2.2697  -2.2697
    -2.2051  -2.2051  -2.0995  -2.0995  -1.9279  -1.9279  -1.8567  -1.8567
    -1.7508  -1.7508  -1.6046  -1.6046  -1.4553  -1.4553  -1.4163  -1.4163
    -1.3465  -1.3465  -1.2519  -1.2519  -1.1872  -1.1872  -1.1602  -1.1602
    -1.0417  -1.0417  -1.0134  -1.0134  -0.8898  -0.8898  -0.8265  -0.8265
    -0.7330  -0.7330  -0.6453  -0.6453  -0.4435  -0.4435  -0.4263  -0.4263
     0.1220   0.1220   0.2409   0.2409   0.3196   0.3196   0.3779   0.3779
     1.0408   1.0408   1.1403   1.1403   1.2191   1.2191   1.2833   1.2833
     4.7520   4.7520   4.8231   4.8231   4.9555   4.9555   5.1073   5.1073
     6.6501   6.6501   6.7949   6.7949   6.8992   6.8992   7.1908   7.1908
     7.2233   7.2233   7.2853   7.2853   7.5304   7.5304   7.5778   7.5778
     7.8638   7.8638   7.9191   7.9191   8.0380   8.0380   8.2167   8.2167
     8.3967   8.3967   8.4892   8.4892   8.5994   8.5994

     highest occupied, lowest unoccupied level (ev):     1.3023    4.7018

!    total energy              =   -1979.54735702 Ry
     Harris-Foulkes estimate   =   -1979.54735702 Ry
     estimated scf accuracy    <          6.2E-09 Ry

     total all-electron energy =     -7520.719934 Ry

     The total energy is the sum of the following terms:

     one-electron contribution =   -1150.03570715 Ry
     hartree contribution      =     727.10831425 Ry
     xc contribution           =    -408.85577948 Ry
     ewald contribution        =    -583.30018024 Ry
     Dispersion Correction     =      -0.52308114 Ry
     one-center paw contrib.   =    -563.94092325 Ry

     convergence has been achieved in  18 iterations

     Forces acting on atoms (cartesian axes, Ry/au):

     atom    1 type  4   force =     0.00055968    0.00049282   -0.00074718
     atom    2 type  4   force =     0.00055968   -0.00049282   -0.00074718
     atom    3 type  4   force =    -0.00055968   -0.00049282    0.00074718
     atom    4 type  4   force =    -0.00055968    0.00049282    0.00074718
     atom    5 type  2   force =    -0.00011225   -0.00065478    0.00016538
     atom    6 type  2   force =    -0.00011225    0.00065478    0.00016538
     atom    7 type  2   force =     0.00011225    0.00065478   -0.00016538
     atom    8 type  2   force =     0.00011225   -0.00065478   -0.00016538
     atom    9 type  1   force =     0.00007984   -0.00027642   -0.00060157
     atom   10 type  1   force =     0.00007984    0.00027642   -0.00060157
     atom   11 type  1   force =    -0.00007984    0.00027642    0.00060157
     atom   12 type  1   force =    -0.00007984   -0.00027642    0.00060157
     atom   13 type  3   force =    -0.00044437   -0.00108879   -0.00014717
     atom   14 type  3   force =    -0.00044437    0.00108879   -0.00014717
     atom   15 type  3   force =     0.00044437    0.00108879    0.00014717
     atom   16 type  3   force =     0.00044437   -0.00108879    0.00014717
     atom   17 type  4   force =     0.00004537    0.00103069   -0.00055019
     atom   18 type  4   force =     0.00004537   -0.00103069   -0.00055019
     atom   19 type  4   force =    -0.00004537   -0.00103069    0.00055019
     atom   20 type  4   force =    -0.00004537    0.00103069    0.00055019
     atom   21 type  2   force =    -0.00009757   -0.00010303    0.00026294
     atom   22 type  2   force =    -0.00009757    0.00010303    0.00026294
     atom   23 type  2   force =     0.00009757    0.00010303   -0.00026294
     atom   24 type  2   force =     0.00009757   -0.00010303   -0.00026294
     atom   25 type  1   force =    -0.00016954   -0.00025621   -0.00011671
     atom   26 type  1   force =    -0.00016954    0.00025621   -0.00011671
     atom   27 type  1   force =     0.00016954    0.00025621    0.00011671
     atom   28 type  1   force =     0.00016954   -0.00025621    0.00011671
     atom   29 type  3   force =     0.00075401   -0.00028141   -0.00026745
     atom   30 type  3   force =     0.00075401    0.00028141   -0.00026745
     atom   31 type  3   force =    -0.00075401    0.00028141    0.00026745
     atom   32 type  3   force =    -0.00075401   -0.00028141    0.00026745
     atom   33 type  4   force =    -0.00081842   -0.00005494    0.00041060
     atom   34 type  4   force =    -0.00081842    0.00005494    0.00041060
     atom   35 type  4   force =     0.00081842    0.00005494   -0.00041060
     atom   36 type  4   force =     0.00081842   -0.00005494   -0.00041060
     atom   37 type  2   force =    -0.00012398   -0.00101795   -0.00043117
     atom   38 type  2   force =    -0.00012398    0.00101795   -0.00043117
     atom   39 type  2   force =     0.00012398    0.00101795    0.00043117
     atom   40 type  2   force =     0.00012398   -0.00101795    0.00043117
     atom   41 type  1   force =    -0.00032721   -0.00055168   -0.00016890
     atom   42 type  1   force =    -0.00032721    0.00055168   -0.00016890
     atom   43 type  1   force =     0.00032721    0.00055168    0.00016890
     atom   44 type  1   force =     0.00032721   -0.00055168    0.00016890
     atom   45 type  4   force =     0.00046362    0.00066362    0.00002999
     atom   46 type  4   force =     0.00046362   -0.00066362    0.00002999
     atom   47 type  4   force =    -0.00046362   -0.00066362   -0.00002999
     atom   48 type  4   force =    -0.00046362    0.00066362   -0.00002999
     atom   49 type  2   force =    -0.00012931    0.00009712    0.00014615
     atom   50 type  2   force =    -0.00012931   -0.00009712    0.00014615
     atom   51 type  2   force =     0.00012931   -0.00009712   -0.00014615
     atom   52 type  2   force =     0.00012931    0.00009712   -0.00014615
     atom   53 type  1   force =     0.00100822   -0.00046273    0.00006240
     atom   54 type  1   force =     0.00100822    0.00046273    0.00006240
     atom   55 type  1   force =    -0.00100822    0.00046273   -0.00006240
     atom   56 type  1   force =    -0.00100822   -0.00046273   -0.00006240
     atom   57 type  1   force =    -0.00054377   -0.00010697    0.00006135
     atom   58 type  1   force =    -0.00054377    0.00010697    0.00006135
     atom   59 type  1   force =     0.00054377    0.00010697   -0.00006135
     atom   60 type  1   force =     0.00054377   -0.00010697   -0.00006135
     atom   61 type  2   force =    -0.00001967   -0.00030536    0.00040733
     atom   62 type  2   force =    -0.00001967    0.00030536    0.00040733
     atom   63 type  2   force =     0.00001967    0.00030536   -0.00040733
     atom   64 type  2   force =     0.00001967   -0.00030536   -0.00040733
     atom   65 type  3   force =    -0.00006669    0.00051249   -0.00018410
     atom   66 type  3   force =    -0.00006669   -0.00051249   -0.00018410
     atom   67 type  3   force =     0.00006669   -0.00051249    0.00018410
     atom   68 type  3   force =     0.00006669    0.00051249    0.00018410
     atom   69 type  3   force =    -0.00007372   -0.00050675    0.00056870
     atom   70 type  3   force =    -0.00007372    0.00050675    0.00056870
     atom   71 type  3   force =     0.00007372    0.00050675   -0.00056870
     atom   72 type  3   force =     0.00007372   -0.00050675   -0.00056870
     atom   73 type  1   force =     0.00069283   -0.00001413    0.00036558
     atom   74 type  1   force =     0.00069283    0.00001413    0.00036558
     atom   75 type  1   force =    -0.00069283    0.00001413   -0.00036558
     atom   76 type  1   force =    -0.00069283   -0.00001413   -0.00036558
     atom   77 type  2   force =    -0.00065971   -0.00038729    0.00012355
     atom   78 type  2   force =    -0.00065971    0.00038729    0.00012355
     atom   79 type  2   force =     0.00065971    0.00038729   -0.00012355
     atom   80 type  2   force =     0.00065971   -0.00038729   -0.00012355
     atom   81 type  3   force =     0.00010909   -0.00012572   -0.00007401
     atom   82 type  3   force =     0.00010909    0.00012572   -0.00007401
     atom   83 type  3   force =    -0.00010909    0.00012572    0.00007401
     atom   84 type  3   force =    -0.00010909   -0.00012572    0.00007401
     atom   85 type  3   force =    -0.00072889   -0.00024039   -0.00128228
     atom   86 type  3   force =    -0.00072889    0.00024039   -0.00128228
     atom   87 type  3   force =     0.00072889    0.00024039    0.00128228
     atom   88 type  3   force =     0.00072889   -0.00024039    0.00128228
     atom   89 type  1   force =    -0.00077785   -0.00009342   -0.00035187
     atom   90 type  1   force =    -0.00077785    0.00009342   -0.00035187
     atom   91 type  1   force =     0.00077785    0.00009342    0.00035187
     atom   92 type  1   force =     0.00077785   -0.00009342    0.00035187
     atom   93 type  3   force =    -0.00003533   -0.00013616   -0.00004594
     atom   94 type  3   force =    -0.00003533    0.00013616   -0.00004594
     atom   95 type  3   force =     0.00003533    0.00013616    0.00004594
     atom   96 type  3   force =     0.00003533   -0.00013616    0.00004594
     atom   97 type  3   force =     0.00025200   -0.00018725    0.00035066
     atom   98 type  3   force =     0.00025200    0.00018725    0.00035066
     atom   99 type  3   force =    -0.00025200    0.00018725   -0.00035066
     atom  100 type  3   force =    -0.00025200   -0.00018725   -0.00035066
     atom  101 type  1   force =     0.00026446   -0.00010181    0.00018690
     atom  102 type  1   force =     0.00026446    0.00010181    0.00018690
     atom  103 type  1   force =    -0.00026446    0.00010181   -0.00018690
     atom  104 type  1   force =    -0.00026446   -0.00010181   -0.00018690
     atom  105 type  3   force =     0.00017981    0.00021310   -0.00017772
     atom  106 type  3   force =     0.00017981   -0.00021310   -0.00017772
     atom  107 type  3   force =    -0.00017981   -0.00021310    0.00017772
     atom  108 type  3   force =    -0.00017981    0.00021310    0.00017772
     atom  109 type  3   force =    -0.00024701    0.00046204   -0.00004330
     atom  110 type  3   force =    -0.00024701   -0.00046204   -0.00004330
     atom  111 type  3   force =     0.00024701   -0.00046204    0.00004330
     atom  112 type  3   force =     0.00024701    0.00046204    0.00004330

     Total force =     0.008147     Total SCF correction =     0.000131


     Computing stress (Cartesian axis) and pressure

          total   stress  (Ry/bohr**3)                   (kbar)     P=   -4.22
  -0.00002521   0.00000000  -0.00000214         -3.71      0.00     -0.32
   0.00000000  -0.00003745   0.00000000          0.00     -5.51      0.00
  -0.00000214   0.00000000  -0.00002343         -0.32      0.00     -3.45


     Writing output data file scf.save
 
     init_run     :     66.15s CPU     69.31s WALL (       1 calls)
     electrons    :   2503.87s CPU   2629.38s WALL (       1 calls)
     forces       :     31.68s CPU     31.94s WALL (       1 calls)
     stress       :    243.39s CPU    243.90s WALL (       1 calls)

     Called by init_run:
     wfcinit      :     52.26s CPU     55.20s WALL (       1 calls)
     potinit      :      4.87s CPU      4.95s WALL (       1 calls)

     Called by electrons:
     c_bands      :   2238.92s CPU   2346.84s WALL (      18 calls)
     sum_band     :    244.67s CPU    260.14s WALL (      18 calls)
     v_of_rho     :      3.09s CPU      3.44s WALL (      19 calls)
     newd         :      7.33s CPU      9.02s WALL (      19 calls)
     PAW_pot      :      9.02s CPU      9.02s WALL (      19 calls)
     mix_rho      :      0.77s CPU      0.83s WALL (      18 calls)

     Called by c_bands:
     init_us_2    :     14.16s CPU     14.21s WALL (     312 calls)
     cegterg      :   2180.76s CPU   2288.60s WALL (     144 calls)

     Called by sum_band:
     sum_band:bec :      0.12s CPU      0.12s WALL (     144 calls)
     addusdens    :      7.81s CPU      9.41s WALL (      18 calls)

     Called by *egterg:
     h_psi        :   1273.17s CPU   1362.15s WALL (     666 calls)
     s_psi        :    226.22s CPU    226.25s WALL (     666 calls)
     g_psi        :      7.64s CPU      7.64s WALL (     514 calls)
     cdiaghg      :    135.38s CPU    135.40s WALL (     658 calls)

     Called by h_psi:
     h_psi:pot    :   1264.24s CPU   1353.07s WALL (     666 calls)
     h_psi:calbec :    216.52s CPU    217.00s WALL (     666 calls)
     vloc_psi     :    821.64s CPU    909.98s WALL (     666 calls)
     add_vuspsi   :    226.07s CPU    226.09s WALL (     666 calls)

     General routines
     calbec       :    335.38s CPU    336.11s WALL (     850 calls)
     fft          :      5.93s CPU      6.52s WALL (     271 calls)
     fftw         :    888.98s CPU    990.62s WALL (  221008 calls)
 
     Parallel routines
     fft_scatter  :    150.18s CPU    251.33s WALL (  221279 calls)
 
     PWSCF        : 47m40.68s CPU    50m44.16s WALL

 
   This run was terminated on:  22:42:13   3Nov2017            

=------------------------------------------------------------------------------=
   JOB DONE.
=------------------------------------------------------------------------------=
