
     Program PWSCF v.6.1 (svn rev. 13369) starts on 22Dec2017 at 20:54: 9 

     This program is part of the open-source Quantum ESPRESSO suite
     for quantum simulation of materials; please cite
         "P. Giannozzi et al., J. Phys.:Condens. Matter 21 395502 (2009);
          URL http://www.quantum-espresso.org", 
     in publications or presentations arising from this work. More details at
     http://www.quantum-espresso.org/quote

     Parallel version (MPI), running on     8 processors
     R & G space division:  proc/nbgrp/npool/nimage =       8
     Waiting for input...
     Reading input from standard input

     Current dimensions of program PWSCF are:
     Max number of different atomic species (ntypx) = 10
     Max number of k-points (npk) =  40000
     Max angular momentum in pseudopotentials (lmaxx) =  3
               file C.pbe-n-kjpaw_psl.0.1.UPF: wavefunction(s)  2P renormalized
               file N.pbe-n-kjpaw_psl.0.1.UPF: wavefunction(s)  2P renormalized
               file H.pbe-kjpaw_psl.0.1.UPF: wavefunction(s)  1S renormalized
               file O.pbe-n-kjpaw_psl.0.1.UPF: wavefunction(s)  2P renormalized

     -------------------------------------
     Parameters for Dispersion Correction:
     -------------------------------------
       atom      VdW radius       C_6     

        C          2.744         60.710
        N          2.640         42.670
        H          1.892          4.857
        O          2.536         24.284

     Subspace diagonalization in iterative solution of the eigenvalue problem:
     a serial algorithm will be used

 
     Parallelization info
     --------------------
     sticks:   dense  smooth     PW     G-vecs:    dense   smooth      PW
     Min         783     783    210                75751    75751   10608
     Max         784     784    211                75757    75757   10614
     Sum        6269    6269   1685               606031   606031   84895
 


     bravais-lattice index     =            0
     lattice parameter (alat)  =       7.0714  a.u.
     unit-cell volume          =    4484.8207 (a.u.)^3
     number of atoms/cell      =           72
     number of atomic types    =            4
     number of electrons       =       248.00
     number of Kohn-Sham states=          148
     kinetic-energy cutoff     =     100.0000  Ry
     charge density cutoff     =     400.0000  Ry
     convergence threshold     =      1.0E-08
     mixing beta               =       0.5000
     number of iterations used =            8  plain     mixing
     Exchange-correlation      =  SLA  PW   PBX  PBC ( 1  4  3  4 0 0)

     celldm(1)=   7.071355  celldm(2)=   0.000000  celldm(3)=   0.000000
     celldm(4)=   0.000000  celldm(5)=   0.000000  celldm(6)=   0.000000

     crystal axes: (cart. coord. in units of alat)
               a(1) = (   1.000000   0.000000   0.000000 )  
               a(2) = (   0.000000   3.931053   0.000000 )  
               a(3) = (  -0.384734   0.000000   3.226475 )  

     reciprocal axes: (cart. coord. in units 2 pi/alat)
               b(1) = (  1.000000  0.000000  0.119243 )  
               b(2) = (  0.000000  0.254385  0.000000 )  
               b(3) = (  0.000000  0.000000  0.309936 )  


     PseudoPot. # 1 for  C read from file:
     /scratch/ahofstet/pseudo/C.pbe-n-kjpaw_psl.0.1.UPF
     MD5 check sum: 430fe95172b1e11ef3f8ed03bac87931
     Pseudo is Projector augmented-wave + core cor, Zval =  4.0
     Generated using "atomic" code by A. Dal Corso  v.5.0.99 svn rev. 10869
     Shape of augmentation charge: BESSEL
     Using radial grid of 1073 points,  4 beta functions with: 
                l(1) =   0
                l(2) =   0
                l(3) =   1
                l(4) =   1
     Q(r) pseudized with 0 coefficients 


     PseudoPot. # 2 for  N read from file:
     /scratch/ahofstet/pseudo/N.pbe-n-kjpaw_psl.0.1.UPF
     MD5 check sum: f73187c8b701007e77325f868c9291d7
     Pseudo is Projector augmented-wave + core cor, Zval =  5.0
     Generated using "atomic" code by A. Dal Corso  v.5.0.99 svn rev. 10869
     Shape of augmentation charge: PSQ
     Using radial grid of 1085 points,  4 beta functions with: 
                l(1) =   0
                l(2) =   0
                l(3) =   1
                l(4) =   1
     Q(r) pseudized with 0 coefficients 


     PseudoPot. # 3 for  H read from file:
     /scratch/ahofstet/pseudo/H.pbe-kjpaw_psl.0.1.UPF
     MD5 check sum: 94e484f906d9e9773b2f6e52662335b2
     Pseudo is Projector augmented-wave, Zval =  1.0
     Generated using "atomic" code by A. Dal Corso  v.5.0.99 svn rev. 10869
     Shape of augmentation charge: PSQ
     Using radial grid of  929 points,  2 beta functions with: 
                l(1) =   0
                l(2) =   0
     Q(r) pseudized with 0 coefficients 


     PseudoPot. # 4 for  O read from file:
     /scratch/ahofstet/pseudo/O.pbe-n-kjpaw_psl.0.1.UPF
     MD5 check sum: 3f94a2996a3169367d6eb21d9b593f20
     Pseudo is Projector augmented-wave + core cor, Zval =  6.0
     Generated using "atomic" code by A. Dal Corso  v.5.0.99 svn rev. 10869
     Shape of augmentation charge: BESSEL
     Using radial grid of 1095 points,  4 beta functions with: 
                l(1) =   0
                l(2) =   0
                l(3) =   1
                l(4) =   1
     Q(r) pseudized with 0 coefficients 


     atomic species   valence    mass     pseudopotential
        C              4.00    12.01070      C( 1.00)
        N              5.00    14.00670      N( 1.00)
        H              1.00     1.00794      H( 1.00)
        O              6.00    15.99940      O( 1.00)

      4 Sym. Ops., with inversion, found ( 2 have fractional translation)



   Cartesian axes

     site n.     atom                  positions (alat units)
         1           N   tau(   1) = (   0.6102906   0.9617877   0.2305202  )
         2           N   tau(   2) = (   0.1973425   2.9273141   1.3827171  )
         3           N   tau(   3) = (   0.0049756   2.9692652   2.9959543  )
         4           N   tau(   4) = (   0.4179237   1.0037388   1.8437575  )
         5           C   tau(   5) = (   0.3512723   0.7314217   0.1138333  )
         6           C   tau(   6) = (   0.4563608   2.6969481   1.4994040  )
         7           C   tau(   7) = (   0.2639939   3.1996312   3.1126413  )
         8           C   tau(   8) = (   0.1589054   1.2341048   1.7270705  )
         9           O   tau(   9) = (   0.1518324   0.5804846   0.3189424  )
        10           O   tau(  10) = (   0.6558007   2.5460110   1.2942948  )
        11           O   tau(  11) = (   0.4634338   3.3505683   2.9075321  )
        12           O   tau(  12) = (  -0.0405345   1.3850419   1.9321797  )
        13           N   tau(  13) = (  -0.0626950   0.7000457   2.9581466  )
        14           N   tau(  14) = (   0.4855943   2.6655721   1.8815652  )
        15           N   tau(  15) = (   0.6779612   3.2310072   0.2683279  )
        16           N   tau(  16) = (   0.1296719   1.2654808   1.3449093  )
        17           C   tau(  17) = (  -0.3410862   0.4693081   2.8497838  )
        18           C   tau(  18) = (   0.7639855   2.4348345   1.9899280  )
        19           C   tau(  19) = (   0.9563524   3.4617448   0.3766907  )
        20           C   tau(  20) = (  -0.1487193   1.4962184   1.2365465  )
        21           C   tau(  21) = (  -0.1125389   1.0528736   2.8286633  )
        22           C   tau(  22) = (   0.5354382   3.0184000   2.0110484  )
        23           C   tau(  23) = (   0.7278051   2.8781793   0.3978112  )
        24           C   tau(  24) = (   0.0798280   0.9126529   1.2154261  )
        25           C   tau(  25) = (   0.0710985   1.3585367   2.9706144  )
        26           C   tau(  26) = (   0.3518008   3.3240632   1.8690973  )
        27           C   tau(  27) = (   0.5441677   2.5725162   0.2558601  )
        28           C   tau(  28) = (   0.2634654   0.6069897   1.3573772  )
        29           C   tau(  29) = (   0.6423915   1.3060373   0.0888459  )
        30           C   tau(  30) = (   0.1652416   3.2715638   1.5243914  )
        31           C   tau(  31) = (  -0.0271253   2.6250156   3.1376286  )
        32           C   tau(  32) = (   0.4500246   0.6594891   1.7020831  )
        33           O   tau(  33) = (   0.8043905   1.5353699   0.2561126  )
        34           O   tau(  34) = (   0.0032426   3.5008964   1.3571246  )
        35           O   tau(  35) = (  -0.1891243   2.3956830   2.9703619  )
        36           O   tau(  36) = (   0.6120236   0.4301566   1.8693499  )
        37           N   tau(  37) = (  -0.1696849   1.6299287   2.8918394  )
        38           N   tau(  38) = (   0.5925843   3.5954552   1.9478724  )
        39           N   tau(  39) = (   0.7849511   2.3011242   0.3346351  )
        40           N   tau(  40) = (   0.0226820   0.3355978   1.2786021  )
        41           C   tau(  41) = (   0.5572646   1.4948478   2.7019562  )
        42           C   tau(  42) = (  -0.1343653   3.4603742   2.1377556  )
        43           C   tau(  43) = (   0.0580016   2.4362052   0.5245184  )
        44           C   tau(  44) = (   0.7496315   0.4706787   1.0887189  )
        45           N   tau(  45) = (   0.6052259   1.1385596   2.6483250  )
        46           N   tau(  46) = (  -0.1823266   3.1040861   2.1913868  )
        47           N   tau(  47) = (   0.0100403   2.7924933   0.5781495  )
        48           N   tau(  48) = (   0.7975928   0.8269668   1.0350877  )
        49           H   tau(  49) = (   0.6748892   0.9413995   0.4987826  )
        50           H   tau(  50) = (   0.1327439   2.9069259   1.1144547  )
        51           H   tau(  51) = (  -0.0596229   2.9896534   2.7276919  )
        52           H   tau(  52) = (   0.4825223   1.0241270   2.1120198  )
        53           H   tau(  53) = (   0.4003721   1.6665348   2.5274391  )
        54           H   tau(  54) = (   0.0225273   3.6320613   2.3122726  )
        55           H   tau(  55) = (   0.2148942   2.2645181   0.6990354  )
        56           H   tau(  56) = (   0.5927390   0.2989916   0.9142019  )
        57           H   tau(  57) = (  -0.1450393   1.8971019   2.9522255  )
        58           H   tau(  58) = (   0.5679386   3.8626283   1.8874862  )
        59           H   tau(  59) = (   0.7603055   2.0339511   0.2742490  )
        60           H   tau(  60) = (   0.0473276   0.0684246   1.3389883  )
        61           H   tau(  61) = (   0.6860125   0.2080355   2.9827562  )
        62           H   tau(  62) = (  -0.2631131   2.1735620   1.8569556  )
        63           H   tau(  63) = (  -0.0707462   3.7230174   0.2437183  )
        64           H   tau(  64) = (   0.8783794   1.7574909   1.3695190  )
        65           H   tau(  65) = (   0.3922363   0.5924537   2.9135915  )
        66           H   tau(  66) = (   0.0306630   2.5579802   1.9261203  )
        67           H   tau(  67) = (   0.2230299   3.3385992   0.3128830  )
        68           H   tau(  68) = (   0.5846032   1.3730728   1.3003542  )
        69           H   tau(  69) = (  -0.3298758   0.4340970   2.5574734  )
        70           H   tau(  70) = (   0.7527751   2.3996235   2.2822384  )
        71           H   tau(  71) = (   0.9451420   3.4969559   0.6690011  )
        72           H   tau(  72) = (  -0.1375089   1.5314294   0.9442362  )

     number of k points=    12
                       cart. coord. in units 2pi/alat
        k(    1) = (   0.0000000   0.0000000   0.0000000), wk =   0.1000000
        k(    2) = (   0.0000000   0.0000000  -0.1549679), wk =   0.1000000
        k(    3) = (   0.0000000  -0.1271924   0.0000000), wk =   0.1000000
        k(    4) = (   0.0000000  -0.1271924  -0.1549679), wk =   0.1000000
        k(    5) = (   0.2000000   0.0000000   0.0238486), wk =   0.2000000
        k(    6) = (   0.2000000   0.0000000  -0.1311194), wk =   0.2000000
        k(    7) = (   0.2000000  -0.1271924   0.0238486), wk =   0.2000000
        k(    8) = (   0.2000000  -0.1271924  -0.1311194), wk =   0.2000000
        k(    9) = (   0.4000000   0.0000000   0.0476971), wk =   0.2000000
        k(   10) = (   0.4000000   0.0000000  -0.1072708), wk =   0.2000000
        k(   11) = (   0.4000000  -0.1271924   0.0476971), wk =   0.2000000
        k(   12) = (   0.4000000  -0.1271924  -0.1072708), wk =   0.2000000

     Dense  grid:   606031 G-vectors     FFT dimensions: (  45, 180, 150)

     Estimated max dynamical RAM per process >     567.37MB

     Estimated total allocated dynamical RAM >    4538.93MB

     Check: negative/imaginary core charge=   -0.000002    0.000000

     Initial potential from superposition of free atoms

     starting charge  247.99864, renormalised to  248.00000
     Starting wfc are  216 randomized atomic wfcs
     Checking if some PAW data can be deallocated... 

     total cpu time spent up to now is       37.4 secs

     per-process dynamical memory:   435.9 Mb

     Self-consistent Calculation

     iteration #  1     ecut=   100.00 Ry     beta=0.50
     Davidson diagonalization with overlap
     ethr =  1.00E-02,  avg # of iterations =  3.9

     total cpu time spent up to now is      145.0 secs

     total energy              =   -1253.94005620 Ry
     Harris-Foulkes estimate   =   -1257.94185462 Ry
     estimated scf accuracy    <       7.49748879 Ry

     iteration #  2     ecut=   100.00 Ry     beta=0.50
     Davidson diagonalization with overlap
     ethr =  3.02E-03,  avg # of iterations =  2.6

     total cpu time spent up to now is      206.2 secs

     total energy              =   -1254.93617889 Ry
     Harris-Foulkes estimate   =   -1255.46672432 Ry
     estimated scf accuracy    <       1.10234550 Ry

     iteration #  3     ecut=   100.00 Ry     beta=0.50
     Davidson diagonalization with overlap
     ethr =  4.44E-04,  avg # of iterations =  6.4

     total cpu time spent up to now is      309.9 secs

     total energy              =   -1255.34084362 Ry
     Harris-Foulkes estimate   =   -1255.54068602 Ry
     estimated scf accuracy    <       0.48411375 Ry

     iteration #  4     ecut=   100.00 Ry     beta=0.50
     Davidson diagonalization with overlap
     ethr =  1.95E-04,  avg # of iterations =  2.0

     total cpu time spent up to now is      364.9 secs

     total energy              =   -1255.38219884 Ry
     Harris-Foulkes estimate   =   -1255.41219008 Ry
     estimated scf accuracy    <       0.07180989 Ry

     iteration #  5     ecut=   100.00 Ry     beta=0.50
     Davidson diagonalization with overlap
     ethr =  2.90E-05,  avg # of iterations =  5.9

     total cpu time spent up to now is      472.9 secs

     total energy              =   -1255.41860986 Ry
     Harris-Foulkes estimate   =   -1255.43477895 Ry
     estimated scf accuracy    <       0.04601206 Ry

     iteration #  6     ecut=   100.00 Ry     beta=0.50
     Davidson diagonalization with overlap
     ethr =  1.86E-05,  avg # of iterations =  1.1

     total cpu time spent up to now is      524.2 secs

     total energy              =   -1255.41528056 Ry
     Harris-Foulkes estimate   =   -1255.42147712 Ry
     estimated scf accuracy    <       0.01437568 Ry

     iteration #  7     ecut=   100.00 Ry     beta=0.50
     Davidson diagonalization with overlap
     ethr =  5.80E-06,  avg # of iterations =  4.8

     total cpu time spent up to now is      617.5 secs

     total energy              =   -1255.42155677 Ry
     Harris-Foulkes estimate   =   -1255.42177543 Ry
     estimated scf accuracy    <       0.00137462 Ry

     iteration #  8     ecut=   100.00 Ry     beta=0.50
     Davidson diagonalization with overlap
     ethr =  5.54E-07,  avg # of iterations =  2.2

     total cpu time spent up to now is      672.4 secs

     total energy              =   -1255.42133913 Ry
     Harris-Foulkes estimate   =   -1255.42171050 Ry
     estimated scf accuracy    <       0.00092254 Ry

     iteration #  9     ecut=   100.00 Ry     beta=0.50
     Davidson diagonalization with overlap
     ethr =  3.72E-07,  avg # of iterations =  3.2

     total cpu time spent up to now is      732.6 secs

     total energy              =   -1255.42142448 Ry
     Harris-Foulkes estimate   =   -1255.42148348 Ry
     estimated scf accuracy    <       0.00013653 Ry

     iteration # 10     ecut=   100.00 Ry     beta=0.50
     Davidson diagonalization with overlap
     ethr =  5.51E-08,  avg # of iterations =  4.0

     total cpu time spent up to now is      827.2 secs

     total energy              =   -1255.42148269 Ry
     Harris-Foulkes estimate   =   -1255.42149814 Ry
     estimated scf accuracy    <       0.00003047 Ry

     iteration # 11     ecut=   100.00 Ry     beta=0.50
     Davidson diagonalization with overlap
     ethr =  1.23E-08,  avg # of iterations =  3.5

     total cpu time spent up to now is      897.7 secs

     total energy              =   -1255.42148838 Ry
     Harris-Foulkes estimate   =   -1255.42149178 Ry
     estimated scf accuracy    <       0.00000986 Ry

     iteration # 12     ecut=   100.00 Ry     beta=0.50
     Davidson diagonalization with overlap
     ethr =  3.98E-09,  avg # of iterations =  2.2

     total cpu time spent up to now is      950.8 secs

     total energy              =   -1255.42148841 Ry
     Harris-Foulkes estimate   =   -1255.42148940 Ry
     estimated scf accuracy    <       0.00000221 Ry

     iteration # 13     ecut=   100.00 Ry     beta=0.50
     Davidson diagonalization with overlap
     ethr =  8.92E-10,  avg # of iterations =  4.0

     total cpu time spent up to now is     1050.4 secs

     total energy              =   -1255.42148980 Ry
     Harris-Foulkes estimate   =   -1255.42148997 Ry
     estimated scf accuracy    <       0.00000050 Ry

     iteration # 14     ecut=   100.00 Ry     beta=0.50
     Davidson diagonalization with overlap
     ethr =  2.00E-10,  avg # of iterations =  1.0

     total cpu time spent up to now is     1101.1 secs

     total energy              =   -1255.42148980 Ry
     Harris-Foulkes estimate   =   -1255.42148984 Ry
     estimated scf accuracy    <       0.00000013 Ry

     iteration # 15     ecut=   100.00 Ry     beta=0.50
     Davidson diagonalization with overlap
     ethr =  5.08E-11,  avg # of iterations =  3.0

     total cpu time spent up to now is     1184.7 secs

     End of self-consistent calculation

          k = 0.0000 0.0000 0.0000 ( 75773 PWs)   bands (ev):

   -19.9600 -19.9483 -19.9375 -19.9266 -19.2071 -19.1944 -19.1598 -19.1495
   -18.6517 -18.6225 -18.6042 -18.5756 -16.8976 -16.8882 -16.8846 -16.8737
   -15.8104 -15.7882 -15.7843 -15.7675 -14.6105 -14.5862 -14.5688 -14.5396
   -11.4329 -11.3952 -11.3729 -11.3494  -9.9128  -9.8936  -9.8742  -9.8712
    -9.3181  -9.2612  -9.2489  -9.1764  -8.4896  -8.4580  -8.3459  -8.3420
    -7.6055  -7.4741  -7.4600  -7.3359  -7.1064  -7.0951  -7.0700  -7.0346
    -6.4819  -6.4726  -6.2618  -6.2367  -5.4105  -5.3392  -5.1583  -5.1170
    -4.8665  -4.7863  -4.5771  -4.5461  -4.4417  -4.4385  -4.2155  -4.2146
    -4.1978  -4.1942  -3.9688  -3.8815  -3.7899  -3.7778  -3.7627  -3.7514
    -3.5266  -3.4830  -3.3845  -3.3412  -3.1813  -3.1264  -3.1007  -3.0412
    -2.9625  -2.8241  -2.6484  -2.5015  -2.0273  -1.9599  -1.9017  -1.8461
    -1.8110  -1.7781  -1.7278  -1.7163  -1.5606  -1.5494  -1.4792  -1.4272
    -0.8739  -0.8586  -0.8487  -0.8177  -0.6634  -0.6527  -0.5897  -0.5147
    -0.3747  -0.3655  -0.3409  -0.2304  -0.0223   0.0447   0.0888   0.1031
     0.4760   0.5013   0.5807   0.6286   1.0272   1.0389   1.1062   1.1113
     1.4619   1.5006   1.5561   1.5788   5.3425   5.3702   5.3804   5.3859
     6.3431   6.3769   6.4278   6.4868   6.8669   6.8839   6.9102   6.9115
     7.4092   7.6777   8.0306   8.1472   8.3590   8.4613   8.5174   8.5572
     8.6295   8.7230   9.1531   9.4060

          k = 0.0000 0.0000-0.1550 ( 75768 PWs)   bands (ev):

   -19.9489 -19.9489 -19.9376 -19.9376 -19.2006 -19.2006 -19.1545 -19.1545
   -18.6370 -18.6370 -18.5899 -18.5899 -16.8929 -16.8929 -16.8791 -16.8791
   -15.7978 -15.7978 -15.7779 -15.7779 -14.5895 -14.5895 -14.5624 -14.5624
   -11.4035 -11.4035 -11.3723 -11.3723  -9.9049  -9.9049  -9.8732  -9.8732
    -9.2889  -9.2889  -9.2115  -9.2115  -8.4739  -8.4739  -8.3435  -8.3435
    -7.5382  -7.5382  -7.4072  -7.4072  -7.0932  -7.0932  -7.0510  -7.0510
    -6.3789  -6.3789  -6.3646  -6.3646  -5.3828  -5.3828  -5.1273  -5.1273
    -4.6980  -4.6980  -4.6778  -4.6778  -4.3791  -4.3791  -4.3420  -4.3420
    -4.1675  -4.1675  -3.8787  -3.8787  -3.7972  -3.7972  -3.7443  -3.7443
    -3.5102  -3.5102  -3.3778  -3.3778  -3.1490  -3.1490  -3.0781  -3.0781
    -2.8775  -2.8775  -2.5599  -2.5599  -1.9725  -1.9725  -1.9138  -1.9138
    -1.8062  -1.8062  -1.7223  -1.7223  -1.5463  -1.5463  -1.4520  -1.4520
    -0.8669  -0.8669  -0.8370  -0.8370  -0.6357  -0.6357  -0.5821  -0.5821
    -0.3590  -0.3590  -0.2756  -0.2756   0.0049   0.0049   0.1041   0.1041
     0.4798   0.4798   0.5940   0.5940   1.0388   1.0388   1.1152   1.1152
     1.5104   1.5104   1.5413   1.5413   5.3577   5.3577   5.3777   5.3777
     6.3848   6.3848   6.4451   6.4451   6.8849   6.8849   6.9001   6.9001
     7.5780   7.5780   7.9117   7.9117   8.5317   8.5317   8.5760   8.5760
     8.6460   8.6460   9.4024   9.4024

          k = 0.0000-0.1272 0.0000 ( 75728 PWs)   bands (ev):

   -19.9552 -19.9552 -19.9310 -19.9310 -19.2011 -19.2011 -19.1543 -19.1543
   -18.6411 -18.6411 -18.5859 -18.5859 -16.8955 -16.8955 -16.8766 -16.8766
   -15.8037 -15.8037 -15.7714 -15.7714 -14.6021 -14.6021 -14.5506 -14.5506
   -11.4180 -11.4180 -11.3574 -11.3574  -9.8950  -9.8950  -9.8790  -9.8790
    -9.2993  -9.2993  -9.2048  -9.2048  -8.4782  -8.4782  -8.3404  -8.3404
    -7.5676  -7.5676  -7.3662  -7.3662  -7.1099  -7.1099  -7.0471  -7.0471
    -6.4767  -6.4767  -6.2496  -6.2496  -5.3393  -5.3393  -5.1759  -5.1759
    -4.8351  -4.8351  -4.5667  -4.5667  -4.4375  -4.4375  -4.2112  -4.2112
    -4.1760  -4.1760  -3.9134  -3.9134  -3.7876  -3.7876  -3.7768  -3.7768
    -3.5069  -3.5069  -3.3602  -3.3602  -3.1563  -3.1563  -3.0716  -3.0716
    -2.9097  -2.9097  -2.5584  -2.5584  -1.9933  -1.9933  -1.8221  -1.8221
    -1.8113  -1.8113  -1.7516  -1.7516  -1.5797  -1.5797  -1.4303  -1.4303
    -0.8585  -0.8585  -0.8336  -0.8336  -0.6688  -0.6688  -0.5483  -0.5483
    -0.3560  -0.3560  -0.3029  -0.3029   0.0065   0.0065   0.1067   0.1067
     0.4812   0.4812   0.6150   0.6150   1.0424   1.0424   1.0933   1.0933
     1.4780   1.4780   1.5703   1.5703   5.3560   5.3560   5.3841   5.3841
     6.3552   6.3552   6.4621   6.4621   6.8740   6.8740   6.9114   6.9114
     7.5287   7.5287   8.0709   8.0709   8.4440   8.4440   8.5588   8.5588
     8.7922   8.7922   9.0739   9.0739

          k = 0.0000-0.1272-0.1550 ( 75736 PWs)   bands (ev):

   -19.9481 -19.9481 -19.9384 -19.9384 -19.2003 -19.2003 -19.1549 -19.1549
   -18.6370 -18.6370 -18.5899 -18.5899 -16.8941 -16.8941 -16.8780 -16.8780
   -15.7989 -15.7989 -15.7768 -15.7768 -14.5893 -14.5893 -14.5627 -14.5627
   -11.4023 -11.4023 -11.3738 -11.3738  -9.8944  -9.8944  -9.8817  -9.8817
    -9.2866  -9.2866  -9.2154  -9.2154  -8.4775  -8.4775  -8.3408  -8.3408
    -7.5375  -7.5375  -7.4095  -7.4095  -7.0753  -7.0753  -7.0672  -7.0672
    -6.3721  -6.3721  -6.3714  -6.3714  -5.3357  -5.3357  -5.1834  -5.1834
    -4.6989  -4.6989  -4.6837  -4.6837  -4.3577  -4.3577  -4.3499  -4.3499
    -4.1527  -4.1527  -3.8672  -3.8672  -3.7879  -3.7879  -3.7797  -3.7797
    -3.5088  -3.5088  -3.3802  -3.3802  -3.1325  -3.1325  -3.0982  -3.0982
    -2.8755  -2.8755  -2.5595  -2.5595  -1.9582  -1.9582  -1.8876  -1.8876
    -1.8216  -1.8216  -1.7433  -1.7433  -1.5682  -1.5682  -1.4303  -1.4303
    -0.8586  -0.8586  -0.8374  -0.8374  -0.6293  -0.6293  -0.5961  -0.5961
    -0.3406  -0.3406  -0.2946  -0.2946   0.0133   0.0133   0.1001   0.1001
     0.4682   0.4682   0.6080   0.6080   1.0473   1.0473   1.1006   1.1006
     1.5074   1.5074   1.5435   1.5435   5.3643   5.3643   5.3717   5.3717
     6.3847   6.3847   6.4452   6.4452   6.8885   6.8885   6.8961   6.8961
     7.6308   7.6308   7.8245   7.8245   8.4998   8.4998   8.5887   8.5887
     8.8996   8.8996   9.1402   9.1402

          k = 0.2000 0.0000 0.0238 ( 75765 PWs)   bands (ev):

   -19.8727 -19.8628 -19.8561 -19.8470 -19.1679 -19.1607 -19.1289 -19.1238
   -18.5986 -18.5736 -18.5583 -18.5341 -16.8580 -16.8490 -16.8413 -16.8317
   -15.8667 -15.8614 -15.8398 -15.8348 -14.5992 -14.5850 -14.5786 -14.5614
   -11.7099 -11.7090 -11.6816 -11.6797 -10.0238 -10.0210 -10.0059  -9.9998
    -9.2170  -9.1834  -9.1297  -9.0972  -8.5600  -8.5545  -8.4220  -8.4181
    -7.6001  -7.5886  -7.5342  -7.4972  -7.0908  -7.0819  -7.0504  -7.0497
    -6.3329  -6.3315  -6.3227  -6.3094  -5.4086  -5.3729  -5.3101  -5.2763
    -4.9532  -4.9045  -4.9009  -4.8077  -4.7471  -4.6977  -4.5663  -4.5613
    -4.2089  -4.1595  -4.0314  -3.9528  -3.8605  -3.8141  -3.7269  -3.7231
    -3.6298  -3.5522  -3.3978  -3.3351  -3.2187  -3.1936  -3.1327  -3.1170
    -2.8684  -2.8450  -2.7031  -2.6541  -2.4558  -2.4372  -2.3118  -2.3077
    -1.8153  -1.7993  -1.7373  -1.7051  -1.6471  -1.6369  -1.4830  -1.4568
    -0.6084  -0.5184  -0.5115  -0.4392  -0.2492  -0.1690  -0.1576  -0.1069
    -0.0160   0.0290   0.0689   0.1741   0.4627   0.4952   0.5115   0.5230
     0.7887   0.8225   0.8428   0.8888   1.1850   1.2073   1.3012   1.3212
     1.8296   1.8589   1.8761   1.8910   5.3583   5.4031   5.4235   5.4618
     6.3622   6.4468   6.4521   6.5183   6.9094   6.9343   6.9348   6.9578
     7.6110   7.8667   8.2022   8.2412   8.2989   8.3392   8.4907   8.5154
     8.6965   8.9400   9.1864   9.5769

          k = 0.2000 0.0000-0.1311 ( 75689 PWs)   bands (ev):

   -19.8678 -19.8612 -19.8581 -19.8518 -19.1653 -19.1631 -19.1272 -19.1254
   -18.5928 -18.5794 -18.5535 -18.5390 -16.8538 -16.8532 -16.8375 -16.8355
   -15.8781 -15.8493 -15.8488 -15.8256 -14.6116 -14.5920 -14.5728 -14.5487
   -11.7334 -11.6997 -11.6844 -11.6615 -10.0240 -10.0199 -10.0032 -10.0000
    -9.2352  -9.1673  -9.1577  -9.0719  -8.5689  -8.5454  -8.4251  -8.4154
    -7.6684  -7.5791  -7.5110  -7.4452  -7.1124  -7.0659  -7.0501  -7.0478
    -6.4540  -6.4428  -6.2054  -6.1836  -5.4051  -5.3701  -5.2947  -5.2873
    -4.9682  -4.9598  -4.9041  -4.8016  -4.7708  -4.6568  -4.5860  -4.5301
    -4.2250  -4.1383  -4.0155  -3.9477  -3.8662  -3.7938  -3.7785  -3.6621
    -3.6404  -3.5600  -3.3804  -3.3435  -3.2381  -3.1553  -3.1478  -3.1391
    -2.8930  -2.8162  -2.7333  -2.6175  -2.5496  -2.4542  -2.3457  -2.1936
    -1.8561  -1.7934  -1.7716  -1.7283  -1.6203  -1.5980  -1.4714  -1.4431
    -0.6428  -0.5367  -0.4601  -0.4239  -0.2323  -0.2042  -0.1555  -0.0755
    -0.0183   0.0275   0.0997   0.1299   0.4667   0.4942   0.5012   0.5281
     0.7880   0.8283   0.8484   0.8941   1.2393   1.2428   1.2516   1.2699
     1.8153   1.8257   1.8733   1.9262   5.3467   5.4043   5.4169   5.4876
     6.3746   6.4425   6.4466   6.5198   6.9134   6.9296   6.9444   6.9475
     7.6873   7.8459   8.1247   8.1454   8.2862   8.3336   8.4436   8.4550
     8.8889   9.1229   9.3929   9.5637

          k = 0.2000-0.1272 0.0238 ( 75710 PWs)   bands (ev):

   -19.8688 -19.8688 -19.8505 -19.8505 -19.1644 -19.1644 -19.1262 -19.1262
   -18.5895 -18.5895 -18.5428 -18.5428 -16.8551 -16.8551 -16.8349 -16.8349
   -15.8649 -15.8649 -15.8364 -15.8364 -14.5943 -14.5943 -14.5678 -14.5678
   -11.7088 -11.7088 -11.6814 -11.6814 -10.0236 -10.0236 -10.0012 -10.0012
    -9.2025  -9.2025  -9.1111  -9.1111  -8.5584  -8.5584  -8.4194  -8.4194
    -7.5968  -7.5968  -7.5144  -7.5144  -7.0813  -7.0813  -7.0538  -7.0538
    -6.3319  -6.3319  -6.3166  -6.3166  -5.4031  -5.4031  -5.2730  -5.2730
    -4.9408  -4.9408  -4.8504  -4.8504  -4.7120  -4.7120  -4.5809  -4.5809
    -4.1778  -4.1778  -3.9947  -3.9947  -3.8366  -3.8366  -3.7300  -3.7300
    -3.5889  -3.5889  -3.3717  -3.3717  -3.1887  -3.1887  -3.1401  -3.1401
    -2.8392  -2.8392  -2.6835  -2.6835  -2.4387  -2.4387  -2.3176  -2.3176
    -1.8216  -1.8216  -1.7287  -1.7287  -1.6291  -1.6291  -1.4650  -1.4650
    -0.5790  -0.5790  -0.4601  -0.4601  -0.2193  -0.2193  -0.1184  -0.1184
    -0.0022  -0.0022   0.1291   0.1291   0.4749   0.4749   0.5218   0.5218
     0.8060   0.8060   0.8577   0.8577   1.1979   1.1979   1.3142   1.3142
     1.8432   1.8432   1.8845   1.8845   5.3802   5.3802   5.4430   5.4430
     6.3912   6.3912   6.4980   6.4980   6.9162   6.9162   6.9507   6.9507
     7.7359   7.7359   8.1721   8.1721   8.3317   8.3317   8.5753   8.5753
     8.8276   8.8276   9.3015   9.3015

          k = 0.2000-0.1272-0.1311 ( 75722 PWs)   bands (ev):

   -19.8651 -19.8651 -19.8544 -19.8544 -19.1641 -19.1641 -19.1264 -19.1264
   -18.5873 -18.5873 -18.5451 -18.5451 -16.8540 -16.8540 -16.8360 -16.8360
   -15.8695 -15.8695 -15.8313 -15.8313 -14.6045 -14.6045 -14.5581 -14.5581
   -11.7207 -11.7207 -11.6689 -11.6689 -10.0226 -10.0226 -10.0005 -10.0005
    -9.2149  -9.2149  -9.1014  -9.1014  -8.5585  -8.5585  -8.4194  -8.4194
    -7.6359  -7.6359  -7.4654  -7.4654  -7.0881  -7.0881  -7.0504  -7.0504
    -6.4487  -6.4487  -6.1943  -6.1943  -5.3993  -5.3993  -5.2717  -5.2717
    -4.9632  -4.9632  -4.8747  -4.8747  -4.6901  -4.6901  -4.5698  -4.5698
    -4.1956  -4.1956  -3.9706  -3.9706  -3.8491  -3.8491  -3.6875  -3.6875
    -3.6140  -3.6140  -3.3711  -3.3711  -3.1881  -3.1881  -3.1403  -3.1403
    -2.8590  -2.8590  -2.6696  -2.6696  -2.5069  -2.5069  -2.2602  -2.2602
    -1.8535  -1.8535  -1.7308  -1.7308  -1.6083  -1.6083  -1.4522  -1.4522
    -0.5991  -0.5991  -0.4336  -0.4336  -0.2208  -0.2208  -0.1049  -0.1049
    -0.0056  -0.0056   0.1223   0.1223   0.4687   0.4687   0.5251   0.5251
     0.8057   0.8057   0.8658   0.8658   1.2420   1.2420   1.2645   1.2645
     1.8166   1.8166   1.9036   1.9036   5.3684   5.3684   5.4591   5.4591
     6.3962   6.3962   6.4952   6.4952   6.9169   6.9169   6.9490   6.9490
     7.8186   7.8186   8.0242   8.0242   8.3050   8.3050   8.5260   8.5260
     9.0716   9.0716   9.3884   9.3885

          k = 0.4000 0.0000 0.0477 ( 75722 PWs)   bands (ev):

   -19.7109 -19.7066 -19.7057 -19.7017 -19.1193 -19.1170 -19.1049 -19.1023
   -18.4892 -18.4740 -18.4715 -18.4577 -16.8000 -16.7898 -16.7774 -16.7677
   -15.9812 -15.9542 -15.9420 -15.9196 -14.6482 -14.6388 -14.6083 -14.5967
   -12.1307 -12.1034 -12.1031 -12.0821 -10.2238 -10.2133 -10.1915 -10.1887
    -9.1544  -9.0775  -9.0757  -8.9807  -8.6008  -8.5885  -8.4821  -8.4698
    -7.7983  -7.7127  -7.7115  -7.5829  -7.1288  -7.1261  -7.0943  -7.0294
    -6.3661  -6.3605  -6.1468  -6.1405  -5.8001  -5.7983  -5.7761  -5.7565
    -5.0823  -5.0404  -5.0401  -5.0016  -4.8988  -4.8960  -4.6981  -4.6582
    -4.3145  -4.2565  -4.1400  -4.1036  -3.8573  -3.7743  -3.6787  -3.6449
    -3.6104  -3.5840  -3.4396  -3.4211  -3.2626  -3.2236  -3.2023  -3.1773
    -3.1431  -3.1268  -3.1186  -3.0604  -2.8441  -2.6414  -2.5184  -2.2770
    -1.8148  -1.7923  -1.7699  -1.7669  -1.6347  -1.6304  -1.4630  -1.4576
    -0.4796  -0.4063  -0.3961  -0.3300  -0.0211   0.0428   0.1005   0.1600
     0.6283   0.6471   0.6677   0.7036   0.8839   0.8945   0.9447   0.9670
     0.9860   1.0001   1.0227   1.0479   1.9788   1.9875   2.0217   2.0269
     3.2675   3.2793   3.3446   3.3810   5.0940   5.0952   5.1874   5.2039
     6.1278   6.1888   6.2086   6.2606   6.8667   6.9492   6.9501   7.0234
     8.0202   8.3625   8.4298   8.5064   8.6197   8.6526   8.8383   8.9723
     9.2786   9.4076   9.7165   9.8267

          k = 0.4000 0.0000-0.1073 ( 75735 PWs)   bands (ev):

   -19.7110 -19.7064 -19.7059 -19.7015 -19.1195 -19.1168 -19.1039 -19.1033
   -18.4855 -18.4775 -18.4704 -18.4589 -16.7950 -16.7947 -16.7726 -16.7723
   -15.9767 -15.9591 -15.9383 -15.9235 -14.6412 -14.6335 -14.6148 -14.6020
   -12.1247 -12.1099 -12.0975 -12.0878 -10.2212 -10.2160 -10.1929 -10.1880
    -9.1202  -9.1098  -9.0384  -9.0203  -8.5951  -8.5938  -8.4819  -8.4676
    -7.7882  -7.7224  -7.6848  -7.6142  -7.1383  -7.1236  -7.0736  -7.0593
    -6.3027  -6.2959  -6.1993  -6.1951  -5.8233  -5.7881  -5.7779  -5.7415
    -5.1082  -5.0597  -5.0315  -5.0078  -4.9032  -4.8709  -4.6800  -4.6578
    -4.3020  -4.2639  -4.1516  -4.0954  -3.8687  -3.7596  -3.6717  -3.6629
    -3.6244  -3.5613  -3.4858  -3.3687  -3.2654  -3.2385  -3.2201  -3.1760
    -3.1508  -3.1051  -3.0899  -3.0785  -2.7966  -2.6905  -2.4611  -2.3235
    -1.8231  -1.7892  -1.7682  -1.7633  -1.6508  -1.6243  -1.4552  -1.4520
    -0.4487  -0.4299  -0.4048  -0.3507   0.0034   0.0088   0.1057   0.1471
     0.6529   0.6560   0.6734   0.6832   0.9019   0.9056   0.9289   0.9377
     0.9598   1.0133   1.0342   1.0745   1.9713   1.9795   2.0295   2.0387
     3.2720   3.2768   3.3357   3.3902   5.0611   5.1337   5.1737   5.2209
     6.1281   6.1801   6.2012   6.2594   6.8994   6.9153   6.9749   6.9951
     8.1229   8.1622   8.4961   8.5421   8.5964   8.6910   8.8649   8.8758
     9.3527   9.5313   9.7153   9.7203

          k = 0.4000-0.1272 0.0477 ( 75736 PWs)   bands (ev):

   -19.7097 -19.7097 -19.7027 -19.7027 -19.1184 -19.1184 -19.1034 -19.1034
   -18.4842 -18.4842 -18.4620 -18.4620 -16.7955 -16.7955 -16.7719 -16.7719
   -15.9710 -15.9710 -15.9276 -15.9276 -14.6441 -14.6441 -14.6018 -14.6018
   -12.1219 -12.1219 -12.0877 -12.0877 -10.2114 -10.2114 -10.1980 -10.1980
    -9.1341  -9.1341  -9.0103  -9.0103  -8.5937  -8.5937  -8.4751  -8.4751
    -7.7758  -7.7758  -7.6269  -7.6269  -7.1298  -7.1298  -7.0602  -7.0602
    -6.3633  -6.3633  -6.1436  -6.1436  -5.8011  -5.8011  -5.7652  -5.7652
    -5.0660  -5.0660  -5.0260  -5.0260  -4.9093  -4.9093  -4.6463  -4.6463
    -4.2880  -4.2880  -4.1229  -4.1229  -3.8318  -3.8318  -3.6433  -3.6433
    -3.6168  -3.6168  -3.4341  -3.4341  -3.2409  -3.2409  -3.1868  -3.1868
    -3.1343  -3.1343  -3.0750  -3.0750  -2.7733  -2.7733  -2.3693  -2.3693
    -1.8127  -1.8127  -1.7543  -1.7543  -1.6278  -1.6278  -1.4761  -1.4761
    -0.4534  -0.4534  -0.3509  -0.3509   0.0045   0.0045   0.1347   0.1347
     0.6316   0.6316   0.6856   0.6856   0.8909   0.8909   0.9552   0.9552
     1.0010   1.0010   1.0366   1.0366   1.9815   1.9815   2.0260   2.0260
     3.2722   3.2722   3.3639   3.3639   5.0953   5.0953   5.1936   5.1936
     6.1660   6.1660   6.2255   6.2255   6.8967   6.8967   7.0005   7.0005
     8.1555   8.1555   8.4653   8.4653   8.6901   8.6901   8.8771   8.8771
     9.3417   9.3417   9.7799   9.7799

          k = 0.4000-0.1272-0.1073 ( 75704 PWs)   bands (ev):

   -19.7098 -19.7098 -19.7027 -19.7027 -19.1183 -19.1183 -19.1034 -19.1034
   -18.4828 -18.4828 -18.4634 -18.4634 -16.7943 -16.7943 -16.7730 -16.7730
   -15.9690 -15.9690 -15.9298 -15.9298 -14.6382 -14.6382 -14.6075 -14.6075
   -12.1185 -12.1185 -12.0914 -12.0914 -10.2110 -10.2110 -10.1987 -10.1987
    -9.1168  -9.1168  -9.0278  -9.0278  -8.5931  -8.5931  -8.4743  -8.4743
    -7.7642  -7.7642  -7.6405  -7.6405  -7.1286  -7.1286  -7.0693  -7.0693
    -6.3001  -6.3001  -6.1971  -6.1971  -5.8108  -5.8108  -5.7553  -5.7553
    -5.0782  -5.0782  -5.0386  -5.0386  -4.8941  -4.8941  -4.6406  -4.6406
    -4.2808  -4.2807  -4.1256  -4.1256  -3.8293  -3.8293  -3.6642  -3.6642
    -3.6152  -3.6152  -3.4064  -3.4064  -3.2530  -3.2530  -3.2052  -3.2052
    -3.1219  -3.1219  -3.0771  -3.0771  -2.7419  -2.7419  -2.3895  -2.3895
    -1.8191  -1.8191  -1.7515  -1.7515  -1.6248  -1.6248  -1.4736  -1.4736
    -0.4454  -0.4454  -0.3700  -0.3700   0.0062   0.0062   0.1242   0.1242
     0.6456   0.6456   0.6816   0.6816   0.9135   0.9135   0.9259   0.9259
     0.9850   0.9850   1.0633   1.0633   1.9742   1.9742   2.0354   2.0354
     3.2710   3.2710   3.3662   3.3662   5.0895   5.0895   5.2040   5.2040
     6.1621   6.1621   6.2207   6.2207   6.9149   6.9149   6.9797   6.9797
     8.2135   8.2135   8.3592   8.3592   8.7280   8.7280   8.8672   8.8672
     9.4207   9.4207   9.8191   9.8191

     highest occupied, lowest unoccupied level (ev):     3.3902    5.0611

!    total energy              =   -1255.42148985 Ry
     Harris-Foulkes estimate   =   -1255.42148985 Ry
     estimated scf accuracy    <          9.4E-09 Ry

     total all-electron energy =     -4813.315777 Ry

     The total energy is the sum of the following terms:

     one-electron contribution =    -866.66938461 Ry
     hartree contribution      =     537.37047694 Ry
     xc contribution           =    -264.23622913 Ry
     ewald contribution        =    -293.29074749 Ry
     Dispersion Correction     =      -0.39582021 Ry
     one-center paw contrib.   =    -368.19978535 Ry

     convergence has been achieved in  15 iterations

     Forces acting on atoms (cartesian axes, Ry/au):

     atom    1 type  2   force =     0.00124002    0.05024051   -0.00440908
     atom    2 type  2   force =    -0.00124002    0.05024051    0.00440908
     atom    3 type  2   force =    -0.00124002   -0.05024051    0.00440908
     atom    4 type  2   force =     0.00124002   -0.05024051   -0.00440908
     atom    5 type  1   force =    -0.01177975   -0.00509075   -0.01914514
     atom    6 type  1   force =     0.01177975   -0.00509075    0.01914514
     atom    7 type  1   force =     0.01177975    0.00509075    0.01914514
     atom    8 type  1   force =    -0.01177975    0.00509075   -0.01914514
     atom    9 type  4   force =     0.01897678   -0.06041900    0.01956549
     atom   10 type  4   force =    -0.01897678   -0.06041900   -0.01956549
     atom   11 type  4   force =    -0.01897678    0.06041900   -0.01956549
     atom   12 type  4   force =     0.01897678    0.06041900    0.01956549
     atom   13 type  2   force =    -0.00084647    0.07829614    0.04822206
     atom   14 type  2   force =     0.00084647    0.07829614   -0.04822206
     atom   15 type  2   force =     0.00084647   -0.07829614   -0.04822206
     atom   16 type  2   force =    -0.00084647   -0.07829614    0.04822206
     atom   17 type  1   force =    -0.04783593   -0.05148703   -0.02704367
     atom   18 type  1   force =     0.04783593   -0.05148703    0.02704367
     atom   19 type  1   force =     0.04783593    0.05148703    0.02704367
     atom   20 type  1   force =    -0.04783593    0.05148703   -0.02704367
     atom   21 type  1   force =     0.04566855   -0.01048836    0.03604257
     atom   22 type  1   force =    -0.04566855   -0.01048836   -0.03604257
     atom   23 type  1   force =    -0.04566855    0.01048836   -0.03604257
     atom   24 type  1   force =     0.04566855    0.01048836    0.03604257
     atom   25 type  1   force =    -0.02813615   -0.03565092    0.07043063
     atom   26 type  1   force =     0.02813615   -0.03565092   -0.07043063
     atom   27 type  1   force =     0.02813615    0.03565092   -0.07043063
     atom   28 type  1   force =    -0.02813615    0.03565092    0.07043063
     atom   29 type  1   force =    -0.04751563   -0.01200801   -0.01025622
     atom   30 type  1   force =     0.04751563   -0.01200801    0.01025622
     atom   31 type  1   force =     0.04751563    0.01200801    0.01025622
     atom   32 type  1   force =    -0.04751563    0.01200801   -0.01025622
     atom   33 type  4   force =     0.01574251    0.03755396    0.02630841
     atom   34 type  4   force =    -0.01574251    0.03755396   -0.02630841
     atom   35 type  4   force =    -0.01574251   -0.03755396   -0.02630841
     atom   36 type  4   force =     0.01574251   -0.03755396    0.02630841
     atom   37 type  2   force =     0.01456835    0.03713300    0.00177166
     atom   38 type  2   force =    -0.01456835    0.03713300   -0.00177166
     atom   39 type  2   force =    -0.01456835   -0.03713300   -0.00177166
     atom   40 type  2   force =     0.01456835   -0.03713300    0.00177166
     atom   41 type  1   force =     0.01519489    0.00732625   -0.05207761
     atom   42 type  1   force =    -0.01519489    0.00732625    0.05207761
     atom   43 type  1   force =    -0.01519489   -0.00732625    0.05207761
     atom   44 type  1   force =     0.01519489   -0.00732625   -0.05207761
     atom   45 type  2   force =    -0.02660537   -0.00319276   -0.07240436
     atom   46 type  2   force =     0.02660537   -0.00319276    0.07240436
     atom   47 type  2   force =     0.02660537    0.00319276    0.07240436
     atom   48 type  2   force =    -0.02660537    0.00319276   -0.07240436
     atom   49 type  3   force =    -0.00043027   -0.00054438   -0.00019880
     atom   50 type  3   force =     0.00043027   -0.00054438    0.00019880
     atom   51 type  3   force =     0.00043027    0.00054438    0.00019880
     atom   52 type  3   force =    -0.00043027    0.00054438   -0.00019880
     atom   53 type  3   force =     0.00106779   -0.00102201   -0.00114510
     atom   54 type  3   force =    -0.00106779   -0.00102201    0.00114510
     atom   55 type  3   force =    -0.00106779    0.00102201    0.00114510
     atom   56 type  3   force =     0.00106779    0.00102201   -0.00114510
     atom   57 type  3   force =     0.00243993    0.00338566   -0.00057691
     atom   58 type  3   force =    -0.00243993    0.00338566    0.00057691
     atom   59 type  3   force =    -0.00243993   -0.00338566    0.00057691
     atom   60 type  3   force =     0.00243993   -0.00338566   -0.00057691
     atom   61 type  3   force =     0.00066902    0.00509347   -0.00369436
     atom   62 type  3   force =    -0.00066902    0.00509347    0.00369436
     atom   63 type  3   force =    -0.00066902   -0.00509347    0.00369436
     atom   64 type  3   force =     0.00066902   -0.00509347   -0.00369436
     atom   65 type  3   force =     0.04231034   -0.03309616   -0.01670501
     atom   66 type  3   force =    -0.04231034   -0.03309616    0.01670501
     atom   67 type  3   force =    -0.04231034    0.03309616    0.01670501
     atom   68 type  3   force =     0.04231034    0.03309616   -0.01670501
     atom   69 type  3   force =     0.00261337   -0.00113594    0.00452084
     atom   70 type  3   force =    -0.00261337   -0.00113594   -0.00452084
     atom   71 type  3   force =    -0.00261337    0.00113594   -0.00452084
     atom   72 type  3   force =     0.00261337    0.00113594    0.00452084

     Total force =     0.450680     Total SCF correction =     0.000241


     Computing stress (Cartesian axis) and pressure

          total   stress  (Ry/bohr**3)                   (kbar)     P=   58.99
   0.00069639   0.00000000  -0.00003872        102.44      0.00     -5.70
   0.00000000   0.00033598   0.00000000          0.00     49.42      0.00
  -0.00003872   0.00000000   0.00017065         -5.70      0.00     25.10


     Writing output data file scf.save
 
     init_run     :     35.84s CPU     36.81s WALL (       1 calls)
     electrons    :   1110.78s CPU   1147.43s WALL (       1 calls)
     forces       :     17.48s CPU     17.60s WALL (       1 calls)
     stress       :     67.95s CPU     68.20s WALL (       1 calls)

     Called by init_run:
     wfcinit      :     28.44s CPU     29.34s WALL (       1 calls)
     potinit      :      2.68s CPU      2.69s WALL (       1 calls)

     Called by electrons:
     c_bands      :    998.52s CPU   1030.79s WALL (      15 calls)
     sum_band     :    103.08s CPU    106.83s WALL (      15 calls)
     v_of_rho     :      1.26s CPU      1.39s WALL (      16 calls)
     newd         :      3.03s CPU      3.47s WALL (      16 calls)
     PAW_pot      :      4.48s CPU      4.48s WALL (      16 calls)
     mix_rho      :      0.30s CPU      0.33s WALL (      15 calls)

     Called by c_bands:
     init_us_2    :      6.48s CPU      6.51s WALL (     396 calls)
     cegterg      :    973.02s CPU   1005.09s WALL (     180 calls)

     Called by sum_band:
     sum_band:bec :      0.08s CPU      0.08s WALL (     180 calls)
     addusdens    :      3.04s CPU      3.49s WALL (      15 calls)

     Called by *egterg:
     h_psi        :    535.15s CPU    557.47s WALL (     789 calls)
     s_psi        :    114.50s CPU    114.53s WALL (     789 calls)
     g_psi        :      3.04s CPU      3.04s WALL (     597 calls)
     cdiaghg      :     60.13s CPU     60.13s WALL (     777 calls)

     Called by h_psi:
     h_psi:pot    :    530.68s CPU    552.93s WALL (     789 calls)
     h_psi:calbec :    113.46s CPU    113.78s WALL (     789 calls)
     vloc_psi     :    302.71s CPU    324.58s WALL (     789 calls)
     add_vuspsi   :    114.51s CPU    114.56s WALL (     789 calls)

     General routines
     calbec       :    166.79s CPU    167.26s WALL (    1029 calls)
     fft          :      1.05s CPU      1.26s WALL (     232 calls)
     fftw         :    326.22s CPU    349.81s WALL (  180784 calls)
 
     Parallel routines
     fft_scatter  :     81.98s CPU     97.15s WALL (  181016 calls)
 
     PWSCF        : 20m41.73s CPU    22m18.18s WALL

 
   This run was terminated on:  21:16:27  22Dec2017            

=------------------------------------------------------------------------------=
   JOB DONE.
=------------------------------------------------------------------------------=
