
     Program PWSCF v.6.1 (svn rev. 13369) starts on 26Nov2017 at 16:22:21 

     This program is part of the open-source Quantum ESPRESSO suite
     for quantum simulation of materials; please cite
         "P. Giannozzi et al., J. Phys.:Condens. Matter 21 395502 (2009);
          URL http://www.quantum-espresso.org", 
     in publications or presentations arising from this work. More details at
     http://www.quantum-espresso.org/quote

     Parallel version (MPI), running on     8 processors
     R & G space division:  proc/nbgrp/npool/nimage =       8
     Waiting for input...
     Reading input from standard input

     Current dimensions of program PWSCF are:
     Max number of different atomic species (ntypx) = 10
     Max number of k-points (npk) =  40000
     Max angular momentum in pseudopotentials (lmaxx) =  3
               file C.pbe-n-kjpaw_psl.0.1.UPF: wavefunction(s)  2P renormalized
               file N.pbe-n-kjpaw_psl.0.1.UPF: wavefunction(s)  2P renormalized
               file H.pbe-kjpaw_psl.0.1.UPF: wavefunction(s)  1S renormalized
               file O.pbe-n-kjpaw_psl.0.1.UPF: wavefunction(s)  2P renormalized

     -------------------------------------
     Parameters for Dispersion Correction:
     -------------------------------------
       atom      VdW radius       C_6     

        C          2.744         60.710
        N          2.640         42.670
        H          1.892          4.857
        O          2.536         24.284

     Subspace diagonalization in iterative solution of the eigenvalue problem:
     a serial algorithm will be used

 
     Parallelization info
     --------------------
     sticks:   dense  smooth     PW     G-vecs:    dense   smooth      PW
     Min         508     508    136                67996    67996    9437
     Max         509     509    137                68007    68007    9443
     Sum        4069    4069   1089               544019   544019   75511
 


     bravais-lattice index     =            0
     lattice parameter (alat)  =      10.1214  a.u.
     unit-cell volume          =    4027.7874 (a.u.)^3
     number of atoms/cell      =           56
     number of atomic types    =            4
     number of electrons       =       200.00
     number of Kohn-Sham states=          120
     kinetic-energy cutoff     =     100.0000  Ry
     charge density cutoff     =     400.0000  Ry
     convergence threshold     =      1.0E-08
     mixing beta               =       0.5000
     number of iterations used =            8  plain     mixing
     Exchange-correlation      =  SLA  PW   PBX  PBC ( 1  4  3  4 0 0)

     celldm(1)=  10.121373  celldm(2)=   0.000000  celldm(3)=   0.000000
     celldm(4)=   0.000000  celldm(5)=   0.000000  celldm(6)=   0.000000

     crystal axes: (cart. coord. in units of alat)
               a(1) = (   1.000000   0.000000   0.000000 )  
               a(2) = (   0.000000   1.248693   0.000000 )  
               a(3) = (  -0.381425   0.000000   3.110946 )  

     reciprocal axes: (cart. coord. in units 2 pi/alat)
               b(1) = (  1.000000  0.000000  0.122607 )  
               b(2) = (  0.000000  0.800837  0.000000 )  
               b(3) = (  0.000000  0.000000  0.321446 )  


     PseudoPot. # 1 for  C read from file:
     /scratch/ahofstet/pseudo/C.pbe-n-kjpaw_psl.0.1.UPF
     MD5 check sum: 430fe95172b1e11ef3f8ed03bac87931
     Pseudo is Projector augmented-wave + core cor, Zval =  4.0
     Generated using "atomic" code by A. Dal Corso  v.5.0.99 svn rev. 10869
     Shape of augmentation charge: BESSEL
     Using radial grid of 1073 points,  4 beta functions with: 
                l(1) =   0
                l(2) =   0
                l(3) =   1
                l(4) =   1
     Q(r) pseudized with 0 coefficients 


     PseudoPot. # 2 for  N read from file:
     /scratch/ahofstet/pseudo/N.pbe-n-kjpaw_psl.0.1.UPF
     MD5 check sum: f73187c8b701007e77325f868c9291d7
     Pseudo is Projector augmented-wave + core cor, Zval =  5.0
     Generated using "atomic" code by A. Dal Corso  v.5.0.99 svn rev. 10869
     Shape of augmentation charge: PSQ
     Using radial grid of 1085 points,  4 beta functions with: 
                l(1) =   0
                l(2) =   0
                l(3) =   1
                l(4) =   1
     Q(r) pseudized with 0 coefficients 


     PseudoPot. # 3 for  H read from file:
     /scratch/ahofstet/pseudo/H.pbe-kjpaw_psl.0.1.UPF
     MD5 check sum: 94e484f906d9e9773b2f6e52662335b2
     Pseudo is Projector augmented-wave, Zval =  1.0
     Generated using "atomic" code by A. Dal Corso  v.5.0.99 svn rev. 10869
     Shape of augmentation charge: PSQ
     Using radial grid of  929 points,  2 beta functions with: 
                l(1) =   0
                l(2) =   0
     Q(r) pseudized with 0 coefficients 


     PseudoPot. # 4 for  O read from file:
     /scratch/ahofstet/pseudo/O.pbe-n-kjpaw_psl.0.1.UPF
     MD5 check sum: 3f94a2996a3169367d6eb21d9b593f20
     Pseudo is Projector augmented-wave + core cor, Zval =  6.0
     Generated using "atomic" code by A. Dal Corso  v.5.0.99 svn rev. 10869
     Shape of augmentation charge: BESSEL
     Using radial grid of 1095 points,  4 beta functions with: 
                l(1) =   0
                l(2) =   0
                l(3) =   1
                l(4) =   1
     Q(r) pseudized with 0 coefficients 


     atomic species   valence    mass     pseudopotential
        C              4.00    12.01070      C( 1.00)
        N              5.00    14.00670      N( 1.00)
        H              1.00     1.00794      H( 1.00)
        O              6.00    15.99940      O( 1.00)

      2 Sym. Ops., with inversion, found
          (note:  2 additional sym.ops. were found but ignored
           their fractional translations are incommensurate with FFT grid)


   Cartesian axes

     site n.     atom                  positions (alat units)
         1           O   tau(   1) = (  -0.0299827   0.1877358   1.3143759  )
         2           O   tau(   2) = (   0.3392702   0.8120823   0.2410973  )
         3           O   tau(   3) = (   0.6485577   1.0609573   1.7965706  )
         4           O   tau(   4) = (   0.2793047   0.4366107   2.8698491  )
         5           O   tau(   5) = (   0.3264956   0.3183213   1.4994458  )
         6           O   tau(   6) = (   0.9827919   0.9426678   0.0560274  )
         7           O   tau(   7) = (   0.2920794   0.9303718   1.6115006  )
         8           O   tau(   8) = (  -0.3642169   0.3060253   3.0549190  )
         9           O   tau(   9) = (   0.6711678   0.5253033   2.1347796  )
        10           O   tau(  10) = (   0.2566947   1.1496498   2.5316400  )
        11           O   tau(  11) = (  -0.0525928   0.7233898   0.9761668  )
        12           O   tau(  12) = (   0.3618803   0.0990432   0.5793064  )
        13           O   tau(  13) = (  -0.0073643   0.7566711   2.2344805  )
        14           O   tau(  14) = (  -0.0647733   0.1323246   2.4319391  )
        15           O   tau(  15) = (   0.6259392   0.4920219   0.8764659  )
        16           O   tau(  16) = (   0.6833483   1.1163685   0.6790073  )
        17           N   tau(  17) = (  -0.1131069   0.5979118   2.1030810  )
        18           N   tau(  18) = (   0.0409693   1.2222584   2.5633387  )
        19           N   tau(  19) = (   0.7316819   0.6507812   1.0078654  )
        20           N   tau(  20) = (   0.5776056   0.0264347   0.5476078  )
        21           C   tau(  21) = (   0.1010810   0.2890012   1.5029985  )
        22           C   tau(  22) = (   0.2082065   0.9133478   0.0524747  )
        23           C   tau(  23) = (   0.5174940   0.9596918   1.6079479  )
        24           C   tau(  24) = (   0.4103685   0.3353453   3.0584717  )
        25           C   tau(  25) = (  -0.0662088   0.3693370   1.7118352  )
        26           C   tau(  26) = (  -0.0059287   0.9936835   2.9545844  )
        27           C   tau(  27) = (   0.6847838   0.8793561   1.3991112  )
        28           C   tau(  28) = (   0.6245037   0.2550096   0.1563620  )
        29           C   tau(  29) = (   0.0373322   0.4955348   1.9000377  )
        30           C   tau(  30) = (  -0.1094698   1.1198813   2.7663819  )
        31           C   tau(  31) = (   0.5812427   0.7531582   1.2109087  )
        32           C   tau(  32) = (   0.7280448   0.1288117   0.3445645  )
        33           C   tau(  33) = (   0.1206787   0.1218438   1.0976819  )
        34           C   tau(  34) = (   0.1886088   0.7461903   0.4577913  )
        35           C   tau(  35) = (   0.4978963   1.1268493   2.0132645  )
        36           C   tau(  36) = (   0.4299661   0.5025028   2.6531551  )
        37           H   tau(  37) = (  -0.0111387   0.0489528   0.9607492  )
        38           H   tau(  38) = (   0.3204262   0.6732994   0.5947240  )
        39           H   tau(  39) = (   0.6297137   1.1997402   2.1501972  )
        40           H   tau(  40) = (   0.2981488   0.5753937   2.5162224  )
        41           H   tau(  41) = (   0.2586848   1.2282795   1.1497010  )
        42           H   tau(  42) = (   0.0506027   0.6039329   0.4057722  )
        43           H   tau(  43) = (   0.3598902   0.0204136   1.9612454  )
        44           H   tau(  44) = (   0.5679722   0.6447601   2.7051743  )
        45           H   tau(  45) = (   0.2178396   0.2877116   1.0275448  )
        46           H   tau(  46) = (   0.0914479   0.9120581   0.5279285  )
        47           H   tau(  47) = (   0.4007353   0.9609815   2.0834017  )
        48           H   tau(  48) = (   0.5271271   0.3366350   2.5830180  )
        49           H   tau(  49) = (   0.7329177   0.3352971   1.7036054  )
        50           H   tau(  50) = (   0.1949447   0.9596437   2.9628143  )
        51           H   tau(  51) = (  -0.1143428   0.9133959   1.4073411  )
        52           H   tau(  52) = (   0.4236302   0.2890494   0.1481321  )
        53           H   tau(  53) = (   0.2349965   0.5407639   1.9117472  )
        54           H   tau(  54) = (  -0.3071341   1.1651105   2.7546725  )
        55           H   tau(  55) = (   0.3835784   0.7079291   1.1991993  )
        56           H   tau(  56) = (   0.9257090   0.0835826   0.3562739  )

     number of k points=     7
                       cart. coord. in units 2pi/alat
        k(    1) = (   0.0000000   0.0000000   0.0000000), wk =   0.1666667
        k(    2) = (   0.0000000   0.2669458   0.0000000), wk =   0.3333333
        k(    3) = (   0.2500000   0.0000000   0.0306519), wk =   0.3333333
        k(    4) = (   0.2500000   0.2669458   0.0306519), wk =   0.3333333
        k(    5) = (  -0.5000000   0.0000000  -0.0613037), wk =   0.1666667
        k(    6) = (  -0.5000000   0.2669458  -0.0613037), wk =   0.3333333
        k(    7) = (  -0.2500000   0.2669458  -0.0306519), wk =   0.3333333

     Dense  grid:   544019 G-vectors     FFT dimensions: (  72,  81, 216)

     Estimated max dynamical RAM per process >     340.43MB

     Estimated total allocated dynamical RAM >    2723.41MB

     Check: negative/imaginary core charge=   -0.000002    0.000000

     Initial potential from superposition of free atoms

     starting charge  199.99909, renormalised to  200.00000
     Starting wfc are  164 randomized atomic wfcs
     Checking if some PAW data can be deallocated... 

     total cpu time spent up to now is       19.1 secs

     per-process dynamical memory:   251.2 Mb

     Self-consistent Calculation

     iteration #  1     ecut=   100.00 Ry     beta=0.50
     Davidson diagonalization with overlap
     ethr =  1.00E-02,  avg # of iterations =  3.0

     total cpu time spent up to now is       61.6 secs

     total energy              =   -1096.05071344 Ry
     Harris-Foulkes estimate   =   -1099.15404816 Ry
     estimated scf accuracy    <       5.73917469 Ry

     iteration #  2     ecut=   100.00 Ry     beta=0.50
     Davidson diagonalization with overlap
     ethr =  2.87E-03,  avg # of iterations =  3.3

     total cpu time spent up to now is       90.5 secs

     total energy              =   -1096.86306054 Ry
     Harris-Foulkes estimate   =   -1097.52080659 Ry
     estimated scf accuracy    <       1.38099780 Ry

     iteration #  3     ecut=   100.00 Ry     beta=0.50
     Davidson diagonalization with overlap
     ethr =  6.90E-04,  avg # of iterations =  5.3

     total cpu time spent up to now is      126.4 secs

     total energy              =   -1097.24153881 Ry
     Harris-Foulkes estimate   =   -1097.36173181 Ry
     estimated scf accuracy    <       0.29637989 Ry

     iteration #  4     ecut=   100.00 Ry     beta=0.50
     Davidson diagonalization with overlap
     ethr =  1.48E-04,  avg # of iterations =  2.1

     total cpu time spent up to now is      149.9 secs

     total energy              =   -1097.26667478 Ry
     Harris-Foulkes estimate   =   -1097.28313062 Ry
     estimated scf accuracy    <       0.04114219 Ry

     iteration #  5     ecut=   100.00 Ry     beta=0.50
     Davidson diagonalization with overlap
     ethr =  2.06E-05,  avg # of iterations =  5.7

     total cpu time spent up to now is      194.4 secs

     total energy              =   -1097.28310045 Ry
     Harris-Foulkes estimate   =   -1097.29476991 Ry
     estimated scf accuracy    <       0.03273353 Ry

     iteration #  6     ecut=   100.00 Ry     beta=0.50
     Davidson diagonalization with overlap
     ethr =  1.64E-05,  avg # of iterations =  2.0

     total cpu time spent up to now is      216.6 secs

     total energy              =   -1097.28464338 Ry
     Harris-Foulkes estimate   =   -1097.28766269 Ry
     estimated scf accuracy    <       0.00850373 Ry

     iteration #  7     ecut=   100.00 Ry     beta=0.50
     Davidson diagonalization with overlap
     ethr =  4.25E-06,  avg # of iterations =  4.0

     total cpu time spent up to now is      247.3 secs

     total energy              =   -1097.28684250 Ry
     Harris-Foulkes estimate   =   -1097.28721297 Ry
     estimated scf accuracy    <       0.00095371 Ry

     iteration #  8     ecut=   100.00 Ry     beta=0.50
     Davidson diagonalization with overlap
     ethr =  4.77E-07,  avg # of iterations =  4.0

     total cpu time spent up to now is      276.3 secs

     total energy              =   -1097.28705913 Ry
     Harris-Foulkes estimate   =   -1097.28713989 Ry
     estimated scf accuracy    <       0.00023149 Ry

     iteration #  9     ecut=   100.00 Ry     beta=0.50
     Davidson diagonalization with overlap
     ethr =  1.16E-07,  avg # of iterations =  2.9

     total cpu time spent up to now is      299.9 secs

     total energy              =   -1097.28707970 Ry
     Harris-Foulkes estimate   =   -1097.28709164 Ry
     estimated scf accuracy    <       0.00002792 Ry

     iteration # 10     ecut=   100.00 Ry     beta=0.50
     Davidson diagonalization with overlap
     ethr =  1.40E-08,  avg # of iterations =  4.0

     total cpu time spent up to now is      339.7 secs

     total energy              =   -1097.28710412 Ry
     Harris-Foulkes estimate   =   -1097.28711113 Ry
     estimated scf accuracy    <       0.00002289 Ry

     iteration # 11     ecut=   100.00 Ry     beta=0.50
     Davidson diagonalization with overlap
     ethr =  1.14E-08,  avg # of iterations =  1.0

     total cpu time spent up to now is      361.1 secs

     total energy              =   -1097.28710130 Ry
     Harris-Foulkes estimate   =   -1097.28710554 Ry
     estimated scf accuracy    <       0.00001025 Ry

     iteration # 12     ecut=   100.00 Ry     beta=0.50
     Davidson diagonalization with overlap
     ethr =  5.13E-09,  avg # of iterations =  4.0

     total cpu time spent up to now is      391.1 secs

     total energy              =   -1097.28710462 Ry
     Harris-Foulkes estimate   =   -1097.28710497 Ry
     estimated scf accuracy    <       0.00000103 Ry

     iteration # 13     ecut=   100.00 Ry     beta=0.50
     Davidson diagonalization with overlap
     ethr =  5.16E-10,  avg # of iterations =  3.0

     total cpu time spent up to now is      415.5 secs

     total energy              =   -1097.28710470 Ry
     Harris-Foulkes estimate   =   -1097.28710478 Ry
     estimated scf accuracy    <       0.00000016 Ry

     iteration # 14     ecut=   100.00 Ry     beta=0.50
     Davidson diagonalization with overlap
     ethr =  8.09E-11,  avg # of iterations =  4.0

     total cpu time spent up to now is      453.3 secs

     total energy              =   -1097.28710480 Ry
     Harris-Foulkes estimate   =   -1097.28710484 Ry
     estimated scf accuracy    <       0.00000010 Ry

     iteration # 15     ecut=   100.00 Ry     beta=0.50
     Davidson diagonalization with overlap
     ethr =  4.99E-11,  avg # of iterations =  2.0

     total cpu time spent up to now is      475.5 secs

     total energy              =   -1097.28710479 Ry
     Harris-Foulkes estimate   =   -1097.28710481 Ry
     estimated scf accuracy    <       0.00000002 Ry

     iteration # 16     ecut=   100.00 Ry     beta=0.50
     Davidson diagonalization with overlap
     ethr =  1.21E-11,  avg # of iterations =  4.0

     total cpu time spent up to now is      513.5 secs

     total energy              =   -1097.28710481 Ry
     Harris-Foulkes estimate   =   -1097.28710482 Ry
     estimated scf accuracy    <       0.00000003 Ry

     iteration # 17     ecut=   100.00 Ry     beta=0.50
     Davidson diagonalization with overlap
     ethr =  1.21E-11,  avg # of iterations =  1.6

     total cpu time spent up to now is      535.1 secs

     total energy              =   -1097.28710481 Ry
     Harris-Foulkes estimate   =   -1097.28710481 Ry
     estimated scf accuracy    <       0.00000001 Ry

     iteration # 18     ecut=   100.00 Ry     beta=0.50
     Davidson diagonalization with overlap
     ethr =  5.64E-12,  avg # of iterations =  2.6

     total cpu time spent up to now is      560.4 secs

     End of self-consistent calculation

          k = 0.0000 0.0000 0.0000 ( 67959 PWs)   bands (ev):

   -24.9482 -24.9480 -24.9171 -24.9169 -21.7842 -21.7841 -21.7398 -21.7397
   -20.4996 -20.4995 -20.4671 -20.4671 -19.5053 -19.5052 -19.4750 -19.4749
   -15.0402 -15.0329 -15.0297 -15.0115 -12.7211 -12.6767 -12.6672 -12.6147
   -11.4049 -11.2787 -11.2389 -11.1304  -8.9605  -8.6766  -8.6549  -8.5222
    -8.0213  -7.8882  -7.8020  -7.6959  -7.6391  -7.5758  -7.5312  -7.4868
    -7.3027  -7.2712  -7.2138  -7.1710  -6.8290  -6.7501  -6.7264  -6.6963
    -6.4428  -6.2749  -6.2621  -6.2534  -5.8691  -5.8667  -5.7793  -5.7167
    -5.5549  -5.5491  -5.4773  -5.4615  -4.3043  -4.2775  -4.2662  -4.2469
    -3.7982  -3.7778  -3.7158  -3.7145  -3.7089  -3.6666  -3.6663  -3.5903
    -2.5161  -2.5029  -2.4490  -2.4488  -1.8695  -1.8168  -1.7910  -1.7460
    -1.6566  -1.6564  -1.5711  -1.5549  -1.4508  -1.4330  -1.3835  -1.3344
    -1.3259  -1.3098  -1.1993  -1.1703  -0.9953  -0.9340  -0.9159  -0.9139
    -0.6449  -0.6301  -0.6008  -0.5958   2.0977   2.1191   2.2332   2.2724
     4.2831   4.2871   4.2928   4.3606   6.2009   6.4294   6.4631   6.4798
     6.5442   6.5806   6.8192   7.3823   7.6217   7.7813   7.9416   8.0001

          k = 0.0000 0.2669 0.0000 ( 68008 PWs)   bands (ev):

   -24.9405 -24.9402 -24.9249 -24.9247 -21.7769 -21.7768 -21.7470 -21.7470
   -20.4915 -20.4914 -20.4752 -20.4752 -19.5029 -19.5029 -19.4778 -19.4778
   -15.0437 -15.0391 -15.0200 -15.0119 -12.7101 -12.6880 -12.6536 -12.6274
   -11.3663 -11.2862 -11.2379 -11.1665  -8.9010  -8.7654  -8.6066  -8.5433
    -8.0051  -7.9359  -7.7781  -7.7232  -7.6294  -7.5402  -7.5298  -7.5098
    -7.2925  -7.2421  -7.2304  -7.1739  -6.7974  -6.7923  -6.7372  -6.6777
    -6.3879  -6.2983  -6.2724  -6.2648  -5.9243  -5.9045  -5.8390  -5.8247
    -5.4779  -5.4691  -5.4322  -5.4218  -4.2687  -4.2533  -4.2206  -4.2164
    -3.9079  -3.9072  -3.7894  -3.7723  -3.6620  -3.6468  -3.5105  -3.4882
    -2.5120  -2.4810  -2.4672  -2.4366  -1.8163  -1.7862  -1.7780  -1.7531
    -1.6519  -1.6464  -1.5910  -1.5839  -1.4306  -1.4014  -1.3698  -1.3529
    -1.3213  -1.2992  -1.2145  -1.2141  -0.9994  -0.9725  -0.9611  -0.9610
    -0.6477  -0.6373  -0.6096  -0.6044   2.0389   2.0473   2.2788   2.2982
     4.1510   4.1686   4.4212   4.4436   6.3330   6.3371   6.5136   6.5511
     6.7683   6.8976   7.1484   7.4830   7.7475   7.7889   7.8143   8.0315

          k = 0.2500 0.0000 0.0307 ( 68051 PWs)   bands (ev):

   -24.9468 -24.9467 -24.9161 -24.9160 -21.7770 -21.7770 -21.7416 -21.7415
   -20.5027 -20.5027 -20.4699 -20.4699 -19.5076 -19.5075 -19.4797 -19.4797
   -15.0617 -15.0603 -15.0161 -15.0098 -12.7191 -12.6862 -12.6843 -12.6405
   -11.3611 -11.2726 -11.2367 -11.1621  -8.8614  -8.6220  -8.6210  -8.5254
    -7.9641  -7.7920  -7.7427  -7.7390  -7.6493  -7.6107  -7.5763  -7.4990
    -7.3016  -7.2818  -7.1726  -7.1470  -6.7701  -6.7231  -6.7210  -6.6712
    -6.4341  -6.3181  -6.2636  -6.2545  -5.8663  -5.8614  -5.7314  -5.6848
    -5.5431  -5.5393  -5.5058  -5.4859  -4.3403  -4.3134  -4.3071  -4.2574
    -3.9096  -3.8789  -3.8344  -3.8174  -3.7242  -3.7011  -3.6287  -3.6251
    -2.5500  -2.5358  -2.5060  -2.4774  -1.8460  -1.8139  -1.7929  -1.7677
    -1.7163  -1.7132  -1.6228  -1.6118  -1.4366  -1.4250  -1.3979  -1.3807
    -1.2552  -1.1925  -1.1374  -1.1016  -0.9380  -0.8823  -0.8589  -0.8558
    -0.6032  -0.5800  -0.5720  -0.5534   2.0900   2.1029   2.1938   2.2241
     4.1939   4.2147   4.3235   4.3620   6.3490   6.3857   6.4910   6.5086
     6.7558   6.7877   7.2085   7.2145   7.4627   7.6302   7.8658   8.0792

          k = 0.2500 0.2669 0.0307 ( 68025 PWs)   bands (ev):

   -24.9392 -24.9390 -24.9238 -24.9237 -21.7719 -21.7692 -21.7492 -21.7464
   -20.4945 -20.4945 -20.4782 -20.4781 -19.5083 -19.5058 -19.4819 -19.4794
   -15.0631 -15.0589 -15.0156 -15.0107 -12.7116 -12.6950 -12.6730 -12.6512
   -11.3324 -11.2733 -11.2408 -11.1885  -8.8117  -8.6985  -8.5839  -8.5389
    -7.9418  -7.8648  -7.7291  -7.7262  -7.6196  -7.6001  -7.5720  -7.5432
    -7.2860  -7.2487  -7.1973  -7.1709  -6.7731  -6.7604  -6.6796  -6.6488
    -6.3989  -6.3392  -6.2770  -6.2609  -5.8907  -5.8451  -5.7996  -5.7632
    -5.4951  -5.4742  -5.4486  -5.4402  -4.3250  -4.3081  -4.2790  -4.2509
    -3.9214  -3.8994  -3.8911  -3.8559  -3.7798  -3.7374  -3.5528  -3.5217
    -2.5331  -2.5275  -2.4955  -2.4752  -1.8641  -1.8008  -1.7767  -1.7690
    -1.7454  -1.7145  -1.5495  -1.5294  -1.4577  -1.4290  -1.4023  -1.3853
    -1.2602  -1.2352  -1.1968  -1.1815  -0.9237  -0.9048  -0.8884  -0.8729
    -0.5951  -0.5874  -0.5664  -0.5608   2.0473   2.0532   2.2279   2.2434
     4.1090   4.1560   4.3936   4.4490   6.3612   6.4803   6.5810   6.6736
     6.8941   6.9694   7.3435   7.3947   7.6666   7.8134   7.8669   7.9615

          k =-0.5000 0.0000-0.0613 ( 68064 PWs)   bands (ev):

   -24.9454 -24.9454 -24.9150 -24.9150 -21.7680 -21.7680 -21.7451 -21.7451
   -20.5058 -20.5058 -20.4728 -20.4728 -19.5097 -19.5097 -19.4846 -19.4846
   -15.0776 -15.0776 -15.0130 -15.0130 -12.7080 -12.7080 -12.6818 -12.6818
   -11.2803 -11.2803 -11.2258 -11.2258  -8.6543  -8.6543  -8.5668  -8.5668
    -7.8298  -7.8298  -7.7026  -7.7026  -7.6689  -7.6689  -7.5571  -7.5571
    -7.2711  -7.2711  -7.1262  -7.1262  -6.7460  -6.7460  -6.6895  -6.6895
    -6.4052  -6.4052  -6.2622  -6.2622  -5.8604  -5.8604  -5.5740  -5.5740
    -5.5563  -5.5563  -5.4759  -5.4759  -4.3959  -4.3959  -4.3588  -4.3588
    -4.0131  -4.0131  -3.9446  -3.9446  -3.7213  -3.7213  -3.6121  -3.6121
    -2.5970  -2.5970  -2.5081  -2.5081  -1.8508  -1.8508  -1.7761  -1.7761
    -1.7551  -1.7551  -1.6398  -1.6398  -1.4486  -1.4486  -1.4031  -1.4031
    -1.1536  -1.1536  -1.0727  -1.0727  -0.8529  -0.8529  -0.7948  -0.7948
    -0.5463  -0.5463  -0.5102  -0.5102   2.0951   2.0951   2.1622   2.1622
     4.1362   4.1362   4.3377   4.3377   6.3803   6.3803   6.7960   6.7960
     6.9321   6.9321   7.2109   7.2109   7.4509   7.4509   7.8129   7.8129

          k =-0.5000 0.2669-0.0613 ( 68054 PWs)   bands (ev):

   -24.9379 -24.9379 -24.9226 -24.9226 -21.7626 -21.7626 -21.7502 -21.7502
   -20.4976 -20.4976 -20.4811 -20.4811 -19.5113 -19.5113 -19.4834 -19.4834
   -15.0766 -15.0766 -15.0142 -15.0142 -12.7031 -12.7031 -12.6878 -12.6878
   -11.2698 -11.2698 -11.2368 -11.2368  -8.6481  -8.6481  -8.5693  -8.5693
    -7.8472  -7.8472  -7.6903  -7.6903  -7.6534  -7.6534  -7.5907  -7.5907
    -7.2506  -7.2506  -7.1644  -7.1644  -6.7596  -6.7596  -6.6522  -6.6522
    -6.3985  -6.3985  -6.2733  -6.2733  -5.8038  -5.8038  -5.6442  -5.6442
    -5.5057  -5.5057  -5.4315  -5.4315  -4.4056  -4.4056  -4.3856  -4.3856
    -3.9996  -3.9996  -3.9611  -3.9611  -3.7468  -3.7468  -3.5905  -3.5905
    -2.5593  -2.5593  -2.5151  -2.5151  -1.8704  -1.8704  -1.7783  -1.7783
    -1.7680  -1.7680  -1.5464  -1.5464  -1.4589  -1.4589  -1.3931  -1.3931
    -1.2065  -1.2065  -1.1780  -1.1780  -0.8307  -0.8307  -0.8038  -0.8038
    -0.5361  -0.5361  -0.5221  -0.5221   2.0748   2.0748   2.1724   2.1724
     4.0986   4.0986   4.4076   4.4076   6.4676   6.4676   6.7713   6.7713
     7.1128   7.1128   7.4908   7.4908   7.6198   7.6198   7.9702   7.9702

          k =-0.2500 0.2669-0.0307 ( 68025 PWs)   bands (ev):

   -24.9392 -24.9390 -24.9238 -24.9237 -21.7719 -21.7692 -21.7492 -21.7464
   -20.4945 -20.4945 -20.4782 -20.4781 -19.5083 -19.5058 -19.4819 -19.4794
   -15.0631 -15.0589 -15.0156 -15.0107 -12.7116 -12.6950 -12.6730 -12.6512
   -11.3324 -11.2733 -11.2408 -11.1885  -8.8117  -8.6985  -8.5839  -8.5389
    -7.9418  -7.8648  -7.7291  -7.7262  -7.6196  -7.6001  -7.5720  -7.5432
    -7.2860  -7.2487  -7.1973  -7.1709  -6.7731  -6.7604  -6.6796  -6.6488
    -6.3989  -6.3392  -6.2770  -6.2609  -5.8906  -5.8451  -5.7996  -5.7632
    -5.4951  -5.4742  -5.4486  -5.4402  -4.3251  -4.3081  -4.2790  -4.2509
    -3.9214  -3.8994  -3.8911  -3.8559  -3.7798  -3.7374  -3.5528  -3.5217
    -2.5331  -2.5275  -2.4956  -2.4752  -1.8641  -1.8008  -1.7767  -1.7690
    -1.7454  -1.7145  -1.5495  -1.5294  -1.4577  -1.4290  -1.4023  -1.3853
    -1.2602  -1.2352  -1.1968  -1.1815  -0.9237  -0.9048  -0.8884  -0.8729
    -0.5951  -0.5874  -0.5664  -0.5608   2.0473   2.0532   2.2279   2.2434
     4.1090   4.1560   4.3936   4.4490   6.3612   6.4803   6.5810   6.6736
     6.8941   6.9694   7.3435   7.3947   7.6666   7.8134   7.8669   7.9615

     highest occupied, lowest unoccupied level (ev):    -0.5102    2.0389

!    total energy              =   -1097.28710481 Ry
     Harris-Foulkes estimate   =   -1097.28710481 Ry
     estimated scf accuracy    <          1.3E-09 Ry

     total all-electron energy =     -4088.258124 Ry

     The total energy is the sum of the following terms:

     one-electron contribution =    -598.46465493 Ry
     hartree contribution      =     375.02566986 Ry
     xc contribution           =    -219.58013601 Ry
     ewald contribution        =    -362.13295911 Ry
     Dispersion Correction     =      -0.22105615 Ry
     one-center paw contrib.   =    -291.91396846 Ry

     convergence has been achieved in  18 iterations

     Forces acting on atoms (cartesian axes, Ry/au):

     atom    1 type  4   force =     0.00036173    0.00256367    0.00323348
     atom    2 type  4   force =    -0.00036136    0.00256443   -0.00323411
     atom    3 type  4   force =    -0.00036173   -0.00256367   -0.00323348
     atom    4 type  4   force =     0.00036136   -0.00256443    0.00323411
     atom    5 type  4   force =     0.01373350   -0.00030488    0.00611935
     atom    6 type  4   force =    -0.01373356   -0.00030463   -0.00611948
     atom    7 type  4   force =    -0.01373350    0.00030488   -0.00611935
     atom    8 type  4   force =     0.01373356    0.00030463    0.00611948
     atom    9 type  4   force =    -0.00942061   -0.00009758   -0.00713087
     atom   10 type  4   force =     0.00942042   -0.00010125    0.00713139
     atom   11 type  4   force =     0.00942061    0.00009758    0.00713087
     atom   12 type  4   force =    -0.00942042    0.00010125   -0.00713139
     atom   13 type  4   force =    -0.00140678   -0.00111194    0.00016456
     atom   14 type  4   force =     0.00140642   -0.00111215   -0.00016499
     atom   15 type  4   force =     0.00140678    0.00111194   -0.00016456
     atom   16 type  4   force =    -0.00140642    0.00111215    0.00016499
     atom   17 type  2   force =     0.01120410    0.00021140    0.00089723
     atom   18 type  2   force =    -0.01120415    0.00021092   -0.00089702
     atom   19 type  2   force =    -0.01120410   -0.00021140   -0.00089723
     atom   20 type  2   force =     0.01120415   -0.00021092    0.00089702
     atom   21 type  1   force =    -0.01574097    0.00052836    0.00176251
     atom   22 type  1   force =     0.01574126    0.00053730   -0.00176187
     atom   23 type  1   force =     0.01574097   -0.00052836   -0.00176251
     atom   24 type  1   force =    -0.01574126   -0.00053730    0.00176187
     atom   25 type  1   force =     0.00132849   -0.00032500   -0.00486960
     atom   26 type  1   force =    -0.00132858   -0.00031740    0.00487016
     atom   27 type  1   force =    -0.00132849    0.00032500    0.00486960
     atom   28 type  1   force =     0.00132858    0.00031740   -0.00487016
     atom   29 type  1   force =    -0.00090906   -0.00112564    0.00150361
     atom   30 type  1   force =     0.00090817   -0.00113889   -0.00150382
     atom   31 type  1   force =     0.00090906    0.00112564   -0.00150361
     atom   32 type  1   force =    -0.00090817    0.00113889    0.00150382
     atom   33 type  1   force =    -0.00131859   -0.00205442    0.00147632
     atom   34 type  1   force =     0.00131881   -0.00204542   -0.00147612
     atom   35 type  1   force =     0.00131859    0.00205442   -0.00147632
     atom   36 type  1   force =    -0.00131881    0.00204542    0.00147612
     atom   37 type  3   force =    -0.00110103   -0.00098264   -0.00123121
     atom   38 type  3   force =     0.00110088   -0.00098193    0.00123131
     atom   39 type  3   force =     0.00110103    0.00098264    0.00123121
     atom   40 type  3   force =    -0.00110088    0.00098193   -0.00123131
     atom   41 type  3   force =    -0.00082956    0.00032519    0.00013868
     atom   42 type  3   force =     0.00082945    0.00032447   -0.00013888
     atom   43 type  3   force =     0.00082956   -0.00032519   -0.00013868
     atom   44 type  3   force =    -0.00082945   -0.00032447    0.00013888
     atom   45 type  3   force =    -0.00048856   -0.00072639   -0.00102162
     atom   46 type  3   force =     0.00048802   -0.00072580    0.00102180
     atom   47 type  3   force =     0.00048856    0.00072639    0.00102162
     atom   48 type  3   force =    -0.00048802    0.00072580   -0.00102180
     atom   49 type  3   force =     0.00270893   -0.00280288   -0.00332627
     atom   50 type  3   force =    -0.00270879   -0.00280315    0.00332637
     atom   51 type  3   force =    -0.00270893    0.00280288    0.00332627
     atom   52 type  3   force =     0.00270879    0.00280315   -0.00332637
     atom   53 type  3   force =    -0.00277993    0.00176048    0.00347334
     atom   54 type  3   force =     0.00277994    0.00176046   -0.00347334
     atom   55 type  3   force =     0.00277993   -0.00176048   -0.00347334
     atom   56 type  3   force =    -0.00277994   -0.00176046    0.00347334

     Total force =     0.058558     Total SCF correction =     0.000066


     Computing stress (Cartesian axis) and pressure

          total   stress  (Ry/bohr**3)                   (kbar)     P=   -4.01
  -0.00001367  -0.00000000   0.00003403         -2.01     -0.00      5.01
  -0.00000000  -0.00003201   0.00000000         -0.00     -4.71      0.00
   0.00003403   0.00000000  -0.00003602          5.01      0.00     -5.30


     Writing output data file scf.save
 
     init_run     :     17.82s CPU     18.44s WALL (       1 calls)
     electrons    :    527.62s CPU    541.39s WALL (       1 calls)
     forces       :      9.35s CPU      9.45s WALL (       1 calls)
     stress       :     27.10s CPU     27.26s WALL (       1 calls)

     Called by init_run:
     wfcinit      :     10.89s CPU     11.44s WALL (       1 calls)
     potinit      :      2.52s CPU      2.54s WALL (       1 calls)

     Called by electrons:
     c_bands      :    461.60s CPU    473.20s WALL (      18 calls)
     sum_band     :     56.86s CPU     58.40s WALL (      18 calls)
     v_of_rho     :      1.59s CPU      1.69s WALL (      19 calls)
     newd         :      3.00s CPU      3.49s WALL (      19 calls)
     PAW_pot      :      4.19s CPU      4.19s WALL (      19 calls)
     mix_rho      :      0.37s CPU      0.40s WALL (      18 calls)

     Called by c_bands:
     init_us_2    :      3.10s CPU      3.12s WALL (     273 calls)
     cegterg      :    449.05s CPU    460.60s WALL (     126 calls)

     Called by sum_band:
     sum_band:bec :      0.04s CPU      0.04s WALL (     126 calls)
     addusdens    :      3.10s CPU      3.62s WALL (      18 calls)

     Called by *egterg:
     h_psi        :    275.63s CPU    282.16s WALL (     542 calls)
     s_psi        :     42.22s CPU     42.22s WALL (     542 calls)
     g_psi        :      1.41s CPU      1.41s WALL (     409 calls)
     cdiaghg      :     21.23s CPU     21.32s WALL (     535 calls)

     Called by h_psi:
     h_psi:pot    :    273.89s CPU    280.38s WALL (     542 calls)
     h_psi:calbec :     43.94s CPU     44.08s WALL (     542 calls)
     vloc_psi     :    187.75s CPU    194.09s WALL (     542 calls)
     add_vuspsi   :     42.20s CPU     42.21s WALL (     542 calls)

     General routines
     calbec       :     65.64s CPU     65.85s WALL (     703 calls)
     fft          :      1.59s CPU      1.77s WALL (     271 calls)
     fftw         :    205.20s CPU    211.80s WALL (   98534 calls)
 
     Parallel routines
     fft_scatter  :     53.86s CPU     58.19s WALL (   98805 calls)
 
     PWSCF        :  9m46.28s CPU    10m25.35s WALL

 
   This run was terminated on:  16:32:46  26Nov2017            

=------------------------------------------------------------------------------=
   JOB DONE.
=------------------------------------------------------------------------------=
