
     Program PWSCF v.6.1 (svn rev. 13369) starts on  4Nov2017 at  0:26:28 

     This program is part of the open-source Quantum ESPRESSO suite
     for quantum simulation of materials; please cite
         "P. Giannozzi et al., J. Phys.:Condens. Matter 21 395502 (2009);
          URL http://www.quantum-espresso.org", 
     in publications or presentations arising from this work. More details at
     http://www.quantum-espresso.org/quote

     Parallel version (MPI), running on     8 processors
     R & G space division:  proc/nbgrp/npool/nimage =       8
     Waiting for input...
     Reading input from standard input

     Current dimensions of program PWSCF are:
     Max number of different atomic species (ntypx) = 10
     Max number of k-points (npk) =  40000
     Max angular momentum in pseudopotentials (lmaxx) =  3
               file C.pbe-n-kjpaw_psl.0.1.UPF: wavefunction(s)  2P renormalized
               file N.pbe-n-kjpaw_psl.0.1.UPF: wavefunction(s)  2P renormalized
               file H.pbe-kjpaw_psl.0.1.UPF: wavefunction(s)  1S renormalized
               file O.pbe-n-kjpaw_psl.0.1.UPF: wavefunction(s)  2P renormalized

     -------------------------------------
     Parameters for Dispersion Correction:
     -------------------------------------
       atom      VdW radius       C_6     

        C          2.744         60.710
        N          2.640         42.670
        H          1.892          4.857
        O          2.536         24.284

     Subspace diagonalization in iterative solution of the eigenvalue problem:
     a serial algorithm will be used

 
     Parallelization info
     --------------------
     sticks:   dense  smooth     PW     G-vecs:    dense   smooth      PW
     Min         683     683    183                80651    80651   11203
     Max         684     684    186                80655    80655   11204
     Sum        5471    5471   1467               645227   645227   89629
 


     bravais-lattice index     =            0
     lattice parameter (alat)  =       9.2685  a.u.
     unit-cell volume          =    4775.2228 (a.u.)^3
     number of atoms/cell      =           68
     number of atomic types    =            4
     number of electrons       =       248.00
     number of Kohn-Sham states=          148
     kinetic-energy cutoff     =     100.0000  Ry
     charge density cutoff     =     400.0000  Ry
     convergence threshold     =      1.0E-08
     mixing beta               =       0.5000
     number of iterations used =            8  plain     mixing
     Exchange-correlation      =  SLA  PW   PBX  PBC ( 1  4  3  4 0 0)

     celldm(1)=   9.268540  celldm(2)=   0.000000  celldm(3)=   0.000000
     celldm(4)=   0.000000  celldm(5)=   0.000000  celldm(6)=   0.000000

     crystal axes: (cart. coord. in units of alat)
               a(1) = (   1.000000   0.000000   0.000000 )  
               a(2) = (   0.407919   1.997845   0.000000 )  
               a(3) = (   0.309076   0.431721   3.001911 )  

     reciprocal axes: (cart. coord. in units 2 pi/alat)
               b(1) = (  1.000000 -0.204179 -0.073596 )  
               b(2) = (  0.000000  0.500539 -0.071985 )  
               b(3) = (  0.000000  0.000000  0.333121 )  


     PseudoPot. # 1 for  C read from file:
     /scratch/ahofstet/pseudo/C.pbe-n-kjpaw_psl.0.1.UPF
     MD5 check sum: 430fe95172b1e11ef3f8ed03bac87931
     Pseudo is Projector augmented-wave + core cor, Zval =  4.0
     Generated using "atomic" code by A. Dal Corso  v.5.0.99 svn rev. 10869
     Shape of augmentation charge: BESSEL
     Using radial grid of 1073 points,  4 beta functions with: 
                l(1) =   0
                l(2) =   0
                l(3) =   1
                l(4) =   1
     Q(r) pseudized with 0 coefficients 


     PseudoPot. # 2 for  N read from file:
     /scratch/ahofstet/pseudo/N.pbe-n-kjpaw_psl.0.1.UPF
     MD5 check sum: f73187c8b701007e77325f868c9291d7
     Pseudo is Projector augmented-wave + core cor, Zval =  5.0
     Generated using "atomic" code by A. Dal Corso  v.5.0.99 svn rev. 10869
     Shape of augmentation charge: PSQ
     Using radial grid of 1085 points,  4 beta functions with: 
                l(1) =   0
                l(2) =   0
                l(3) =   1
                l(4) =   1
     Q(r) pseudized with 0 coefficients 


     PseudoPot. # 3 for  H read from file:
     /scratch/ahofstet/pseudo/H.pbe-kjpaw_psl.0.1.UPF
     MD5 check sum: 94e484f906d9e9773b2f6e52662335b2
     Pseudo is Projector augmented-wave, Zval =  1.0
     Generated using "atomic" code by A. Dal Corso  v.5.0.99 svn rev. 10869
     Shape of augmentation charge: PSQ
     Using radial grid of  929 points,  2 beta functions with: 
                l(1) =   0
                l(2) =   0
     Q(r) pseudized with 0 coefficients 


     PseudoPot. # 4 for  O read from file:
     /scratch/ahofstet/pseudo/O.pbe-n-kjpaw_psl.0.1.UPF
     MD5 check sum: 3f94a2996a3169367d6eb21d9b593f20
     Pseudo is Projector augmented-wave + core cor, Zval =  6.0
     Generated using "atomic" code by A. Dal Corso  v.5.0.99 svn rev. 10869
     Shape of augmentation charge: BESSEL
     Using radial grid of 1095 points,  4 beta functions with: 
                l(1) =   0
                l(2) =   0
                l(3) =   1
                l(4) =   1
     Q(r) pseudized with 0 coefficients 


     atomic species   valence    mass     pseudopotential
        C              4.00    12.01070      C( 1.00)
        N              5.00    14.00670      N( 1.00)
        H              1.00     1.00794      H( 1.00)
        O              6.00    15.99940      O( 1.00)

      2 Sym. Ops., with inversion, found



   Cartesian axes

     site n.     atom                  positions (alat units)
         1           N   tau(   1) = (   1.2947967   1.9155657   2.7905596  )
         2           N   tau(   2) = (   0.4221986   0.5140003   0.2113513  )
         3           N   tau(   3) = (   1.1242892   2.1212902   2.8355917  )
         4           N   tau(   4) = (   0.5927061   0.3082758   0.1663191  )
         5           C   tau(   5) = (   1.1890245   2.3141862   2.6470837  )
         6           C   tau(   6) = (   0.5279708   0.1153798   0.3548272  )
         7           C   tau(   7) = (   1.3984056   2.2301103   2.4757582  )
         8           C   tau(   8) = (   0.3185897   0.1994557   0.5261527  )
         9           C   tau(   9) = (   1.4684627   1.9697391   2.5696741  )
        10           C   tau(  10) = (   0.2485326   0.4598269   0.4322367  )
        11           O   tau(  11) = (   1.3033253   1.7079669   2.9487430  )
        12           O   tau(  12) = (   0.4136700   0.7215991   0.0531678  )
        13           N   tau(  13) = (   0.6438824   0.5711348   2.6408310  )
        14           N   tau(  14) = (   1.0731128   1.8584312   0.3610799  )
        15           O   tau(  15) = (   0.4369841   0.6005580   2.7850936  )
        16           O   tau(  16) = (   1.2800111   1.8290080   0.2168173  )
        17           O   tau(  17) = (   0.7453722   0.7526220   2.4952310  )
        18           O   tau(  18) = (   0.9716230   1.6769440   0.5066799  )
        19           N   tau(  19) = (   1.0737049   0.3615012   2.2188312  )
        20           N   tau(  20) = (   0.6432904   2.0680648   0.7830796  )
        21           O   tau(  21) = (   0.9243289   0.3089159   2.0239018  )
        22           O   tau(  22) = (   0.7926664   2.1206501   0.9780091  )
        23           O   tau(  23) = (   0.2746501   0.5099571   2.2170430  )
        24           O   tau(  24) = (   1.4423451   1.9196089   0.7848679  )
        25           N   tau(  25) = (   0.6755132   1.7916346   2.4708556  )
        26           N   tau(  26) = (   1.0414820   0.6379314   0.5310552  )
        27           O   tau(  27) = (   0.8146011   1.8791954   2.2775763  )
        28           O   tau(  28) = (   0.9023941   0.5503706   0.7243346  )
        29           O   tau(  29) = (   0.7055917   1.5658993   2.5795806  )
        30           O   tau(  30) = (   1.0114036   0.8636667   0.4223303  )
        31           O   tau(  31) = (   0.4743571   1.0988085   0.8464073  )
        32           O   tau(  32) = (   1.2426382   1.3307575   2.1555035  )
        33           C   tau(  33) = (   0.6409041   1.1129667   1.0347696  )
        34           C   tau(  34) = (   1.0760912   1.3165993   1.9671413  )
        35           O   tau(  35) = (   0.6275268   0.9453906   1.2532811  )
        36           O   tau(  36) = (   1.0894684   1.4841754   1.7486297  )
        37           C   tau(  37) = (   0.4026755   0.7506852   1.2570205  )
        38           C   tau(  38) = (   1.3143197   1.6788808   1.7448904  )
        39           H   tau(  39) = (   0.2068492   0.8648976   1.2515854  )
        40           H   tau(  40) = (   1.5101461   1.5646684   1.7503254  )
        41           H   tau(  41) = (   0.4168421   0.6254590   1.0721089  )
        42           H   tau(  42) = (   1.3001532   1.8041070   1.9298020  )
        43           C   tau(  43) = (   0.4311542   0.5823345   1.5129868  )
        44           C   tau(  44) = (   1.2858411   1.8472315   1.4889241  )
        45           H   tau(  45) = (   0.2718683   0.4257197   1.5144626  )
        46           H   tau(  46) = (   1.4451269   2.0038463   1.4874482  )
        47           H   tau(  47) = (   0.4050534   0.7059752   1.6977899  )
        48           H   tau(  48) = (   1.3119419   1.7235908   1.3041210  )
        49           H   tau(  49) = (   0.6306574   0.4834727   1.5207452  )
        50           H   tau(  50) = (   1.0863378   1.9460933   1.4811657  )
        51           C   tau(  51) = (   0.8740247   1.3051231   1.0464781  )
        52           C   tau(  52) = (   0.8429705   1.1244429   1.9554328  )
        53           H   tau(  53) = (   0.8172710   1.4987976   0.9511844  )
        54           H   tau(  54) = (   0.8997242   0.9307683   2.0507265  )
        55           H   tau(  55) = (   1.0503675   1.2207607   0.9295190  )
        56           H   tau(  56) = (   0.6666277   1.2088053   2.0723919  )
        57           H   tau(  57) = (   0.9452931   1.3374920   1.2556302  )
        58           H   tau(  58) = (   0.7717022   1.0920740   1.7462806  )
        59           N   tau(  59) = (   0.5137072   1.2634563   0.2907173  )
        60           N   tau(  60) = (   1.2032881   1.1661097   2.7111936  )
        61           H   tau(  61) = (   0.5333978   1.2246766   0.4991312  )
        62           H   tau(  62) = (   1.1835975   1.2048894   2.5027797  )
        63           H   tau(  63) = (   0.7029537   1.2862104   0.1967219  )
        64           H   tau(  64) = (   1.0140416   1.1433556   2.8051890  )
        65           H   tau(  65) = (   0.4147336   1.0984505   0.2031570  )
        66           H   tau(  66) = (   1.3022616   1.3311155   2.7987539  )
        67           H   tau(  67) = (   0.4009260   1.4397841   0.2631863  )
        68           H   tau(  68) = (   1.3160692   0.9897818   2.7387246  )

     number of k points=    12
                       cart. coord. in units 2pi/alat
        k(    1) = (   0.0000000   0.0000000   0.0000000), wk =   0.1250000
        k(    2) = (   0.0000000   0.0000000  -0.1665606), wk =   0.1250000
        k(    3) = (   0.0000000  -0.2502696   0.0359926), wk =   0.1250000
        k(    4) = (   0.0000000  -0.2502696  -0.1305680), wk =   0.1250000
        k(    5) = (   0.2500000  -0.0510449  -0.0183989), wk =   0.2500000
        k(    6) = (   0.2500000  -0.0510449  -0.1849595), wk =   0.2500000
        k(    7) = (   0.2500000  -0.3013145   0.0175936), wk =   0.2500000
        k(    8) = (   0.2500000  -0.3013145  -0.1489669), wk =   0.2500000
        k(    9) = (  -0.5000000   0.1020897   0.0367979), wk =   0.1250000
        k(   10) = (  -0.5000000   0.1020897  -0.1297627), wk =   0.1250000
        k(   11) = (  -0.5000000  -0.1481799   0.0727905), wk =   0.1250000
        k(   12) = (  -0.5000000  -0.1481799  -0.0937701), wk =   0.1250000

     Dense  grid:   645227 G-vectors     FFT dimensions: (  60, 125, 180)

     Estimated max dynamical RAM per process >     598.95MB

     Estimated total allocated dynamical RAM >    4791.57MB

     Check: negative/imaginary core charge=   -0.000002    0.000000

     Initial potential from superposition of free atoms

     starting charge  247.99907, renormalised to  248.00000
     Starting wfc are  200 randomized atomic wfcs
     Checking if some PAW data can be deallocated... 

     total cpu time spent up to now is       33.7 secs

     per-process dynamical memory:   479.4 Mb

     Self-consistent Calculation

     iteration #  1     ecut=   100.00 Ry     beta=0.50
     Davidson diagonalization with overlap
     ethr =  1.00E-02,  avg # of iterations =  4.4

     total cpu time spent up to now is      119.9 secs

     total energy              =   -1372.09557327 Ry
     Harris-Foulkes estimate   =   -1376.15568145 Ry
     estimated scf accuracy    <       7.28182263 Ry

     iteration #  2     ecut=   100.00 Ry     beta=0.50
     Davidson diagonalization with overlap
     ethr =  2.94E-03,  avg # of iterations =  4.0

     total cpu time spent up to now is      183.5 secs

     total energy              =   -1373.33894660 Ry
     Harris-Foulkes estimate   =   -1374.29519085 Ry
     estimated scf accuracy    <       2.00763282 Ry

     iteration #  3     ecut=   100.00 Ry     beta=0.50
     Davidson diagonalization with overlap
     ethr =  8.10E-04,  avg # of iterations =  5.1

     total cpu time spent up to now is      250.3 secs

     total energy              =   -1373.79233239 Ry
     Harris-Foulkes estimate   =   -1374.00552440 Ry
     estimated scf accuracy    <       0.52399070 Ry

     iteration #  4     ecut=   100.00 Ry     beta=0.50
     Davidson diagonalization with overlap
     ethr =  2.11E-04,  avg # of iterations =  6.4

     total cpu time spent up to now is      310.2 secs

     total energy              =   -1373.84865864 Ry
     Harris-Foulkes estimate   =   -1373.92231009 Ry
     estimated scf accuracy    <       0.18789683 Ry

     iteration #  5     ecut=   100.00 Ry     beta=0.50
     Davidson diagonalization with overlap
     ethr =  7.58E-05,  avg # of iterations =  6.8

     total cpu time spent up to now is      374.0 secs

     total energy              =   -1373.88652097 Ry
     Harris-Foulkes estimate   =   -1373.90987828 Ry
     estimated scf accuracy    <       0.07252998 Ry

     iteration #  6     ecut=   100.00 Ry     beta=0.50
     Davidson diagonalization with overlap
     ethr =  2.92E-05,  avg # of iterations =  2.3

     total cpu time spent up to now is      423.5 secs

     total energy              =   -1373.89705933 Ry
     Harris-Foulkes estimate   =   -1373.89949795 Ry
     estimated scf accuracy    <       0.00588611 Ry

     iteration #  7     ecut=   100.00 Ry     beta=0.50
     Davidson diagonalization with overlap
     ethr =  2.37E-06,  avg # of iterations =  8.6

     total cpu time spent up to now is      515.3 secs

     total energy              =   -1373.89880927 Ry
     Harris-Foulkes estimate   =   -1373.89980212 Ry
     estimated scf accuracy    <       0.00285251 Ry

     iteration #  8     ecut=   100.00 Ry     beta=0.50
     Davidson diagonalization with overlap
     ethr =  1.15E-06,  avg # of iterations =  2.6

     total cpu time spent up to now is      564.3 secs

     total energy              =   -1373.89910073 Ry
     Harris-Foulkes estimate   =   -1373.89929894 Ry
     estimated scf accuracy    <       0.00048207 Ry

     iteration #  9     ecut=   100.00 Ry     beta=0.50
     Davidson diagonalization with overlap
     ethr =  1.94E-07,  avg # of iterations =  4.0

     total cpu time spent up to now is      629.7 secs

     total energy              =   -1373.89927418 Ry
     Harris-Foulkes estimate   =   -1373.89933868 Ry
     estimated scf accuracy    <       0.00020591 Ry

     iteration # 10     ecut=   100.00 Ry     beta=0.50
     Davidson diagonalization with overlap
     ethr =  8.30E-08,  avg # of iterations =  2.0

     total cpu time spent up to now is      676.8 secs

     total energy              =   -1373.89927112 Ry
     Harris-Foulkes estimate   =   -1373.89930219 Ry
     estimated scf accuracy    <       0.00006613 Ry

     iteration # 11     ecut=   100.00 Ry     beta=0.50
     Davidson diagonalization with overlap
     ethr =  2.67E-08,  avg # of iterations =  4.0

     total cpu time spent up to now is      737.4 secs

     total energy              =   -1373.89929716 Ry
     Harris-Foulkes estimate   =   -1373.89929972 Ry
     estimated scf accuracy    <       0.00001232 Ry

     iteration # 12     ecut=   100.00 Ry     beta=0.50
     Davidson diagonalization with overlap
     ethr =  4.97E-09,  avg # of iterations =  2.1

     total cpu time spent up to now is      786.0 secs

     total energy              =   -1373.89929714 Ry
     Harris-Foulkes estimate   =   -1373.89929890 Ry
     estimated scf accuracy    <       0.00000451 Ry

     iteration # 13     ecut=   100.00 Ry     beta=0.50
     Davidson diagonalization with overlap
     ethr =  1.82E-09,  avg # of iterations =  3.7

     total cpu time spent up to now is      843.4 secs

     total energy              =   -1373.89929822 Ry
     Harris-Foulkes estimate   =   -1373.89929844 Ry
     estimated scf accuracy    <       0.00000066 Ry

     iteration # 14     ecut=   100.00 Ry     beta=0.50
     Davidson diagonalization with overlap
     ethr =  2.66E-10,  avg # of iterations =  3.0

     total cpu time spent up to now is      899.3 secs

     total energy              =   -1373.89929838 Ry
     Harris-Foulkes estimate   =   -1373.89929841 Ry
     estimated scf accuracy    <       0.00000010 Ry

     iteration # 15     ecut=   100.00 Ry     beta=0.50
     Davidson diagonalization with overlap
     ethr =  4.20E-11,  avg # of iterations =  4.0

     total cpu time spent up to now is      963.6 secs

     total energy              =   -1373.89929841 Ry
     Harris-Foulkes estimate   =   -1373.89929842 Ry
     estimated scf accuracy    <       0.00000004 Ry

     iteration # 16     ecut=   100.00 Ry     beta=0.50
     Davidson diagonalization with overlap
     ethr =  1.46E-11,  avg # of iterations =  2.0

     total cpu time spent up to now is     1012.2 secs

     total energy              =   -1373.89929841 Ry
     Harris-Foulkes estimate   =   -1373.89929841 Ry
     estimated scf accuracy    <       0.00000001 Ry

     iteration # 17     ecut=   100.00 Ry     beta=0.50
     Davidson diagonalization with overlap
     ethr =  4.50E-12,  avg # of iterations =  3.0

     total cpu time spent up to now is     1070.4 secs

     End of self-consistent calculation

          k = 0.0000 0.0000 0.0000 ( 80617 PWs)   bands (ev):

   -25.1471 -25.1463 -24.7936 -24.7927 -24.6150 -24.5969 -22.9779 -22.9744
   -21.1970 -21.1924 -20.7351 -20.7350 -20.3110 -20.3093 -20.1682 -20.1459
   -19.1290 -19.1042 -18.9377 -18.9365 -17.0195 -17.0186 -15.5816 -15.5753
   -14.8986 -14.8747 -13.3433 -13.3299 -12.8823 -12.8695 -11.9752 -11.9735
   -11.6677 -11.5812 -11.0199 -10.9975  -9.1129  -9.0794  -8.9722  -8.9597
    -8.7274  -8.6470  -8.0040  -8.0030  -7.7004  -7.5727  -7.5098  -7.4708
    -7.4577  -7.3217  -7.3018  -7.2690  -7.1521  -7.0017  -6.9811  -6.8456
    -6.7924  -6.7845  -6.6647  -6.5954  -6.5721  -6.5425  -6.4484  -6.4034
    -6.3208  -6.2266  -6.1649  -6.0374  -5.9292  -5.8911  -5.7738  -5.7526
    -5.5574  -5.4479  -5.4293  -5.3590  -4.9239  -4.9114  -4.1916  -4.0940
    -3.5373  -3.2535  -3.1126  -3.0753  -2.9661  -2.9071  -2.8944  -2.7966
    -2.7345  -2.5090  -2.1922  -2.1224  -2.0949  -2.0863  -2.0226  -1.9576
    -1.9112  -1.8653  -1.7543  -1.6765  -1.6675  -1.6303  -1.5394  -1.5003
    -1.3628  -1.3553  -1.3338  -1.2539  -1.2063  -1.1711  -0.9411  -0.8649
    -0.8446  -0.8183  -0.7729  -0.7361  -0.7034  -0.6600  -0.4387  -0.3961
    -0.2016  -0.1672   0.4240   0.4834   2.5327   2.5747   2.8681   2.8753
     2.9246   3.0279   5.4886   5.5015   5.6538   5.6729   6.0673   6.0887
     6.2089   6.9060   7.0756   7.1680   7.2761   7.4193   7.4262   8.1449
     8.2924   8.3292   8.4881   8.5211

          k = 0.0000 0.0000-0.1666 ( 80634 PWs)   bands (ev):

   -25.1471 -25.1463 -24.7936 -24.7927 -24.6150 -24.5969 -22.9779 -22.9744
   -21.1970 -21.1924 -20.7351 -20.7350 -20.3110 -20.3093 -20.1682 -20.1459
   -19.1290 -19.1042 -18.9379 -18.9363 -17.0196 -17.0186 -15.5816 -15.5753
   -14.8985 -14.8747 -13.3424 -13.3308 -12.8823 -12.8695 -11.9760 -11.9728
   -11.6675 -11.5813 -11.0232 -10.9940  -9.1068  -9.0802  -8.9938  -8.9442
    -8.7270  -8.6470  -8.0046  -8.0019  -7.7000  -7.5711  -7.5051  -7.4914
    -7.4424  -7.3211  -7.2988  -7.2737  -7.1500  -7.0100  -6.9790  -6.8499
    -6.7940  -6.7753  -6.6575  -6.5990  -6.5696  -6.5472  -6.4488  -6.4032
    -6.3223  -6.2281  -6.1631  -6.0386  -5.9307  -5.8932  -5.7723  -5.7496
    -5.5463  -5.4660  -5.4175  -5.3633  -4.9328  -4.9028  -4.1910  -4.0943
    -3.5396  -3.2513  -3.1110  -3.0757  -2.9659  -2.9106  -2.8917  -2.7960
    -2.7344  -2.5090  -2.1816  -2.1648  -2.1003  -2.0663  -2.0227  -1.9305
    -1.9062  -1.8714  -1.7601  -1.6866  -1.6676  -1.6148  -1.5362  -1.5149
    -1.3535  -1.3534  -1.3463  -1.2540  -1.1954  -1.1783  -0.9442  -0.8715
    -0.8264  -0.8131  -0.7938  -0.7254  -0.7206  -0.6481  -0.4355  -0.3940
    -0.2082  -0.1648   0.4256   0.4819   2.5326   2.5749   2.8617   2.8812
     2.9247   3.0279   5.4927   5.4983   5.6512   5.6740   6.0611   6.0929
     6.2742   6.6657   7.1317   7.1634   7.3727   7.4127   7.7152   7.8814
     8.1898   8.4287   8.4557   8.5267

          k = 0.0000-0.2503 0.0360 ( 80690 PWs)   bands (ev):

   -25.1471 -25.1463 -24.7935 -24.7928 -24.6151 -24.5969 -22.9818 -22.9706
   -21.1970 -21.1925 -20.7350 -20.7350 -20.3105 -20.3095 -20.1684 -20.1459
   -19.1184 -19.1131 -18.9377 -18.9365 -17.0292 -17.0165 -15.5815 -15.5751
   -14.8898 -14.8707 -13.3436 -13.3301 -12.8957 -12.8562 -11.9823 -11.9684
   -11.6460 -11.6008 -11.0279 -11.0175  -9.1507  -9.0428  -8.9848  -8.9619
    -8.6582  -8.6403  -8.0318  -7.9994  -7.7143  -7.5810  -7.4778  -7.4561
    -7.4061  -7.3267  -7.2923  -7.2639  -7.1412  -7.0430  -6.9747  -6.8471
    -6.8031  -6.8013  -6.6598  -6.6514  -6.6035  -6.5563  -6.5519  -6.4131
    -6.3055  -6.1399  -6.1157  -6.0925  -5.8856  -5.8832  -5.7667  -5.7602
    -5.5152  -5.4552  -5.4366  -5.3736  -4.9371  -4.9044  -4.2052  -4.0624
    -3.4980  -3.2996  -3.1375  -3.0185  -2.9645  -2.9033  -2.8607  -2.8226
    -2.7699  -2.5047  -2.2330  -2.1058  -2.0845  -2.0771  -2.0154  -1.9450
    -1.9274  -1.8804  -1.7654  -1.6826  -1.6609  -1.6125  -1.5424  -1.5207
    -1.3733  -1.3621  -1.3077  -1.2416  -1.2173  -1.1857  -0.9408  -0.8526
    -0.8460  -0.8005  -0.7828  -0.7254  -0.7203  -0.6416  -0.4433  -0.4162
    -0.2123  -0.1636   0.4177   0.5145   2.5389   2.5622   2.8644   2.8706
     2.8938   3.0572   5.4900   5.5105   5.6556   5.6987   6.0245   6.0941
     6.5065   6.6312   7.0418   7.0864   7.3884   7.4799   7.4860   7.6768
     7.9988   8.3284   8.4427   8.4824

          k = 0.0000-0.2503-0.1306 ( 80702 PWs)   bands (ev):

   -25.1471 -25.1463 -24.7935 -24.7928 -24.6151 -24.5969 -22.9818 -22.9706
   -21.1970 -21.1925 -20.7350 -20.7350 -20.3105 -20.3095 -20.1684 -20.1459
   -19.1184 -19.1131 -18.9378 -18.9364 -17.0292 -17.0165 -15.5814 -15.5751
   -14.8898 -14.8708 -13.3429 -13.3308 -12.8956 -12.8562 -11.9812 -11.9694
   -11.6460 -11.6008 -11.0295 -11.0161  -9.1513  -9.0501  -8.9754  -8.9618
    -8.6597  -8.6394  -8.0425  -7.9885  -7.7154  -7.5795  -7.4943  -7.4435
    -7.4036  -7.3268  -7.2914  -7.2667  -7.1385  -7.0421  -6.9766  -6.8487
    -6.8032  -6.8010  -6.6596  -6.6456  -6.6021  -6.5612  -6.5527  -6.4121
    -6.3057  -6.1384  -6.1173  -6.0917  -5.8875  -5.8846  -5.7690  -5.7548
    -5.5091  -5.4750  -5.4234  -5.3762  -4.9237  -4.9152  -4.2046  -4.0626
    -3.4986  -3.3021  -3.1375  -3.0202  -2.9612  -2.9043  -2.8607  -2.8226
    -2.7723  -2.5042  -2.2035  -2.1290  -2.0886  -2.0773  -2.0112  -1.9370
    -1.9282  -1.8872  -1.7867  -1.6631  -1.6577  -1.5998  -1.5579  -1.5246
    -1.3699  -1.3605  -1.3189  -1.2391  -1.1991  -1.1978  -0.9368  -0.8666
    -0.8254  -0.8246  -0.7646  -0.7343  -0.7193  -0.6375  -0.4476  -0.4092
    -0.2176  -0.1629   0.4191   0.5138   2.5386   2.5624   2.8663   2.8680
     2.8949   3.0569   5.4930   5.5066   5.6540   5.6991   6.0235   6.1006
     6.6068   6.6521   6.7685   7.1196   7.2716   7.4499   7.8451   7.8709
     8.0491   8.1448   8.2996   8.5188

          k = 0.2500-0.0510-0.0184 ( 80604 PWs)   bands (ev):

   -25.1398 -25.1393 -24.7897 -24.7890 -24.6157 -24.6016 -22.9825 -22.9766
   -21.1924 -21.1890 -20.7408 -20.7407 -20.3079 -20.3069 -20.1715 -20.1519
   -19.1259 -19.1069 -18.9354 -18.9344 -17.0244 -17.0152 -15.5974 -15.5903
   -14.8961 -14.8830 -13.3423 -13.3294 -12.9135 -12.9042 -11.9674 -11.9554
   -11.6598 -11.5949 -11.0184 -11.0010  -9.0877  -9.0517  -8.9787  -8.9565
    -8.6819  -8.6351  -8.0626  -7.9576  -7.6462  -7.6298  -7.5931  -7.5286
    -7.4807  -7.4399  -7.3319  -7.3116  -7.0961  -7.0385  -6.9695  -6.8846
    -6.8326  -6.7881  -6.7164  -6.6571  -6.6329  -6.6137  -6.5420  -6.4277
    -6.2034  -6.1727  -6.0573  -5.9645  -5.8265  -5.8050  -5.7609  -5.6955
    -5.5356  -5.4625  -5.4295  -5.3729  -4.9586  -4.9295  -4.2777  -4.1944
    -3.5324  -3.3097  -3.1870  -3.0730  -2.9436  -2.8789  -2.7805  -2.7010
    -2.5764  -2.5124  -2.1547  -2.1212  -2.0272  -2.0128  -1.9537  -1.8673
    -1.8265  -1.7897  -1.6689  -1.6347  -1.6044  -1.5741  -1.5167  -1.4974
    -1.4179  -1.3462  -1.3364  -1.2721  -1.2198  -1.1706  -0.9104  -0.8776
    -0.8181  -0.7437  -0.7376  -0.7118  -0.6618  -0.6321  -0.4328  -0.4210
    -0.2394  -0.1823   0.4473   0.4821   2.4430   2.4979   2.7645   2.7660
     2.9247   3.0220   5.2259   5.2821   5.5263   5.6135   6.1634   6.1786
     6.5446   7.0356   7.1175   7.3574   7.3773   7.6349   7.8462   8.1591
     8.2819   8.3328   8.4016   8.4698

          k = 0.2500-0.0510-0.1850 ( 80606 PWs)   bands (ev):

   -25.1398 -25.1393 -24.7897 -24.7890 -24.6157 -24.6016 -22.9825 -22.9766
   -21.1924 -21.1890 -20.7408 -20.7408 -20.3079 -20.3069 -20.1715 -20.1519
   -19.1259 -19.1069 -18.9355 -18.9342 -17.0244 -17.0152 -15.5974 -15.5903
   -14.8961 -14.8831 -13.3421 -13.3297 -12.9136 -12.9041 -11.9676 -11.9551
   -11.6598 -11.5950 -11.0210 -10.9984  -9.0894  -9.0513  -8.9773  -8.9560
    -8.6834  -8.6343  -8.0636  -7.9570  -7.6419  -7.6287  -7.5978  -7.5058
    -7.4920  -7.4579  -7.3313  -7.3082  -7.0972  -7.0420  -6.9618  -6.8822
    -6.8349  -6.7848  -6.7083  -6.6658  -6.6431  -6.6054  -6.5420  -6.4280
    -6.2045  -6.1744  -6.0578  -5.9610  -5.8283  -5.8008  -5.7743  -5.6870
    -5.5391  -5.4519  -5.4129  -5.3968  -4.9614  -4.9253  -4.2766  -4.1946
    -3.5356  -3.3072  -3.1872  -3.0742  -2.9411  -2.8805  -2.7788  -2.7006
    -2.5779  -2.5125  -2.1637  -2.1089  -2.0291  -2.0140  -1.9601  -1.8468
    -1.8314  -1.7963  -1.6793  -1.6283  -1.6168  -1.5575  -1.5276  -1.4886
    -1.4199  -1.3524  -1.3286  -1.2748  -1.2215  -1.1663  -0.9097  -0.8770
    -0.8161  -0.7518  -0.7336  -0.6991  -0.6812  -0.6265  -0.4318  -0.4219
    -0.2383  -0.1812   0.4473   0.4811   2.4434   2.4974   2.7621   2.7684
     2.9242   3.0226   5.2269   5.2808   5.5277   5.6122   6.1610   6.1789
     6.5805   6.9720   7.1050   7.2727   7.4207   7.8075   7.8907   8.1092
     8.2261   8.3001   8.3853   8.4233

          k = 0.2500-0.3013 0.0176 ( 80631 PWs)   bands (ev):

   -25.1398 -25.1393 -24.7897 -24.7890 -24.6157 -24.6016 -22.9841 -22.9751
   -21.1924 -21.1890 -20.7408 -20.7407 -20.3078 -20.3068 -20.1715 -20.1519
   -19.1211 -19.1117 -18.9354 -18.9344 -17.0229 -17.0173 -15.5977 -15.5905
   -14.8999 -14.8785 -13.3406 -13.3275 -12.9225 -12.8953 -11.9661 -11.9583
   -11.6445 -11.6083 -11.0264 -11.0020  -9.1134  -9.0352  -8.9723  -8.9579
    -8.6955  -8.6272  -8.0384  -7.9710  -7.6483  -7.6203  -7.5676  -7.5111
    -7.4784  -7.4440  -7.3650  -7.2224  -7.1395  -7.0423  -7.0301  -6.8984
    -6.8870  -6.8147  -6.6908  -6.6451  -6.6054  -6.5535  -6.4255  -6.3815
    -6.3018  -6.2408  -6.0964  -5.9504  -5.8688  -5.8287  -5.7922  -5.6872
    -5.5086  -5.4520  -5.3834  -5.3617  -4.9637  -4.9253  -4.2874  -4.1656
    -3.5372  -3.3087  -3.1882  -3.0666  -2.9505  -2.8787  -2.7736  -2.6743
    -2.6362  -2.5077  -2.1492  -2.1303  -2.0352  -1.9982  -1.9215  -1.8847
    -1.8435  -1.7929  -1.7219  -1.6655  -1.5921  -1.5766  -1.5362  -1.4982
    -1.4038  -1.3489  -1.3219  -1.2512  -1.1936  -1.1484  -0.9199  -0.8545
    -0.8307  -0.7589  -0.7432  -0.6825  -0.6674  -0.6263  -0.4537  -0.4017
    -0.2379  -0.1819   0.4426   0.5096   2.4421   2.4848   2.7603   2.7694
     2.9362   2.9982   5.2307   5.2877   5.5750   5.5964   6.1364   6.1675
     6.6745   7.0300   7.1469   7.1730   7.4683   7.5212   7.8472   7.9952
     8.1154   8.3129   8.3418   8.4307

          k = 0.2500-0.3013-0.1490 ( 80609 PWs)   bands (ev):

   -25.1398 -25.1393 -24.7897 -24.7890 -24.6157 -24.6016 -22.9841 -22.9751
   -21.1924 -21.1890 -20.7408 -20.7407 -20.3078 -20.3068 -20.1715 -20.1519
   -19.1211 -19.1117 -18.9355 -18.9343 -17.0229 -17.0173 -15.5977 -15.5905
   -14.8999 -14.8785 -13.3405 -13.3277 -12.9225 -12.8953 -11.9654 -11.9589
   -11.6445 -11.6083 -11.0273 -11.0011  -9.1125  -9.0327  -8.9838  -8.9499
    -8.6970  -8.6249  -8.0333  -7.9787  -7.6469  -7.6253  -7.5583  -7.5104
    -7.4862  -7.4358  -7.3689  -7.2235  -7.1400  -7.0416  -7.0299  -6.8983
    -6.8859  -6.8111  -6.6987  -6.6523  -6.5962  -6.5538  -6.4257  -6.3802
    -6.3025  -6.2395  -6.0942  -5.9548  -5.8668  -5.8303  -5.7893  -5.6883
    -5.5151  -5.4207  -5.4087  -5.3636  -4.9574  -4.9291  -4.2868  -4.1661
    -3.5386  -3.3089  -3.1857  -3.0684  -2.9448  -2.8859  -2.7726  -2.6747
    -2.6370  -2.5078  -2.1526  -2.1164  -2.0421  -1.9989  -1.9278  -1.8865
    -1.8282  -1.7909  -1.7372  -1.6657  -1.5970  -1.5677  -1.5366  -1.4949
    -1.4035  -1.3510  -1.3211  -1.2506  -1.1913  -1.1511  -0.9203  -0.8557
    -0.8260  -0.7657  -0.7212  -0.7046  -0.6693  -0.6208  -0.4527  -0.4041
    -0.2373  -0.1826   0.4434   0.5096   2.4426   2.4843   2.7577   2.7721
     2.9359   2.9985   5.2313   5.2867   5.5732   5.5976   6.1377   6.1688
     6.7114   6.9394   7.1573   7.2086   7.3768   7.5732   7.9102   8.0380
     8.1857   8.2411   8.3953   8.4494

          k =-0.5000 0.1021 0.0368 ( 80644 PWs)   bands (ev):

   -25.1324 -25.1322 -24.7857 -24.7853 -24.6155 -24.6076 -22.9867 -22.9793
   -21.1873 -21.1860 -20.7465 -20.7465 -20.3047 -20.3044 -20.1746 -20.1582
   -19.1210 -19.1115 -18.9330 -18.9323 -17.0240 -17.0164 -15.6136 -15.6054
   -14.8942 -14.8933 -13.3381 -13.3255 -12.9417 -12.9416 -11.9541 -11.9465
   -11.6437 -11.6159 -11.0152 -11.0038  -9.0651  -9.0282  -8.9649  -8.9648
    -8.6961  -8.6245  -7.9915  -7.9392  -7.7484  -7.7057  -7.6284  -7.6113
    -7.4925  -7.4637  -7.3682  -7.2267  -7.0890  -6.9971  -6.9949  -6.9435
    -6.9158  -6.8935  -6.7759  -6.7443  -6.6196  -6.5863  -6.4713  -6.4199
    -6.2575  -6.1098  -5.9977  -5.8680  -5.8418  -5.7330  -5.7057  -5.6521
    -5.5114  -5.4958  -5.4115  -5.3645  -5.0261  -4.9929  -4.3534  -4.2161
    -3.5185  -3.3674  -3.2148  -3.0628  -2.9231  -2.8615  -2.7770  -2.5869
    -2.5310  -2.5164  -2.1259  -2.0740  -1.9375  -1.9355  -1.8627  -1.7515
    -1.7339  -1.6818  -1.6319  -1.5713  -1.5583  -1.5366  -1.5053  -1.4846
    -1.4338  -1.3470  -1.3291  -1.3164  -1.1493  -1.1454  -0.9095  -0.8603
    -0.8371  -0.6858  -0.6735  -0.6595  -0.6117  -0.5994  -0.4673  -0.4037
    -0.2939  -0.2062   0.4687   0.4721   2.3844   2.4201   2.6647   2.6736
     2.9250   2.9284   4.9797   5.0522   5.4651   5.4857   6.2753   6.3013
     6.9796   7.1221   7.1673   7.3200   7.7843   7.8033   8.0659   8.0818
     8.1353   8.2612   8.4093   8.5394

          k =-0.5000 0.1021-0.1298 ( 80648 PWs)   bands (ev):

   -25.1324 -25.1322 -24.7857 -24.7853 -24.6155 -24.6076 -22.9867 -22.9793
   -21.1873 -21.1860 -20.7465 -20.7465 -20.3047 -20.3044 -20.1746 -20.1582
   -19.1210 -19.1115 -18.9331 -18.9322 -17.0240 -17.0164 -15.6136 -15.6054
   -14.8943 -14.8933 -13.3386 -13.3251 -12.9417 -12.9416 -11.9536 -11.9469
   -11.6436 -11.6159 -11.0168 -11.0022  -9.0656  -9.0276  -8.9716  -8.9584
    -8.6987  -8.6217  -7.9907  -7.9395  -7.7484  -7.7063  -7.6191  -7.6188
    -7.5123  -7.4424  -7.3705  -7.2283  -7.0892  -7.0050  -6.9899  -6.9426
    -6.9143  -6.8940  -6.7774  -6.7281  -6.6337  -6.5869  -6.4669  -6.4213
    -6.2578  -6.1110  -5.9988  -5.8533  -5.8485  -5.7439  -5.7098  -5.6544
    -5.5110  -5.4635  -5.4402  -5.3593  -5.0219  -4.9951  -4.3537  -4.2152
    -3.5172  -3.3674  -3.2175  -3.0632  -2.9197  -2.8635  -2.7786  -2.5864
    -2.5302  -2.5180  -2.1281  -2.0743  -1.9342  -1.9296  -1.8624  -1.7653
    -1.7270  -1.6811  -1.6014  -1.5908  -1.5617  -1.5562  -1.4955  -1.4908
    -1.4188  -1.3526  -1.3517  -1.2993  -1.1474  -1.1411  -0.9048  -0.8579
    -0.8386  -0.6820  -0.6752  -0.6739  -0.6153  -0.5918  -0.4669  -0.4118
    -0.2833  -0.2057   0.4673   0.4716   2.3849   2.4197   2.6668   2.6713
     2.9238   2.9298   4.9796   5.0524   5.4673   5.4843   6.2782   6.2979
     7.0004   7.0948   7.1675   7.3380   7.7557   7.8289   8.0464   8.0496
     8.1255   8.2145   8.4082   8.5146

          k =-0.5000-0.1482 0.0728 ( 80654 PWs)   bands (ev):

   -25.1324 -25.1322 -24.7859 -24.7852 -24.6155 -24.6076 -22.9862 -22.9798
   -21.1873 -21.1860 -20.7465 -20.7464 -20.3049 -20.3044 -20.1745 -20.1580
   -19.1233 -19.1109 -18.9330 -18.9323 -17.0197 -17.0156 -15.6129 -15.6057
   -14.9064 -14.8867 -13.3412 -13.3287 -12.9433 -12.9401 -11.9559 -11.9401
   -11.6416 -11.6164 -11.0230 -10.9893  -9.0702  -9.0206  -8.9729  -8.9612
    -8.6795  -8.6206  -8.0010  -7.9690  -7.7433  -7.6637  -7.6452  -7.6115
    -7.5221  -7.4748  -7.2887  -7.2757  -7.1055  -7.0284  -7.0030  -6.9948
    -6.8803  -6.7773  -6.7222  -6.7036  -6.6462  -6.6331  -6.5383  -6.4144
    -6.2772  -6.1869  -5.9441  -5.8555  -5.8408  -5.7597  -5.7407  -5.6504
    -5.5000  -5.4840  -5.4279  -5.2916  -5.0206  -4.9918  -4.2911  -4.2625
    -3.5574  -3.3062  -3.1803  -3.1367  -2.9227  -2.8808  -2.7576  -2.6770
    -2.5179  -2.4651  -2.1294  -2.0694  -1.9591  -1.9374  -1.7758  -1.7468
    -1.7401  -1.6753  -1.6212  -1.5869  -1.5807  -1.5365  -1.4888  -1.4814
    -1.4352  -1.3905  -1.3489  -1.3007  -1.1740  -1.1385  -0.9066  -0.8745
    -0.8278  -0.6957  -0.6763  -0.6336  -0.6093  -0.5988  -0.4463  -0.4223
    -0.2800  -0.2119   0.4586   0.5047   2.3819   2.4311   2.6527   2.6676
     2.8963   2.9314   4.9863   5.0576   5.4461   5.5344   6.2380   6.3005
     6.9917   7.0485   7.2922   7.3149   7.7837   7.9366   7.9915   8.0114
     8.1633   8.2454   8.3155   8.4221

          k =-0.5000-0.1482-0.0938 ( 80638 PWs)   bands (ev):

   -25.1324 -25.1322 -24.7859 -24.7852 -24.6155 -24.6076 -22.9862 -22.9798
   -21.1873 -21.1860 -20.7465 -20.7464 -20.3049 -20.3044 -20.1745 -20.1580
   -19.1233 -19.1109 -18.9330 -18.9322 -17.0197 -17.0156 -15.6130 -15.6057
   -14.9065 -14.8867 -13.3415 -13.3284 -12.9432 -12.9402 -11.9559 -11.9402
   -11.6416 -11.6163 -11.0235 -10.9888  -9.0695  -9.0213  -8.9680  -8.9655
    -8.6820  -8.6185  -8.0003  -7.9713  -7.7443  -7.6650  -7.6433  -7.6118
    -7.5286  -7.4640  -7.2832  -7.2826  -7.1017  -7.0256  -7.0023  -6.9973
    -6.8759  -6.7946  -6.7179  -6.7123  -6.6365  -6.6359  -6.5360  -6.4138
    -6.2775  -6.1846  -5.9412  -5.8607  -5.8388  -5.7650  -5.7318  -5.6562
    -5.5000  -5.4579  -5.4497  -5.2918  -5.0183  -4.9961  -4.2928  -4.2617
    -3.5567  -3.3032  -3.1770  -3.1375  -2.9318  -2.8758  -2.7601  -2.6756
    -2.5174  -2.4659  -2.1349  -2.0801  -1.9635  -1.9139  -1.7737  -1.7452
    -1.7286  -1.6796  -1.6273  -1.5897  -1.5854  -1.5352  -1.5030  -1.4753
    -1.4203  -1.3945  -1.3518  -1.3024  -1.1567  -1.1553  -0.9039  -0.8717
    -0.8341  -0.6913  -0.6559  -0.6555  -0.6082  -0.5936  -0.4605  -0.4218
    -0.2801  -0.2075   0.4585   0.5059   2.3828   2.4303   2.6532   2.6671
     2.8965   2.9312   4.9863   5.0577   5.4448   5.5359   6.2435   6.2970
     6.9559   7.0956   7.2311   7.3869   7.7785   7.9011   7.9371   7.9965
     8.2038   8.2361   8.3013   8.4639

     highest occupied, lowest unoccupied level (ev):     0.5145    2.3819

!    total energy              =   -1373.89929841 Ry
     Harris-Foulkes estimate   =   -1373.89929841 Ry
     estimated scf accuracy    <          2.6E-09 Ry

     total all-electron energy =     -5117.426291 Ry

     The total energy is the sum of the following terms:

     one-electron contribution =   -1072.18796826 Ry
     hartree contribution      =     630.85164162 Ry
     xc contribution           =    -272.52065540 Ry
     ewald contribution        =    -295.91607232 Ry
     Dispersion Correction     =      -0.26930359 Ry
     one-center paw contrib.   =    -363.85694045 Ry

     convergence has been achieved in  17 iterations

     Forces acting on atoms (cartesian axes, Ry/au):

     atom    1 type  2   force =     0.00799580    0.00333069   -0.00007346
     atom    2 type  2   force =    -0.00799580   -0.00333069    0.00007346
     atom    3 type  2   force =     0.00483313    0.00136423   -0.00011710
     atom    4 type  2   force =    -0.00483313   -0.00136423    0.00011710
     atom    5 type  1   force =    -0.00305107   -0.00871340   -0.00269566
     atom    6 type  1   force =     0.00305107    0.00871340    0.00269566
     atom    7 type  1   force =    -0.00032816   -0.00665397   -0.00164999
     atom    8 type  1   force =     0.00032816    0.00665397    0.00164999
     atom    9 type  1   force =    -0.00259641    0.00516349   -0.00314999
     atom   10 type  1   force =     0.00259641   -0.00516349    0.00314999
     atom   11 type  4   force =    -0.00485500   -0.00054874   -0.00162871
     atom   12 type  4   force =     0.00485500    0.00054874    0.00162871
     atom   13 type  2   force =     0.00127394    0.00592039    0.00635397
     atom   14 type  2   force =    -0.00127394   -0.00592039   -0.00635397
     atom   15 type  4   force =     0.00846242    0.00215900   -0.00628444
     atom   16 type  4   force =    -0.00846242   -0.00215900    0.00628444
     atom   17 type  4   force =    -0.00481751   -0.00276666    0.00299520
     atom   18 type  4   force =     0.00481751    0.00276666   -0.00299520
     atom   19 type  2   force =    -0.00169800   -0.00077740    0.00035180
     atom   20 type  2   force =     0.00169800    0.00077740   -0.00035180
     atom   21 type  4   force =     0.00564897    0.00342045    0.00020823
     atom   22 type  4   force =    -0.00564897   -0.00342045   -0.00020823
     atom   23 type  4   force =    -0.00428003   -0.00383423   -0.00234048
     atom   24 type  4   force =     0.00428003    0.00383423    0.00234048
     atom   25 type  2   force =    -0.00654377    0.00338421   -0.00035524
     atom   26 type  2   force =     0.00654377   -0.00338421    0.00035524
     atom   27 type  4   force =    -0.00272620    0.00202617    0.00068304
     atom   28 type  4   force =     0.00272620   -0.00202617   -0.00068304
     atom   29 type  4   force =     0.00194518   -0.00224566    0.00255012
     atom   30 type  4   force =    -0.00194518    0.00224566   -0.00255012
     atom   31 type  4   force =     0.01234143    0.00320450    0.00544957
     atom   32 type  4   force =    -0.01234143   -0.00320450   -0.00544957
     atom   33 type  1   force =    -0.01677882   -0.02198567   -0.00353190
     atom   34 type  1   force =     0.01677882    0.02198567    0.00353190
     atom   35 type  4   force =     0.00098980    0.01751119   -0.00715551
     atom   36 type  4   force =    -0.00098980   -0.01751119    0.00715551
     atom   37 type  1   force =    -0.01274369    0.00364367   -0.00223398
     atom   38 type  1   force =     0.01274369   -0.00364367    0.00223398
     atom   39 type  3   force =     0.01397006   -0.00681874   -0.00041011
     atom   40 type  3   force =    -0.01397006    0.00681874    0.00041011
     atom   41 type  3   force =     0.00011607   -0.00022830    0.00006021
     atom   42 type  3   force =    -0.00011607    0.00022830   -0.00006021
     atom   43 type  1   force =    -0.00480693    0.00618625    0.00122767
     atom   44 type  1   force =     0.00480693   -0.00618625   -0.00122767
     atom   45 type  3   force =    -0.00133782   -0.00391328    0.00037117
     atom   46 type  3   force =     0.00133782    0.00391328   -0.00037117
     atom   47 type  3   force =     0.00108145    0.00036070   -0.00026679
     atom   48 type  3   force =    -0.00108145   -0.00036070    0.00026679
     atom   49 type  3   force =     0.00496050   -0.00521241    0.00093611
     atom   50 type  3   force =    -0.00496050    0.00521241   -0.00093611
     atom   51 type  1   force =     0.02406748    0.00124139   -0.00508916
     atom   52 type  1   force =    -0.02406748   -0.00124139    0.00508916
     atom   53 type  3   force =    -0.00048176    0.00088839    0.00070135
     atom   54 type  3   force =     0.00048176   -0.00088839   -0.00070135
     atom   55 type  3   force =    -0.01834910    0.00408500    0.00626454
     atom   56 type  3   force =     0.01834910   -0.00408500   -0.00626454
     atom   57 type  3   force =    -0.00241725    0.00189860    0.00318132
     atom   58 type  3   force =     0.00241725   -0.00189860   -0.00318132
     atom   59 type  2   force =    -0.00091696   -0.00031040    0.00137351
     atom   60 type  2   force =     0.00091696    0.00031040   -0.00137351
     atom   61 type  3   force =    -0.00026096   -0.00070894    0.00174485
     atom   62 type  3   force =     0.00026096    0.00070894   -0.00174485
     atom   63 type  3   force =    -0.00040040   -0.00065062    0.00021221
     atom   64 type  3   force =     0.00040040    0.00065062   -0.00021221
     atom   65 type  3   force =     0.00037221    0.00130354    0.00055480
     atom   66 type  3   force =    -0.00037221   -0.00130354   -0.00055480
     atom   67 type  3   force =     0.00105795    0.00033442   -0.00040667
     atom   68 type  3   force =    -0.00105795   -0.00033442    0.00040667

     Total force =     0.085159     Total SCF correction =     0.000132


     Computing stress (Cartesian axis) and pressure

          total   stress  (Ry/bohr**3)                   (kbar)     P=   -7.49
  -0.00006166   0.00001738   0.00001836         -9.07      2.56      2.70
   0.00001738  -0.00005455   0.00000133          2.56     -8.02      0.20
   0.00001836   0.00000133  -0.00003651          2.70      0.20     -5.37


     Writing output data file scf.save
 
     init_run     :     31.40s CPU     33.06s WALL (       1 calls)
     electrons    :    974.34s CPU   1036.86s WALL (       1 calls)
     forces       :     15.60s CPU     15.74s WALL (       1 calls)
     stress       :     85.66s CPU     85.95s WALL (       1 calls)

     Called by init_run:
     wfcinit      :     22.02s CPU     23.55s WALL (       1 calls)
     potinit      :      3.28s CPU      3.34s WALL (       1 calls)

     Called by electrons:
     c_bands      :    857.83s CPU    910.49s WALL (      17 calls)
     sum_band     :    106.56s CPU    115.57s WALL (      17 calls)
     v_of_rho     :      1.53s CPU      1.72s WALL (      18 calls)
     newd         :      3.52s CPU      4.08s WALL (      18 calls)
     PAW_pot      :      4.40s CPU      4.40s WALL (      18 calls)
     mix_rho      :      0.41s CPU      0.45s WALL (      17 calls)

     Called by c_bands:
     init_us_2    :      7.62s CPU      7.63s WALL (     444 calls)
     cegterg      :    827.72s CPU    880.31s WALL (     204 calls)

     Called by sum_band:
     sum_band:bec :      0.07s CPU      0.07s WALL (     204 calls)
     addusdens    :      3.82s CPU      4.37s WALL (      17 calls)

     Called by *egterg:
     h_psi        :    500.36s CPU    541.57s WALL (    1032 calls)
     s_psi        :     72.93s CPU     72.93s WALL (    1032 calls)
     g_psi        :      3.19s CPU      3.19s WALL (     816 calls)
     cdiaghg      :     50.83s CPU     50.83s WALL (    1020 calls)

     Called by h_psi:
     h_psi:pot    :    495.74s CPU    536.86s WALL (    1032 calls)
     h_psi:calbec :     75.83s CPU     76.12s WALL (    1032 calls)
     vloc_psi     :    346.46s CPU    387.27s WALL (    1032 calls)
     add_vuspsi   :     73.45s CPU     73.46s WALL (    1032 calls)

     General routines
     calbec       :    118.41s CPU    118.85s WALL (    1296 calls)
     fft          :      3.46s CPU      3.79s WALL (     258 calls)
     fftw         :    377.51s CPU    425.05s WALL (  188538 calls)
 
     Parallel routines
     fft_scatter  :    110.18s CPU    146.64s WALL (  188796 calls)
 
     PWSCF        : 18m35.66s CPU    20m34.96s WALL

 
   This run was terminated on:   0:47: 3   4Nov2017            

=------------------------------------------------------------------------------=
   JOB DONE.
=------------------------------------------------------------------------------=
