
     Program PWSCF v.6.1 (svn rev. 13369) starts on 13Nov2017 at 12:24: 4 

     This program is part of the open-source Quantum ESPRESSO suite
     for quantum simulation of materials; please cite
         "P. Giannozzi et al., J. Phys.:Condens. Matter 21 395502 (2009);
          URL http://www.quantum-espresso.org", 
     in publications or presentations arising from this work. More details at
     http://www.quantum-espresso.org/quote

     Parallel version (MPI), running on     8 processors
     R & G space division:  proc/nbgrp/npool/nimage =       8
     Waiting for input...
     Reading input from standard input

     Current dimensions of program PWSCF are:
     Max number of different atomic species (ntypx) = 10
     Max number of k-points (npk) =  40000
     Max angular momentum in pseudopotentials (lmaxx) =  3
               file C.pbe-n-kjpaw_psl.0.1.UPF: wavefunction(s)  2P renormalized
               file N.pbe-n-kjpaw_psl.0.1.UPF: wavefunction(s)  2P renormalized
               file H.pbe-kjpaw_psl.0.1.UPF: wavefunction(s)  1S renormalized
               file O.pbe-n-kjpaw_psl.0.1.UPF: wavefunction(s)  2P renormalized

     -------------------------------------
     Parameters for Dispersion Correction:
     -------------------------------------
       atom      VdW radius       C_6     

        C          2.744         60.710
        N          2.640         42.670
        H          1.892          4.857
        O          2.536         24.284

     Subspace diagonalization in iterative solution of the eigenvalue problem:
     a serial algorithm will be used

 
     Parallelization info
     --------------------
     sticks:   dense  smooth     PW     G-vecs:    dense   smooth      PW
     Min        1091    1091    290                93640    93640   12868
     Max        1092    1092    291                93642    93642   12871
     Sum        8731    8731   2327               749129   749129  102963
 


     bravais-lattice index     =            0
     lattice parameter (alat)  =      16.7481  a.u.
     unit-cell volume          =    5545.2129 (a.u.)^3
     number of atoms/cell      =           76
     number of atomic types    =            4
     number of electrons       =       328.00
     number of Kohn-Sham states=          196
     kinetic-energy cutoff     =     100.0000  Ry
     charge density cutoff     =     400.0000  Ry
     convergence threshold     =      1.0E-08
     mixing beta               =       0.5000
     number of iterations used =            8  plain     mixing
     Exchange-correlation      =  SLA  PW   PBX  PBC ( 1  4  3  4 0 0)

     celldm(1)=  16.748076  celldm(2)=   0.000000  celldm(3)=   0.000000
     celldm(4)=   0.000000  celldm(5)=   0.000000  celldm(6)=   0.000000

     crystal axes: (cart. coord. in units of alat)
               a(1) = (   1.000000   0.000000   0.000000 )  
               a(2) = (   0.000000   0.977050   0.000000 )  
               a(3) = (  -0.111712   0.000000   1.208111 )  

     reciprocal axes: (cart. coord. in units 2 pi/alat)
               b(1) = (  1.000000  0.000000  0.092468 )  
               b(2) = (  0.000000  1.023489  0.000000 )  
               b(3) = (  0.000000  0.000000  0.827739 )  


     PseudoPot. # 1 for  C read from file:
     /scratch/ahofstet/pseudo/C.pbe-n-kjpaw_psl.0.1.UPF
     MD5 check sum: 430fe95172b1e11ef3f8ed03bac87931
     Pseudo is Projector augmented-wave + core cor, Zval =  4.0
     Generated using "atomic" code by A. Dal Corso  v.5.0.99 svn rev. 10869
     Shape of augmentation charge: BESSEL
     Using radial grid of 1073 points,  4 beta functions with: 
                l(1) =   0
                l(2) =   0
                l(3) =   1
                l(4) =   1
     Q(r) pseudized with 0 coefficients 


     PseudoPot. # 2 for  N read from file:
     /scratch/ahofstet/pseudo/N.pbe-n-kjpaw_psl.0.1.UPF
     MD5 check sum: f73187c8b701007e77325f868c9291d7
     Pseudo is Projector augmented-wave + core cor, Zval =  5.0
     Generated using "atomic" code by A. Dal Corso  v.5.0.99 svn rev. 10869
     Shape of augmentation charge: PSQ
     Using radial grid of 1085 points,  4 beta functions with: 
                l(1) =   0
                l(2) =   0
                l(3) =   1
                l(4) =   1
     Q(r) pseudized with 0 coefficients 


     PseudoPot. # 3 for  H read from file:
     /scratch/ahofstet/pseudo/H.pbe-kjpaw_psl.0.1.UPF
     MD5 check sum: 94e484f906d9e9773b2f6e52662335b2
     Pseudo is Projector augmented-wave, Zval =  1.0
     Generated using "atomic" code by A. Dal Corso  v.5.0.99 svn rev. 10869
     Shape of augmentation charge: PSQ
     Using radial grid of  929 points,  2 beta functions with: 
                l(1) =   0
                l(2) =   0
     Q(r) pseudized with 0 coefficients 


     PseudoPot. # 4 for  O read from file:
     /scratch/ahofstet/pseudo/O.pbe-n-kjpaw_psl.0.1.UPF
     MD5 check sum: 3f94a2996a3169367d6eb21d9b593f20
     Pseudo is Projector augmented-wave + core cor, Zval =  6.0
     Generated using "atomic" code by A. Dal Corso  v.5.0.99 svn rev. 10869
     Shape of augmentation charge: BESSEL
     Using radial grid of 1095 points,  4 beta functions with: 
                l(1) =   0
                l(2) =   0
                l(3) =   1
                l(4) =   1
     Q(r) pseudized with 0 coefficients 


     atomic species   valence    mass     pseudopotential
        C              4.00    12.01070      C( 1.00)
        N              5.00    14.00670      N( 1.00)
        H              1.00     1.00794      H( 1.00)
        O              6.00    15.99940      O( 1.00)

      2 Sym. Ops., with inversion, found



   Cartesian axes

     site n.     atom                  positions (alat units)
         1           N   tau(   1) = (   0.4778415   0.2790815   0.6583254  )
         2           N   tau(   2) = (   0.8546028   0.7676080   1.1538437  )
         3           N   tau(   3) = (   0.4104469   0.6979684   0.5497853  )
         4           N   tau(   4) = (   0.0336857   0.2094419   0.0542670  )
         5           N   tau(   5) = (   0.6064317   0.2229967   0.6052451  )
         6           N   tau(   6) = (   0.8377323   0.7114830  -0.0012079  )
         7           N   tau(   7) = (   0.2818568   0.7540532   0.6028657  )
         8           N   tau(   8) = (   0.0505562   0.2655668   1.2093186  )
         9           C   tau(   9) = (   0.7217615   0.3021464   0.6671527  )
        10           C   tau(  10) = (   0.6106766   0.7906028   1.1449847  )
        11           C   tau(  11) = (   0.1665269   0.6749035   0.5409580  )
        12           C   tau(  12) = (   0.2776119   0.1864471   0.0631260  )
        13           C   tau(  13) = (   0.6671422   0.4132103   0.7638445  )
        14           C   tau(  14) = (   0.6652819   0.9016783   1.0482999  )
        15           C   tau(  15) = (   0.2211463   0.5638396   0.4442662  )
        16           C   tau(  16) = (   0.2230066   0.0753716   0.1598108  )
        17           C   tau(  17) = (   0.5116539   0.3942142   0.7532723  )
        18           C   tau(  18) = (   0.8207740   0.8827459   1.0589055  )
        19           C   tau(  19) = (   0.3766346   0.5828357   0.4548384  )
        20           C   tau(  20) = (   0.0675145   0.0943040   0.1492052  )
        21           N   tau(  21) = (   0.8759550   0.2701173   0.6345292  )
        22           N   tau(  22) = (   0.4564865   0.7585806   1.1776259  )
        23           N   tau(  23) = (   0.0123335   0.7069325   0.5735815  )
        24           N   tau(  24) = (   0.4318020   0.2184693   0.0304848  )
        25           O   tau(  25) = (   0.9047262   0.1596337   0.5527750  )
        26           O   tau(  26) = (   0.5394296   0.6480945   0.0512766  )
        27           O   tau(  27) = (  -0.0164378   0.8174162   0.6553357  )
        28           O   tau(  28) = (   0.3488589   0.3289553   1.1568341  )
        29           O   tau(  29) = (  -0.0275848   0.3522869   0.6925766  )
        30           O   tau(  30) = (   0.3600253   0.8407561   1.1195991  )
        31           O   tau(  31) = (   0.9158733   0.6247629   0.5155341  )
        32           O   tau(  32) = (   0.5282631   0.1362938   0.0885116  )
        33           N   tau(  33) = (   0.7513485   0.5146054   0.8604313  )
        34           N   tau(  34) = (   0.5810698   0.0260224   0.9517211  )
        35           N   tau(  35) = (   0.1369400   0.4624444   0.3476794  )
        36           N   tau(  36) = (   0.3072187   0.9510275   0.2563896  )
        37           O   tau(  37) = (   0.8075233   0.4586104   0.9747126  )
        38           O   tau(  38) = (   0.5248893   0.9471309   0.8374604  )
        39           O   tau(  39) = (   0.0807652   0.5184394   0.2333981  )
        40           O   tau(  40) = (   0.3633991   0.0299190   0.3706503  )
        41           O   tau(  41) = (   0.7599780   0.6473164   0.8216766  )
        42           O   tau(  42) = (   0.5724666   0.1587651   0.9905178  )
        43           O   tau(  43) = (   0.1283104   0.3297335   0.3864341  )
        44           O   tau(  44) = (   0.3158219   0.8182848   0.2175929  )
        45           N   tau(  45) = (   0.3988259   0.4725620   0.8373630  )
        46           N   tau(  46) = (  -0.0664053   0.9611063   0.9748171  )
        47           N   tau(  47) = (   0.4894626   0.5044879   0.3707477  )
        48           N   tau(  48) = (   0.9546938   0.0159436   0.2332936  )
        49           O   tau(  49) = (   0.4435635   0.5669420   0.9302865  )
        50           O   tau(  50) = (   0.8888469   0.0784219   0.8818803  )
        51           O   tau(  51) = (   0.4447250   0.4101078   0.2778242  )
        52           O   tau(  52) = (  -0.0005584   0.8986279   0.3262304  )
        53           O   tau(  53) = (   0.2643864   0.4417448   0.8141830  )
        54           O   tau(  54) = (   0.0680362   0.9303131   0.9980080  )
        55           O   tau(  55) = (   0.6239021   0.5353051   0.3939277  )
        56           O   tau(  56) = (   0.8202523   0.0467367   0.2101028  )
        57           N   tau(  57) = (   0.6725336   0.8883423   0.5178799  )
        58           N   tau(  58) = (   0.7716136   0.3998123   0.0861779  )
        59           N   tau(  59) = (   0.2157549   0.0887076   0.6902308  )
        60           N   tau(  60) = (   0.1166749   0.5772376   1.1219328  )
        61           H   tau(  61) = (   0.6405680   0.0224277   0.5437694  )
        62           H   tau(  62) = (   0.8035972   0.5109414   0.0602815  )
        63           H   tau(  63) = (   0.2477205   0.9546222   0.6643413  )
        64           H   tau(  64) = (   0.0846913   0.4661085   1.1478292  )
        65           H   tau(  65) = (   0.5814541   0.8133095   0.5334809  )
        66           H   tau(  66) = (   0.8626824   0.3247654   0.0705811  )
        67           H   tau(  67) = (   0.3068344   0.1637403   0.6746298  )
        68           H   tau(  68) = (   0.0256061   0.6522845   1.1375296  )
        69           H   tau(  69) = (   0.7619241   0.8570150   0.5857714  )
        70           H   tau(  70) = (   0.6822199   0.3684997   0.0182858  )
        71           H   tau(  71) = (   0.1263644   0.1200349   0.6223394  )
        72           H   tau(  72) = (   0.2060686   0.6085502   1.1898249  )
        73           H   tau(  73) = (   0.7100779   0.8862166   0.4080112  )
        74           H   tau(  74) = (   0.7340649   0.3976983   0.1960454  )
        75           H   tau(  75) = (   0.1782106   0.0908333   0.8000995  )
        76           H   tau(  76) = (   0.1542236   0.5793516   1.0120653  )

     number of k points=     8
                       cart. coord. in units 2pi/alat
        k(    1) = (   0.0000000   0.0000000   0.0000000), wk =   0.2500000
        k(    2) = (   0.0000000   0.0000000  -0.4138694), wk =   0.2500000
        k(    3) = (   0.0000000  -0.5117446   0.0000000), wk =   0.2500000
        k(    4) = (   0.0000000  -0.5117446  -0.4138694), wk =   0.2500000
        k(    5) = (  -0.5000000   0.0000000  -0.0462340), wk =   0.2500000
        k(    6) = (  -0.5000000   0.0000000  -0.4601033), wk =   0.2500000
        k(    7) = (  -0.5000000  -0.5117446  -0.0462340), wk =   0.2500000
        k(    8) = (  -0.5000000  -0.5117446  -0.4601033), wk =   0.2500000

     Dense  grid:   749129 G-vectors     FFT dimensions: ( 108, 108, 135)

     Estimated max dynamical RAM per process >     762.25MB

     Estimated total allocated dynamical RAM >    6098.02MB

     Check: negative/imaginary core charge=   -0.000003    0.000000

     Initial potential from superposition of free atoms

     starting charge  327.99914, renormalised to  328.00000
     Starting wfc are  256 randomized atomic wfcs
     Checking if some PAW data can be deallocated... 

     total cpu time spent up to now is       38.0 secs

     per-process dynamical memory:   546.6 Mb

     Self-consistent Calculation

     iteration #  1     ecut=   100.00 Ry     beta=0.50
     Davidson diagonalization with overlap
     ethr =  1.00E-02,  avg # of iterations =  3.0

     total cpu time spent up to now is      131.2 secs

     total energy              =   -1912.74906506 Ry
     Harris-Foulkes estimate   =   -1917.38237947 Ry
     estimated scf accuracy    <       8.10994875 Ry

     iteration #  2     ecut=   100.00 Ry     beta=0.50
     Davidson diagonalization with overlap
     ethr =  2.47E-03,  avg # of iterations =  3.0

     total cpu time spent up to now is      210.3 secs

     total energy              =   -1914.38859504 Ry
     Harris-Foulkes estimate   =   -1915.76805822 Ry
     estimated scf accuracy    <       3.04236669 Ry

     iteration #  3     ecut=   100.00 Ry     beta=0.50
     Davidson diagonalization with overlap
     ethr =  9.28E-04,  avg # of iterations =  3.2

     total cpu time spent up to now is      273.1 secs

     total energy              =   -1914.95355730 Ry
     Harris-Foulkes estimate   =   -1915.03778859 Ry
     estimated scf accuracy    <       0.23976565 Ry

     iteration #  4     ecut=   100.00 Ry     beta=0.50
     Davidson diagonalization with overlap
     ethr =  7.31E-05,  avg # of iterations =  7.9

     total cpu time spent up to now is      382.3 secs

     total energy              =   -1915.02056974 Ry
     Harris-Foulkes estimate   =   -1915.07419179 Ry
     estimated scf accuracy    <       0.13949470 Ry

     iteration #  5     ecut=   100.00 Ry     beta=0.50
     Davidson diagonalization with overlap
     ethr =  4.25E-05,  avg # of iterations =  2.0

     total cpu time spent up to now is      442.0 secs

     total energy              =   -1915.04120433 Ry
     Harris-Foulkes estimate   =   -1915.05564642 Ry
     estimated scf accuracy    <       0.04413470 Ry

     iteration #  6     ecut=   100.00 Ry     beta=0.50
     Davidson diagonalization with overlap
     ethr =  1.35E-05,  avg # of iterations =  3.5

     total cpu time spent up to now is      503.6 secs

     total energy              =   -1915.04860903 Ry
     Harris-Foulkes estimate   =   -1915.04957471 Ry
     estimated scf accuracy    <       0.00288838 Ry

     iteration #  7     ecut=   100.00 Ry     beta=0.50
     Davidson diagonalization with overlap
     ethr =  8.81E-07,  avg # of iterations =  6.6

     total cpu time spent up to now is      605.2 secs

     total energy              =   -1915.04957477 Ry
     Harris-Foulkes estimate   =   -1915.05012049 Ry
     estimated scf accuracy    <       0.00162508 Ry

     iteration #  8     ecut=   100.00 Ry     beta=0.50
     Davidson diagonalization with overlap
     ethr =  4.95E-07,  avg # of iterations =  2.0

     total cpu time spent up to now is      663.0 secs

     total energy              =   -1915.04970430 Ry
     Harris-Foulkes estimate   =   -1915.04988937 Ry
     estimated scf accuracy    <       0.00052906 Ry

     iteration #  9     ecut=   100.00 Ry     beta=0.50
     Davidson diagonalization with overlap
     ethr =  1.61E-07,  avg # of iterations =  2.1

     total cpu time spent up to now is      724.9 secs

     total energy              =   -1915.04980393 Ry
     Harris-Foulkes estimate   =   -1915.04982379 Ry
     estimated scf accuracy    <       0.00005511 Ry

     iteration # 10     ecut=   100.00 Ry     beta=0.50
     Davidson diagonalization with overlap
     ethr =  1.68E-08,  avg # of iterations =  3.0

     total cpu time spent up to now is      805.8 secs

     total energy              =   -1915.04982080 Ry
     Harris-Foulkes estimate   =   -1915.04982951 Ry
     estimated scf accuracy    <       0.00002844 Ry

     iteration # 11     ecut=   100.00 Ry     beta=0.50
     Davidson diagonalization with overlap
     ethr =  8.67E-09,  avg # of iterations =  2.0

     total cpu time spent up to now is      861.6 secs

     total energy              =   -1915.04982319 Ry
     Harris-Foulkes estimate   =   -1915.04982499 Ry
     estimated scf accuracy    <       0.00000574 Ry

     iteration # 12     ecut=   100.00 Ry     beta=0.50
     Davidson diagonalization with overlap
     ethr =  1.75E-09,  avg # of iterations =  3.0

     total cpu time spent up to now is      927.1 secs

     total energy              =   -1915.04982435 Ry
     Harris-Foulkes estimate   =   -1915.04982457 Ry
     estimated scf accuracy    <       0.00000079 Ry

     iteration # 13     ecut=   100.00 Ry     beta=0.50
     Davidson diagonalization with overlap
     ethr =  2.42E-10,  avg # of iterations =  3.0

     total cpu time spent up to now is     1012.1 secs

     total energy              =   -1915.04982460 Ry
     Harris-Foulkes estimate   =   -1915.04982468 Ry
     estimated scf accuracy    <       0.00000025 Ry

     iteration # 14     ecut=   100.00 Ry     beta=0.50
     Davidson diagonalization with overlap
     ethr =  7.75E-11,  avg # of iterations =  2.5

     total cpu time spent up to now is     1069.7 secs

     total energy              =   -1915.04982461 Ry
     Harris-Foulkes estimate   =   -1915.04982464 Ry
     estimated scf accuracy    <       0.00000007 Ry

     iteration # 15     ecut=   100.00 Ry     beta=0.50
     Davidson diagonalization with overlap
     ethr =  2.08E-11,  avg # of iterations =  3.1

     total cpu time spent up to now is     1140.2 secs

     total energy              =   -1915.04982463 Ry
     Harris-Foulkes estimate   =   -1915.04982463 Ry
     estimated scf accuracy    <       0.00000002 Ry

     iteration # 16     ecut=   100.00 Ry     beta=0.50
     Davidson diagonalization with overlap
     ethr =  4.78E-12,  avg # of iterations =  2.2

     total cpu time spent up to now is     1201.4 secs

     End of self-consistent calculation

          k = 0.0000 0.0000 0.0000 ( 93699 PWs)   bands (ev):

   -24.2049 -24.1922 -24.1863 -24.1772 -23.9235 -23.9133 -23.9021 -23.8981
   -23.8718 -23.8700 -23.8690 -23.8684 -19.7579 -19.7565 -19.7378 -19.7359
   -19.6129 -19.6008 -19.5846 -19.5779 -19.4396 -19.4259 -19.4252 -19.4249
   -19.3811 -19.3705 -19.3480 -19.3473 -16.1889 -16.1860 -16.1855 -16.1815
   -14.3644 -14.3635 -14.3525 -14.3345 -14.3277 -14.3268 -14.2870 -14.2658
   -12.3708 -12.3509 -12.3498 -12.3400 -10.7142 -10.6925 -10.6873 -10.6828
   -10.3791 -10.3611 -10.3528 -10.3261  -7.7050  -7.6495  -7.6405  -7.6353
    -7.5287  -7.4676  -7.4633  -7.4095  -7.2172  -7.1619  -7.0915  -7.0341
    -6.7383  -6.5886  -6.5625  -6.5331  -6.4981  -6.4872  -6.4178  -6.3679
    -6.3530  -6.3505  -6.2621  -6.2553  -6.2362  -6.1555  -6.1411  -6.1356
    -6.0169  -5.9955  -5.9651  -5.9375  -5.8791  -5.8232  -5.8128  -5.7585
    -5.7532  -5.7064  -5.6999  -5.6921  -5.6482  -5.6166  -5.5898  -5.5489
    -5.5296  -5.5235  -5.4562  -5.4447  -5.1431  -5.1263  -5.1156  -5.0889
    -4.7981  -4.7903  -4.6750  -4.6180  -3.9173  -3.8441  -3.8199  -3.7408
    -2.0683  -1.9427  -1.8315  -1.7224  -1.2575  -1.1534  -1.1461  -1.1148
    -1.0858  -0.9050  -0.9009  -0.8847  -0.7664  -0.7177  -0.6429  -0.6388
    -0.5862  -0.5753  -0.5676  -0.5583  -0.5346  -0.5249  -0.5152  -0.4885
    -0.4730  -0.4662  -0.4062  -0.3890  -0.3590  -0.3055  -0.3055  -0.3014
    -0.1561  -0.0483  -0.0193   0.0405   0.0985   0.1150   0.1236   0.1358
     0.1441   0.1664   0.2771   0.3319   0.4028   0.4294   0.4802   0.4862
     0.4926   0.4949   0.7731   0.8049   3.2831   3.3076   3.3144   3.4326
     3.6752   3.6971   3.7239   3.7973   3.8702   3.8810   3.9413   4.0033
     6.8019   6.8782   6.9601   6.9630   7.2880   7.4109   7.5949   7.5991
     7.7585   8.0738   8.2376   8.2724   8.4598   8.5935   8.7625   8.9273
     9.3153   9.3434   9.5185   9.5863

          k = 0.0000 0.0000-0.4139 ( 93642 PWs)   bands (ev):

   -24.2003 -24.1999 -24.1804 -24.1800 -23.9159 -23.9159 -23.9044 -23.9043
   -23.8693 -23.8690 -23.8688 -23.8686 -19.7572 -19.7572 -19.7369 -19.7368
   -19.6077 -19.6075 -19.5806 -19.5804 -19.4350 -19.4348 -19.4232 -19.4231
   -19.3757 -19.3754 -19.3477 -19.3475 -16.1877 -16.1869 -16.1841 -16.1832
   -14.3654 -14.3654 -14.3411 -14.3410 -14.3295 -14.3295 -14.2752 -14.2751
   -12.3647 -12.3647 -12.3411 -12.3411 -10.7056 -10.7056 -10.6828 -10.6828
   -10.3709 -10.3707 -10.3389 -10.3387  -7.6878  -7.6877  -7.6296  -7.6295
    -7.4998  -7.4997  -7.4310  -7.4309  -7.2004  -7.2003  -7.0490  -7.0489
    -6.7034  -6.7033  -6.5425  -6.5424  -6.4157  -6.4156  -6.4015  -6.4015
    -6.3298  -6.3297  -6.3031  -6.3029  -6.2457  -6.2455  -6.1363  -6.1363
    -6.0244  -6.0244  -5.9163  -5.9161  -5.8528  -5.8528  -5.7413  -5.7413
    -5.7325  -5.7320  -5.6899  -5.6896  -5.6370  -5.6369  -5.6027  -5.6025
    -5.5187  -5.5185  -5.4549  -5.4546  -5.1343  -5.1342  -5.1073  -5.1073
    -4.7852  -4.7851  -4.6460  -4.6457  -3.8859  -3.8857  -3.7786  -3.7784
    -2.0222  -2.0221  -1.7582  -1.7578  -1.2162  -1.2161  -1.1399  -1.1398
    -1.0210  -1.0210  -0.8229  -0.8229  -0.7556  -0.7552  -0.6519  -0.6519
    -0.5820  -0.5818  -0.5449  -0.5448  -0.5271  -0.5271  -0.5202  -0.5198
    -0.4797  -0.4796  -0.3889  -0.3888  -0.3309  -0.3308  -0.3217  -0.3216
    -0.0865  -0.0863   0.0366   0.0367   0.0600   0.0600   0.1300   0.1301
     0.1585   0.1585   0.3211   0.3213   0.4217   0.4217   0.4575   0.4576
     0.5187   0.5187   0.7835   0.7835   3.2908   3.2910   3.3785   3.3786
     3.6880   3.6881   3.7446   3.7446   3.9057   3.9059   3.9542   3.9546
     6.8337   6.8337   6.9665   6.9666   7.4798   7.4799   7.6536   7.6538
     7.7207   7.7210   8.2706   8.2706   8.4665   8.4667   8.7580   8.7580
     9.2008   9.2010   9.6763   9.6766

          k = 0.0000-0.5117 0.0000 ( 93612 PWs)   bands (ev):

   -24.1956 -24.1948 -24.1851 -24.1843 -23.9178 -23.9177 -23.9019 -23.9018
   -23.8763 -23.8761 -23.8628 -23.8627 -19.7482 -19.7477 -19.7462 -19.7458
   -19.6035 -19.6034 -19.5850 -19.5848 -19.4282 -19.4282 -19.4242 -19.4241
   -19.3681 -19.3679 -19.3609 -19.3607 -16.1881 -16.1873 -16.1837 -16.1829
   -14.3508 -14.3507 -14.3434 -14.3434 -14.3256 -14.3255 -14.2925 -14.2924
   -12.3666 -12.3665 -12.3385 -12.3384 -10.7201 -10.7201 -10.6676 -10.6675
   -10.3675 -10.3674 -10.3398 -10.3397  -7.6944  -7.6943  -7.6191  -7.6190
    -7.5090  -7.5089  -7.4281  -7.4281  -7.2171  -7.2168  -7.0633  -7.0631
    -6.6842  -6.6841  -6.4980  -6.4979  -6.4372  -6.4372  -6.3626  -6.3625
    -6.3364  -6.3364  -6.2938  -6.2937  -6.2687  -6.2685  -6.1336  -6.1336
    -6.0363  -6.0361  -5.9375  -5.9374  -5.8696  -5.8696  -5.7617  -5.7616
    -5.7254  -5.7250  -5.7099  -5.7093  -5.5928  -5.5921  -5.5696  -5.5694
    -5.5428  -5.5427  -5.4761  -5.4757  -5.1496  -5.1495  -5.0912  -5.0911
    -4.7579  -4.7576  -4.6581  -4.6579  -3.8756  -3.8753  -3.7869  -3.7866
    -1.9997  -1.9993  -1.7918  -1.7915  -1.1729  -1.1727  -1.1042  -1.1040
    -0.9278  -0.9276  -0.8666  -0.8663  -0.8264  -0.8261  -0.7688  -0.7688
    -0.5931  -0.5931  -0.5661  -0.5660  -0.5387  -0.5387  -0.4899  -0.4897
    -0.4276  -0.4273  -0.3918  -0.3916  -0.3518  -0.3517  -0.2948  -0.2946
    -0.0757  -0.0755   0.0253   0.0255   0.0893   0.0893   0.1304   0.1305
     0.1400   0.1401   0.3654   0.3655   0.4031   0.4031   0.5035   0.5038
     0.5828   0.5828   0.6488   0.6488   3.3133   3.3134   3.3980   3.3980
     3.6835   3.6835   3.7692   3.7694   3.8419   3.8421   3.9696   3.9697
     6.8086   6.8086   6.9896   6.9897   7.5109   7.5111   7.6772   7.6777
     7.8445   7.8450   8.1566   8.1567   8.3478   8.3480   8.7352   8.7353
     9.4593   9.4594   9.6668   9.6669

          k = 0.0000-0.5117-0.4139 ( 93716 PWs)   bands (ev):

   -24.1954 -24.1946 -24.1854 -24.1846 -23.9134 -23.9133 -23.9074 -23.9072
   -23.8770 -23.8768 -23.8611 -23.8610 -19.7477 -19.7472 -19.7467 -19.7462
   -19.6034 -19.6032 -19.5851 -19.5850 -19.4270 -19.4268 -19.4258 -19.4255
   -19.3671 -19.3668 -19.3618 -19.3615 -16.1879 -16.1870 -16.1840 -16.1831
   -14.3511 -14.3510 -14.3431 -14.3430 -14.3255 -14.3255 -14.2926 -14.2926
   -12.3672 -12.3671 -12.3378 -12.3377 -10.7198 -10.7198 -10.6679 -10.6679
   -10.3647 -10.3645 -10.3429 -10.3427  -7.6729  -7.6728  -7.6444  -7.6441
    -7.4887  -7.4885  -7.4431  -7.4429  -7.1992  -7.1988  -7.0960  -7.0958
    -6.6318  -6.6316  -6.5176  -6.5175  -6.4737  -6.4735  -6.4376  -6.4374
    -6.3118  -6.3115  -6.2895  -6.2894  -6.1785  -6.1783  -6.1596  -6.1595
    -6.0187  -6.0185  -5.9815  -5.9814  -5.7896  -5.7893  -5.7519  -5.7518
    -5.7374  -5.7373  -5.7191  -5.7186  -5.6243  -5.6239  -5.6000  -5.5995
    -5.5530  -5.5527  -5.4459  -5.4456  -5.1233  -5.1232  -5.1115  -5.1115
    -4.7646  -4.7644  -4.6616  -4.6614  -3.8749  -3.8747  -3.7857  -3.7854
    -1.9997  -1.9993  -1.7924  -1.7920  -1.1775  -1.1774  -1.1236  -1.1233
    -0.8838  -0.8835  -0.8706  -0.8703  -0.8186  -0.8184  -0.7426  -0.7423
    -0.6350  -0.6348  -0.5931  -0.5929  -0.5275  -0.5271  -0.4559  -0.4555
    -0.4266  -0.4261  -0.4208  -0.4205  -0.3593  -0.3592  -0.2929  -0.2926
    -0.0761  -0.0760   0.0147   0.0151   0.1085   0.1085   0.1340   0.1341
     0.1423   0.1425   0.3625   0.3626   0.4066   0.4068   0.4800   0.4804
     0.6187   0.6189   0.6296   0.6299   3.3105   3.3106   3.3968   3.3969
     3.6962   3.6963   3.7406   3.7408   3.8962   3.8965   3.9343   3.9345
     6.8067   6.8067   6.9862   6.9863   7.5424   7.5427   7.6526   7.6532
     7.9141   7.9147   8.0949   8.0951   8.4939   8.4941   8.5200   8.5203
     9.3493   9.3496   9.5550   9.5551

          k =-0.5000 0.0000-0.0462 ( 93614 PWs)   bands (ev):

   -24.1994 -24.1991 -24.1806 -24.1802 -23.9215 -23.9215 -23.8992 -23.8991
   -23.8711 -23.8711 -23.8671 -23.8671 -19.7574 -19.7573 -19.7366 -19.7365
   -19.6083 -19.6082 -19.5861 -19.5860 -19.4214 -19.4212 -19.4074 -19.4073
   -19.3956 -19.3954 -19.3516 -19.3513 -16.1815 -16.1815 -16.1805 -16.1805
   -14.3652 -14.3651 -14.3473 -14.3473 -14.3362 -14.3361 -14.2875 -14.2875
   -12.3541 -12.3540 -12.3251 -12.3251 -10.7221 -10.7221 -10.6948 -10.6947
   -10.3622 -10.3620 -10.3205 -10.3204  -7.7876  -7.7874  -7.6770  -7.6768
    -7.4533  -7.4531  -7.3981  -7.3979  -7.1692  -7.1691  -6.9740  -6.9740
    -6.6237  -6.6236  -6.5506  -6.5505  -6.4776  -6.4775  -6.4162  -6.4160
    -6.3947  -6.3945  -6.3145  -6.3145  -6.2032  -6.2032  -6.1597  -6.1597
    -6.0246  -6.0246  -5.9183  -5.9182  -5.8254  -5.8252  -5.7248  -5.7245
    -5.7049  -5.7049  -5.6436  -5.6434  -5.6289  -5.6287  -5.5465  -5.5461
    -5.4901  -5.4899  -5.4631  -5.4629  -5.2942  -5.2940  -5.2592  -5.2589
    -4.7078  -4.7077  -4.5946  -4.5945  -3.8911  -3.8909  -3.7927  -3.7926
    -1.9642  -1.9639  -1.7922  -1.7919  -1.2220  -1.2220  -1.1211  -1.1208
    -1.0209  -1.0209  -0.8341  -0.8338  -0.7865  -0.7865  -0.6511  -0.6510
    -0.5821  -0.5820  -0.5535  -0.5533  -0.5409  -0.5408  -0.4824  -0.4821
    -0.4391  -0.4387  -0.3984  -0.3979  -0.3698  -0.3695  -0.3238  -0.3236
    -0.0520  -0.0520   0.0300   0.0301   0.0814   0.0815   0.1092   0.1092
     0.1755   0.1755   0.3033   0.3034   0.4006   0.4009   0.4340   0.4340
     0.5230   0.5232   0.7888   0.7888   3.3697   3.3698   3.4517   3.4518
     3.5981   3.5981   3.7636   3.7637   3.8128   3.8130   3.9740   3.9742
     6.7616   6.7616   7.0034   7.0036   7.4713   7.4715   7.7665   7.7669
     7.7739   7.7739   8.2963   8.2965   8.4572   8.4573   8.7687   8.7687
     9.2811   9.2811   9.6043   9.6044

          k =-0.5000 0.0000-0.4601 ( 93546 PWs)   bands (ev):

   -24.2029 -24.1933 -24.1852 -24.1778 -23.9271 -23.9084 -23.9033 -23.9030
   -23.8768 -23.8692 -23.8690 -23.8608 -19.7586 -19.7560 -19.7369 -19.7362
   -19.6117 -19.6028 -19.5914 -19.5828 -19.4261 -19.4170 -19.4058 -19.4048
   -19.4005 -19.3939 -19.3524 -19.3506 -16.1821 -16.1815 -16.1806 -16.1799
   -14.3640 -14.3623 -14.3607 -14.3426 -14.3346 -14.3323 -14.2908 -14.2850
   -12.3662 -12.3328 -12.3319 -12.3274 -10.7274 -10.7165 -10.6968 -10.6935
   -10.3757 -10.3438 -10.3390 -10.3057  -7.7960  -7.7642  -7.6994  -7.6822
    -7.4808  -7.4144  -7.4018  -7.4004  -7.1976  -7.0887  -7.0403  -6.8986
    -6.7133  -6.6423  -6.5666  -6.5542  -6.4938  -6.4633  -6.4315  -6.3947
    -6.3465  -6.3355  -6.2943  -6.2838  -6.2769  -6.2221  -6.1535  -6.1529
    -6.0414  -5.9939  -5.9837  -5.8619  -5.8485  -5.7720  -5.7561  -5.7538
    -5.7020  -5.6906  -5.6664  -5.6663  -5.6331  -5.5715  -5.5689  -5.5214
    -5.4945  -5.4816  -5.4793  -5.4491  -5.3218  -5.2876  -5.2708  -5.2465
    -4.7492  -4.6446  -4.6000  -4.5900  -3.9134  -3.8405  -3.8253  -3.7997
    -1.9609  -1.9596  -1.8343  -1.7584  -1.2304  -1.2069  -1.1718  -1.1054
    -1.0818  -0.8755  -0.8705  -0.8384  -0.7926  -0.7464  -0.6765  -0.6721
    -0.5917  -0.5576  -0.5563  -0.5379  -0.5251  -0.5240  -0.5118  -0.4687
    -0.4685  -0.4375  -0.4167  -0.4141  -0.3633  -0.3447  -0.3317  -0.3291
    -0.1223   0.0230   0.0232   0.0479   0.0506   0.0760   0.1181   0.1346
     0.1484   0.2206   0.2530   0.3367   0.3534   0.4091   0.4235   0.4859
     0.5033   0.5223   0.7691   0.8115   3.3610   3.3893   3.4216   3.4698
     3.5954   3.6063   3.7703   3.7825   3.7831   3.8558   3.8929   4.0117
     6.7451   6.7778   6.9490   7.0651   7.3913   7.6146   7.6308   7.8266
     7.8545   8.0553   8.2099   8.2647   8.3903   8.4456   8.4713   8.7625
     8.9224   9.1813   9.6805   9.7649

          k =-0.5000-0.5117-0.0462 ( 93632 PWs)   bands (ev):

   -24.1942 -24.1934 -24.1859 -24.1851 -23.9177 -23.9176 -23.9059 -23.9057
   -23.8733 -23.8730 -23.8628 -23.8626 -19.7483 -19.7477 -19.7461 -19.7456
   -19.6050 -19.6048 -19.5891 -19.5889 -19.4192 -19.4190 -19.4076 -19.4074
   -19.3840 -19.3836 -19.3656 -19.3654 -16.1815 -16.1812 -16.1806 -16.1803
   -14.3609 -14.3608 -14.3492 -14.3492 -14.3384 -14.3383 -14.2886 -14.2886
   -12.3556 -12.3555 -12.3232 -12.3231 -10.7311 -10.7310 -10.6857 -10.6857
   -10.3494 -10.3492 -10.3308 -10.3307  -7.7379  -7.7376  -7.7375  -7.7374
    -7.4443  -7.4441  -7.4092  -7.4090  -7.0777  -7.0773  -7.0768  -7.0766
    -6.6747  -6.6747  -6.4982  -6.4982  -6.4505  -6.4502  -6.4106  -6.4105
    -6.3428  -6.3426  -6.3317  -6.3314  -6.2181  -6.2181  -6.1874  -6.1873
    -6.0238  -6.0236  -5.9221  -5.9219  -5.8004  -5.8001  -5.7354  -5.7353
    -5.6938  -5.6936  -5.6776  -5.6771  -5.6344  -5.6341  -5.5613  -5.5610
    -5.5308  -5.5305  -5.3990  -5.3988  -5.2944  -5.2942  -5.2708  -5.2705
    -4.6909  -4.6908  -4.5906  -4.5904  -3.8929  -3.8927  -3.7995  -3.7992
    -1.9446  -1.9442  -1.8107  -1.8103  -1.1708  -1.1707  -1.1066  -1.1064
    -0.9463  -0.9461  -0.8511  -0.8508  -0.7898  -0.7894  -0.7734  -0.7732
    -0.5998  -0.5994  -0.5696  -0.5694  -0.5286  -0.5285  -0.4923  -0.4920
    -0.4265  -0.4262  -0.4236  -0.4234  -0.3799  -0.3797  -0.3154  -0.3151
    -0.0848  -0.0847   0.0544   0.0546   0.0735   0.0738   0.1294   0.1295
     0.1905   0.1906   0.3189   0.3191   0.3961   0.3962   0.5146   0.5151
     0.6165   0.6167   0.6216   0.6218   3.3601   3.3603   3.4415   3.4417
     3.6862   3.6864   3.7547   3.7548   3.8435   3.8437   3.8908   3.8910
     6.7623   6.7623   7.0095   7.0097   7.5208   7.5211   7.7084   7.7091
     8.0558   8.0561   8.2050   8.2053   8.4408   8.4409   8.4776   8.4778
     9.4378   9.4383   9.4420   9.4425

          k =-0.5000-0.5117-0.4601 ( 93668 PWs)   bands (ev):

   -24.1941 -24.1934 -24.1860 -24.1852 -23.9162 -23.9161 -23.9068 -23.9067
   -23.8767 -23.8765 -23.8599 -23.8598 -19.7479 -19.7475 -19.7463 -19.7459
   -19.6050 -19.6048 -19.5891 -19.5889 -19.4199 -19.4197 -19.4068 -19.4067
   -19.3840 -19.3836 -19.3657 -19.3655 -16.1823 -16.1822 -16.1796 -16.1795
   -14.3621 -14.3621 -14.3475 -14.3475 -14.3392 -14.3392 -14.2882 -14.2882
   -12.3557 -12.3556 -12.3231 -12.3230 -10.7316 -10.7316 -10.6853 -10.6852
   -10.3584 -10.3583 -10.3215 -10.3214  -7.7628  -7.7627  -7.7049  -7.7049
    -7.4629  -7.4627  -7.3971  -7.3970  -7.1260  -7.1258  -7.0392  -7.0391
    -6.5772  -6.5770  -6.5622  -6.5621  -6.4761  -6.4759  -6.4336  -6.4334
    -6.3638  -6.3636  -6.3219  -6.3219  -6.2316  -6.2316  -6.1263  -6.1261
    -6.0149  -6.0148  -5.9283  -5.9283  -5.8077  -5.8076  -5.7774  -5.7770
    -5.6995  -5.6990  -5.6693  -5.6689  -5.6122  -5.6120  -5.5299  -5.5294
    -5.5150  -5.5149  -5.4299  -5.4297  -5.3221  -5.3220  -5.2419  -5.2417
    -4.7015  -4.7014  -4.5890  -4.5888  -3.8949  -3.8947  -3.7961  -3.7958
    -1.9480  -1.9477  -1.8062  -1.8058  -1.1983  -1.1983  -1.1073  -1.1070
    -0.9168  -0.9165  -0.8533  -0.8530  -0.7931  -0.7930  -0.7262  -0.7261
    -0.6391  -0.6388  -0.5472  -0.5472  -0.5220  -0.5218  -0.4990  -0.4989
    -0.4683  -0.4681  -0.4190  -0.4190  -0.3825  -0.3824  -0.3023  -0.3023
    -0.0688  -0.0687   0.0532   0.0533   0.0626   0.0626   0.1145   0.1146
     0.1987   0.1987   0.3064   0.3066   0.4181   0.4181   0.5200   0.5205
     0.5831   0.5832   0.6441   0.6441   3.3505   3.3506   3.4487   3.4488
     3.6874   3.6875   3.7722   3.7722   3.8273   3.8274   3.8917   3.8919
     6.7569   6.7569   7.0108   7.0110   7.5029   7.5032   7.7368   7.7375
     8.0956   8.0959   8.2180   8.2182   8.4517   8.4517   8.5076   8.5077
     9.0794   9.0795   9.2660   9.2663

     highest occupied, lowest unoccupied level (ev):     0.8115    3.2831

!    total energy              =   -1915.04982463 Ry
     Harris-Foulkes estimate   =   -1915.04982463 Ry
     estimated scf accuracy    <          3.4E-09 Ry

     total all-electron energy =     -7171.715617 Ry

     The total energy is the sum of the following terms:

     one-electron contribution =   -1009.81163357 Ry
     hartree contribution      =     640.14895387 Ry
     xc contribution           =    -367.26437927 Ry
     ewald contribution        =    -670.65724590 Ry
     Dispersion Correction     =      -0.34332030 Ry
     one-center paw contrib.   =    -507.12219946 Ry

     convergence has been achieved in  16 iterations

     Forces acting on atoms (cartesian axes, Ry/au):

     atom    1 type  2   force =     0.00132146   -0.00011663   -0.00033307
     atom    2 type  2   force =    -0.00133377   -0.00010803    0.00033778
     atom    3 type  2   force =    -0.00132146    0.00011663    0.00033307
     atom    4 type  2   force =     0.00133377    0.00010803   -0.00033778
     atom    5 type  2   force =    -0.00142531    0.00017068    0.00008573
     atom    6 type  2   force =     0.00143228    0.00019751   -0.00007477
     atom    7 type  2   force =     0.00142531   -0.00017068   -0.00008573
     atom    8 type  2   force =    -0.00143228   -0.00019751    0.00007477
     atom    9 type  1   force =    -0.00030070    0.00119380    0.00030163
     atom   10 type  1   force =     0.00032140    0.00121580   -0.00030739
     atom   11 type  1   force =     0.00030070   -0.00119380   -0.00030163
     atom   12 type  1   force =    -0.00032140   -0.00121580    0.00030739
     atom   13 type  1   force =     0.00034295    0.00075574    0.00050057
     atom   14 type  1   force =    -0.00035667    0.00085345   -0.00048574
     atom   15 type  1   force =    -0.00034295   -0.00075574   -0.00050057
     atom   16 type  1   force =     0.00035667   -0.00085345    0.00048574
     atom   17 type  1   force =    -0.00033547    0.00003279    0.00055978
     atom   18 type  1   force =     0.00034010   -0.00005776   -0.00056525
     atom   19 type  1   force =     0.00033547   -0.00003279   -0.00055978
     atom   20 type  1   force =    -0.00034010    0.00005776    0.00056525
     atom   21 type  2   force =     0.00066588   -0.00186043   -0.00130300
     atom   22 type  2   force =    -0.00065823   -0.00197711    0.00139816
     atom   23 type  2   force =    -0.00066588    0.00186043    0.00130300
     atom   24 type  2   force =     0.00065823    0.00197711   -0.00139816
     atom   25 type  4   force =    -0.00017624   -0.00015579    0.00010399
     atom   26 type  4   force =     0.00020803   -0.00006257   -0.00016229
     atom   27 type  4   force =     0.00017624    0.00015579   -0.00010399
     atom   28 type  4   force =    -0.00020803    0.00006257    0.00016229
     atom   29 type  4   force =    -0.00049587   -0.00011180    0.00026228
     atom   30 type  4   force =     0.00045361   -0.00006031   -0.00030219
     atom   31 type  4   force =     0.00049587    0.00011180   -0.00026228
     atom   32 type  4   force =    -0.00045361    0.00006031    0.00030219
     atom   33 type  2   force =     0.00073671   -0.00053221    0.00082526
     atom   34 type  2   force =    -0.00053940    0.00040665   -0.00013962
     atom   35 type  2   force =    -0.00073671    0.00053221   -0.00082526
     atom   36 type  2   force =     0.00053940   -0.00040665    0.00013962
     atom   37 type  4   force =    -0.00030064    0.00079281   -0.00123515
     atom   38 type  4   force =     0.00005079    0.00054283    0.00074205
     atom   39 type  4   force =     0.00030064   -0.00079281    0.00123515
     atom   40 type  4   force =    -0.00005079   -0.00054283   -0.00074205
     atom   41 type  4   force =    -0.00008225    0.00039498    0.00000115
     atom   42 type  4   force =     0.00011242   -0.00028285   -0.00020246
     atom   43 type  4   force =     0.00008225   -0.00039498   -0.00000115
     atom   44 type  4   force =    -0.00011242    0.00028285    0.00020246
     atom   45 type  2   force =    -0.00034915    0.00003707    0.00093038
     atom   46 type  2   force =     0.00030769    0.00007736   -0.00096474
     atom   47 type  2   force =     0.00034915   -0.00003707   -0.00093038
     atom   48 type  2   force =    -0.00030769   -0.00007736    0.00096474
     atom   49 type  4   force =    -0.00086423   -0.00034521   -0.00070657
     atom   50 type  4   force =     0.00087923   -0.00037835    0.00071850
     atom   51 type  4   force =     0.00086423    0.00034521    0.00070657
     atom   52 type  4   force =    -0.00087923    0.00037835   -0.00071850
     atom   53 type  4   force =    -0.00112937    0.00016432   -0.00087216
     atom   54 type  4   force =     0.00116380    0.00016215    0.00087880
     atom   55 type  4   force =     0.00112937   -0.00016432    0.00087216
     atom   56 type  4   force =    -0.00116380   -0.00016215   -0.00087880
     atom   57 type  2   force =     0.00032140    0.00018353    0.00077277
     atom   58 type  2   force =    -0.00031693    0.00017962   -0.00076310
     atom   59 type  2   force =    -0.00032140   -0.00018353   -0.00077277
     atom   60 type  2   force =     0.00031693   -0.00017962    0.00076310
     atom   61 type  3   force =     0.00019484    0.00018018   -0.00100574
     atom   62 type  3   force =    -0.00018993    0.00017365    0.00101236
     atom   63 type  3   force =    -0.00019484   -0.00018018    0.00100574
     atom   64 type  3   force =     0.00018993   -0.00017365   -0.00101236
     atom   65 type  3   force =     0.00097103    0.00063795   -0.00034151
     atom   66 type  3   force =    -0.00097624    0.00064293    0.00033544
     atom   67 type  3   force =    -0.00097103   -0.00063795    0.00034151
     atom   68 type  3   force =     0.00097624   -0.00064293   -0.00033544
     atom   69 type  3   force =     0.00002614   -0.00064087    0.00006530
     atom   70 type  3   force =    -0.00002724   -0.00064747   -0.00007361
     atom   71 type  3   force =    -0.00002614    0.00064087   -0.00006530
     atom   72 type  3   force =     0.00002724    0.00064747    0.00007361
     atom   73 type  3   force =    -0.00048959    0.00087161    0.00078131
     atom   74 type  3   force =     0.00049475    0.00087513   -0.00078965
     atom   75 type  3   force =     0.00048959   -0.00087161   -0.00078131
     atom   76 type  3   force =    -0.00049475   -0.00087513    0.00078965

     Total force =     0.010183     Total SCF correction =     0.000150


     Computing stress (Cartesian axis) and pressure

          total   stress  (Ry/bohr**3)                   (kbar)     P=    1.18
   0.00000723   0.00000004   0.00000261          1.06      0.01      0.38
   0.00000004   0.00000825   0.00000006          0.01      1.21      0.01
   0.00000261   0.00000006   0.00000849          0.38      0.01      1.25


     Writing output data file scf.save
 
     init_run     :     35.80s CPU     37.36s WALL (       1 calls)
     electrons    :   1105.73s CPU   1163.57s WALL (       1 calls)
     forces       :     18.23s CPU     18.38s WALL (       1 calls)
     stress       :    113.71s CPU    114.04s WALL (       1 calls)

     Called by init_run:
     wfcinit      :     25.63s CPU     27.06s WALL (       1 calls)
     potinit      :      3.55s CPU      3.60s WALL (       1 calls)

     Called by electrons:
     c_bands      :    977.63s CPU   1027.02s WALL (      16 calls)
     sum_band     :    116.51s CPU    123.77s WALL (      16 calls)
     v_of_rho     :      1.77s CPU      1.98s WALL (      17 calls)
     newd         :      4.15s CPU      4.98s WALL (      17 calls)
     PAW_pot      :      5.25s CPU      5.25s WALL (      17 calls)
     mix_rho      :      0.44s CPU      0.49s WALL (      16 calls)

     Called by c_bands:
     init_us_2    :      6.58s CPU      6.61s WALL (     280 calls)
     cegterg      :    947.15s CPU    996.47s WALL (     128 calls)

     Called by sum_band:
     sum_band:bec :      0.07s CPU      0.08s WALL (     128 calls)
     addusdens    :      4.45s CPU      5.20s WALL (      16 calls)

     Called by *egterg:
     h_psi        :    563.28s CPU    602.77s WALL (     554 calls)
     s_psi        :     81.24s CPU     81.25s WALL (     554 calls)
     g_psi        :      3.12s CPU      3.12s WALL (     418 calls)
     cdiaghg      :     52.99s CPU     53.00s WALL (     546 calls)

     Called by h_psi:
     h_psi:pot    :    558.94s CPU    598.36s WALL (     554 calls)
     h_psi:calbec :     92.50s CPU     92.76s WALL (     554 calls)
     vloc_psi     :    384.29s CPU    423.42s WALL (     554 calls)
     add_vuspsi   :     82.15s CPU     82.17s WALL (     554 calls)

     General routines
     calbec       :    144.81s CPU    145.21s WALL (     722 calls)
     fft          :      4.53s CPU      4.89s WALL (     245 calls)
     fftw         :    419.16s CPU    464.49s WALL (  158514 calls)
 
     Parallel routines
     fft_scatter  :    123.32s CPU    163.50s WALL (  158759 calls)
 
     PWSCF        : 21m22.52s CPU    23m18.55s WALL

 
   This run was terminated on:  12:47:22  13Nov2017            

=------------------------------------------------------------------------------=
   JOB DONE.
=------------------------------------------------------------------------------=
