
     Program PWSCF v.6.1 (svn rev. 13369) starts on  4Nov2017 at  5:17:57 

     This program is part of the open-source Quantum ESPRESSO suite
     for quantum simulation of materials; please cite
         "P. Giannozzi et al., J. Phys.:Condens. Matter 21 395502 (2009);
          URL http://www.quantum-espresso.org", 
     in publications or presentations arising from this work. More details at
     http://www.quantum-espresso.org/quote

     Parallel version (MPI), running on     8 processors
     R & G space division:  proc/nbgrp/npool/nimage =       8
     Waiting for input...
     Reading input from standard input

     Current dimensions of program PWSCF are:
     Max number of different atomic species (ntypx) = 10
     Max number of k-points (npk) =  40000
     Max angular momentum in pseudopotentials (lmaxx) =  3
               file C.pbe-n-kjpaw_psl.0.1.UPF: wavefunction(s)  2P renormalized
               file N.pbe-n-kjpaw_psl.0.1.UPF: wavefunction(s)  2P renormalized
               file H.pbe-kjpaw_psl.0.1.UPF: wavefunction(s)  1S renormalized
               file O.pbe-n-kjpaw_psl.0.1.UPF: wavefunction(s)  2P renormalized

     -------------------------------------
     Parameters for Dispersion Correction:
     -------------------------------------
       atom      VdW radius       C_6     

        C          2.744         60.710
        N          2.640         42.670
        H          1.892          4.857
        O          2.536         24.284

     Subspace diagonalization in iterative solution of the eigenvalue problem:
     a serial algorithm will be used

 
     Parallelization info
     --------------------
     sticks:   dense  smooth     PW     G-vecs:    dense   smooth      PW
     Min        1960    1960    511               190664   190664   25267
     Max        1961    1961    512               190667   190667   25269
     Sum       15687   15687   4091              1525323  1525323  202145
 


     bravais-lattice index     =            0
     lattice parameter (alat)  =      32.8548  a.u.
     unit-cell volume          =   11289.8229 (a.u.)^3
     number of atoms/cell      =          192
     number of atomic types    =            4
     number of electrons       =       544.00
     number of Kohn-Sham states=          326
     kinetic-energy cutoff     =     100.0000  Ry
     charge density cutoff     =     400.0000  Ry
     convergence threshold     =      1.0E-08
     mixing beta               =       0.5000
     number of iterations used =            8  plain     mixing
     Exchange-correlation      =  SLA  PW   PBX  PBC ( 1  4  3  4 0 0)

     celldm(1)=  32.854779  celldm(2)=   0.000000  celldm(3)=   0.000000
     celldm(4)=   0.000000  celldm(5)=   0.000000  celldm(6)=   0.000000

     crystal axes: (cart. coord. in units of alat)
               a(1) = (   1.000000   0.000000   0.000000 )  
               a(2) = (   0.000000   0.456799   0.000000 )  
               a(3) = (   0.000000   0.000000   0.696894 )  

     reciprocal axes: (cart. coord. in units 2 pi/alat)
               b(1) = (  1.000000  0.000000  0.000000 )  
               b(2) = (  0.000000  2.189149  0.000000 )  
               b(3) = (  0.000000  0.000000  1.434938 )  


     PseudoPot. # 1 for  C read from file:
     /scratch/ahofstet/pseudo/C.pbe-n-kjpaw_psl.0.1.UPF
     MD5 check sum: 430fe95172b1e11ef3f8ed03bac87931
     Pseudo is Projector augmented-wave + core cor, Zval =  4.0
     Generated using "atomic" code by A. Dal Corso  v.5.0.99 svn rev. 10869
     Shape of augmentation charge: BESSEL
     Using radial grid of 1073 points,  4 beta functions with: 
                l(1) =   0
                l(2) =   0
                l(3) =   1
                l(4) =   1
     Q(r) pseudized with 0 coefficients 


     PseudoPot. # 2 for  N read from file:
     /scratch/ahofstet/pseudo/N.pbe-n-kjpaw_psl.0.1.UPF
     MD5 check sum: f73187c8b701007e77325f868c9291d7
     Pseudo is Projector augmented-wave + core cor, Zval =  5.0
     Generated using "atomic" code by A. Dal Corso  v.5.0.99 svn rev. 10869
     Shape of augmentation charge: PSQ
     Using radial grid of 1085 points,  4 beta functions with: 
                l(1) =   0
                l(2) =   0
                l(3) =   1
                l(4) =   1
     Q(r) pseudized with 0 coefficients 


     PseudoPot. # 3 for  H read from file:
     /scratch/ahofstet/pseudo/H.pbe-kjpaw_psl.0.1.UPF
     MD5 check sum: 94e484f906d9e9773b2f6e52662335b2
     Pseudo is Projector augmented-wave, Zval =  1.0
     Generated using "atomic" code by A. Dal Corso  v.5.0.99 svn rev. 10869
     Shape of augmentation charge: PSQ
     Using radial grid of  929 points,  2 beta functions with: 
                l(1) =   0
                l(2) =   0
     Q(r) pseudized with 0 coefficients 


     PseudoPot. # 4 for  O read from file:
     /scratch/ahofstet/pseudo/O.pbe-n-kjpaw_psl.0.1.UPF
     MD5 check sum: 3f94a2996a3169367d6eb21d9b593f20
     Pseudo is Projector augmented-wave + core cor, Zval =  6.0
     Generated using "atomic" code by A. Dal Corso  v.5.0.99 svn rev. 10869
     Shape of augmentation charge: BESSEL
     Using radial grid of 1095 points,  4 beta functions with: 
                l(1) =   0
                l(2) =   0
                l(3) =   1
                l(4) =   1
     Q(r) pseudized with 0 coefficients 


     atomic species   valence    mass     pseudopotential
        C              4.00    12.01070      C( 1.00)
        N              5.00    14.00670      N( 1.00)
        H              1.00     1.00794      H( 1.00)
        O              6.00    15.99940      O( 1.00)

      4 Sym. Ops., with inversion, found ( 2 have fractional translation)



   Cartesian axes

     site n.     atom                  positions (alat units)
         1           O   tau(   1) = (   0.1454919   0.1273436   0.4807527  )
         2           O   tau(   2) = (   0.3544976   0.1010938   0.1322809  )
         3           O   tau(   3) = (   0.8545081   0.1273436   0.5645884  )
         4           O   tau(   4) = (   0.6455024   0.1010938   0.2161662  )
         5           O   tau(   5) = (   0.8545081   0.3294549   0.2161413  )
         6           O   tau(   6) = (   0.6455024   0.3557048   0.5646132  )
         7           O   tau(   7) = (   0.1454919   0.3294549   0.1323057  )
         8           O   tau(   8) = (   0.3544976   0.3557048   0.4807279  )
         9           O   tau(   9) = (   0.1306112   0.0191395   0.6309158  )
        10           O   tau(  10) = (   0.3694286   0.2092526   0.2824658  )
        11           O   tau(  11) = (   0.8693888   0.0191395   0.4144253  )
        12           O   tau(  12) = (   0.6305714   0.2092526   0.0659812  )
        13           O   tau(  13) = (   0.8693888   0.4376591   0.0659782  )
        14           O   tau(  14) = (   0.6305714   0.2475459   0.4144282  )
        15           O   tau(  15) = (   0.1306112   0.4376591   0.2824688  )
        16           O   tau(  16) = (   0.3694286   0.2475459   0.6309129  )
        17           N   tau(  17) = (   0.0895649   0.3803486   0.4753961  )
        18           N   tau(  18) = (   0.4104496   0.3048763   0.1269628  )
        19           N   tau(  19) = (   0.9104351   0.3803486   0.5699449  )
        20           N   tau(  20) = (   0.5895504   0.3048763   0.2214843  )
        21           N   tau(  21) = (   0.9104351   0.0764500   0.2214979  )
        22           N   tau(  22) = (   0.5895504   0.1519222   0.5699313  )
        23           N   tau(  23) = (   0.0895649   0.0764500   0.1269491  )
        24           N   tau(  24) = (   0.4104496   0.1519222   0.4754098  )
        25           C   tau(  25) = (   0.0916251   0.3149147   0.5290085  )
        26           C   tau(  26) = (   0.4083768   0.3702814   0.1806050  )
        27           C   tau(  27) = (   0.9083749   0.3149147   0.5163326  )
        28           C   tau(  28) = (   0.5916232   0.3702814   0.1678420  )
        29           C   tau(  29) = (   0.9083749   0.1418838   0.1678856  )
        30           C   tau(  30) = (   0.5916232   0.0865172   0.5162890  )
        31           C   tau(  31) = (   0.0916251   0.1418838   0.1805614  )
        32           C   tau(  32) = (   0.4083768   0.0865172   0.5290521  )
        33           H   tau(  33) = (   0.1495127   0.3038513   0.5519903  )
        34           H   tau(  34) = (   0.3504885   0.3813239   0.2035969  )
        35           H   tau(  35) = (   0.8504873   0.3038513   0.4933508  )
        36           H   tau(  36) = (   0.6495115   0.3813239   0.1448501  )
        37           H   tau(  37) = (   0.8504873   0.1529473   0.1449037  )
        38           H   tau(  38) = (   0.6495115   0.0754746   0.4932971  )
        39           H   tau(  39) = (   0.1495127   0.1529473   0.2035433  )
        40           H   tau(  40) = (   0.3504885   0.0754746   0.5520439  )
        41           H   tau(  41) = (   0.0513408   0.3274085   0.5760305  )
        42           H   tau(  42) = (   0.4486684   0.3577814   0.2276187  )
        43           H   tau(  43) = (   0.9486592   0.3274085   0.4693106  )
        44           H   tau(  44) = (   0.5513316   0.3577814   0.1208283  )
        45           H   tau(  45) = (   0.9486592   0.1293901   0.1208635  )
        46           H   tau(  46) = (   0.5513316   0.0990172   0.4692753  )
        47           H   tau(  47) = (   0.0513408   0.1293901   0.2275835  )
        48           H   tau(  48) = (   0.4486684   0.0990172   0.5760658  )
        49           H   tau(  49) = (   0.0723952   0.2636061   0.4980688  )
        50           H   tau(  50) = (   0.4275882   0.4216116   0.1496910  )
        51           H   tau(  51) = (   0.9276048   0.2636061   0.5472723  )
        52           H   tau(  52) = (   0.5724118   0.4216116   0.1987560  )
        53           H   tau(  53) = (   0.9276048   0.1931924   0.1988253  )
        54           H   tau(  54) = (   0.5724118   0.0351870   0.5472031  )
        55           H   tau(  55) = (   0.0723952   0.1931924   0.1496217  )
        56           H   tau(  56) = (   0.4275882   0.0351870   0.4981380  )
        57           N   tau(  57) = (   0.1669637   0.3950569   0.4407651  )
        58           N   tau(  58) = (   0.3330475   0.2901756   0.0923312  )
        59           N   tau(  59) = (   0.8330363   0.3950569   0.6045760  )
        60           N   tau(  60) = (   0.6669525   0.2901756   0.2561158  )
        61           N   tau(  61) = (   0.8330363   0.0617417   0.2561289  )
        62           N   tau(  62) = (   0.6669525   0.1666230   0.6045629  )
        63           N   tau(  63) = (   0.1669637   0.0617417   0.0923181  )
        64           N   tau(  64) = (   0.3330475   0.1666230   0.4407782  )
        65           H   tau(  65) = (   0.1564207   0.4158544   0.3857000  )
        66           H   tau(  66) = (   0.3435900   0.2693908   0.0372625  )
        67           H   tau(  67) = (   0.8435793   0.4158544   0.6596411  )
        68           H   tau(  68) = (   0.6564100   0.2693908   0.3111845  )
        69           H   tau(  69) = (   0.8435793   0.0409442   0.3111941  )
        70           H   tau(  70) = (   0.6564100   0.1874078   0.6596316  )
        71           H   tau(  71) = (   0.1564207   0.0409442   0.0372530  )
        72           H   tau(  72) = (   0.3435900   0.1874078   0.3857095  )
        73           C   tau(  73) = (   0.1342884   0.4474042   0.4972265  )
        74           C   tau(  74) = (   0.3657323   0.2378138   0.1487748  )
        75           C   tau(  75) = (   0.8657116   0.4474042   0.5481146  )
        76           C   tau(  76) = (   0.6342677   0.2378138   0.1996722  )
        77           C   tau(  77) = (   0.8657116   0.0093944   0.1996675  )
        78           C   tau(  78) = (   0.6342677   0.2189848   0.5481192  )
        79           C   tau(  79) = (   0.1342884   0.0093944   0.1487795  )
        80           C   tau(  80) = (   0.3657323   0.2189848   0.4972218  )
        81           C   tau(  81) = (   0.1056212   0.0689482   0.4701441  )
        82           C   tau(  82) = (   0.3943829   0.1594806   0.1216794  )
        83           C   tau(  83) = (   0.8943788   0.0689482   0.5751969  )
        84           C   tau(  84) = (   0.6056171   0.1594806   0.2267677  )
        85           C   tau(  85) = (   0.8943788   0.3878504   0.2267499  )
        86           C   tau(  86) = (   0.6056171   0.2973179   0.5752147  )
        87           C   tau(  87) = (   0.1056212   0.3878504   0.1216971  )
        88           C   tau(  88) = (   0.3943829   0.2973179   0.4701264  )
        89           N   tau(  89) = (   0.0383735   0.0689192   0.4322393  )
        90           N   tau(  90) = (   0.4616377   0.1594673   0.0837688  )
        91           N   tau(  91) = (   0.9616265   0.0689192   0.6131018  )
        92           N   tau(  92) = (   0.5383623   0.1594673   0.2646782  )
        93           N   tau(  93) = (   0.9616265   0.3878793   0.2646548  )
        94           N   tau(  94) = (   0.5383623   0.2973313   0.6131253  )
        95           N   tau(  95) = (   0.0383735   0.3878793   0.0837923  )
        96           N   tau(  96) = (   0.4616377   0.2973313   0.4322158  )
        97           H   tau(  97) = (   0.0072939   0.0192951   0.4300689  )
        98           H   tau(  98) = (   0.4927535   0.2090795   0.0816029  )
        99           H   tau(  99) = (   0.9927061   0.0192951   0.6152722  )
       100           H   tau( 100) = (   0.5072465   0.2090795   0.2668441  )
       101           H   tau( 101) = (   0.9927061   0.4375035   0.2668251  )
       102           H   tau( 102) = (   0.5072465   0.2477191   0.6152911  )
       103           H   tau( 103) = (   0.0072939   0.4375035   0.0816219  )
       104           H   tau( 104) = (   0.4927535   0.2477191   0.4300500  )
       105           C   tau( 105) = (   0.0056040   0.1379763   0.3989058  )
       106           C   tau( 106) = (   0.4943810   0.0903879   0.0504789  )
       107           C   tau( 107) = (   0.9943960   0.1379763   0.6464353  )
       108           C   tau( 108) = (   0.5056190   0.0903879   0.2979681  )
       109           C   tau( 109) = (   0.9943960   0.3188223   0.2979882  )
       110           C   tau( 110) = (   0.5056190   0.3664107   0.6464152  )
       111           C   tau( 111) = (   0.0056040   0.3188223   0.0504588  )
       112           C   tau( 112) = (   0.4943810   0.3664107   0.3989259  )
       113           H   tau( 113) = (   0.0523979   0.1760313   0.3803766  )
       114           H   tau( 114) = (   0.4475746   0.0523379   0.0319669  )
       115           H   tau( 115) = (   0.9476021   0.1760313   0.6649645  )
       116           H   tau( 116) = (   0.5524254   0.0523379   0.3164802  )
       117           H   tau( 117) = (   0.9476021   0.2807673   0.3165175  )
       118           H   tau( 118) = (   0.5524254   0.4044607   0.6649272  )
       119           H   tau( 119) = (   0.0523979   0.2807673   0.0319296  )
       120           H   tau( 120) = (   0.4475746   0.4044607   0.3804139  )
       121           H   tau( 121) = (   0.9700406   0.1218200   0.3493764  )
       122           H   tau( 122) = (   0.5299521   0.1065023   0.0009405  )
       123           H   tau( 123) = (   0.0299594   0.1218200   0.6959647  )
       124           H   tau( 124) = (   0.4700479   0.1065023   0.3475066  )
       125           H   tau( 125) = (   0.0299594   0.3349786   0.3475176  )
       126           H   tau( 126) = (   0.4700479   0.3502962   0.6959536  )
       127           H   tau( 127) = (   0.9700406   0.3349786   0.0009294  )
       128           H   tau( 128) = (   0.5299521   0.3502962   0.3493875  )
       129           H   tau( 129) = (   0.9695818   0.1689691   0.4408920  )
       130           H   tau( 130) = (   0.5303923   0.0594050   0.0924826  )
       131           H   tau( 131) = (   0.0304182   0.1689691   0.6044491  )
       132           H   tau( 132) = (   0.4696077   0.0594050   0.2559644  )
       133           H   tau( 133) = (   0.0304182   0.2878294   0.2560021  )
       134           H   tau( 134) = (   0.4696077   0.3973936   0.6044114  )
       135           H   tau( 135) = (   0.9695818   0.2878294   0.0924450  )
       136           H   tau( 136) = (   0.5303923   0.3973936   0.4409296  )
       137           C   tau( 137) = (   0.1700783   0.4498891   0.5767832  )
       138           C   tau( 138) = (   0.3299378   0.2352849   0.2283262  )
       139           C   tau( 139) = (   0.8299217   0.4498891   0.4685579  )
       140           C   tau( 140) = (   0.6700622   0.2352849   0.1201209  )
       141           C   tau( 141) = (   0.8299217   0.0069095   0.1201108  )
       142           C   tau( 142) = (   0.6700622   0.2215137   0.4685679  )
       143           C   tau( 143) = (   0.1700783   0.0069095   0.2283362  )
       144           C   tau( 144) = (   0.3299378   0.2215137   0.5767732  )
       145           N   tau( 145) = (   0.2411158   0.4216767   0.5839427  )
       146           N   tau( 146) = (   0.2588811   0.2634422   0.2355009  )
       147           N   tau( 147) = (   0.7588842   0.4216767   0.4613984  )
       148           N   tau( 148) = (   0.7411189   0.2634422   0.1129462  )
       149           N   tau( 149) = (   0.7588842   0.0351218   0.1129513  )
       150           N   tau( 150) = (   0.7411189   0.1933563   0.4613932  )
       151           N   tau( 151) = (   0.2411158   0.0351218   0.2354957  )
       152           N   tau( 152) = (   0.2588811   0.1933563   0.5839479  )
       153           H   tau( 153) = (   0.2683017   0.3979737   0.5369750  )
       154           H   tau( 154) = (   0.2316865   0.2871556   0.1885433  )
       155           H   tau( 155) = (   0.7316983   0.3979737   0.5083660  )
       156           H   tau( 156) = (   0.7683135   0.2871556   0.1599038  )
       157           H   tau( 157) = (   0.7316983   0.0588248   0.1599190  )
       158           H   tau( 158) = (   0.7683135   0.1696430   0.5083508  )
       159           H   tau( 159) = (   0.2683017   0.0588248   0.1885280  )
       160           H   tau( 160) = (   0.2316865   0.1696430   0.5369903  )
       161           C   tau( 161) = (   0.2803982   0.4191834   0.6578414  )
       162           C   tau( 162) = (   0.2195906   0.2658667   0.3093958  )
       163           C   tau( 163) = (   0.7196018   0.4191834   0.3874997  )
       164           C   tau( 164) = (   0.7804094   0.2658667   0.0390512  )
       165           C   tau( 165) = (   0.7196018   0.0376152   0.0390526  )
       166           C   tau( 166) = (   0.7804094   0.1909318   0.3874982  )
       167           C   tau( 167) = (   0.2803982   0.0376152   0.3093944  )
       168           C   tau( 168) = (   0.2195906   0.1909318   0.6578429  )
       169           H   tau( 169) = (   0.3348278   0.3886675   0.6495688  )
       170           H   tau( 170) = (   0.1651497   0.2963692   0.3011384  )
       171           H   tau( 171) = (   0.6651722   0.3886675   0.3957723  )
       172           H   tau( 172) = (   0.8348503   0.2963692   0.0473086  )
       173           H   tau( 173) = (   0.6651722   0.0681311   0.0473253  )
       174           H   tau( 174) = (   0.8348503   0.1604294   0.3957556  )
       175           H   tau( 175) = (   0.3348278   0.0681311   0.3011218  )
       176           H   tau( 176) = (   0.1651497   0.1604294   0.6495854  )
       177           H   tau( 177) = (   0.2462459   0.3880710   0.7010437  )
       178           H   tau( 178) = (   0.2537247   0.2969722   0.3526183  )
       179           H   tau( 179) = (   0.7537541   0.3880710   0.3442974  )
       180           H   tau( 180) = (   0.7462753   0.2969722  -0.0041713  )
       181           H   tau( 181) = (   0.7537541   0.0687276  -0.0041496  )
       182           H   tau( 182) = (   0.7462753   0.1598264   0.3442757  )
       183           H   tau( 183) = (   0.2462459   0.0687276   0.3525967  )
       184           H   tau( 184) = (   0.2537247   0.1598264   0.7010654  )
       185           H   tau( 185) = (   0.2914623   0.0206816   0.6798965  )
       186           H   tau( 186) = (   0.2085465   0.2075527   0.3314146  )
       187           H   tau( 187) = (   0.7085377   0.0206816   0.3654445  )
       188           H   tau( 188) = (   0.7914535   0.2075527   0.0170324  )
       189           H   tau( 189) = (   0.7085377   0.4361170   0.0169975  )
       190           H   tau( 190) = (   0.7914535   0.2492459   0.3654794  )
       191           H   tau( 191) = (   0.2914623   0.4361170   0.3314495  )
       192           H   tau( 192) = (   0.2085465   0.2492459   0.6798617  )

     number of k points=     4
                       cart. coord. in units 2pi/alat
        k(    1) = (   0.0000000   0.0000000   0.0000000), wk =   0.3333333
        k(    2) = (   0.0000000   0.0000000  -0.7174692), wk =   0.3333333
        k(    3) = (   0.0000000   0.7297162   0.0000000), wk =   0.6666667
        k(    4) = (   0.0000000   0.7297162  -0.7174692), wk =   0.6666667

     Dense  grid:  1525323 G-vectors     FFT dimensions: ( 216,  96, 150)

     Estimated max dynamical RAM per process >    2058.98MB

     Estimated total allocated dynamical RAM >   16471.83MB

     Check: negative/imaginary core charge=   -0.000002    0.000000

     Initial potential from superposition of free atoms

     starting charge  543.99683, renormalised to  544.00000
     Starting wfc are  480 randomized atomic wfcs
     Checking if some PAW data can be deallocated... 

     total cpu time spent up to now is      101.3 secs

     per-process dynamical memory:  1120.5 Mb

     Self-consistent Calculation

     iteration #  1     ecut=   100.00 Ry     beta=0.50
     Davidson diagonalization with overlap
     ethr =  1.00E-02,  avg # of iterations =  4.0

     total cpu time spent up to now is      439.8 secs

     total energy              =   -2565.22104740 Ry
     Harris-Foulkes estimate   =   -2574.72593444 Ry
     estimated scf accuracy    <      18.48321228 Ry

     iteration #  2     ecut=   100.00 Ry     beta=0.50
     Davidson diagonalization with overlap
     ethr =  3.40E-03,  avg # of iterations =  2.2

     total cpu time spent up to now is      612.5 secs

     total energy              =   -2567.12447568 Ry
     Harris-Foulkes estimate   =   -2568.12715781 Ry
     estimated scf accuracy    <       2.21978489 Ry

     iteration #  3     ecut=   100.00 Ry     beta=0.50
     Davidson diagonalization with overlap
     ethr =  4.08E-04,  avg # of iterations =  6.8

     total cpu time spent up to now is      991.8 secs

     total energy              =   -2568.45879810 Ry
     Harris-Foulkes estimate   =   -2569.01962831 Ry
     estimated scf accuracy    <       1.46704338 Ry

     iteration #  4     ecut=   100.00 Ry     beta=0.50
     Davidson diagonalization with overlap
     ethr =  2.70E-04,  avg # of iterations =  1.0

     total cpu time spent up to now is     1144.9 secs

     total energy              =   -2568.35996499 Ry
     Harris-Foulkes estimate   =   -2568.56663611 Ry
     estimated scf accuracy    <       0.39470150 Ry

     iteration #  5     ecut=   100.00 Ry     beta=0.50
     Davidson diagonalization with overlap
     ethr =  7.26E-05,  avg # of iterations =  7.2

     total cpu time spent up to now is     1480.6 secs

     total energy              =   -2568.60619520 Ry
     Harris-Foulkes estimate   =   -2568.69618161 Ry
     estimated scf accuracy    <       0.30667774 Ry

     iteration #  6     ecut=   100.00 Ry     beta=0.50
     Davidson diagonalization with overlap
     ethr =  5.64E-05,  avg # of iterations =  1.0

     total cpu time spent up to now is     1633.5 secs

     total energy              =   -2568.54120827 Ry
     Harris-Foulkes estimate   =   -2568.61564342 Ry
     estimated scf accuracy    <       0.14321632 Ry

     iteration #  7     ecut=   100.00 Ry     beta=0.50
     Davidson diagonalization with overlap
     ethr =  2.63E-05,  avg # of iterations =  7.2

     total cpu time spent up to now is     1901.0 secs

     total energy              =   -2568.60230492 Ry
     Harris-Foulkes estimate   =   -2568.60452735 Ry
     estimated scf accuracy    <       0.01670963 Ry

     iteration #  8     ecut=   100.00 Ry     beta=0.50
     Davidson diagonalization with overlap
     ethr =  3.07E-06,  avg # of iterations =  2.0

     total cpu time spent up to now is     2063.2 secs

     total energy              =   -2568.59520190 Ry
     Harris-Foulkes estimate   =   -2568.60321980 Ry
     estimated scf accuracy    <       0.01221755 Ry

     iteration #  9     ecut=   100.00 Ry     beta=0.50
     Davidson diagonalization with overlap
     ethr =  2.25E-06,  avg # of iterations = 10.0

     total cpu time spent up to now is     2353.7 secs

     total energy              =   -2568.59967394 Ry
     Harris-Foulkes estimate   =   -2568.60076235 Ry
     estimated scf accuracy    <       0.00301584 Ry

     iteration # 10     ecut=   100.00 Ry     beta=0.50
     Davidson diagonalization with overlap
     ethr =  5.54E-07,  avg # of iterations =  1.0

     total cpu time spent up to now is     2506.7 secs

     total energy              =   -2568.59913179 Ry
     Harris-Foulkes estimate   =   -2568.59979785 Ry
     estimated scf accuracy    <       0.00110073 Ry

     iteration # 11     ecut=   100.00 Ry     beta=0.50
     Davidson diagonalization with overlap
     ethr =  2.02E-07,  avg # of iterations =  4.0

     total cpu time spent up to now is     2801.4 secs

     total energy              =   -2568.59982851 Ry
     Harris-Foulkes estimate   =   -2568.60001021 Ry
     estimated scf accuracy    <       0.00054778 Ry

     iteration # 12     ecut=   100.00 Ry     beta=0.50
     Davidson diagonalization with overlap
     ethr =  1.01E-07,  avg # of iterations =  1.0

     total cpu time spent up to now is     2954.0 secs

     total energy              =   -2568.59972968 Ry
     Harris-Foulkes estimate   =   -2568.59984413 Ry
     estimated scf accuracy    <       0.00022407 Ry

     iteration # 13     ecut=   100.00 Ry     beta=0.50
     Davidson diagonalization with overlap
     ethr =  4.12E-08,  avg # of iterations =  4.0

     total cpu time spent up to now is     3210.8 secs

     total energy              =   -2568.59983605 Ry
     Harris-Foulkes estimate   =   -2568.59984709 Ry
     estimated scf accuracy    <       0.00002951 Ry

     iteration # 14     ecut=   100.00 Ry     beta=0.50
     Davidson diagonalization with overlap
     ethr =  5.42E-09,  avg # of iterations =  1.0

     total cpu time spent up to now is     3363.7 secs

     total energy              =   -2568.59983240 Ry
     Harris-Foulkes estimate   =   -2568.59983740 Ry
     estimated scf accuracy    <       0.00001007 Ry

     iteration # 15     ecut=   100.00 Ry     beta=0.50
     Davidson diagonalization with overlap
     ethr =  1.85E-09,  avg # of iterations =  4.0

     total cpu time spent up to now is     3633.6 secs

     total energy              =   -2568.59983803 Ry
     Harris-Foulkes estimate   =   -2568.59983874 Ry
     estimated scf accuracy    <       0.00000157 Ry

     iteration # 16     ecut=   100.00 Ry     beta=0.50
     Davidson diagonalization with overlap
     ethr =  2.89E-10,  avg # of iterations =  2.0

     total cpu time spent up to now is     3794.9 secs

     total energy              =   -2568.59983791 Ry
     Harris-Foulkes estimate   =   -2568.59983813 Ry
     estimated scf accuracy    <       0.00000035 Ry

     iteration # 17     ecut=   100.00 Ry     beta=0.50
     Davidson diagonalization with overlap
     ethr =  6.38E-11,  avg # of iterations =  4.0

     total cpu time spent up to now is     4126.6 secs

     total energy              =   -2568.59983831 Ry
     Harris-Foulkes estimate   =   -2568.59983843 Ry
     estimated scf accuracy    <       0.00000055 Ry

     iteration # 18     ecut=   100.00 Ry     beta=0.50
     Davidson diagonalization with overlap
     ethr =  6.38E-11,  avg # of iterations =  1.0

     total cpu time spent up to now is     4279.5 secs

     total energy              =   -2568.59983816 Ry
     Harris-Foulkes estimate   =   -2568.59983831 Ry
     estimated scf accuracy    <       0.00000032 Ry

     iteration # 19     ecut=   100.00 Ry     beta=0.50
     Davidson diagonalization with overlap
     ethr =  5.84E-11,  avg # of iterations =  4.2

     total cpu time spent up to now is     4506.6 secs

     End of self-consistent calculation

          k = 0.0000 0.0000 0.0000 (190655 PWs)   bands (ev):

   -20.3048 -20.2829 -20.2813 -20.2592 -20.2476 -20.2283 -20.2259 -20.2065
   -19.6113 -19.5992 -19.5963 -19.5855 -19.5837 -19.5771 -19.5621 -19.5521
   -19.4806 -19.4799 -19.4635 -19.4621 -19.4317 -19.4211 -19.4195 -19.4093
   -16.8921 -16.8659 -16.8149 -16.8061 -16.7999 -16.7988 -16.7912 -16.7867
   -16.7509 -16.7474 -16.7226 -16.7127 -16.7101 -16.7036 -16.6847 -16.6833
   -13.3890 -13.3833 -13.3815 -13.3785 -13.1972 -13.1869 -13.1826 -13.1797
   -12.1774 -12.0963 -12.0597 -12.0081 -11.9872 -11.9488 -11.9420 -11.9344
   -11.5808 -11.5294 -11.5270 -11.4969 -11.4956 -11.4844 -11.4700 -11.4700
   -10.3692 -10.3568 -10.3093 -10.3050 -10.2581 -10.2388 -10.2208 -10.2043
    -9.4595  -9.4072  -9.3941  -9.3761  -9.3085  -9.2947  -9.2522  -9.2357
    -8.5137  -8.4263  -8.3860  -8.3358  -8.2952  -8.2821  -8.2415  -8.1667
    -8.1037  -8.0804  -8.0589  -8.0343  -7.9635  -7.9129  -7.7667  -7.7070
    -7.5770  -7.5232  -7.4773  -7.4077  -7.3859  -7.3770  -7.3295  -7.2866
    -6.7115  -6.6907  -6.5392  -6.4967  -6.4277  -6.3849  -6.3695  -6.2985
    -5.6005  -5.5933  -5.5687  -5.5270  -5.4935  -5.4262  -5.3909  -5.3874
    -5.3713  -5.3598  -5.3314  -5.3280  -5.3145  -5.2360  -5.1640  -5.1202
    -5.0731  -5.0697  -5.0528  -5.0422  -5.0172  -4.9959  -4.9938  -4.9344
    -4.9188  -4.8939  -4.8432  -4.8253  -4.7994  -4.7972  -4.7753  -4.7425
    -4.7198  -4.6706  -4.6635  -4.6376  -4.5564  -4.5425  -4.5086  -4.4556
    -4.4474  -4.4379  -4.4362  -4.4040  -4.2258  -4.2242  -4.2230  -4.2187
    -4.2118  -4.1628  -4.1613  -4.1604  -4.1567  -4.0703  -4.0625  -4.0582
    -3.9592  -3.9458  -3.8686  -3.7703  -3.7235  -3.7181  -3.6881  -3.6248
    -3.6094  -3.4987  -3.4973  -3.4724  -3.4665  -3.3409  -3.3390  -3.3282
    -3.2511  -3.2393  -3.2339  -3.2179  -3.1895  -3.1874  -3.1150  -3.1140
    -3.0960  -3.0877  -3.0357  -3.0213  -3.0144  -2.9644  -2.9538  -2.9275
    -2.9264  -2.9196  -2.9119  -2.9079  -2.9042  -2.8961  -2.8507  -2.8378
    -2.5883  -2.5686  -2.5652  -2.5557  -2.5286  -2.5058  -2.4638  -2.4629
    -2.1975  -2.1796  -2.1374  -2.1354  -2.1207  -2.1197  -2.1041  -2.0923
    -0.8326  -0.8199  -0.7774  -0.7640  -0.7518  -0.7513  -0.7320  -0.6406
    -0.3729  -0.2821  -0.2582  -0.2389  -0.2299  -0.2064  -0.1965  -0.1952
    -0.1927  -0.1534  -0.1044  -0.0884  -0.0841  -0.0795  -0.0630  -0.0062
     0.0658   0.0786   0.0920   0.1172   0.1506   0.1617   0.1777   0.2635
     0.2724   0.3089   0.3163   0.3228   0.3283   0.3387   0.3545   0.3586
     0.3858   0.4268   0.5013   0.5090   0.5221   0.5551   0.6220   0.6390
     5.0454   5.0730   5.0884   5.1272   5.1742   5.2215   5.2357   5.2366
     5.2781   5.2892   5.3047   5.3297   5.4449   5.4919   5.5097   5.5160
     6.0459   6.5311   6.5589   6.6286   6.6641   6.8059   6.8608   6.8849
     6.9263   7.0232   7.1165   7.1637   7.1858   7.2338   7.2572   7.3292
     7.3442   7.4488   7.4629   7.4716   7.5354   7.5598   7.5723   7.7049
     7.7969   7.9314   7.9628   7.9650   7.9661   8.0968   8.0980   8.2000
     8.2271   8.3476   8.3656   8.3838   8.4275   8.4489

          k = 0.0000 0.0000-0.7175 (190596 PWs)   bands (ev):

   -20.2777 -20.2777 -20.2569 -20.2569 -20.2550 -20.2550 -20.2340 -20.2340
   -19.5961 -19.5961 -19.5841 -19.5841 -19.5773 -19.5773 -19.5635 -19.5635
   -19.4591 -19.4591 -19.4518 -19.4518 -19.4436 -19.4436 -19.4368 -19.4368
   -16.8800 -16.8800 -16.8090 -16.8090 -16.8023 -16.8023 -16.7865 -16.7865
   -16.7494 -16.7494 -16.7132 -16.7132 -16.7114 -16.7114 -16.6837 -16.6837
   -13.3861 -13.3861 -13.3812 -13.3812 -13.1888 -13.1888 -13.1846 -13.1846
   -12.0739 -12.0739 -12.0220 -12.0220 -12.0040 -12.0040 -11.9758 -11.9758
   -11.5596 -11.5596 -11.5112 -11.5112 -11.4946 -11.4946 -11.4690 -11.4690
   -10.3231 -10.3231 -10.2932 -10.2932 -10.2670 -10.2670 -10.2550 -10.2550
    -9.4286  -9.4286  -9.3828  -9.3828  -9.2799  -9.2799  -9.2577  -9.2577
    -8.4818  -8.4818  -8.3522  -8.3522  -8.2888  -8.2888  -8.2090  -8.2090
    -8.0799  -8.0799  -8.0518  -8.0518  -7.9425  -7.9425  -7.7334  -7.7334
    -7.5517  -7.5517  -7.4666  -7.4666  -7.3789  -7.3789  -7.2973  -7.2973
    -6.5229  -6.5229  -6.5146  -6.5146  -6.4592  -6.4592  -6.4024  -6.4024
    -5.5144  -5.5144  -5.5115  -5.5115  -5.4549  -5.4549  -5.4320  -5.4320
    -5.3848  -5.3848  -5.3825  -5.3825  -5.2707  -5.2707  -5.2421  -5.2421
    -5.2046  -5.2046  -5.1055  -5.1055  -5.0030  -5.0030  -4.9813  -4.9813
    -4.9326  -4.9326  -4.8250  -4.8250  -4.7762  -4.7762  -4.6632  -4.6632
    -4.6464  -4.6464  -4.6439  -4.6439  -4.5277  -4.5277  -4.4682  -4.4682
    -4.4639  -4.4639  -4.3823  -4.3823  -4.2382  -4.2382  -4.2162  -4.2162
    -4.1917  -4.1917  -4.1576  -4.1576  -4.0734  -4.0734  -4.0543  -4.0543
    -3.8506  -3.8506  -3.8394  -3.8394  -3.7767  -3.7767  -3.6758  -3.6758
    -3.5841  -3.5841  -3.4601  -3.4601  -3.3910  -3.3910  -3.3268  -3.3268
    -3.2927  -3.2927  -3.1941  -3.1941  -3.1826  -3.1826  -3.1225  -3.1225
    -3.1097  -3.1097  -3.0125  -3.0125  -2.9908  -2.9908  -2.9460  -2.9460
    -2.9310  -2.9310  -2.9049  -2.9049  -2.8748  -2.8748  -2.8635  -2.8635
    -2.5733  -2.5733  -2.5463  -2.5463  -2.5376  -2.5376  -2.4570  -2.4570
    -2.1591  -2.1591  -2.1574  -2.1574  -2.1135  -2.1135  -2.1009  -2.1009
    -0.8290  -0.8290  -0.7657  -0.7657  -0.7656  -0.7656  -0.7092  -0.7092
    -0.3287  -0.3287  -0.2899  -0.2899  -0.1972  -0.1972  -0.1447  -0.1447
    -0.1367  -0.1367  -0.0900  -0.0900  -0.0710  -0.0710  -0.0539  -0.0539
     0.0598   0.0598   0.1254   0.1254   0.2048   0.2048   0.2526   0.2526
     0.2815   0.2815   0.2925   0.2925   0.3233   0.3233   0.3340   0.3340
     0.4516   0.4516   0.4772   0.4772   0.5041   0.5041   0.5705   0.5705
     5.0686   5.0686   5.0823   5.0823   5.1958   5.1958   5.2702   5.2702
     5.2884   5.2884   5.3023   5.3023   5.4654   5.4654   5.5048   5.5048
     6.2517   6.2517   6.6135   6.6135   6.6458   6.6458   6.8725   6.8725
     6.9571   6.9571   7.1234   7.1234   7.2251   7.2251   7.3003   7.3003
     7.5476   7.5476   7.5986   7.5986   7.6186   7.6186   7.7129   7.7129
     7.7196   7.7196   7.8296   7.8296   8.0735   8.0735   8.1602   8.1602
     8.2697   8.2697   8.3916   8.3916   8.4046   8.4047

          k = 0.0000 0.7297 0.0000 (190662 PWs)   bands (ev):

   -20.2977 -20.2859 -20.2760 -20.2641 -20.2409 -20.2300 -20.2217 -20.2107
   -19.6080 -19.6015 -19.5930 -19.5862 -19.5800 -19.5712 -19.5680 -19.5585
   -19.4837 -19.4830 -19.4659 -19.4650 -19.4306 -19.4251 -19.4186 -19.4133
   -16.8767 -16.8537 -16.8405 -16.8214 -16.8043 -16.8004 -16.7938 -16.7877
   -16.7263 -16.7224 -16.7216 -16.7187 -16.7069 -16.7048 -16.6968 -16.6933
   -13.3775 -13.3741 -13.3699 -13.3688 -13.1885 -13.1839 -13.1754 -13.1744
   -12.1342 -12.0836 -12.0764 -12.0392 -11.9657 -11.9624 -11.9564 -11.9221
   -11.5718 -11.5255 -11.5231 -11.5161 -11.5144 -11.4814 -11.4691 -11.4671
   -10.4226 -10.3855 -10.3474 -10.2964 -10.2639 -10.2318 -10.2245 -10.2014
    -9.4392  -9.4234  -9.3842  -9.3592  -9.3445  -9.3292  -9.2843  -9.2801
    -8.4393  -8.4098  -8.3507  -8.3456  -8.3238  -8.3067  -8.2910  -8.2604
    -8.0535  -8.0406  -7.9991  -7.9561  -7.9556  -7.9391  -7.8270  -7.7735
    -7.5096  -7.4913  -7.4787  -7.4249  -7.3647  -7.3627  -7.3522  -7.3132
    -6.6893  -6.6594  -6.6018  -6.5770  -6.3946  -6.3547  -6.3173  -6.2892
    -5.5946  -5.5709  -5.5581  -5.5282  -5.5044  -5.4768  -5.4600  -5.4155
    -5.3954  -5.3855  -5.2977  -5.2957  -5.2933  -5.2585  -5.1628  -5.1498
    -5.1441  -5.1435  -5.0685  -5.0432  -5.0350  -5.0202  -4.9275  -4.9197
    -4.8896  -4.8293  -4.8100  -4.8021  -4.7891  -4.7583  -4.7575  -4.7416
    -4.6876  -4.6578  -4.6530  -4.6184  -4.5935  -4.5622  -4.4600  -4.4515
    -4.4491  -4.3774  -4.3674  -4.3570  -4.2875  -4.2389  -4.2352  -4.2346
    -4.2157  -4.0883  -4.0539  -4.0529  -4.0494  -4.0361  -4.0091  -3.9708
    -3.9040  -3.9016  -3.8215  -3.7671  -3.7352  -3.7071  -3.6741  -3.6654
    -3.6268  -3.6180  -3.5087  -3.4886  -3.4279  -3.3848  -3.3611  -3.3492
    -3.2942  -3.2659  -3.2183  -3.2051  -3.1946  -3.1772  -3.1616  -3.1450
    -3.1379  -3.1104  -3.0905  -3.0873  -3.0562  -3.0530  -3.0024  -2.9350
    -2.9280  -2.9158  -2.8848  -2.8761  -2.8605  -2.8598  -2.8339  -2.8273
    -2.5724  -2.5439  -2.5401  -2.5325  -2.5215  -2.4949  -2.4713  -2.4500
    -2.1848  -2.1842  -2.1282  -2.1138  -2.1136  -2.1016  -2.0986  -2.0879
    -0.9006  -0.8774  -0.8537  -0.8251  -0.8132  -0.7941  -0.7848  -0.7222
    -0.3444  -0.3138  -0.2907  -0.2872  -0.2451  -0.2029  -0.1897  -0.1678
    -0.1565  -0.1123  -0.1055  -0.0877  -0.0568  -0.0407  -0.0345  -0.0169
    -0.0132   0.0429   0.0468   0.0515   0.1245   0.1426   0.1898   0.2474
     0.2489   0.2780   0.2929   0.2966   0.3113   0.3326   0.3810   0.3859
     0.4092   0.4096   0.4789   0.4999   0.5343   0.5490   0.6268   0.6362
     5.1000   5.1086   5.1323   5.1712   5.1984   5.2204   5.2287   5.2618
     5.2659   5.2711   5.2869   5.2989   5.4307   5.4660   5.5075   5.5138
     6.3136   6.6554   6.7298   6.8092   6.8124   6.8152   6.8232   6.8430
     6.9050   6.9792   7.0929   7.1276   7.1353   7.1422   7.2728   7.3492
     7.4284   7.5283   7.5921   7.6307   7.6529   7.6544   7.6947   7.7345
     7.7817   7.8444   7.8724   7.9816   8.0296   8.0310   8.0344   8.1419
     8.2015   8.2616   8.2655   8.2765   8.4137   8.5205

          k = 0.0000 0.7297-0.7175 (190656 PWs)   bands (ev):

   -20.2708 -20.2708 -20.2594 -20.2594 -20.2501 -20.2501 -20.2386 -20.2386
   -19.5914 -19.5914 -19.5817 -19.5817 -19.5792 -19.5792 -19.5685 -19.5685
   -19.4596 -19.4596 -19.4556 -19.4556 -19.4441 -19.4441 -19.4405 -19.4405
   -16.8660 -16.8660 -16.8323 -16.8323 -16.7988 -16.7988 -16.7928 -16.7928
   -16.7239 -16.7239 -16.7135 -16.7135 -16.7123 -16.7123 -16.6948 -16.6948
   -13.3743 -13.3743 -13.3718 -13.3718 -13.1818 -13.1818 -13.1796 -13.1796
   -12.0507 -12.0507 -12.0222 -12.0222 -12.0010 -12.0010 -11.9900 -11.9900
   -11.5607 -11.5607 -11.5340 -11.5340 -11.4821 -11.4821 -11.4713 -11.4713
   -10.3434 -10.3434 -10.3369 -10.3369 -10.2636 -10.2636 -10.2487 -10.2487
    -9.4098  -9.4098  -9.3891  -9.3891  -9.3114  -9.3114  -9.2976  -9.2976
    -8.4280  -8.4280  -8.3330  -8.3330  -8.3325  -8.3325  -8.2715  -8.2715
    -8.0470  -8.0470  -7.9810  -7.9810  -7.9469  -7.9469  -7.7969  -7.7969
    -7.5036  -7.5036  -7.4581  -7.4581  -7.3702  -7.3702  -7.3318  -7.3318
    -6.5145  -6.5145  -6.4769  -6.4769  -6.4705  -6.4705  -6.4229  -6.4229
    -5.4982  -5.4982  -5.4945  -5.4945  -5.4777  -5.4777  -5.4742  -5.4742
    -5.4144  -5.4144  -5.3995  -5.3995  -5.3066  -5.3066  -5.2675  -5.2675
    -5.1462  -5.1462  -5.1395  -5.1395  -4.9721  -4.9721  -4.9637  -4.9637
    -4.8736  -4.8736  -4.8011  -4.8011  -4.7624  -4.7624  -4.7337  -4.7337
    -4.6632  -4.6632  -4.5875  -4.5875  -4.4918  -4.4918  -4.4766  -4.4766
    -4.3983  -4.3983  -4.3360  -4.3360  -4.2968  -4.2968  -4.2557  -4.2557
    -4.1466  -4.1466  -4.0272  -4.0272  -4.0220  -4.0220  -3.9632  -3.9632
    -3.8295  -3.8295  -3.8133  -3.8133  -3.7598  -3.7598  -3.6860  -3.6860
    -3.6083  -3.6083  -3.5127  -3.5127  -3.4227  -3.4227  -3.3444  -3.3444
    -3.2493  -3.2493  -3.2255  -3.2255  -3.2121  -3.2121  -3.1792  -3.1792
    -3.1320  -3.1320  -3.0691  -3.0691  -3.0443  -3.0443  -2.9914  -2.9914
    -2.8985  -2.8985  -2.8712  -2.8712  -2.8624  -2.8624  -2.8400  -2.8400
    -2.5553  -2.5553  -2.5359  -2.5359  -2.5101  -2.5101  -2.4574  -2.4574
    -2.1546  -2.1546  -2.1474  -2.1474  -2.1034  -2.1034  -2.0903  -2.0903
    -0.8769  -0.8769  -0.8379  -0.8379  -0.8068  -0.8068  -0.7701  -0.7701
    -0.3250  -0.3250  -0.3150  -0.3150  -0.1960  -0.1960  -0.1534  -0.1534
    -0.1336  -0.1336  -0.0954  -0.0954  -0.0932  -0.0932  -0.0063  -0.0063
     0.0025   0.0025   0.0631   0.0631   0.2124   0.2124   0.2285   0.2285
     0.2718   0.2718   0.2775   0.2775   0.3389   0.3389   0.3449   0.3449
     0.4552   0.4552   0.4698   0.4698   0.5124   0.5124   0.5484   0.5484
     5.1139   5.1139   5.1158   5.1158   5.2156   5.2156   5.2596   5.2596
     5.2838   5.2838   5.2868   5.2868   5.4664   5.4664   5.4830   5.4830
     6.4922   6.4922   6.7200   6.7200   6.7800   6.7800   6.8774   6.8774
     6.9338   6.9338   7.0185   7.0185   7.2324   7.2324   7.3131   7.3131
     7.4717   7.4717   7.5670   7.5670   7.6543   7.6543   7.8000   7.8000
     7.8425   7.8425   8.0638   8.0638   8.0892   8.0892   8.1406   8.1406
     8.2190   8.2190   8.3444   8.3445   8.4365   8.4366

     highest occupied, lowest unoccupied level (ev):     0.6390    5.0454

!    total energy              =   -2568.59983826 Ry
     Harris-Foulkes estimate   =   -2568.59983826 Ry
     estimated scf accuracy    <          3.7E-09 Ry

     total all-electron energy =     -9684.388205 Ry

     The total energy is the sum of the following terms:

     one-electron contribution =   -1471.00558172 Ry
     hartree contribution      =     943.05883412 Ry
     xc contribution           =    -560.38494442 Ry
     ewald contribution        =    -743.04568600 Ry
     Dispersion Correction     =      -0.86962892 Ry
     one-center paw contrib.   =    -736.35283131 Ry

     convergence has been achieved in  19 iterations

     Forces acting on atoms (cartesian axes, Ry/au):

     atom    1 type  4   force =    -0.00084701    0.00123491    0.00091696
     atom    2 type  4   force =     0.00077305   -0.00123840    0.00096515
     atom    3 type  4   force =     0.00084701    0.00123491   -0.00091696
     atom    4 type  4   force =    -0.00077305   -0.00123840   -0.00096515
     atom    5 type  4   force =     0.00084701   -0.00123491   -0.00091696
     atom    6 type  4   force =    -0.00077305    0.00123840   -0.00096515
     atom    7 type  4   force =    -0.00084701   -0.00123491    0.00091696
     atom    8 type  4   force =     0.00077305    0.00123840    0.00096515
     atom    9 type  4   force =     0.00027871   -0.00048307   -0.00027691
     atom   10 type  4   force =    -0.00054364    0.00063108   -0.00065613
     atom   11 type  4   force =    -0.00027871   -0.00048307    0.00027691
     atom   12 type  4   force =     0.00054364    0.00063108    0.00065613
     atom   13 type  4   force =    -0.00027871    0.00048307    0.00027691
     atom   14 type  4   force =     0.00054364   -0.00063108    0.00065613
     atom   15 type  4   force =     0.00027871    0.00048307   -0.00027691
     atom   16 type  4   force =    -0.00054364   -0.00063108   -0.00065613
     atom   17 type  2   force =    -0.00070465   -0.00242540   -0.00147578
     atom   18 type  2   force =     0.00068264    0.00239581   -0.00146176
     atom   19 type  2   force =     0.00070465   -0.00242540    0.00147578
     atom   20 type  2   force =    -0.00068264    0.00239581    0.00146176
     atom   21 type  2   force =     0.00070465    0.00242540    0.00147578
     atom   22 type  2   force =    -0.00068264   -0.00239581    0.00146176
     atom   23 type  2   force =    -0.00070465    0.00242540   -0.00147578
     atom   24 type  2   force =     0.00068264   -0.00239581   -0.00146176
     atom   25 type  1   force =     0.00234974    0.00268979    0.00096655
     atom   26 type  1   force =    -0.00233829   -0.00259353    0.00099585
     atom   27 type  1   force =    -0.00234974    0.00268979   -0.00096655
     atom   28 type  1   force =     0.00233829   -0.00259353   -0.00099585
     atom   29 type  1   force =    -0.00234974   -0.00268979   -0.00096655
     atom   30 type  1   force =     0.00233829    0.00259353   -0.00099585
     atom   31 type  1   force =     0.00234974   -0.00268979    0.00096655
     atom   32 type  1   force =    -0.00233829    0.00259353    0.00099585
     atom   33 type  3   force =     0.00021586    0.00075116   -0.00005622
     atom   34 type  3   force =    -0.00021979   -0.00076758   -0.00005279
     atom   35 type  3   force =    -0.00021586    0.00075116    0.00005622
     atom   36 type  3   force =     0.00021979   -0.00076758    0.00005279
     atom   37 type  3   force =    -0.00021586   -0.00075116    0.00005622
     atom   38 type  3   force =     0.00021979    0.00076758    0.00005279
     atom   39 type  3   force =     0.00021586   -0.00075116   -0.00005622
     atom   40 type  3   force =    -0.00021979    0.00076758   -0.00005279
     atom   41 type  3   force =     0.00030219   -0.00031010    0.00038821
     atom   42 type  3   force =    -0.00030025    0.00029007    0.00038766
     atom   43 type  3   force =    -0.00030219   -0.00031010   -0.00038821
     atom   44 type  3   force =     0.00030025    0.00029007   -0.00038766
     atom   45 type  3   force =    -0.00030219    0.00031010   -0.00038821
     atom   46 type  3   force =     0.00030025   -0.00029007   -0.00038766
     atom   47 type  3   force =     0.00030219    0.00031010    0.00038821
     atom   48 type  3   force =    -0.00030025   -0.00029007    0.00038766
     atom   49 type  3   force =     0.00074726   -0.00358790   -0.00155406
     atom   50 type  3   force =    -0.00073488    0.00360003   -0.00157828
     atom   51 type  3   force =    -0.00074726   -0.00358790    0.00155406
     atom   52 type  3   force =     0.00073488    0.00360003    0.00157828
     atom   53 type  3   force =    -0.00074726    0.00358790    0.00155406
     atom   54 type  3   force =     0.00073488   -0.00360003    0.00157828
     atom   55 type  3   force =     0.00074726    0.00358790   -0.00155406
     atom   56 type  3   force =    -0.00073488   -0.00360003   -0.00157828
     atom   57 type  2   force =    -0.00100823   -0.00064052    0.00068587
     atom   58 type  2   force =     0.00101794    0.00062910    0.00070252
     atom   59 type  2   force =     0.00100823   -0.00064052   -0.00068587
     atom   60 type  2   force =    -0.00101794    0.00062910   -0.00070252
     atom   61 type  2   force =     0.00100823    0.00064052   -0.00068587
     atom   62 type  2   force =    -0.00101794   -0.00062910   -0.00070252
     atom   63 type  2   force =    -0.00100823    0.00064052    0.00068587
     atom   64 type  2   force =     0.00101794   -0.00062910    0.00070252
     atom   65 type  3   force =    -0.00021731    0.00010997   -0.00025767
     atom   66 type  3   force =     0.00023028   -0.00012136   -0.00028398
     atom   67 type  3   force =     0.00021731    0.00010997    0.00025767
     atom   68 type  3   force =    -0.00023028   -0.00012136    0.00028398
     atom   69 type  3   force =     0.00021731   -0.00010997    0.00025767
     atom   70 type  3   force =    -0.00023028    0.00012136    0.00028398
     atom   71 type  3   force =    -0.00021731   -0.00010997   -0.00025767
     atom   72 type  3   force =     0.00023028    0.00012136   -0.00028398
     atom   73 type  1   force =     0.00106537    0.00268135    0.00000776
     atom   74 type  1   force =    -0.00109280   -0.00267662   -0.00001144
     atom   75 type  1   force =    -0.00106537    0.00268135   -0.00000776
     atom   76 type  1   force =     0.00109280   -0.00267662    0.00001144
     atom   77 type  1   force =    -0.00106537   -0.00268135   -0.00000776
     atom   78 type  1   force =     0.00109280    0.00267662    0.00001144
     atom   79 type  1   force =     0.00106537   -0.00268135    0.00000776
     atom   80 type  1   force =    -0.00109280    0.00267662   -0.00001144
     atom   81 type  1   force =    -0.00143255   -0.00140874    0.00041154
     atom   82 type  1   force =     0.00170540    0.00114891    0.00019702
     atom   83 type  1   force =     0.00143255   -0.00140874   -0.00041154
     atom   84 type  1   force =    -0.00170540    0.00114891   -0.00019702
     atom   85 type  1   force =     0.00143255    0.00140874   -0.00041154
     atom   86 type  1   force =    -0.00170540   -0.00114891   -0.00019702
     atom   87 type  1   force =    -0.00143255    0.00140874    0.00041154
     atom   88 type  1   force =     0.00170540   -0.00114891    0.00019702
     atom   89 type  2   force =     0.00016658    0.00081307    0.00038833
     atom   90 type  2   force =    -0.00031806   -0.00029462    0.00061864
     atom   91 type  2   force =    -0.00016658    0.00081307   -0.00038833
     atom   92 type  2   force =     0.00031806   -0.00029462   -0.00061864
     atom   93 type  2   force =    -0.00016658   -0.00081307   -0.00038833
     atom   94 type  2   force =     0.00031806    0.00029462   -0.00061864
     atom   95 type  2   force =     0.00016658   -0.00081307    0.00038833
     atom   96 type  2   force =    -0.00031806    0.00029462    0.00061864
     atom   97 type  3   force =    -0.00021388    0.00012278    0.00000151
     atom   98 type  3   force =     0.00010678   -0.00034574    0.00000022
     atom   99 type  3   force =     0.00021388    0.00012278   -0.00000151
     atom  100 type  3   force =    -0.00010678   -0.00034574   -0.00000022
     atom  101 type  3   force =     0.00021388   -0.00012278   -0.00000151
     atom  102 type  3   force =    -0.00010678    0.00034574   -0.00000022
     atom  103 type  3   force =    -0.00021388   -0.00012278    0.00000151
     atom  104 type  3   force =     0.00010678    0.00034574    0.00000022
     atom  105 type  1   force =    -0.00042655    0.00025769   -0.00023085
     atom  106 type  1   force =     0.00046974   -0.00037648   -0.00032057
     atom  107 type  1   force =     0.00042655    0.00025769    0.00023085
     atom  108 type  1   force =    -0.00046974   -0.00037648    0.00032057
     atom  109 type  1   force =     0.00042655   -0.00025769    0.00023085
     atom  110 type  1   force =    -0.00046974    0.00037648    0.00032057
     atom  111 type  1   force =    -0.00042655   -0.00025769   -0.00023085
     atom  112 type  1   force =     0.00046974    0.00037648   -0.00032057
     atom  113 type  3   force =     0.00079713    0.00072841    0.00018832
     atom  114 type  3   force =    -0.00077194   -0.00071895    0.00019871
     atom  115 type  3   force =    -0.00079713    0.00072841   -0.00018832
     atom  116 type  3   force =     0.00077194   -0.00071895   -0.00019871
     atom  117 type  3   force =    -0.00079713   -0.00072841   -0.00018832
     atom  118 type  3   force =     0.00077194    0.00071895   -0.00019871
     atom  119 type  3   force =     0.00079713   -0.00072841    0.00018832
     atom  120 type  3   force =    -0.00077194    0.00071895    0.00019871
     atom  121 type  3   force =     0.00002528   -0.00009280   -0.00006593
     atom  122 type  3   force =    -0.00002714    0.00009315   -0.00006028
     atom  123 type  3   force =    -0.00002528   -0.00009280    0.00006593
     atom  124 type  3   force =     0.00002714    0.00009315    0.00006028
     atom  125 type  3   force =    -0.00002528    0.00009280    0.00006593
     atom  126 type  3   force =     0.00002714   -0.00009315    0.00006028
     atom  127 type  3   force =     0.00002528    0.00009280   -0.00006593
     atom  128 type  3   force =    -0.00002714   -0.00009315   -0.00006028
     atom  129 type  3   force =    -0.00002106   -0.00052582   -0.00032888
     atom  130 type  3   force =     0.00001801    0.00051688   -0.00033619
     atom  131 type  3   force =     0.00002106   -0.00052582    0.00032888
     atom  132 type  3   force =    -0.00001801    0.00051688    0.00033619
     atom  133 type  3   force =     0.00002106    0.00052582    0.00032888
     atom  134 type  3   force =    -0.00001801   -0.00051688    0.00033619
     atom  135 type  3   force =    -0.00002106    0.00052582   -0.00032888
     atom  136 type  3   force =     0.00001801   -0.00051688   -0.00033619
     atom  137 type  1   force =    -0.00023849   -0.00069168   -0.00047070
     atom  138 type  1   force =     0.00049772    0.00062705    0.00001624
     atom  139 type  1   force =     0.00023849   -0.00069168    0.00047070
     atom  140 type  1   force =    -0.00049772    0.00062705   -0.00001624
     atom  141 type  1   force =     0.00023849    0.00069168    0.00047070
     atom  142 type  1   force =    -0.00049772   -0.00062705   -0.00001624
     atom  143 type  1   force =    -0.00023849    0.00069168   -0.00047070
     atom  144 type  1   force =     0.00049772   -0.00062705    0.00001624
     atom  145 type  2   force =     0.00052763    0.00113446    0.00008832
     atom  146 type  2   force =    -0.00050284   -0.00116111   -0.00001796
     atom  147 type  2   force =    -0.00052763    0.00113446   -0.00008832
     atom  148 type  2   force =     0.00050284   -0.00116111    0.00001796
     atom  149 type  2   force =    -0.00052763   -0.00113446   -0.00008832
     atom  150 type  2   force =     0.00050284    0.00116111    0.00001796
     atom  151 type  2   force =     0.00052763   -0.00113446    0.00008832
     atom  152 type  2   force =    -0.00050284    0.00116111   -0.00001796
     atom  153 type  3   force =    -0.00019773    0.00089074    0.00062742
     atom  154 type  3   force =     0.00018354   -0.00088929    0.00063323
     atom  155 type  3   force =     0.00019773    0.00089074   -0.00062742
     atom  156 type  3   force =    -0.00018354   -0.00088929   -0.00063323
     atom  157 type  3   force =     0.00019773   -0.00089074   -0.00062742
     atom  158 type  3   force =    -0.00018354    0.00088929   -0.00063323
     atom  159 type  3   force =    -0.00019773   -0.00089074    0.00062742
     atom  160 type  3   force =     0.00018354    0.00088929    0.00063323
     atom  161 type  1   force =    -0.00028215   -0.00103674   -0.00125275
     atom  162 type  1   force =     0.00026430    0.00113750   -0.00120730
     atom  163 type  1   force =     0.00028215   -0.00103674    0.00125275
     atom  164 type  1   force =    -0.00026430    0.00113750    0.00120730
     atom  165 type  1   force =     0.00028215    0.00103674    0.00125275
     atom  166 type  1   force =    -0.00026430   -0.00113750    0.00120730
     atom  167 type  1   force =    -0.00028215    0.00103674   -0.00125275
     atom  168 type  1   force =     0.00026430   -0.00113750   -0.00120730
     atom  169 type  3   force =     0.00001197    0.00008547    0.00045448
     atom  170 type  3   force =    -0.00000651   -0.00009858    0.00044982
     atom  171 type  3   force =    -0.00001197    0.00008547   -0.00045448
     atom  172 type  3   force =     0.00000651   -0.00009858   -0.00044982
     atom  173 type  3   force =    -0.00001197   -0.00008547   -0.00045448
     atom  174 type  3   force =     0.00000651    0.00009858   -0.00044982
     atom  175 type  3   force =     0.00001197   -0.00008547    0.00045448
     atom  176 type  3   force =    -0.00000651    0.00009858    0.00044982
     atom  177 type  3   force =    -0.00003455    0.00013597    0.00019581
     atom  178 type  3   force =     0.00003091   -0.00014822    0.00019693
     atom  179 type  3   force =     0.00003455    0.00013597   -0.00019581
     atom  180 type  3   force =    -0.00003091   -0.00014822   -0.00019693
     atom  181 type  3   force =     0.00003455   -0.00013597   -0.00019581
     atom  182 type  3   force =    -0.00003091    0.00014822   -0.00019693
     atom  183 type  3   force =    -0.00003455   -0.00013597    0.00019581
     atom  184 type  3   force =     0.00003091    0.00014822    0.00019693
     atom  185 type  3   force =    -0.00027838    0.00012641    0.00028709
     atom  186 type  3   force =     0.00028495   -0.00011937    0.00027280
     atom  187 type  3   force =     0.00027838    0.00012641   -0.00028709
     atom  188 type  3   force =    -0.00028495   -0.00011937   -0.00027280
     atom  189 type  3   force =     0.00027838   -0.00012641   -0.00028709
     atom  190 type  3   force =    -0.00028495    0.00011937   -0.00027280
     atom  191 type  3   force =    -0.00027838   -0.00012641    0.00028709
     atom  192 type  3   force =     0.00028495    0.00011937    0.00027280

     Total force =     0.023101     Total SCF correction =     0.000099


     Computing stress (Cartesian axis) and pressure

          total   stress  (Ry/bohr**3)                   (kbar)     P=   -5.55
  -0.00003213   0.00000000  -0.00000005         -4.73      0.00     -0.01
   0.00000000  -0.00003332   0.00000000          0.00     -4.90      0.00
  -0.00000005   0.00000000  -0.00004768         -0.01      0.00     -7.01


     Writing output data file scf.save
 
     init_run     :     97.67s CPU    100.65s WALL (       1 calls)
     electrons    :   4289.34s CPU   4405.63s WALL (       1 calls)
     forces       :     52.89s CPU     53.45s WALL (       1 calls)
     stress       :    255.47s CPU    256.09s WALL (       1 calls)

     Called by init_run:
     wfcinit      :     86.87s CPU     89.50s WALL (       1 calls)
     potinit      :      3.83s CPU      3.92s WALL (       1 calls)

     Called by electrons:
     c_bands      :   3902.48s CPU   4000.02s WALL (      19 calls)
     sum_band     :    354.16s CPU    368.86s WALL (      19 calls)
     v_of_rho     :      4.13s CPU      4.55s WALL (      20 calls)
     newd         :     12.86s CPU     16.43s WALL (      20 calls)
     PAW_pot      :     14.62s CPU     14.63s WALL (      20 calls)
     mix_rho      :      1.05s CPU      1.15s WALL (      19 calls)

     Called by c_bands:
     init_us_2    :     13.24s CPU     13.32s WALL (     164 calls)
     cegterg      :   3849.23s CPU   3946.69s WALL (      76 calls)

     Called by sum_band:
     sum_band:bec :      0.18s CPU      0.18s WALL (      76 calls)
     addusdens    :     12.89s CPU     16.40s WALL (      19 calls)

     Called by *egterg:
     h_psi        :   1844.69s CPU   1919.22s WALL (     351 calls)
     s_psi        :    545.69s CPU    545.97s WALL (     351 calls)
     g_psi        :      6.76s CPU      6.77s WALL (     271 calls)
     cdiaghg      :    236.65s CPU    236.77s WALL (     347 calls)

     Called by h_psi:
     h_psi:pot    :   1835.21s CPU   1909.59s WALL (     351 calls)
     h_psi:calbec :    534.79s CPU    535.48s WALL (     351 calls)
     vloc_psi     :    756.82s CPU    830.23s WALL (     351 calls)
     add_vuspsi   :    543.59s CPU    543.87s WALL (     351 calls)

     General routines
     calbec       :    772.04s CPU    773.04s WALL (     447 calls)
     fft          :      3.44s CPU      4.14s WALL (     284 calls)
     fftw         :    802.14s CPU    886.02s WALL (  164924 calls)
 
     Parallel routines
     fft_scatter  :    140.23s CPU    223.67s WALL (  165208 calls)
 
     PWSCF        :     1h18m CPU        1h21m WALL

 
   This run was terminated on:   6:39: 1   4Nov2017            

=------------------------------------------------------------------------------=
   JOB DONE.
=------------------------------------------------------------------------------=
