
     Program PWSCF v.6.1 (svn rev. 13369) starts on  4Nov2017 at  4:43: 6 

     This program is part of the open-source Quantum ESPRESSO suite
     for quantum simulation of materials; please cite
         "P. Giannozzi et al., J. Phys.:Condens. Matter 21 395502 (2009);
          URL http://www.quantum-espresso.org", 
     in publications or presentations arising from this work. More details at
     http://www.quantum-espresso.org/quote

     Parallel version (MPI), running on     8 processors
     R & G space division:  proc/nbgrp/npool/nimage =       8
     Waiting for input...
     Reading input from standard input

     Current dimensions of program PWSCF are:
     Max number of different atomic species (ntypx) = 10
     Max number of k-points (npk) =  40000
     Max angular momentum in pseudopotentials (lmaxx) =  3
               file C.pbe-n-kjpaw_psl.0.1.UPF: wavefunction(s)  2P renormalized
               file N.pbe-n-kjpaw_psl.0.1.UPF: wavefunction(s)  2P renormalized
               file H.pbe-kjpaw_psl.0.1.UPF: wavefunction(s)  1S renormalized
               file O.pbe-n-kjpaw_psl.0.1.UPF: wavefunction(s)  2P renormalized

     -------------------------------------
     Parameters for Dispersion Correction:
     -------------------------------------
       atom      VdW radius       C_6     

        C          2.744         60.710
        N          2.640         42.670
        H          1.892          4.857
        O          2.536         24.284

     Subspace diagonalization in iterative solution of the eigenvalue problem:
     a serial algorithm will be used

 
     Parallelization info
     --------------------
     sticks:   dense  smooth     PW     G-vecs:    dense   smooth      PW
     Min         611     611    168                70531    70531   10110
     Max         612     612    169                70537    70537   10116
     Sum        4891    4891   1349               564267   564267   80905
 


     bravais-lattice index     =            0
     lattice parameter (alat)  =      18.8859  a.u.
     unit-cell volume          =    4178.4729 (a.u.)^3
     number of atoms/cell      =           68
     number of atomic types    =            4
     number of electrons       =       224.00
     number of Kohn-Sham states=          134
     kinetic-energy cutoff     =     100.0000  Ry
     charge density cutoff     =     400.0000  Ry
     convergence threshold     =      1.0E-08
     mixing beta               =       0.5000
     number of iterations used =            8  plain     mixing
     Exchange-correlation      =  SLA  PW   PBX  PBC ( 1  4  3  4 0 0)

     celldm(1)=  18.885923  celldm(2)=   0.000000  celldm(3)=   0.000000
     celldm(4)=   0.000000  celldm(5)=   0.000000  celldm(6)=   0.000000

     crystal axes: (cart. coord. in units of alat)
               a(1) = (   1.000000   0.000000   0.000000 )  
               a(2) = (   0.000000   0.431859   0.000000 )  
               a(3) = (  -0.682030   0.000000   1.436352 )  

     reciprocal axes: (cart. coord. in units 2 pi/alat)
               b(1) = (  1.000000  0.000000  0.474835 )  
               b(2) = (  0.000000  2.315570  0.000000 )  
               b(3) = (  0.000000  0.000000  0.696208 )  


     PseudoPot. # 1 for  C read from file:
     /scratch/ahofstet/pseudo/C.pbe-n-kjpaw_psl.0.1.UPF
     MD5 check sum: 430fe95172b1e11ef3f8ed03bac87931
     Pseudo is Projector augmented-wave + core cor, Zval =  4.0
     Generated using "atomic" code by A. Dal Corso  v.5.0.99 svn rev. 10869
     Shape of augmentation charge: BESSEL
     Using radial grid of 1073 points,  4 beta functions with: 
                l(1) =   0
                l(2) =   0
                l(3) =   1
                l(4) =   1
     Q(r) pseudized with 0 coefficients 


     PseudoPot. # 2 for  N read from file:
     /scratch/ahofstet/pseudo/N.pbe-n-kjpaw_psl.0.1.UPF
     MD5 check sum: f73187c8b701007e77325f868c9291d7
     Pseudo is Projector augmented-wave + core cor, Zval =  5.0
     Generated using "atomic" code by A. Dal Corso  v.5.0.99 svn rev. 10869
     Shape of augmentation charge: PSQ
     Using radial grid of 1085 points,  4 beta functions with: 
                l(1) =   0
                l(2) =   0
                l(3) =   1
                l(4) =   1
     Q(r) pseudized with 0 coefficients 


     PseudoPot. # 3 for  H read from file:
     /scratch/ahofstet/pseudo/H.pbe-kjpaw_psl.0.1.UPF
     MD5 check sum: 94e484f906d9e9773b2f6e52662335b2
     Pseudo is Projector augmented-wave, Zval =  1.0
     Generated using "atomic" code by A. Dal Corso  v.5.0.99 svn rev. 10869
     Shape of augmentation charge: PSQ
     Using radial grid of  929 points,  2 beta functions with: 
                l(1) =   0
                l(2) =   0
     Q(r) pseudized with 0 coefficients 


     PseudoPot. # 4 for  O read from file:
     /scratch/ahofstet/pseudo/O.pbe-n-kjpaw_psl.0.1.UPF
     MD5 check sum: 3f94a2996a3169367d6eb21d9b593f20
     Pseudo is Projector augmented-wave + core cor, Zval =  6.0
     Generated using "atomic" code by A. Dal Corso  v.5.0.99 svn rev. 10869
     Shape of augmentation charge: BESSEL
     Using radial grid of 1095 points,  4 beta functions with: 
                l(1) =   0
                l(2) =   0
                l(3) =   1
                l(4) =   1
     Q(r) pseudized with 0 coefficients 


     atomic species   valence    mass     pseudopotential
        C              4.00    12.01070      C( 1.00)
        N              5.00    14.00670      N( 1.00)
        H              1.00     1.00794      H( 1.00)
        O              6.00    15.99940      O( 1.00)

      2 Sym. Ops., with inversion, found



   Cartesian axes

     site n.     atom                  positions (alat units)
         1           N   tau(   1) = (   0.2049856   0.4620559   0.4906073  )
         2           N   tau(   2) = (   0.4540143   0.2461727   0.2275481  )
         3           N   tau(   3) = (   0.1129843  -0.0301968   0.9457446  )
         4           N   tau(   4) = (  -0.1360444   0.1856865   1.2088039  )
         5           C   tau(   5) = (   0.1982303   0.3596767   0.5803037  )
         6           C   tau(   6) = (   0.4607364   0.1437581   0.1378526  )
         7           C   tau(   7) = (   0.1197397   0.0721824   0.8560483  )
         8           C   tau(   8) = (  -0.1427664   0.2881010   1.2984993  )
         9           N   tau(   9) = (   0.0856031   0.2822026   0.5700822  )
        10           N   tau(  10) = (   0.5733942   0.0662957   0.1480765  )
        11           N   tau(  11) = (   0.2323669   0.1496566   0.8662697  )
        12           N   tau(  12) = (  -0.2554243   0.3655634   1.2882755  )
        13           C   tau(  13) = (  -0.0247662   0.3135910   0.4901107  )
        14           C   tau(  14) = (   0.6837260   0.0976588   0.2280796  )
        15           C   tau(  15) = (   0.3427362   0.1182681   0.9462412  )
        16           C   tau(  16) = (  -0.3657560   0.3342003   1.2082724  )
        17           N   tau(  17) = (  -0.0116828   0.4236266   0.4114199  )
        18           N   tau(  18) = (   0.6706690   0.2076942   0.3067333  )
        19           N   tau(  19) = (   0.3296528   0.0082326   1.0249320  )
        20           N   tau(  20) = (  -0.3526990   0.2241649   1.1296186  )
        21           C   tau(  21) = (   0.1236168   0.0243212   0.3723790  )
        22           C   tau(  22) = (   0.5353799   0.2402680   0.3457773  )
        23           C   tau(  23) = (   0.1943532   0.4075379   1.0639729  )
        24           C   tau(  24) = (  -0.2174099   0.1915911   1.0905746  )
        25           O   tau(  25) = (   0.2867587   0.3368670   0.6650256  )
        26           O   tau(  26) = (   0.3722602   0.1209946   0.0531271  )
        27           O   tau(  27) = (   0.0312112   0.0949921   0.7713263  )
        28           O   tau(  28) = (  -0.0542902   0.3108645   1.3832249  )
        29           O   tau(  29) = (  -0.1244325   0.2401545   0.4951354  )
        30           O   tau(  30) = (   0.7833958   0.0241933   0.2230407  )
        31           O   tau(  31) = (   0.4424025   0.1917046   0.9412165  )
        32           O   tau(  32) = (  -0.4654259   0.4076658   1.2133112  )
        33           O   tau(  33) = (   0.1739506   0.3509730   0.2885912  )
        34           O   tau(  34) = (   0.4850300   0.1350667   0.4295673  )
        35           O   tau(  35) = (   0.1440194   0.0808861   1.1477607  )
        36           O   tau(  36) = (  -0.1670600   0.2967924   1.0067846  )
        37           C   tau(  37) = (   0.1182592   0.3546316   0.1545340  )
        38           C   tau(  38) = (   0.5407210   0.1386838   0.5636297  )
        39           C   tau(  39) = (   0.1997108   0.0772275   1.2818179  )
        40           C   tau(  40) = (  -0.2227511   0.2931753   0.8727222  )
        41           H   tau(  41) = (   0.2938943   0.0800434   0.4817765  )
        42           H   tau(  42) = (   0.3651065   0.2960070   0.2363845  )
        43           H   tau(  43) = (   0.0240757   0.3518158   0.9545755  )
        44           H   tau(  44) = (  -0.0471365   0.1358522   1.1999675  )
        45           H   tau(  45) = (   0.0695985   0.2078067   0.6415983  )
        46           H   tau(  46) = (   0.5893685  -0.0081179   0.0765723  )
        47           H   tau(  47) = (   0.2483715   0.2240524   0.7947537  )
        48           H   tau(  48) = (  -0.2713985   0.4399770   1.3597796  )
        49           H   tau(  49) = (  -0.0883103   0.0100346   0.3437242  )
        50           H   tau(  50) = (   0.7473082   0.2259481   0.3744640  )
        51           H   tau(  51) = (   0.4062803   0.4218246   1.0926277  )
        52           H   tau(  52) = (  -0.4293383   0.2059110   1.0618879  )
        53           H   tau(  53) = (   0.1302040   0.1245722   0.3197253  )
        54           H   tau(  54) = (   0.5287982   0.3405077   0.3984384  )
        55           H   tau(  55) = (   0.1877659   0.3072869   1.1166266  )
        56           H   tau(  56) = (  -0.2108283   0.0913514   1.0379135  )
        57           H   tau(  57) = (   0.1390721   0.4508579   0.1088706  )
        58           H   tau(  58) = (   0.5199037   0.2349478   0.6092927  )
        59           H   tau(  59) = (   0.1788979  -0.0189987   1.3274814  )
        60           H   tau(  60) = (  -0.2019337   0.1969113   0.8270592  )
        61           H   tau(  61) = (   0.0098925   0.3346429   0.1566309  )
        62           H   tau(  62) = (   0.6490956   0.1187077   0.5615228  )
        63           H   tau(  63) = (   0.3080775   0.0972162   1.2797210  )
        64           H   tau(  64) = (  -0.3311257   0.3131514   0.8748291  )
        65           H   tau(  65) = (   0.1699702   0.2759072   0.0996585  )
        66           H   tau(  66) = (   0.4890004   0.0599892   0.6184844  )
        67           H   tau(  67) = (   0.1479998   0.1559519   1.3366934  )
        68           H   tau(  68) = (  -0.1710305   0.3718699   0.8178676  )

     number of k points=    12
                       cart. coord. in units 2pi/alat
        k(    1) = (   0.0000000   0.0000000   0.0000000), wk =   0.1250000
        k(    2) = (   0.0000000   0.0000000  -0.3481041), wk =   0.1250000
        k(    3) = (   0.0000000   0.5788925   0.0000000), wk =   0.2500000
        k(    4) = (   0.0000000   0.5788925  -0.3481041), wk =   0.2500000
        k(    5) = (   0.0000000  -1.1577850   0.0000000), wk =   0.1250000
        k(    6) = (   0.0000000  -1.1577850  -0.3481041), wk =   0.1250000
        k(    7) = (  -0.5000000   0.0000000  -0.2374175), wk =   0.1250000
        k(    8) = (  -0.5000000   0.0000000  -0.5855216), wk =   0.1250000
        k(    9) = (  -0.5000000   0.5788925  -0.2374175), wk =   0.2500000
        k(   10) = (  -0.5000000   0.5788925  -0.5855216), wk =   0.2500000
        k(   11) = (  -0.5000000  -1.1577850  -0.2374175), wk =   0.1250000
        k(   12) = (  -0.5000000  -1.1577850  -0.5855216), wk =   0.1250000

     Dense  grid:   564267 G-vectors     FFT dimensions: ( 125,  54, 192)

     Estimated max dynamical RAM per process >     481.46MB

     Estimated total allocated dynamical RAM >    3851.68MB

     Check: negative/imaginary core charge=   -0.000002    0.000000

     Initial potential from superposition of free atoms

     starting charge  223.99896, renormalised to  224.00000
     Starting wfc are  188 randomized atomic wfcs
     Checking if some PAW data can be deallocated... 

     total cpu time spent up to now is       28.5 secs

     per-process dynamical memory:   439.3 Mb

     Self-consistent Calculation

     iteration #  1     ecut=   100.00 Ry     beta=0.50
     Davidson diagonalization with overlap
     ethr =  1.00E-02,  avg # of iterations =  4.8

     total cpu time spent up to now is      101.9 secs

     total energy              =   -1165.87643570 Ry
     Harris-Foulkes estimate   =   -1169.53615705 Ry
     estimated scf accuracy    <       6.89129113 Ry

     iteration #  2     ecut=   100.00 Ry     beta=0.50
     Davidson diagonalization with overlap
     ethr =  3.08E-03,  avg # of iterations =  2.9

     total cpu time spent up to now is      146.5 secs

     total energy              =   -1166.98022952 Ry
     Harris-Foulkes estimate   =   -1167.36142806 Ry
     estimated scf accuracy    <       0.84478734 Ry

     iteration #  3     ecut=   100.00 Ry     beta=0.50
     Davidson diagonalization with overlap
     ethr =  3.77E-04,  avg # of iterations =  6.8

     total cpu time spent up to now is      219.7 secs

     total energy              =   -1167.26390902 Ry
     Harris-Foulkes estimate   =   -1167.41486287 Ry
     estimated scf accuracy    <       0.37615487 Ry

     iteration #  4     ecut=   100.00 Ry     beta=0.50
     Davidson diagonalization with overlap
     ethr =  1.68E-04,  avg # of iterations =  2.0

     total cpu time spent up to now is      259.4 secs

     total energy              =   -1167.30141395 Ry
     Harris-Foulkes estimate   =   -1167.32162718 Ry
     estimated scf accuracy    <       0.05841051 Ry

     iteration #  5     ecut=   100.00 Ry     beta=0.50
     Davidson diagonalization with overlap
     ethr =  2.61E-05,  avg # of iterations =  5.1

     total cpu time spent up to now is      330.0 secs

     total energy              =   -1167.32049240 Ry
     Harris-Foulkes estimate   =   -1167.33543813 Ry
     estimated scf accuracy    <       0.03898928 Ry

     iteration #  6     ecut=   100.00 Ry     beta=0.50
     Davidson diagonalization with overlap
     ethr =  1.74E-05,  avg # of iterations =  1.9

     total cpu time spent up to now is      367.5 secs

     total energy              =   -1167.31704283 Ry
     Harris-Foulkes estimate   =   -1167.32260287 Ry
     estimated scf accuracy    <       0.00989967 Ry

     iteration #  7     ecut=   100.00 Ry     beta=0.50
     Davidson diagonalization with overlap
     ethr =  4.42E-06,  avg # of iterations =  5.2

     total cpu time spent up to now is      443.1 secs

     total energy              =   -1167.32362902 Ry
     Harris-Foulkes estimate   =   -1167.32543282 Ry
     estimated scf accuracy    <       0.00536753 Ry

     iteration #  8     ecut=   100.00 Ry     beta=0.50
     Davidson diagonalization with overlap
     ethr =  2.40E-06,  avg # of iterations =  1.0

     total cpu time spent up to now is      479.2 secs

     total energy              =   -1167.32269997 Ry
     Harris-Foulkes estimate   =   -1167.32381005 Ry
     estimated scf accuracy    <       0.00197128 Ry

     iteration #  9     ecut=   100.00 Ry     beta=0.50
     Davidson diagonalization with overlap
     ethr =  8.80E-07,  avg # of iterations =  4.1

     total cpu time spent up to now is      546.0 secs

     total energy              =   -1167.32378762 Ry
     Harris-Foulkes estimate   =   -1167.32399100 Ry
     estimated scf accuracy    <       0.00065464 Ry

     iteration # 10     ecut=   100.00 Ry     beta=0.50
     Davidson diagonalization with overlap
     ethr =  2.92E-07,  avg # of iterations =  1.0

     total cpu time spent up to now is      582.1 secs

     total energy              =   -1167.32363778 Ry
     Harris-Foulkes estimate   =   -1167.32380579 Ry
     estimated scf accuracy    <       0.00027609 Ry

     iteration # 11     ecut=   100.00 Ry     beta=0.50
     Davidson diagonalization with overlap
     ethr =  1.23E-07,  avg # of iterations =  4.0

     total cpu time spent up to now is      643.8 secs

     total energy              =   -1167.32378331 Ry
     Harris-Foulkes estimate   =   -1167.32381954 Ry
     estimated scf accuracy    <       0.00010431 Ry

     iteration # 12     ecut=   100.00 Ry     beta=0.50
     Davidson diagonalization with overlap
     ethr =  4.66E-08,  avg # of iterations =  1.9

     total cpu time spent up to now is      681.2 secs

     total energy              =   -1167.32376935 Ry
     Harris-Foulkes estimate   =   -1167.32378717 Ry
     estimated scf accuracy    <       0.00003628 Ry

     iteration # 13     ecut=   100.00 Ry     beta=0.50
     Davidson diagonalization with overlap
     ethr =  1.62E-08,  avg # of iterations =  4.0

     total cpu time spent up to now is      739.3 secs

     total energy              =   -1167.32378723 Ry
     Harris-Foulkes estimate   =   -1167.32378830 Ry
     estimated scf accuracy    <       0.00000404 Ry

     iteration # 14     ecut=   100.00 Ry     beta=0.50
     Davidson diagonalization with overlap
     ethr =  1.81E-09,  avg # of iterations =  1.0

     total cpu time spent up to now is      775.4 secs

     total energy              =   -1167.32378664 Ry
     Harris-Foulkes estimate   =   -1167.32378735 Ry
     estimated scf accuracy    <       0.00000199 Ry

     iteration # 15     ecut=   100.00 Ry     beta=0.50
     Davidson diagonalization with overlap
     ethr =  8.88E-10,  avg # of iterations =  3.0

     total cpu time spent up to now is      823.6 secs

     total energy              =   -1167.32378707 Ry
     Harris-Foulkes estimate   =   -1167.32378710 Ry
     estimated scf accuracy    <       0.00000008 Ry

     iteration # 16     ecut=   100.00 Ry     beta=0.50
     Davidson diagonalization with overlap
     ethr =  3.36E-11,  avg # of iterations =  3.9

     total cpu time spent up to now is      879.4 secs

     End of self-consistent calculation

          k = 0.0000 0.0000 0.0000 ( 70497 PWs)   bands (ev):

   -20.5166 -20.4372 -20.4283 -20.3398 -19.6097 -19.5727 -19.4887 -19.4484
   -19.4062 -19.4007 -19.3199 -19.3041 -17.3562 -17.2899 -17.2894 -17.2128
   -15.8021 -15.7797 -15.7582 -15.7508 -15.7406 -15.6601 -15.6401 -15.6377
   -11.1588 -11.1341 -11.1036 -11.0535  -9.8407  -9.8358  -9.7210  -9.7105
    -9.6745  -9.6385  -9.3919  -9.3525  -8.4247  -8.3698  -8.2620  -8.2216
    -7.3940  -7.3523  -7.3515  -7.2737  -6.4030  -6.2065  -6.1025  -6.0342
    -5.8177  -5.7058  -5.6699  -5.6376  -5.5852  -5.5729  -5.3427  -5.1936
    -5.1686  -5.0689  -5.0387  -4.8972  -4.3543  -4.2724  -4.2338  -4.2284
    -4.1020  -4.0591  -4.0081  -3.9744  -3.9180  -3.9038  -3.8273  -3.7043
    -3.5541  -3.5101  -3.2957  -3.2914  -3.2075  -3.1456  -3.0942  -3.0470
    -2.9797  -2.8151  -2.7496  -2.6798  -1.8576  -1.8301  -1.7810  -1.7738
    -0.6581  -0.6572  -0.6523  -0.6222  -0.5490  -0.5253  -0.4601  -0.4314
    -0.1730  -0.1620  -0.0244   0.0306   0.0632   0.1797   0.1863   0.2366
     0.2450   0.2533   0.2849   0.3408   0.6746   0.7106   0.7434   0.7647
     5.6890   5.7332   5.7367   5.7972   6.7837   6.8584   6.8614   6.8733
     7.1154   7.4865   7.5130   7.6648   7.7131   7.8543   8.1466   8.5984
     8.6152   8.6174   8.8205   8.8939   9.2413   9.5091

          k = 0.0000 0.0000-0.3481 ( 70446 PWs)   bands (ev):

   -20.4931 -20.4927 -20.3682 -20.3679 -19.5958 -19.5938 -19.4633 -19.4620
   -19.4069 -19.4061 -19.3115 -19.3108 -17.3378 -17.3378 -17.2363 -17.2363
   -15.7885 -15.7875 -15.7696 -15.7689 -15.6917 -15.6917 -15.6360 -15.6355
   -11.1400 -11.1395 -11.0872 -11.0868  -9.8066  -9.8060  -9.7447  -9.7443
    -9.6607  -9.6607  -9.3709  -9.3708  -8.3972  -8.3969  -8.2420  -8.2419
    -7.3739  -7.3733  -7.3104  -7.3098  -6.3216  -6.3216  -6.0700  -6.0698
    -5.7349  -5.7346  -5.6508  -5.6506  -5.5863  -5.5862  -5.3096  -5.3093
    -5.0829  -5.0827  -4.9677  -4.9676  -4.3413  -4.3406  -4.2070  -4.2068
    -4.0860  -4.0859  -4.0036  -4.0035  -3.9180  -3.9175  -3.7228  -3.7224
    -3.5281  -3.5276  -3.2798  -3.2796  -3.2172  -3.2170  -3.0959  -3.0955
    -2.8770  -2.8763  -2.7037  -2.7036  -1.8491  -1.8484  -1.7728  -1.7722
    -0.6658  -0.6647  -0.6381  -0.6375  -0.5409  -0.5401  -0.4274  -0.4273
    -0.1769  -0.1763   0.0264   0.0267   0.0661   0.0666   0.2369   0.2374
     0.2658   0.2659   0.3032   0.3036   0.6911   0.6921   0.7561   0.7567
     5.6967   5.6971   5.7806   5.7815   6.7966   6.7967   6.8914   6.8914
     7.2436   7.2437   7.6620   7.6625   7.7631   7.7632   8.3257   8.3260
     8.5605   8.5612   9.0867   9.0868   9.2395   9.2397

          k = 0.0000 0.5789 0.0000 ( 70550 PWs)   bands (ev):

   -20.4536 -20.3938 -20.3875 -20.3242 -19.5797 -19.5502 -19.4903 -19.4649
   -19.3937 -19.3593 -19.3255 -19.2981 -17.3422 -17.2937 -17.2847 -17.2350
   -15.8914 -15.8761 -15.8546 -15.8237 -15.7440 -15.6786 -15.6642 -15.6167
   -11.1917 -11.1710 -11.1234 -11.0855  -9.8230  -9.8120  -9.7238  -9.7217
    -9.6520  -9.6035  -9.4582  -9.4089  -8.3836  -8.3240  -8.2882  -8.2236
    -7.3697  -7.3676  -7.3149  -7.2885  -6.4391  -6.2799  -6.2700  -6.1273
    -5.9568  -5.9553  -5.7610  -5.7378  -5.6007  -5.5458  -5.4655  -5.2750
    -5.2270  -5.1028  -5.0597  -5.0012  -4.5483  -4.4187  -4.2688  -4.1824
    -4.0990  -4.0764  -4.0185  -3.9636  -3.9293  -3.8465  -3.7972  -3.7475
    -3.5534  -3.3670  -3.3053  -3.2261  -3.0992  -3.0667  -3.0123  -2.9965
    -2.9755  -2.8549  -2.8170  -2.7808  -1.7695  -1.7372  -1.7144  -1.6847
    -0.6314  -0.5289  -0.5149  -0.4182  -0.3900  -0.3500  -0.2601  -0.2167
    -0.1106  -0.0759   0.0409   0.0900   0.2184   0.2436   0.2466   0.2891
     0.3460   0.4283   0.4791   0.5246   0.7462   0.7919   0.7975   0.8485
     5.6455   5.6653   5.7111   5.7262   6.9755   7.0252   7.0503   7.1925
     7.3833   7.4460   7.5717   7.6902   7.9027   8.1214   8.2559   8.6564
     8.8004   8.8016   9.0153   9.1266   9.1455   9.4038

          k = 0.0000 0.5789-0.3481 ( 70552 PWs)   bands (ev):

   -20.4357 -20.4354 -20.3441 -20.3439 -19.5684 -19.5664 -19.4759 -19.4742
   -19.3804 -19.3792 -19.3090 -19.3082 -17.3270 -17.3270 -17.2508 -17.2508
   -15.8823 -15.8816 -15.8449 -15.8443 -15.7153 -15.7152 -15.6330 -15.6328
   -11.1834 -11.1828 -11.1033 -11.1027  -9.8106  -9.8100  -9.7305  -9.7301
    -9.6305  -9.6305  -9.4306  -9.4305  -8.3573  -8.3569  -8.2538  -8.2536
    -7.3552  -7.3546  -7.3137  -7.3132  -6.3739  -6.3737  -6.1999  -6.1995
    -5.9385  -5.9381  -5.7598  -5.7593  -5.5747  -5.5746  -5.3876  -5.3875
    -5.1294  -5.1294  -5.0386  -5.0385  -4.5116  -4.5109  -4.1633  -4.1627
    -4.0848  -4.0839  -4.0408  -4.0405  -3.9012  -3.9009  -3.7506  -3.7500
    -3.4722  -3.4717  -3.2642  -3.2639  -3.0709  -3.0707  -2.9879  -2.9878
    -2.9500  -2.9495  -2.7818  -2.7815  -1.7606  -1.7601  -1.6929  -1.6923
    -0.6029  -0.6026  -0.4548  -0.4541  -0.3401  -0.3392  -0.2611  -0.2603
    -0.1003  -0.1000   0.0689   0.0695   0.2317   0.2318   0.2812   0.2815
     0.3721   0.3726   0.5067   0.5073   0.7604   0.7610   0.8322   0.8327
     5.6532   5.6538   5.7196   5.7208   6.9813   6.9818   7.1584   7.1589
     7.3782   7.3786   7.6528   7.6529   7.9830   7.9831   8.4366   8.4369
     8.7987   8.7992   9.0591   9.0595   9.3597   9.3602

          k = 0.0000-1.1578 0.0000 ( 70598 PWs)   bands (ev):

   -20.3507 -20.3506 -20.3439 -20.3438 -19.5222 -19.5209 -19.5069 -19.5048
   -19.3510 -19.3491 -19.3110 -19.3098 -17.2951 -17.2950 -17.2905 -17.2903
   -15.9653 -15.9644 -15.9063 -15.9053 -15.7244 -15.7242 -15.6676 -15.6672
   -11.2196 -11.2191 -11.1331 -11.1325  -9.7851  -9.7845  -9.7219  -9.7214
    -9.5792  -9.5785  -9.5178  -9.5170  -8.3298  -8.3292  -8.2474  -8.2470
    -7.3530  -7.3527  -7.3023  -7.3022  -6.3979  -6.3975  -6.2966  -6.2960
    -6.1319  -6.1318  -6.0617  -6.0617  -5.5392  -5.5385  -5.4351  -5.4344
    -5.1591  -5.1589  -4.8814  -4.8810  -4.6152  -4.6145  -4.2667  -4.2661
    -4.2022  -4.2020  -3.9819  -3.9807  -3.9031  -3.9030  -3.7309  -3.7306
    -3.3687  -3.3683  -3.2170  -3.2166  -3.0678  -3.0668  -3.0614  -3.0614
    -2.9569  -2.9568  -2.9226  -2.9218  -1.6343  -1.6338  -1.5645  -1.5640
    -0.5106  -0.5097  -0.3579  -0.3573  -0.2059  -0.2056  -0.0971  -0.0962
     0.0638   0.0640   0.1460   0.1462   0.3899   0.3906   0.4694   0.4696
     0.4725   0.4734   0.6319   0.6325   0.9047   0.9055   0.9248   0.9257
     5.6265   5.6270   5.6743   5.6757   7.0742   7.0746   7.1022   7.1027
     7.7640   7.7642   8.0271   8.0271   8.1988   8.1993   8.3744   8.3751
     8.6278   8.6280   8.8223   8.8224   9.2066   9.2069

          k = 0.0000-1.1578-0.3481 ( 70572 PWs)   bands (ev):

   -20.3507 -20.3506 -20.3440 -20.3438 -19.5217 -19.5201 -19.5079 -19.5054
   -19.3507 -19.3487 -19.3113 -19.3100 -17.2929 -17.2928 -17.2927 -17.2926
   -15.9586 -15.9575 -15.9162 -15.9151 -15.7161 -15.7158 -15.6728 -15.6725
   -11.2242 -11.2236 -11.1276 -11.1270  -9.8040  -9.8033  -9.7042  -9.7037
    -9.5790  -9.5783  -9.5170  -9.5161  -8.3178  -8.3169  -8.2622  -8.2617
    -7.3300  -7.3293  -7.3234  -7.3230  -6.4056  -6.4051  -6.2700  -6.2694
    -6.1252  -6.1248  -6.0958  -6.0955  -5.5295  -5.5288  -5.4408  -5.4400
    -5.1615  -5.1613  -4.8754  -4.8750  -4.6021  -4.6013  -4.2977  -4.2972
    -4.1226  -4.1218  -4.0735  -4.0720  -3.8291  -3.8287  -3.7964  -3.7958
    -3.3539  -3.3534  -3.2027  -3.2022  -3.0995  -3.0983  -3.0211  -3.0206
    -2.9567  -2.9559  -2.9397  -2.9394  -1.6374  -1.6368  -1.5614  -1.5609
    -0.5114  -0.5105  -0.3355  -0.3349  -0.2387  -0.2382  -0.1038  -0.1028
     0.0885   0.0892   0.1388   0.1393   0.3954   0.3965   0.4367   0.4373
     0.5033   0.5038   0.6281   0.6288   0.9142   0.9145   0.9152   0.9154
     5.6288   5.6294   5.6719   5.6733   7.0661   7.0671   7.1131   7.1145
     7.8100   7.8109   7.9597   7.9602   8.2129   8.2137   8.3745   8.3753
     8.6318   8.6320   8.8106   8.8112   9.1358   9.1365

          k =-0.5000 0.0000-0.2374 ( 70534 PWs)   bands (ev):

   -20.4863 -20.4703 -20.3928 -20.3796 -19.6112 -19.5746 -19.4841 -19.4507
   -19.3860 -19.3736 -19.3375 -19.3238 -17.3261 -17.3205 -17.2557 -17.2485
   -15.8182 -15.8019 -15.7855 -15.7765 -15.7128 -15.6334 -15.6296 -15.6071
   -11.1564 -11.1292 -11.1162 -11.0669  -9.8170  -9.8117  -9.7763  -9.7227
    -9.6123  -9.5836  -9.4491  -9.4154  -8.3452  -8.3208  -8.2614  -8.2512
    -7.4328  -7.3628  -7.3407  -7.2913  -6.3207  -6.2219  -6.2194  -6.2180
    -5.7945  -5.6831  -5.6330  -5.6292  -5.3855  -5.3117  -5.2876  -5.2558
    -5.2246  -5.1316  -5.0719  -5.0300  -4.5949  -4.4901  -4.3269  -4.2179
    -4.0304  -4.0302  -4.0028  -3.8828  -3.8806  -3.7636  -3.6907  -3.6054
    -3.5168  -3.3603  -3.2925  -3.2543  -3.2260  -3.2089  -3.1962  -3.0306
    -2.9135  -2.8747  -2.8651  -2.6634  -1.8614  -1.8594  -1.8192  -1.7794
    -0.6785  -0.6652  -0.6453  -0.6291  -0.5511  -0.5084  -0.4185  -0.3422
    -0.2108  -0.1683  -0.0292   0.0036   0.0558   0.1495   0.1641   0.2114
     0.2161   0.2308   0.3460   0.3716   0.6616   0.6966   0.7028   0.8102
     5.6873   5.7510   5.7548   5.8218   6.7734   6.8736   6.9371   6.9395
     7.2798   7.3852   7.5681   7.6224   7.6305   7.8911   7.9624   8.4049
     8.6787   8.6963   8.7503   9.0184   9.2041   9.2857

          k =-0.5000 0.0000-0.5855 ( 70420 PWs)   bands (ev):

   -20.4792 -20.4788 -20.3856 -20.3854 -19.5969 -19.5949 -19.4650 -19.4635
   -19.3801 -19.3798 -19.3311 -19.3302 -17.3235 -17.3234 -17.2520 -17.2519
   -15.8234 -15.8227 -15.7620 -15.7611 -15.6926 -15.6920 -15.6059 -15.6054
   -11.1586 -11.1580 -11.0747 -11.0743  -9.8455  -9.8450  -9.7225  -9.7223
    -9.5940  -9.5938  -9.4330  -9.4329  -8.3337  -8.3336  -8.2568  -8.2566
    -7.4080  -7.4076  -7.3070  -7.3067  -6.3128  -6.3124  -6.1700  -6.1695
    -5.7563  -5.7559  -5.6177  -5.6176  -5.3395  -5.3390  -5.2789  -5.2789
    -5.2048  -5.2048  -5.0455  -5.0455  -4.4787  -4.4785  -4.3226  -4.3218
    -4.0028  -4.0022  -3.9886  -3.9886  -3.8518  -3.8510  -3.6246  -3.6244
    -3.3868  -3.3858  -3.3063  -3.3062  -3.2306  -3.2304  -3.0700  -3.0692
    -2.9672  -2.9668  -2.7165  -2.7163  -1.8578  -1.8574  -1.8009  -1.8003
    -0.6806  -0.6803  -0.5990  -0.5983  -0.5776  -0.5775  -0.3617  -0.3614
    -0.1961  -0.1958   0.0193   0.0193   0.0458   0.0464   0.2170   0.2175
     0.2335   0.2338   0.3487   0.3489   0.6583   0.6591   0.7756   0.7761
     5.7067   5.7071   5.8011   5.8021   6.8395   6.8395   6.8893   6.8894
     7.3909   7.3912   7.5862   7.5873   7.6985   7.6988   8.1726   8.1740
     8.7799   8.7802   8.8765   8.8768   9.2315   9.2322

          k =-0.5000 0.5789-0.2374 ( 70596 PWs)   bands (ev):

   -20.4305 -20.4187 -20.3620 -20.3521 -19.5775 -19.5531 -19.4880 -19.4644
   -19.3749 -19.3489 -19.3405 -19.3096 -17.3181 -17.3105 -17.2685 -17.2622
   -15.8834 -15.8730 -15.8693 -15.8110 -15.7560 -15.6674 -15.6649 -15.6210
   -11.1979 -11.1642 -11.1295 -11.0824  -9.8247  -9.8165  -9.7496  -9.7208
    -9.6164  -9.5678  -9.4832  -9.4433  -8.3382  -8.2979  -8.2791  -8.2439
    -7.4054  -7.3488  -7.3300  -7.3028  -6.3642  -6.3277  -6.2627  -6.2451
    -5.9148  -5.9131  -5.7661  -5.7437  -5.5416  -5.4938  -5.4345  -5.3723
    -5.2839  -5.1907  -4.9880  -4.9491  -4.5678  -4.4066  -4.3218  -4.2249
    -4.1759  -4.0943  -4.0472  -3.9188  -3.8396  -3.8181  -3.7855  -3.6200
    -3.4532  -3.2904  -3.2787  -3.2710  -3.2395  -3.1305  -3.0966  -3.0454
    -2.8985  -2.8735  -2.8106  -2.7479  -1.7802  -1.7663  -1.7008  -1.6778
    -0.5829  -0.5775  -0.4644  -0.4523  -0.3593  -0.3566  -0.2602  -0.2110
    -0.1316  -0.0782   0.0331   0.0888   0.2020   0.2276   0.2715   0.2911
     0.3862   0.4378   0.4663   0.5253   0.7285   0.7838   0.8077   0.8313
     5.6335   5.6769   5.6958   5.7441   7.0237   7.0276   7.1490   7.3168
     7.3707   7.4732   7.5650   7.6249   7.7907   8.0839   8.2560   8.4554
     8.8575   8.8967   8.9470   9.0400   9.1527   9.4007

          k =-0.5000 0.5789-0.5855 ( 70608 PWs)   bands (ev):

   -20.4252 -20.4249 -20.3566 -20.3565 -19.5682 -19.5661 -19.4752 -19.4734
   -19.3672 -19.3660 -19.3209 -19.3199 -17.3146 -17.3145 -17.2651 -17.2650
   -15.8879 -15.8872 -15.8331 -15.8324 -15.7221 -15.7219 -15.6307 -15.6304
   -11.1866 -11.1861 -11.1008 -11.1003  -9.8263  -9.8258  -9.7315  -9.7313
    -9.5916  -9.5915  -9.4623  -9.4621  -8.3231  -8.3226  -8.2568  -8.2565
    -7.3840  -7.3836  -7.3105  -7.3102  -6.3707  -6.3701  -6.2195  -6.2188
    -5.9327  -5.9323  -5.7460  -5.7457  -5.5137  -5.5133  -5.4183  -5.4178
    -5.1890  -5.1887  -5.0322  -5.0320  -4.4288  -4.4282  -4.3250  -4.3247
    -4.0960  -4.0953  -4.0377  -4.0372  -3.8246  -3.8240  -3.6825  -3.6821
    -3.3717  -3.3711  -3.2646  -3.2639  -3.1886  -3.1882  -3.0800  -3.0799
    -2.8736  -2.8733  -2.7831  -2.7831  -1.7688  -1.7682  -1.6938  -1.6933
    -0.5668  -0.5663  -0.4665  -0.4660  -0.3804  -0.3797  -0.2210  -0.2202
    -0.1008  -0.1005   0.0557   0.0563   0.2336   0.2339   0.2589   0.2593
     0.4019   0.4023   0.5099   0.5103   0.7588   0.7596   0.8171   0.8178
     5.6492   5.6497   5.7259   5.7270   7.0300   7.0304   7.1838   7.1846
     7.4617   7.4620   7.5626   7.5631   7.9803   7.9805   8.3408   8.3412
     8.8660   8.8664   9.0047   9.0048   9.3588   9.3593

          k =-0.5000-1.1578-0.2374 ( 70608 PWs)   bands (ev):

   -20.3508 -20.3507 -20.3441 -20.3439 -19.5201 -19.5185 -19.5061 -19.5036
   -19.3523 -19.3504 -19.3130 -19.3117 -17.2950 -17.2949 -17.2925 -17.2924
   -15.9495 -15.9484 -15.8982 -15.8970 -15.7333 -15.7331 -15.6815 -15.6812
   -11.2221 -11.2215 -11.1248 -11.1242  -9.8145  -9.8139  -9.7174  -9.7170
    -9.5689  -9.5683  -9.5124  -9.5115  -8.3104  -8.3096  -8.2556  -8.2550
    -7.3425  -7.3419  -7.3276  -7.3273  -6.4049  -6.4043  -6.2436  -6.2429
    -6.1074  -6.1073  -6.0933  -6.0930  -5.5730  -5.5724  -5.4660  -5.4654
    -5.2091  -5.2088  -4.8015  -4.8009  -4.5977  -4.5969  -4.2181  -4.2172
    -4.1546  -4.1545  -4.0188  -4.0181  -3.8932  -3.8928  -3.7255  -3.7246
    -3.3829  -3.3828  -3.3088  -3.3083  -3.2381  -3.2376  -3.0894  -3.0890
    -2.8869  -2.8863  -2.8017  -2.8009  -1.6216  -1.6211  -1.5677  -1.5671
    -0.5128  -0.5118  -0.3257  -0.3249  -0.2178  -0.2173  -0.0847  -0.0838
     0.0634   0.0636   0.1435   0.1436   0.3705   0.3712   0.4702   0.4708
     0.5063   0.5069   0.6351   0.6358   0.8938   0.8941   0.9133   0.9136
     5.6229   5.6235   5.6674   5.6689   7.0795   7.0803   7.1314   7.1326
     7.8861   7.8863   8.0230   8.0231   8.0485   8.0492   8.3411   8.3413
     8.7688   8.7689   8.8284   8.8287   8.9628   8.9630

          k =-0.5000-1.1578-0.5855 ( 70592 PWs)   bands (ev):

   -20.3507 -20.3506 -20.3442 -20.3440 -19.5200 -19.5184 -19.5062 -19.5037
   -19.3523 -19.3504 -19.3130 -19.3117 -17.2939 -17.2939 -17.2935 -17.2934
   -15.9486 -15.9475 -15.8996 -15.8984 -15.7320 -15.7318 -15.6823 -15.6820
   -11.2170 -11.2164 -11.1309 -11.1303  -9.7944  -9.7939  -9.7344  -9.7339
    -9.5718  -9.5711  -9.5126  -9.5118  -8.3116  -8.3108  -8.2526  -8.2521
    -7.3403  -7.3396  -7.3303  -7.3299  -6.3941  -6.3935  -6.2840  -6.2833
    -6.0988  -6.0984  -6.0674  -6.0669  -5.5591  -5.5585  -5.5001  -5.4993
    -5.1490  -5.1488  -4.8792  -4.8786  -4.5975  -4.5968  -4.2101  -4.2095
    -4.1008  -4.1000  -3.9962  -3.9951  -3.9077  -3.9073  -3.7822  -3.7813
    -3.3492  -3.3485  -3.2804  -3.2796  -3.2720  -3.2713  -3.1092  -3.1087
    -2.8438  -2.8433  -2.8359  -2.8349  -1.6160  -1.6154  -1.5739  -1.5734
    -0.5121  -0.5112  -0.3206  -0.3199  -0.2114  -0.2110  -0.0831  -0.0821
     0.0410   0.0414   0.1447   0.1451   0.3888   0.3898   0.4656   0.4662
     0.4992   0.4999   0.6358   0.6364   0.8978   0.8988   0.9098   0.9108
     5.6221   5.6226   5.6686   5.6700   7.0903   7.0913   7.1194   7.1206
     7.8021   7.8032   8.0333   8.0335   8.1862   8.1872   8.2955   8.2960
     8.6929   8.6930   8.8416   8.8421   9.1942   9.1946

     highest occupied, lowest unoccupied level (ev):     0.9257    5.6221

!    total energy              =   -1167.32378709 Ry
     Harris-Foulkes estimate   =   -1167.32378709 Ry
     estimated scf accuracy    <          4.7E-09 Ry

     total all-electron energy =     -4373.297611 Ry

     The total energy is the sum of the following terms:

     one-electron contribution =    -789.08255548 Ry
     hartree contribution      =     485.50650847 Ry
     xc contribution           =    -241.43535453 Ry
     ewald contribution        =    -302.14934961 Ry
     Dispersion Correction     =      -0.32016598 Ry
     one-center paw contrib.   =    -319.84286996 Ry

     convergence has been achieved in  16 iterations

     Forces acting on atoms (cartesian axes, Ry/au):

     atom    1 type  2   force =     0.01251462   -0.00494590   -0.01698324
     atom    2 type  2   force =    -0.01244810   -0.00526200    0.01685404
     atom    3 type  2   force =    -0.01251462    0.00494590    0.01698324
     atom    4 type  2   force =     0.01244810    0.00526200   -0.01685404
     atom    5 type  1   force =     0.00662696   -0.00515546    0.00520901
     atom    6 type  1   force =    -0.00571174   -0.00473010   -0.00452924
     atom    7 type  1   force =    -0.00662696    0.00515546   -0.00520901
     atom    8 type  1   force =     0.00571174    0.00473010    0.00452924
     atom    9 type  2   force =    -0.01999480    0.01034126    0.00064959
     atom   10 type  2   force =     0.01953151    0.01033378   -0.00074347
     atom   11 type  2   force =     0.01999480   -0.01034126   -0.00064959
     atom   12 type  2   force =    -0.01953151   -0.01033378    0.00074347
     atom   13 type  1   force =     0.00093334   -0.01354763    0.01112555
     atom   14 type  1   force =    -0.00039004   -0.01401327   -0.01148645
     atom   15 type  1   force =    -0.00093334    0.01354763   -0.01112555
     atom   16 type  1   force =     0.00039004    0.01401327    0.01148645
     atom   17 type  2   force =     0.01113270   -0.00463202   -0.00712927
     atom   18 type  2   force =    -0.01081071   -0.00436770    0.00768254
     atom   19 type  2   force =    -0.01113270    0.00463202    0.00712927
     atom   20 type  2   force =     0.01081071    0.00436770   -0.00768254
     atom   21 type  1   force =    -0.00849246    0.02754864   -0.00143644
     atom   22 type  1   force =     0.00837348    0.02754306    0.00146783
     atom   23 type  1   force =     0.00849246   -0.02754864    0.00143644
     atom   24 type  1   force =    -0.00837348   -0.02754306   -0.00146783
     atom   25 type  4   force =    -0.00185105    0.00411937   -0.00160530
     atom   26 type  4   force =     0.00117409    0.00386307    0.00107095
     atom   27 type  4   force =     0.00185105   -0.00411937    0.00160530
     atom   28 type  4   force =    -0.00117409   -0.00386307   -0.00107095
     atom   29 type  4   force =    -0.01676001    0.01421315    0.00430470
     atom   30 type  4   force =     0.01646425    0.01447858   -0.00418405
     atom   31 type  4   force =     0.01676001   -0.01421315   -0.00430470
     atom   32 type  4   force =    -0.01646425   -0.01447858    0.00418405
     atom   33 type  4   force =     0.02078696    0.00632098   -0.02341296
     atom   34 type  4   force =    -0.02080434    0.00621823    0.02338237
     atom   35 type  4   force =    -0.02078696   -0.00632098    0.02341296
     atom   36 type  4   force =     0.02080434   -0.00621823   -0.02338237
     atom   37 type  1   force =    -0.00582802   -0.01316118    0.02022895
     atom   38 type  1   force =     0.00594472   -0.01237494   -0.02032379
     atom   39 type  1   force =     0.00582802    0.01316118   -0.02022895
     atom   40 type  1   force =    -0.00594472    0.01237494    0.02032379
     atom   41 type  3   force =     0.00300855   -0.00191472    0.00087252
     atom   42 type  3   force =    -0.00308687   -0.00186865   -0.00083601
     atom   43 type  3   force =    -0.00300855    0.00191472   -0.00087252
     atom   44 type  3   force =     0.00308687    0.00186865    0.00083601
     atom   45 type  3   force =     0.00027137    0.00124325   -0.00293762
     atom   46 type  3   force =    -0.00020584    0.00127767    0.00302553
     atom   47 type  3   force =    -0.00027137   -0.00124325    0.00293762
     atom   48 type  3   force =     0.00020584   -0.00127767   -0.00302553
     atom   49 type  3   force =    -0.00160869    0.00201534    0.00058535
     atom   50 type  3   force =     0.00131913    0.00196266   -0.00087122
     atom   51 type  3   force =     0.00160869   -0.00201534   -0.00058535
     atom   52 type  3   force =    -0.00131913   -0.00196266    0.00087122
     atom   53 type  3   force =    -0.01004424   -0.03474389    0.01525051
     atom   54 type  3   force =     0.01006913   -0.03467664   -0.01522729
     atom   55 type  3   force =     0.01004424    0.03474389   -0.01525051
     atom   56 type  3   force =    -0.01006913    0.03467664    0.01522729
     atom   57 type  3   force =     0.00313561    0.01687291   -0.01078641
     atom   58 type  3   force =    -0.00302608    0.01646360    0.01065431
     atom   59 type  3   force =    -0.00313561   -0.01687291    0.01078641
     atom   60 type  3   force =     0.00302608   -0.01646360   -0.01065431
     atom   61 type  3   force =    -0.00017895    0.00210280    0.00013178
     atom   62 type  3   force =     0.00009825    0.00207735   -0.00010461
     atom   63 type  3   force =     0.00017895   -0.00210280   -0.00013178
     atom   64 type  3   force =    -0.00009825   -0.00207735    0.00010461
     atom   65 type  3   force =     0.00436097   -0.00592396   -0.00807634
     atom   66 type  3   force =    -0.00450103   -0.00618919    0.00823945
     atom   67 type  3   force =    -0.00436097    0.00592396    0.00807634
     atom   68 type  3   force =     0.00450103    0.00618919   -0.00823945

     Total force =     0.163038     Total SCF correction =     0.000107


     Computing stress (Cartesian axis) and pressure

          total   stress  (Ry/bohr**3)                   (kbar)     P=    3.12
   0.00004042   0.00000058  -0.00003918          5.95      0.08     -5.76
   0.00000058   0.00001500  -0.00000000          0.08      2.21     -0.00
  -0.00003918  -0.00000000   0.00000830         -5.76     -0.00      1.22


     Writing output data file scf.save
 
     init_run     :     26.58s CPU     27.67s WALL (       1 calls)
     electrons    :    809.22s CPU    851.11s WALL (       1 calls)
     forces       :     12.84s CPU     12.92s WALL (       1 calls)
     stress       :     65.69s CPU     65.76s WALL (       1 calls)

     Called by init_run:
     wfcinit      :     18.42s CPU     19.37s WALL (       1 calls)
     potinit      :      2.89s CPU      2.96s WALL (       1 calls)

     Called by electrons:
     c_bands      :    713.59s CPU    749.63s WALL (      16 calls)
     sum_band     :     85.54s CPU     90.62s WALL (      16 calls)
     v_of_rho     :      1.43s CPU      1.60s WALL (      17 calls)
     newd         :      2.90s CPU      3.39s WALL (      17 calls)
     PAW_pot      :      5.22s CPU      5.23s WALL (      17 calls)
     mix_rho      :      0.34s CPU      0.36s WALL (      16 calls)

     Called by c_bands:
     init_us_2    :      6.87s CPU      6.89s WALL (     420 calls)
     cegterg      :    689.50s CPU    725.46s WALL (     192 calls)

     Called by sum_band:
     sum_band:bec :      0.07s CPU      0.07s WALL (     192 calls)
     addusdens    :      3.16s CPU      3.62s WALL (      16 calls)

     Called by *egterg:
     h_psi        :    428.42s CPU    455.40s WALL (     835 calls)
     s_psi        :     62.41s CPU     62.42s WALL (     835 calls)
     g_psi        :      3.48s CPU      3.48s WALL (     631 calls)
     cdiaghg      :     45.99s CPU     46.03s WALL (     823 calls)

     Called by h_psi:
     h_psi:pot    :    424.44s CPU    451.37s WALL (     835 calls)
     h_psi:calbec :     58.35s CPU     58.63s WALL (     835 calls)
     vloc_psi     :    303.76s CPU    330.40s WALL (     835 calls)
     add_vuspsi   :     62.32s CPU     62.34s WALL (     835 calls)

     General routines
     calbec       :     86.35s CPU     86.72s WALL (    1087 calls)
     fft          :      1.13s CPU      1.39s WALL (     245 calls)
     fftw         :    326.64s CPU    355.49s WALL (  174482 calls)
 
     Parallel routines
     fft_scatter  :     80.60s CPU     99.55s WALL (  174727 calls)
 
     PWSCF        : 15m22.68s CPU    16m53.12s WALL

 
   This run was terminated on:   4:59:59   4Nov2017            

=------------------------------------------------------------------------------=
   JOB DONE.
=------------------------------------------------------------------------------=
