
     Program PWSCF v.6.1 (svn rev. 13369) starts on 14Dec2017 at 22: 5:21 

     This program is part of the open-source Quantum ESPRESSO suite
     for quantum simulation of materials; please cite
         "P. Giannozzi et al., J. Phys.:Condens. Matter 21 395502 (2009);
          URL http://www.quantum-espresso.org", 
     in publications or presentations arising from this work. More details at
     http://www.quantum-espresso.org/quote

     Parallel version (MPI), running on     8 processors
     R & G space division:  proc/nbgrp/npool/nimage =       8
     Waiting for input...
     Reading input from standard input

     Current dimensions of program PWSCF are:
     Max number of different atomic species (ntypx) = 10
     Max number of k-points (npk) =  40000
     Max angular momentum in pseudopotentials (lmaxx) =  3
               file C.pbe-n-kjpaw_psl.0.1.UPF: wavefunction(s)  2P renormalized
               file N.pbe-n-kjpaw_psl.0.1.UPF: wavefunction(s)  2P renormalized
               file H.pbe-kjpaw_psl.0.1.UPF: wavefunction(s)  1S renormalized
               file O.pbe-n-kjpaw_psl.0.1.UPF: wavefunction(s)  2P renormalized

     -------------------------------------
     Parameters for Dispersion Correction:
     -------------------------------------
       atom      VdW radius       C_6     

        C          2.744         60.710
        N          2.640         42.670
        H          1.892          4.857
        O          2.536         24.284

     Subspace diagonalization in iterative solution of the eigenvalue problem:
     a serial algorithm will be used

 
     Parallelization info
     --------------------
     sticks:   dense  smooth     PW     G-vecs:    dense   smooth      PW
     Min         857     857    222               158981   158981   21098
     Max         858     858    223               158985   158985   21105
     Sum        6857    6857   1781              1271859  1271859  168815
 


     bravais-lattice index     =            0
     lattice parameter (alat)  =      14.6779  a.u.
     unit-cell volume          =    9413.1195 (a.u.)^3
     number of atoms/cell      =          120
     number of atomic types    =            4
     number of electrons       =       400.00
     number of Kohn-Sham states=          240
     kinetic-energy cutoff     =     100.0000  Ry
     charge density cutoff     =     400.0000  Ry
     convergence threshold     =      1.0E-08
     mixing beta               =       0.5000
     number of iterations used =            8  plain     mixing
     Exchange-correlation      =  SLA  PW   PBX  PBC ( 1  4  3  4 0 0)

     celldm(1)=  14.677881  celldm(2)=   0.000000  celldm(3)=   0.000000
     celldm(4)=   0.000000  celldm(5)=   0.000000  celldm(6)=   0.000000

     crystal axes: (cart. coord. in units of alat)
               a(1) = (   1.000000   0.000000   0.000000 )  
               a(2) = (   0.000000   0.998880   0.000000 )  
               a(3) = (   0.000000   0.000000   2.980096 )  

     reciprocal axes: (cart. coord. in units 2 pi/alat)
               b(1) = (  1.000000  0.000000  0.000000 )  
               b(2) = (  0.000000  1.001121  0.000000 )  
               b(3) = (  0.000000  0.000000  0.335560 )  


     PseudoPot. # 1 for  C read from file:
     /scratch/ahofstet/pseudo/C.pbe-n-kjpaw_psl.0.1.UPF
     MD5 check sum: 430fe95172b1e11ef3f8ed03bac87931
     Pseudo is Projector augmented-wave + core cor, Zval =  4.0
     Generated using "atomic" code by A. Dal Corso  v.5.0.99 svn rev. 10869
     Shape of augmentation charge: BESSEL
     Using radial grid of 1073 points,  4 beta functions with: 
                l(1) =   0
                l(2) =   0
                l(3) =   1
                l(4) =   1
     Q(r) pseudized with 0 coefficients 


     PseudoPot. # 2 for  N read from file:
     /scratch/ahofstet/pseudo/N.pbe-n-kjpaw_psl.0.1.UPF
     MD5 check sum: f73187c8b701007e77325f868c9291d7
     Pseudo is Projector augmented-wave + core cor, Zval =  5.0
     Generated using "atomic" code by A. Dal Corso  v.5.0.99 svn rev. 10869
     Shape of augmentation charge: PSQ
     Using radial grid of 1085 points,  4 beta functions with: 
                l(1) =   0
                l(2) =   0
                l(3) =   1
                l(4) =   1
     Q(r) pseudized with 0 coefficients 


     PseudoPot. # 3 for  H read from file:
     /scratch/ahofstet/pseudo/H.pbe-kjpaw_psl.0.1.UPF
     MD5 check sum: 94e484f906d9e9773b2f6e52662335b2
     Pseudo is Projector augmented-wave, Zval =  1.0
     Generated using "atomic" code by A. Dal Corso  v.5.0.99 svn rev. 10869
     Shape of augmentation charge: PSQ
     Using radial grid of  929 points,  2 beta functions with: 
                l(1) =   0
                l(2) =   0
     Q(r) pseudized with 0 coefficients 


     PseudoPot. # 4 for  O read from file:
     /scratch/ahofstet/pseudo/O.pbe-n-kjpaw_psl.0.1.UPF
     MD5 check sum: 3f94a2996a3169367d6eb21d9b593f20
     Pseudo is Projector augmented-wave + core cor, Zval =  6.0
     Generated using "atomic" code by A. Dal Corso  v.5.0.99 svn rev. 10869
     Shape of augmentation charge: BESSEL
     Using radial grid of 1095 points,  4 beta functions with: 
                l(1) =   0
                l(2) =   0
                l(3) =   1
                l(4) =   1
     Q(r) pseudized with 0 coefficients 


     atomic species   valence    mass     pseudopotential
        C              4.00    12.01070      C( 1.00)
        N              5.00    14.00670      N( 1.00)
        H              1.00     1.00794      H( 1.00)
        O              6.00    15.99940      O( 1.00)

     No symmetry found



   Cartesian axes

     site n.     atom                  positions (alat units)
         1           C   tau(   1) = (   0.5123747   0.0198307   0.7618885  )
         2           C   tau(   2) = (   0.9874086   0.9791088   2.2520530  )
         3           C   tau(   3) = (   0.0125674   0.4797789   2.2180633  )
         4           C   tau(   4) = (   0.4876737   0.5192150   0.7281495  )
         5           O   tau(   5) = (   0.4166828   0.0485810   0.6193309  )
         6           O   tau(   6) = (   0.0830171   0.9503223   2.1094622  )
         7           O   tau(   7) = (   0.9169581   0.4508014   2.3606097  )
         8           O   tau(   8) = (   0.5833648   0.5481366   0.8706615  )
         9           C   tau(   9) = (   0.2301681   0.0427586   0.6590869  )
        10           C   tau(  10) = (   0.2695477   0.9560809   2.1491543  )
        11           C   tau(  11) = (   0.7304280   0.4566684   2.3209626  )
        12           C   tau(  12) = (   0.7698751   0.5421513   0.8309429  )
        13           H   tau(  13) = (   0.1913570   0.1782265   0.6738629  )
        14           H   tau(  14) = (   0.3083039   0.8205916   2.1638961  )
        15           H   tau(  15) = (   0.6916021   0.3212000   2.3061877  )
        16           H   tau(  16) = (   0.8087992   0.6775859   0.8161354  )
        17           C   tau(  17) = (   0.2204815   0.9428120   0.8296542  )
        18           C   tau(  18) = (   0.2793186   0.0560412   2.3197071  )
        19           C   tau(  19) = (   0.7206215   0.5555872   2.1504550  )
        20           C   tau(  20) = (   0.7795679   0.4432469   0.6604178  )
        21           H   tau(  21) = (   0.2089410   0.8041644   0.8032465  )
        22           H   tau(  22) = (   0.2908572   0.1946805   2.2932625  )
        23           H   tau(  23) = (   0.7089321   0.6941992   2.1769650  )
        24           H   tau(  24) = (   0.7912495   0.3046254   0.6868805  )
        25           H   tau(  25) = (   0.1114905   0.9823553   0.9099906  )
        26           H   tau(  26) = (   0.3883399   0.0165285   2.4000237  )
        27           H   tau(  27) = (   0.6116647   0.5160150   2.0700833  )
        28           H   tau(  28) = (   0.8884962   0.4828442   0.5800204  )
        29           C   tau(  29) = (   0.3942638   0.9741974   0.9141284  )
        30           C   tau(  30) = (   0.1055603   0.0247098   2.4042376  )
        31           C   tau(  31) = (   0.8944247   0.5244803   2.0659383  )
        32           C   tau(  32) = (   0.6057439   0.4744438   0.5759687  )
        33           H   tau(  33) = (   0.4449425   0.8625973   0.9842137  )
        34           H   tau(  34) = (   0.0549480   0.1363189   2.4743644  )
        35           H   tau(  35) = (   0.9449981   0.6362061   1.9959748  )
        36           H   tau(  36) = (   0.5550700   0.3627334   0.5060484  )
        37           O   tau(  37) = (   0.6684537   0.0270089   0.7623102  )
        38           O   tau(  38) = (   0.8313074   0.9719695   2.2525425  )
        39           O   tau(  39) = (   0.1686720   0.4726029   2.2175640  )
        40           O   tau(  40) = (   0.3315690   0.5264689   0.7277236  )
        41           C   tau(  41) = (   0.1348497   0.9581739   0.5116389  )
        42           C   tau(  42) = (   0.3647255   0.0407018   2.0016408  )
        43           C   tau(  43) = (   0.6353534   0.5401989   2.4685247  )
        44           C   tau(  44) = (   0.8650767   0.4586230   0.9784310  )
        45           H   tau(  45) = (   0.1526250   0.0314305   0.3916070  )
        46           H   tau(  46) = (   0.3467593   0.9674915   1.8816131  )
        47           H   tau(  47) = (   0.6532559   0.4680568   2.5885331  )
        48           H   tau(  48) = (   0.8473757   0.5307962   1.0984524  )
        49           H   tau(  49) = (   0.9964745   0.9579657   0.5421977  )
        50           H   tau(  50) = (   0.5031423   0.0409349   2.0319930  )
        51           H   tau(  51) = (   0.4969361   0.5406253   2.4381842  )
        52           H   tau(  52) = (   0.0034524   0.4582183   0.9478800  )
        53           H   tau(  53) = (   0.1774170   0.8239886   0.4956701  )
        54           H   tau(  54) = (   0.3220663   0.1748754   1.9858009  )
        55           H   tau(  55) = (   0.6781849   0.6743171   2.4843754  )
        56           H   tau(  56) = (   0.8223299   0.3244917   0.9943911  )
        57           O   tau(  57) = (   0.3978678   0.1243486   1.0276436  )
        58           O   tau(  58) = (   0.1019385   0.8745454   2.5177202  )
        59           O   tau(  59) = (   0.8981157   0.3755987   1.9522746  )
        60           O   tau(  60) = (   0.6020992   0.6233038   0.4622647  )
        61           C   tau(  61) = (   0.3262791   0.0943373   1.1848927  )
        62           C   tau(  62) = (   0.1736289   0.9045119   2.6749172  )
        63           C   tau(  63) = (   0.8264437   0.4057006   1.7950936  )
        64           C   tau(  64) = (   0.6736426   0.5931726   0.3050334  )
        65           O   tau(  65) = (   0.2616026   0.9558251   1.2244535  )
        66           O   tau(  66) = (   0.2383734   0.0430214   2.7144547  )
        67           O   tau(  67) = (   0.7617352   0.5431122   1.7556235  )
        68           O   tau(  68) = (   0.7382813   0.4556966   0.2655256  )
        69           C   tau(  69) = (   0.3356643   0.2463027   1.3020201  )
        70           C   tau(  70) = (   0.1642621   0.7525542   2.7920256  )
        71           C   tau(  71) = (   0.8357563   0.2537404   1.6779946  )
        72           C   tau(  72) = (   0.6643211   0.7451185   0.1879180  )
        73           C   tau(  73) = (   0.3768776   0.4127366   1.2443083  )
        74           C   tau(  74) = (   0.1231058   0.5861137   2.7343174  )
        75           C   tau(  75) = (   0.8769636   0.0873358   1.7357706  )
        76           C   tau(  76) = (   0.6230649   0.9115117   0.2456823  )
        77           H   tau(  77) = (   0.4053245   0.4357971   1.1090274  )
        78           H   tau(  78) = (   0.0946933   0.5630437   2.5990173  )
        79           H   tau(  79) = (   0.9054240   0.0643479   1.8710858  )
        80           H   tau(  80) = (   0.5945707   0.9344937   0.3809925  )
        81           C   tau(  81) = (   0.3790849   0.5497968   1.3601844  )
        82           C   tau(  82) = (   0.1209203   0.4490709   2.8501899  )
        83           C   tau(  83) = (   0.8791468   0.9491262   1.6199901  )
        84           C   tau(  84) = (   0.6208548   0.0497361   0.1299159  )
        85           H   tau(  85) = (   0.4066456   0.6807038   1.3189713  )
        86           H   tau(  86) = (   0.0933969   0.3181398   2.8089859  )
        87           H   tau(  87) = (   0.9067212   0.8182153   1.6612701  )
        88           H   tau(  88) = (   0.5932498   0.1806270   0.1711976  )
        89           C   tau(  89) = (   0.3399458   0.5173846   1.5322816  )
        90           C   tau(  90) = (   0.1600335   0.4814951   0.0421904  )
        91           C   tau(  91) = (   0.8399629   0.9814075   1.4479020  )
        92           C   tau(  92) = (   0.6600552   0.0174714   2.9379100  )
        93           C   tau(  93) = (   0.2980558   0.3532936   1.5922425  )
        94           C   tau(  94) = (   0.2018703   0.6456004   0.1021638  )
        95           C   tau(  95) = (   0.7980364   0.1466025   1.3878341  )
        96           C   tau(  96) = (   0.7020249   0.8522932   2.8778466  )
        97           H   tau(  97) = (   0.2683128   0.3342688   1.7278202  )
        98           H   tau(  98) = (   0.2315913   0.6646447   0.2377345  )
        99           H   tau(  99) = (   0.7682397   0.1655486   1.2522854  )
       100           H   tau( 100) = (   0.7318226   0.8333595   2.7422959  )
       101           C   tau( 101) = (   0.2967040   0.2174381   1.4760565  )
       102           C   tau( 102) = (   0.2031913   0.7814580   2.9660626  )
       103           C   tau( 103) = (   0.7967389   0.2825424   1.5039639  )
       104           C   tau( 104) = (   0.7033597   0.7163418   0.0138738  )
       105           H   tau( 105) = (   0.2665106   0.0871903   1.5180661  )
       106           H   tau( 106) = (   0.2333318   0.9117141   0.0279566  )
       107           H   tau( 107) = (   0.7665441   0.4127613   1.4619101  )
       108           H   tau( 108) = (   0.7335874   0.5861421   2.9518966  )
       109           N   tau( 109) = (   0.3423184   0.6615974   1.6559462  )
       110           N   tau( 110) = (   0.1576843   0.3372956   0.1658637  )
       111           N   tau( 111) = (   0.8423479   0.8371296   1.3243174  )
       112           N   tau( 112) = (   0.6576391   0.1617738   2.8143448  )
       113           O   tau( 113) = (   0.4123064   0.7971217   1.6110946  )
       114           O   tau( 114) = (   0.0876725   0.2017726   0.1210315  )
       115           O   tau( 115) = (   0.9124328   0.7016660   1.3692326  )
       116           O   tau( 116) = (   0.5875550   0.2972161   2.8592809  )
       117           O   tau( 117) = (   0.2737934   0.6384429   1.7980343  )
       118           O   tau( 118) = (   0.2262378   0.3604528   0.3079321  )
       119           O   tau( 119) = (   0.7737506   0.8601444   1.1822472  )
       120           O   tau( 120) = (   0.7262203   0.1387727   2.6722645  )

     number of k points=     5
                       cart. coord. in units 2pi/alat
        k(    1) = (   0.0000000   0.0000000   0.0000000), wk =   0.2222222
        k(    2) = (   0.0000000   0.3337071   0.0000000), wk =   0.4444444
        k(    3) = (   0.3333333   0.0000000   0.0000000), wk =   0.4444444
        k(    4) = (   0.3333333   0.3337071   0.0000000), wk =   0.4444444
        k(    5) = (  -0.3333333   0.3337071   0.0000000), wk =   0.4444444

     Dense  grid:  1271859 G-vectors     FFT dimensions: (  96,  96, 288)

     Estimated max dynamical RAM per process >    1354.10MB

     Estimated total allocated dynamical RAM >   10832.79MB

     Check: negative/imaginary core charge=   -0.000002    0.000000

     Initial potential from superposition of free atoms

     starting charge  399.99752, renormalised to  400.00000
     Starting wfc are  348 randomized atomic wfcs
     Checking if some PAW data can be deallocated... 

     total cpu time spent up to now is       48.0 secs

     per-process dynamical memory:   799.3 Mb

     Self-consistent Calculation

     iteration #  1     ecut=   100.00 Ry     beta=0.50
     Davidson diagonalization with overlap
     ethr =  1.00E-02,  avg # of iterations =  4.0

     total cpu time spent up to now is      190.8 secs

     total energy              =   -2046.67541871 Ry
     Harris-Foulkes estimate   =   -2053.76253709 Ry
     estimated scf accuracy    <      13.05598316 Ry

     iteration #  2     ecut=   100.00 Ry     beta=0.50
     Davidson diagonalization with overlap
     ethr =  3.26E-03,  avg # of iterations =  2.4

     total cpu time spent up to now is      268.5 secs

     total energy              =   -2047.87905861 Ry
     Harris-Foulkes estimate   =   -2048.96643602 Ry
     estimated scf accuracy    <       2.19488438 Ry

     iteration #  3     ecut=   100.00 Ry     beta=0.50
     Davidson diagonalization with overlap
     ethr =  5.49E-04,  avg # of iterations =  7.2

     total cpu time spent up to now is      425.4 secs

     total energy              =   -2049.10879795 Ry
     Harris-Foulkes estimate   =   -2049.67679679 Ry
     estimated scf accuracy    <       1.41157359 Ry

     iteration #  4     ecut=   100.00 Ry     beta=0.50
     Davidson diagonalization with overlap
     ethr =  3.53E-04,  avg # of iterations =  2.0

     total cpu time spent up to now is      496.0 secs

     total energy              =   -2049.03236306 Ry
     Harris-Foulkes estimate   =   -2049.22762192 Ry
     estimated scf accuracy    <       0.32622076 Ry

     iteration #  5     ecut=   100.00 Ry     beta=0.50
     Davidson diagonalization with overlap
     ethr =  8.16E-05,  avg # of iterations =  5.0

     total cpu time spent up to now is      649.7 secs

     total energy              =   -2049.26678227 Ry
     Harris-Foulkes estimate   =   -2049.41586765 Ry
     estimated scf accuracy    <       0.42958675 Ry

     iteration #  6     ecut=   100.00 Ry     beta=0.50
     Davidson diagonalization with overlap
     ethr =  8.16E-05,  avg # of iterations =  1.0

     total cpu time spent up to now is      718.0 secs

     total energy              =   -2049.22324125 Ry
     Harris-Foulkes estimate   =   -2049.28414020 Ry
     estimated scf accuracy    <       0.16769736 Ry

     iteration #  7     ecut=   100.00 Ry     beta=0.50
     Davidson diagonalization with overlap
     ethr =  4.19E-05,  avg # of iterations =  4.0

     total cpu time spent up to now is      824.7 secs

     total energy              =   -2049.27898913 Ry
     Harris-Foulkes estimate   =   -2049.28082673 Ry
     estimated scf accuracy    <       0.00843521 Ry

     iteration #  8     ecut=   100.00 Ry     beta=0.50
     Davidson diagonalization with overlap
     ethr =  2.11E-06,  avg # of iterations =  9.0

     total cpu time spent up to now is      986.3 secs

     total energy              =   -2049.27880711 Ry
     Harris-Foulkes estimate   =   -2049.28370453 Ry
     estimated scf accuracy    <       0.01188702 Ry

     iteration #  9     ecut=   100.00 Ry     beta=0.50
     Davidson diagonalization with overlap
     ethr =  2.11E-06,  avg # of iterations =  2.0

     total cpu time spent up to now is     1056.7 secs

     total energy              =   -2049.27800623 Ry
     Harris-Foulkes estimate   =   -2049.27945171 Ry
     estimated scf accuracy    <       0.00333423 Ry

     iteration # 10     ecut=   100.00 Ry     beta=0.50
     Davidson diagonalization with overlap
     ethr =  8.34E-07,  avg # of iterations =  4.0

     total cpu time spent up to now is     1178.0 secs

     total energy              =   -2049.28012758 Ry
     Harris-Foulkes estimate   =   -2049.28033133 Ry
     estimated scf accuracy    <       0.00072482 Ry

     iteration # 11     ecut=   100.00 Ry     beta=0.50
     Davidson diagonalization with overlap
     ethr =  1.81E-07,  avg # of iterations =  1.0

     total cpu time spent up to now is     1246.6 secs

     total energy              =   -2049.28006174 Ry
     Harris-Foulkes estimate   =   -2049.28016388 Ry
     estimated scf accuracy    <       0.00031486 Ry

     iteration # 12     ecut=   100.00 Ry     beta=0.50
     Davidson diagonalization with overlap
     ethr =  7.87E-08,  avg # of iterations =  3.0

     total cpu time spent up to now is     1336.1 secs

     total energy              =   -2049.28012356 Ry
     Harris-Foulkes estimate   =   -2049.28013025 Ry
     estimated scf accuracy    <       0.00002230 Ry

     iteration # 13     ecut=   100.00 Ry     beta=0.50
     Davidson diagonalization with overlap
     ethr =  5.58E-09,  avg # of iterations =  4.0

     total cpu time spent up to now is     1452.6 secs

     total energy              =   -2049.28013193 Ry
     Harris-Foulkes estimate   =   -2049.28013273 Ry
     estimated scf accuracy    <       0.00000295 Ry

     iteration # 14     ecut=   100.00 Ry     beta=0.50
     Davidson diagonalization with overlap
     ethr =  7.37E-10,  avg # of iterations =  2.2

     total cpu time spent up to now is     1526.2 secs

     total energy              =   -2049.28013183 Ry
     Harris-Foulkes estimate   =   -2049.28013228 Ry
     estimated scf accuracy    <       0.00000091 Ry

     iteration # 15     ecut=   100.00 Ry     beta=0.50
     Davidson diagonalization with overlap
     ethr =  2.28E-10,  avg # of iterations =  4.0

     total cpu time spent up to now is     1650.8 secs

     total energy              =   -2049.28013223 Ry
     Harris-Foulkes estimate   =   -2049.28013235 Ry
     estimated scf accuracy    <       0.00000038 Ry

     iteration # 16     ecut=   100.00 Ry     beta=0.50
     Davidson diagonalization with overlap
     ethr =  9.41E-11,  avg # of iterations =  1.0

     total cpu time spent up to now is     1719.2 secs

     total energy              =   -2049.28013219 Ry
     Harris-Foulkes estimate   =   -2049.28013225 Ry
     estimated scf accuracy    <       0.00000015 Ry

     iteration # 17     ecut=   100.00 Ry     beta=0.50
     Davidson diagonalization with overlap
     ethr =  3.64E-11,  avg # of iterations =  4.0

     total cpu time spent up to now is     1841.0 secs

     total energy              =   -2049.28013225 Ry
     Harris-Foulkes estimate   =   -2049.28013226 Ry
     estimated scf accuracy    <       0.00000004 Ry

     iteration # 18     ecut=   100.00 Ry     beta=0.50
     Davidson diagonalization with overlap
     ethr =  9.54E-12,  avg # of iterations =  1.8

     total cpu time spent up to now is     1911.0 secs

     total energy              =   -2049.28013225 Ry
     Harris-Foulkes estimate   =   -2049.28013226 Ry
     estimated scf accuracy    <       0.00000003 Ry

     iteration # 19     ecut=   100.00 Ry     beta=0.50
     Davidson diagonalization with overlap
     ethr =  6.28E-12,  avg # of iterations =  3.0

     total cpu time spent up to now is     2000.0 secs

     End of self-consistent calculation

          k = 0.0000 0.0000 0.0000 (158859 PWs)   bands (ev):

   -25.2782 -25.2778 -25.2758 -25.2753 -22.5199 -22.5186 -22.5043 -22.5030
   -22.1281 -22.1272 -22.1178 -22.1170 -20.8386 -20.8384 -20.8383 -20.8379
   -20.2011 -20.2006 -20.1841 -20.1838 -20.1098 -20.1095 -20.1058 -20.1044
   -16.6375 -16.6370 -16.6004 -16.5997 -14.8862 -14.8852 -14.8785 -14.8709
   -14.4652 -14.4590 -14.4565 -14.4396 -13.6070 -13.5869 -13.5759 -13.5571
   -13.4807 -13.4688 -13.4653 -13.4645 -12.3019 -12.2878 -12.2585 -12.2521
   -11.0806 -11.0627 -11.0217 -11.0205 -10.1773 -10.1624 -10.1413 -10.1265
    -9.9798  -9.9578  -9.9502  -9.9491  -9.4841  -9.4601  -9.4507  -9.4278
    -8.7308  -8.7166  -8.6691  -8.6440  -8.5740  -8.5699  -8.5215  -8.5160
    -8.2864  -8.2579  -8.2374  -8.2217  -7.6720  -7.6694  -7.6020  -7.6010
    -7.4555  -7.4410  -7.4339  -7.4257  -7.1553  -7.1199  -7.1066  -7.0995
    -7.0640  -7.0576  -7.0492  -7.0283  -6.6067  -6.5736  -6.5507  -6.5435
    -6.2837  -6.2796  -6.2646  -6.2608  -5.8762  -5.8757  -5.8295  -5.8045
    -5.7852  -5.7726  -5.7459  -5.7415  -5.6641  -5.6279  -5.6197  -5.6002
    -5.5531  -5.5405  -5.5348  -5.5336  -5.1710  -5.1531  -5.1523  -5.1520
    -4.9473  -4.9191  -4.8577  -4.8542  -4.7926  -4.7338  -4.7190  -4.6292
    -4.5246  -4.4664  -4.4334  -4.4331  -4.1631  -4.1623  -4.1604  -4.1563
    -4.1060  -4.0591  -3.9057  -3.8648  -3.8543  -3.8523  -3.8480  -3.8361
    -3.7074  -3.6553  -3.6194  -3.5680  -3.4446  -3.4063  -3.3955  -3.3816
    -3.2126  -3.1437  -3.1379  -3.0867  -2.9591  -2.9480  -2.8770  -2.8337
    -2.7769  -2.7564  -2.6984  -2.6957  -2.2129  -2.2080  -2.1634  -2.1624
    -2.0557  -2.0261  -2.0194  -2.0110  -1.7505  -1.7494  -1.7062  -1.7056
    -1.7038  -1.6723  -1.6355  -1.6196  -1.6167  -1.6010  -1.5473  -1.5472
    -1.3142  -1.3117  -1.2853  -1.2792  -1.1897  -1.1783  -1.1684  -1.1623
    -1.1110  -1.1060  -1.1021  -1.0989  -0.9695  -0.9632  -0.9498  -0.9441
     1.9434   1.9443   1.9660   1.9671   3.4046   3.4084   3.4334   3.4376
     3.8104   3.8115   3.8581   3.8590   3.8830   3.8889   3.9775   3.9870
     5.1090   5.3322   5.3519   5.4811   5.5018   5.6118   5.6259   5.9304
     6.1513   6.2360   6.4633   6.5781   6.6181   6.7126   6.7583   6.8910
     6.9101   6.9557   7.0197   7.1002   7.2041   7.3096   7.3171   7.3220

          k = 0.0000 0.3337 0.0000 (159055 PWs)   bands (ev):

   -25.2782 -25.2778 -25.2758 -25.2753 -22.5159 -22.5146 -22.5081 -22.5068
   -22.1256 -22.1248 -22.1205 -22.1197 -20.8387 -20.8384 -20.8384 -20.8379
   -20.1969 -20.1963 -20.1882 -20.1879 -20.1090 -20.1089 -20.1068 -20.1050
   -16.6444 -16.6441 -16.6019 -16.6015 -14.8811 -14.8800 -14.8732 -14.8689
   -14.4597 -14.4565 -14.4478 -14.4395 -13.5931 -13.5873 -13.5796 -13.5673
   -13.4771 -13.4713 -13.4555 -13.4531 -12.2920 -12.2820 -12.2552 -12.2493
   -11.0758 -11.0631 -11.0396 -11.0351 -10.1726 -10.1660 -10.1549 -10.1500
    -9.9784  -9.9717  -9.9688  -9.9545  -9.5029  -9.4818  -9.4799  -9.4586
    -8.7479  -8.7271  -8.7064  -8.6941  -8.5642  -8.5503  -8.5383  -8.5255
    -8.2095  -8.2063  -8.2030  -8.1688  -7.6651  -7.6642  -7.6238  -7.6207
    -7.4862  -7.4758  -7.4571  -7.4504  -7.1629  -7.1416  -7.0962  -7.0835
    -7.0741  -7.0725  -7.0063  -7.0006  -6.5976  -6.5716  -6.5684  -6.5558
    -6.2467  -6.2447  -6.2303  -6.2250  -5.8557  -5.8553  -5.8497  -5.8279
    -5.8246  -5.7838  -5.7793  -5.7724  -5.6121  -5.5867  -5.5759  -5.5560
    -5.5130  -5.4995  -5.4600  -5.4596  -5.2047  -5.1909  -5.1527  -5.1460
    -4.8980  -4.8384  -4.8363  -4.8013  -4.7731  -4.7621  -4.7451  -4.6791
    -4.5010  -4.4607  -4.4563  -4.4551  -4.2300  -4.2242  -4.1480  -4.1334
    -4.1096  -4.0862  -3.8886  -3.8619  -3.8543  -3.8421  -3.8269  -3.8245
    -3.6607  -3.6224  -3.5912  -3.5670  -3.4648  -3.4621  -3.4181  -3.4004
    -3.2060  -3.1871  -3.1862  -3.1336  -2.9615  -2.9437  -2.9001  -2.8835
    -2.7860  -2.7604  -2.7521  -2.7471  -2.1984  -2.1955  -2.1512  -2.1503
    -2.0302  -2.0203  -2.0156  -2.0135  -1.7298  -1.7286  -1.7101  -1.7098
    -1.6809  -1.6691  -1.6392  -1.6315  -1.6235  -1.6139  -1.5406  -1.5387
    -1.3182  -1.3168  -1.2697  -1.2627  -1.2154  -1.2125  -1.1844  -1.1755
    -1.1716  -1.1654  -1.0982  -1.0975  -0.9590  -0.9571  -0.9516  -0.9418
     1.8410   1.8424   1.9839   1.9846   3.4349   3.4382   3.4802   3.4817
     3.8445   3.8451   3.8569   3.8616   3.9022   3.9218   3.9287   3.9480
     5.3329   5.4458   5.4883   5.5698   5.5761   5.5805   5.6344   5.8677
     6.0666   6.2760   6.3102   6.3428   6.4719   6.5282   6.7512   6.8173
     6.8670   6.8995   6.9407   7.0007   7.0802   7.2835   7.3549   7.4214

          k = 0.3333 0.0000 0.0000 (159043 PWs)   bands (ev):

   -25.2776 -25.2772 -25.2764 -25.2759 -22.5198 -22.5185 -22.5043 -22.5030
   -22.1280 -22.1272 -22.1178 -22.1169 -20.8386 -20.8384 -20.8383 -20.8379
   -20.2015 -20.2010 -20.1844 -20.1841 -20.1099 -20.1095 -20.1059 -20.1044
   -16.6282 -16.6277 -16.6096 -16.6090 -14.8860 -14.8817 -14.8804 -14.8739
   -14.4688 -14.4683 -14.4437 -14.4380 -13.5998 -13.5898 -13.5681 -13.5590
   -13.4760 -13.4697 -13.4651 -13.4641 -12.2986 -12.2915 -12.2566 -12.2534
   -11.0813 -11.0728 -11.0207 -11.0196 -10.1796 -10.1726 -10.1413 -10.1344
    -9.9744  -9.9624  -9.9532  -9.9516  -9.4763  -9.4642  -9.4460  -9.4346
    -8.7267  -8.7188  -8.6609  -8.6503  -8.5748  -8.5740  -8.5263  -8.5211
    -8.2845  -8.2718  -8.2310  -8.2228  -7.6500  -7.6492  -7.6156  -7.6144
    -7.4533  -7.4449  -7.4300  -7.4260  -7.1545  -7.1286  -7.1158  -7.1055
    -7.0671  -7.0549  -7.0434  -7.0327  -6.6169  -6.5986  -6.5426  -6.5403
    -6.2809  -6.2747  -6.2721  -6.2652  -5.8658  -5.8651  -5.8310  -5.8210
    -5.7786  -5.7768  -5.7437  -5.7384  -5.6461  -5.6228  -5.6163  -5.6055
    -5.5665  -5.5497  -5.5272  -5.5260  -5.1698  -5.1567  -5.1514  -5.1510
    -4.9242  -4.9216  -4.8392  -4.8265  -4.7567  -4.7294  -4.6745  -4.6261
    -4.4599  -4.4279  -4.4135  -4.4039  -4.1695  -4.1681  -4.1576  -4.1572
    -4.0532  -4.0190  -3.9503  -3.9174  -3.8875  -3.8834  -3.8673  -3.8453
    -3.7100  -3.6904  -3.6164  -3.5948  -3.4381  -3.4219  -3.3989  -3.3960
    -3.2056  -3.1775  -3.1107  -3.0945  -2.9576  -2.9532  -2.8559  -2.8364
    -2.7802  -2.7698  -2.7173  -2.7162  -2.2019  -2.1876  -2.1758  -2.1666
    -2.0489  -2.0373  -2.0253  -2.0216  -1.7393  -1.7345  -1.7061  -1.7037
    -1.6928  -1.6744  -1.6478  -1.6426  -1.6118  -1.5975  -1.5713  -1.5654
    -1.3139  -1.3100  -1.2979  -1.2917  -1.1694  -1.1645  -1.1629  -1.1591
    -1.1261  -1.1224  -1.1200  -1.1197  -0.9616  -0.9595  -0.9442  -0.9414
     1.9442   1.9451   1.9565   1.9571   3.4136   3.4171   3.4299   3.4318
     3.8089   3.8110   3.8403   3.8420   3.8533   3.8549   3.9934   3.9965
     5.3324   5.4758   5.5043   5.5221   5.5690   5.6047   5.6736   5.9093
     6.0678   6.0766   6.3446   6.3882   6.5487   6.6144   6.7690   6.8197
     6.9008   6.9444   7.0277   7.0329   7.1657   7.1764   7.3037   7.3100

          k = 0.3333 0.3337 0.0000 (158875 PWs)   bands (ev):

   -25.2776 -25.2772 -25.2764 -25.2759 -22.5158 -22.5145 -22.5080 -22.5067
   -22.1256 -22.1247 -22.1204 -22.1196 -20.8386 -20.8384 -20.8384 -20.8379
   -20.1973 -20.1967 -20.1885 -20.1882 -20.1090 -20.1089 -20.1069 -20.1051
   -16.6338 -16.6335 -16.6126 -16.6122 -14.8804 -14.8781 -14.8745 -14.8710
   -14.4606 -14.4585 -14.4438 -14.4396 -13.5890 -13.5860 -13.5736 -13.5675
   -13.4747 -13.4717 -13.4539 -13.4527 -12.2876 -12.2819 -12.2559 -12.2524
   -11.0758 -11.0694 -11.0400 -11.0375 -10.1771 -10.1734 -10.1592 -10.1563
    -9.9767  -9.9735  -9.9673  -9.9600  -9.4963  -9.4851  -9.4767  -9.4654
    -8.7410  -8.7318  -8.7022  -8.6972  -8.5643  -8.5594  -8.5355  -8.5313
    -8.2133  -8.2084  -8.1888  -8.1741  -7.6550  -7.6539  -7.6339  -7.6313
    -7.4798  -7.4694  -7.4642  -7.4562  -7.1592  -7.1456  -7.0940  -7.0861
    -7.0781  -7.0732  -7.0092  -7.0063  -6.5996  -6.5845  -6.5644  -6.5568
    -6.2501  -6.2486  -6.2353  -6.2322  -5.8555  -5.8515  -5.8396  -5.8281
    -5.8114  -5.7935  -5.7733  -5.7693  -5.5997  -5.5936  -5.5831  -5.5724
    -5.4973  -5.4871  -5.4664  -5.4592  -5.1963  -5.1864  -5.1501  -5.1444
    -4.8709  -4.8367  -4.7970  -4.7774  -4.7474  -4.7407  -4.7256  -4.6891
    -4.4602  -4.4347  -4.4312  -4.4284  -4.2341  -4.2314  -4.1553  -4.1490
    -4.0520  -4.0343  -3.9348  -3.9110  -3.8705  -3.8696  -3.8642  -3.8485
    -3.6644  -3.6498  -3.5977  -3.5870  -3.4650  -3.4552  -3.4287  -3.4142
    -3.2032  -3.1929  -3.1631  -3.1415  -2.9555  -2.9459  -2.8839  -2.8796
    -2.7895  -2.7737  -2.7616  -2.7586  -2.1863  -2.1841  -2.1637  -2.1620
    -2.0348  -2.0288  -2.0209  -2.0178  -1.7279  -1.7190  -1.7113  -1.7060
    -1.6867  -1.6798  -1.6542  -1.6473  -1.6023  -1.6006  -1.5526  -1.5516
    -1.3191  -1.3170  -1.2902  -1.2854  -1.2083  -1.2061  -1.1931  -1.1864
    -1.1572  -1.1524  -1.1235  -1.1206  -0.9509  -0.9488  -0.9406  -0.9371
     1.8749   1.8762   1.9463   1.9471   3.4421   3.4450   3.4665   3.4676
     3.8351   3.8399   3.8505   3.8629   3.8737   3.8890   3.9402   3.9464
     5.4538   5.4742   5.5291   5.5310   5.5862   5.7028   5.8777   5.9736
     6.0833   6.2367   6.2491   6.4157   6.4981   6.5914   6.6562   6.6703
     6.6912   6.8757   6.9829   7.0186   7.0686   7.1639   7.1807   7.3151

          k =-0.3333 0.3337 0.0000 (158875 PWs)   bands (ev):

   -25.2776 -25.2772 -25.2764 -25.2759 -22.5158 -22.5145 -22.5080 -22.5067
   -22.1256 -22.1247 -22.1204 -22.1196 -20.8386 -20.8384 -20.8384 -20.8379
   -20.1973 -20.1967 -20.1885 -20.1882 -20.1090 -20.1089 -20.1069 -20.1051
   -16.6339 -16.6335 -16.6126 -16.6122 -14.8802 -14.8785 -14.8742 -14.8712
   -14.4606 -14.4585 -14.4437 -14.4397 -13.5890 -13.5860 -13.5736 -13.5675
   -13.4747 -13.4718 -13.4538 -13.4527 -12.2876 -12.2820 -12.2559 -12.2524
   -11.0759 -11.0693 -11.0404 -11.0372 -10.1769 -10.1736 -10.1587 -10.1566
    -9.9768  -9.9733  -9.9675  -9.9600  -9.4963  -9.4852  -9.4765  -9.4655
    -8.7410  -8.7318  -8.7022  -8.6972  -8.5644  -8.5592  -8.5357  -8.5311
    -8.2133  -8.2084  -8.1888  -8.1741  -7.6549  -7.6538  -7.6339  -7.6313
    -7.4798  -7.4694  -7.4642  -7.4562  -7.1591  -7.1456  -7.0941  -7.0861
    -7.0779  -7.0733  -7.0090  -7.0065  -6.5996  -6.5846  -6.5644  -6.5568
    -6.2501  -6.2487  -6.2353  -6.2323  -5.8554  -5.8516  -5.8394  -5.8282
    -5.8118  -5.7933  -5.7734  -5.7691  -5.5994  -5.5939  -5.5833  -5.5723
    -5.4973  -5.4873  -5.4661  -5.4594  -5.1963  -5.1865  -5.1501  -5.1444
    -4.8707  -4.8369  -4.7974  -4.7771  -4.7479  -4.7400  -4.7261  -4.6889
    -4.4602  -4.4347  -4.4309  -4.4286  -4.2341  -4.2315  -4.1553  -4.1490
    -4.0522  -4.0341  -3.9348  -3.9111  -3.8700  -3.8695  -3.8646  -3.8487
    -3.6647  -3.6494  -3.5978  -3.5868  -3.4647  -3.4553  -3.4291  -3.4139
    -3.2031  -3.1930  -3.1634  -3.1413  -2.9555  -2.9458  -2.8840  -2.8795
    -2.7897  -2.7735  -2.7617  -2.7585  -2.1863  -2.1841  -2.1638  -2.1620
    -2.0346  -2.0288  -2.0212  -2.0176  -1.7280  -1.7186  -1.7116  -1.7061
    -1.6869  -1.6794  -1.6543  -1.6472  -1.6023  -1.6006  -1.5525  -1.5516
    -1.3191  -1.3170  -1.2902  -1.2854  -1.2082  -1.2060  -1.1933  -1.1865
    -1.1571  -1.1522  -1.1236  -1.1207  -0.9507  -0.9487  -0.9408  -0.9372
     1.8749   1.8761   1.9463   1.9471   3.4421   3.4450   3.4664   3.4676
     3.8350   3.8399   3.8503   3.8628   3.8740   3.8892   3.9401   3.9464
     5.4536   5.4741   5.5291   5.5313   5.5862   5.7027   5.8775   5.9734
     6.0834   6.2371   6.2495   6.4150   6.4980   6.5916   6.6564   6.6705
     6.6909   6.8762   6.9836   7.0182   7.0683   7.1636   7.1808   7.3152

     highest occupied, lowest unoccupied level (ev):    -0.9371    1.8410

!    total energy              =   -2049.28013225 Ry
     Harris-Foulkes estimate   =   -2049.28013225 Ry
     estimated scf accuracy    <          6.4E-09 Ry

     total all-electron energy =     -7759.477432 Ry

     The total energy is the sum of the following terms:

     one-electron contribution =   -1417.92608642 Ry
     hartree contribution      =     849.58459709 Ry
     xc contribution           =    -428.25286273 Ry
     ewald contribution        =    -471.32088546 Ry
     Dispersion Correction     =      -0.41379586 Ry
     one-center paw contrib.   =    -580.95109887 Ry

     convergence has been achieved in  19 iterations

     Forces acting on atoms (cartesian axes, Ry/au):

     atom    1 type  1   force =     0.00066450   -0.00170535    0.00074981
     atom    2 type  1   force =    -0.00130479    0.00170805    0.00070409
     atom    3 type  1   force =     0.00143301    0.00175883   -0.00069558
     atom    4 type  1   force =    -0.00137957   -0.00172327   -0.00068799
     atom    5 type  4   force =     0.00105151    0.00135057    0.00158771
     atom    6 type  4   force =    -0.00105444   -0.00139869    0.00163618
     atom    7 type  4   force =     0.00104410   -0.00140168   -0.00163975
     atom    8 type  4   force =    -0.00103062    0.00133889   -0.00163360
     atom    9 type  1   force =    -0.00028328    0.00081844    0.00075226
     atom   10 type  1   force =     0.00031060   -0.00081486    0.00071350
     atom   11 type  1   force =    -0.00031624   -0.00089655   -0.00071731
     atom   12 type  1   force =     0.00032948    0.00088334   -0.00073529
     atom   13 type  3   force =     0.00029866   -0.00004835    0.00008552
     atom   14 type  3   force =    -0.00024393    0.00009207    0.00008133
     atom   15 type  3   force =     0.00024308    0.00012292   -0.00006950
     atom   16 type  3   force =    -0.00030767   -0.00007881   -0.00006965
     atom   17 type  1   force =    -0.00024950    0.00020135   -0.00006803
     atom   18 type  1   force =     0.00030797   -0.00019254   -0.00005317
     atom   19 type  1   force =    -0.00027490   -0.00006572    0.00007150
     atom   20 type  1   force =     0.00026931    0.00010857    0.00006723
     atom   21 type  3   force =    -0.00047441    0.00016581    0.00041491
     atom   22 type  3   force =     0.00049038   -0.00013330    0.00041027
     atom   23 type  3   force =    -0.00049658   -0.00013299   -0.00041054
     atom   24 type  3   force =     0.00047316    0.00015043   -0.00041070
     atom   25 type  3   force =     0.00010963    0.00006307    0.00027578
     atom   26 type  3   force =    -0.00014305   -0.00008244    0.00023806
     atom   27 type  3   force =     0.00012928   -0.00009634   -0.00024175
     atom   28 type  3   force =    -0.00012016    0.00006148   -0.00026570
     atom   29 type  1   force =    -0.00016289   -0.00007077    0.00001242
     atom   30 type  1   force =     0.00019443    0.00011485    0.00004440
     atom   31 type  1   force =    -0.00020864    0.00003532   -0.00002547
     atom   32 type  1   force =     0.00018606   -0.00006519   -0.00006833
     atom   33 type  3   force =    -0.00001100   -0.00015808   -0.00017811
     atom   34 type  3   force =     0.00001011    0.00012404   -0.00022017
     atom   35 type  3   force =     0.00000058    0.00015910    0.00022677
     atom   36 type  3   force =     0.00002344   -0.00014872    0.00021713
     atom   37 type  4   force =    -0.00172621    0.00079052   -0.00224676
     atom   38 type  4   force =     0.00212107   -0.00077061   -0.00225753
     atom   39 type  4   force =    -0.00223455   -0.00076443    0.00225614
     atom   40 type  4   force =     0.00235331    0.00075461    0.00223478
     atom   41 type  1   force =     0.00058359   -0.00032510    0.00003661
     atom   42 type  1   force =    -0.00065571    0.00035981    0.00002641
     atom   43 type  1   force =     0.00065860    0.00038401   -0.00000657
     atom   44 type  1   force =    -0.00057420   -0.00035174   -0.00003925
     atom   45 type  3   force =     0.00023659   -0.00008933   -0.00053264
     atom   46 type  3   force =    -0.00017729    0.00007633   -0.00055832
     atom   47 type  3   force =     0.00017839    0.00005857    0.00056280
     atom   48 type  3   force =    -0.00024292   -0.00006315    0.00055230
     atom   49 type  3   force =    -0.00022910   -0.00022644    0.00063090
     atom   50 type  3   force =     0.00022747    0.00020984    0.00065244
     atom   51 type  3   force =    -0.00023859    0.00018528   -0.00064733
     atom   52 type  3   force =     0.00023668   -0.00020699   -0.00062041
     atom   53 type  3   force =     0.00046914    0.00021607    0.00037220
     atom   54 type  3   force =    -0.00039689   -0.00020938    0.00033415
     atom   55 type  3   force =     0.00037577   -0.00021485   -0.00029396
     atom   56 type  3   force =    -0.00045046    0.00023631   -0.00033227
     atom   57 type  4   force =    -0.00003243    0.00015197    0.00030162
     atom   58 type  4   force =     0.00005165   -0.00017643    0.00030001
     atom   59 type  4   force =    -0.00004125   -0.00015736   -0.00033857
     atom   60 type  4   force =    -0.00000694    0.00021053   -0.00031770
     atom   61 type  1   force =     0.00046644   -0.00039107   -0.00120219
     atom   62 type  1   force =    -0.00031005    0.00076954   -0.00111838
     atom   63 type  1   force =     0.00036096    0.00049580    0.00119763
     atom   64 type  1   force =    -0.00004819   -0.00124968    0.00105871
     atom   65 type  4   force =     0.00078229   -0.00066765    0.00233652
     atom   66 type  4   force =    -0.00093343    0.00032676    0.00225962
     atom   67 type  4   force =     0.00086488    0.00050414   -0.00231134
     atom   68 type  4   force =    -0.00117599    0.00018098   -0.00211737
     atom   69 type  1   force =    -0.00058300    0.00210029   -0.00172376
     atom   70 type  1   force =     0.00063304   -0.00200772   -0.00158257
     atom   71 type  1   force =    -0.00061399   -0.00205246    0.00154097
     atom   72 type  1   force =     0.00063660    0.00203614    0.00141518
     atom   73 type  1   force =    -0.00120817   -0.00061327    0.00023553
     atom   74 type  1   force =     0.00117136    0.00065908   -0.00004207
     atom   75 type  1   force =    -0.00114397    0.00080199    0.00029713
     atom   76 type  1   force =     0.00111567   -0.00069737    0.00034259
     atom   77 type  3   force =     0.00070806   -0.00016287   -0.00015107
     atom   78 type  3   force =    -0.00068901    0.00018034   -0.00001518
     atom   79 type  3   force =     0.00067389    0.00017965   -0.00010432
     atom   80 type  3   force =    -0.00066278   -0.00018657   -0.00010048
     atom   81 type  1   force =     0.00031594   -0.00218584   -0.00112609
     atom   82 type  1   force =    -0.00035184    0.00189983   -0.00108259
     atom   83 type  1   force =     0.00042271    0.00146319    0.00115816
     atom   84 type  1   force =    -0.00035990   -0.00166136    0.00096975
     atom   85 type  3   force =     0.00037152    0.00105420   -0.00159296
     atom   86 type  3   force =    -0.00034348   -0.00093747   -0.00156606
     atom   87 type  3   force =     0.00032633   -0.00080893    0.00152976
     atom   88 type  3   force =    -0.00035479    0.00091788    0.00157524
     atom   89 type  1   force =     0.00070507   -0.00174527    0.00006862
     atom   90 type  1   force =    -0.00067211    0.00184168    0.00018702
     atom   91 type  1   force =     0.00056487    0.00219572   -0.00051944
     atom   92 type  1   force =    -0.00061946   -0.00207983   -0.00028725
     atom   93 type  1   force =     0.00066280   -0.00004876    0.00160379
     atom   94 type  1   force =    -0.00069194    0.00010010    0.00140432
     atom   95 type  1   force =     0.00078996   -0.00003182   -0.00100353
     atom   96 type  1   force =    -0.00077720   -0.00004752   -0.00102175
     atom   97 type  3   force =    -0.00010585   -0.00026353   -0.00006153
     atom   98 type  3   force =     0.00012198    0.00025719    0.00002331
     atom   99 type  3   force =    -0.00014880    0.00028547   -0.00019970
     atom  100 type  3   force =     0.00015495   -0.00029348   -0.00019783
     atom  101 type  1   force =    -0.00089264    0.00015305    0.00075488
     atom  102 type  1   force =     0.00086957   -0.00038637    0.00079862
     atom  103 type  1   force =    -0.00087326   -0.00057467   -0.00092534
     atom  104 type  1   force =     0.00082376    0.00063628   -0.00079725
     atom  105 type  3   force =    -0.00029111   -0.00094160    0.00110189
     atom  106 type  3   force =     0.00031575    0.00102066    0.00114534
     atom  107 type  3   force =    -0.00031942    0.00106465   -0.00115108
     atom  108 type  3   force =     0.00032889   -0.00111606   -0.00114391
     atom  109 type  2   force =    -0.00028645    0.00012886    0.00157420
     atom  110 type  2   force =     0.00023296   -0.00019405    0.00150757
     atom  111 type  2   force =    -0.00021331   -0.00030611   -0.00145856
     atom  112 type  2   force =     0.00027969    0.00009043   -0.00149147
     atom  113 type  4   force =    -0.00062965    0.00090314   -0.00188065
     atom  114 type  4   force =     0.00065155   -0.00088976   -0.00186350
     atom  115 type  4   force =    -0.00067891   -0.00081591    0.00179920
     atom  116 type  4   force =     0.00059394    0.00098012    0.00185281
     atom  117 type  4   force =    -0.00038456    0.00017560   -0.00093114
     atom  118 type  4   force =     0.00039958   -0.00017243   -0.00087134
     atom  119 type  4   force =    -0.00040774   -0.00012838    0.00087838
     atom  120 type  4   force =     0.00043264    0.00013359    0.00085766

     Total force =     0.016662     Total SCF correction =     0.000178


     Computing stress (Cartesian axis) and pressure

          total   stress  (Ry/bohr**3)                   (kbar)     P=   -6.39
  -0.00006234   0.00000009   0.00000000         -9.17      0.01      0.00
   0.00000009  -0.00004333  -0.00000005          0.01     -6.37     -0.01
   0.00000000  -0.00000005  -0.00002464          0.00     -0.01     -3.62


     Writing output data file scf.save
 
     init_run     :     45.49s CPU     47.47s WALL (       1 calls)
     electrons    :   1869.30s CPU   1952.10s WALL (       1 calls)
     forces       :     21.98s CPU     22.32s WALL (       1 calls)
     stress       :    180.35s CPU    180.78s WALL (       1 calls)

     Called by init_run:
     wfcinit      :     37.03s CPU     38.85s WALL (       1 calls)
     potinit      :      2.90s CPU      2.92s WALL (       1 calls)

     Called by electrons:
     c_bands      :   1672.27s CPU   1742.76s WALL (      19 calls)
     sum_band     :    177.38s CPU    187.14s WALL (      19 calls)
     v_of_rho     :      3.35s CPU      3.65s WALL (      20 calls)
     newd         :      7.09s CPU      9.32s WALL (      20 calls)
     PAW_pot      :      8.35s CPU      8.36s WALL (      20 calls)
     mix_rho      :      0.97s CPU      1.02s WALL (      19 calls)

     Called by c_bands:
     init_us_2    :     10.82s CPU     10.88s WALL (     205 calls)
     cegterg      :   1627.05s CPU   1697.47s WALL (      95 calls)

     Called by sum_band:
     sum_band:bec :      0.08s CPU      0.08s WALL (      95 calls)
     addusdens    :      7.88s CPU     10.06s WALL (      19 calls)

     Called by *egterg:
     h_psi        :    896.60s CPU    949.96s WALL (     423 calls)
     s_psi        :    175.03s CPU    175.05s WALL (     423 calls)
     g_psi        :      5.32s CPU      5.32s WALL (     323 calls)
     cdiaghg      :     79.51s CPU     79.67s WALL (     418 calls)

     Called by h_psi:
     h_psi:pot    :    889.42s CPU    942.66s WALL (     423 calls)
     h_psi:calbec :    179.90s CPU    180.28s WALL (     423 calls)
     vloc_psi     :    534.57s CPU    587.40s WALL (     423 calls)
     add_vuspsi   :    174.94s CPU    174.97s WALL (     423 calls)

     General routines
     calbec       :    265.86s CPU    266.41s WALL (     543 calls)
     fft          :      5.87s CPU      6.37s WALL (     284 calls)
     fftw         :    576.10s CPU    636.21s WALL (  154182 calls)
 
     Parallel routines
     fft_scatter  :    169.44s CPU    229.73s WALL (  154466 calls)
 
     PWSCF        : 35m28.01s CPU    37m39.00s WALL

 
   This run was terminated on:  22:43: 0  14Dec2017            

=------------------------------------------------------------------------------=
   JOB DONE.
=------------------------------------------------------------------------------=
