
     Program PWSCF v.6.1 (svn rev. 13369) starts on  4Nov2017 at  5:40: 6 

     This program is part of the open-source Quantum ESPRESSO suite
     for quantum simulation of materials; please cite
         "P. Giannozzi et al., J. Phys.:Condens. Matter 21 395502 (2009);
          URL http://www.quantum-espresso.org", 
     in publications or presentations arising from this work. More details at
     http://www.quantum-espresso.org/quote

     Parallel version (MPI), running on     8 processors
     R & G space division:  proc/nbgrp/npool/nimage =       8
     Waiting for input...
     Reading input from standard input

     Current dimensions of program PWSCF are:
     Max number of different atomic species (ntypx) = 10
     Max number of k-points (npk) =  40000
     Max angular momentum in pseudopotentials (lmaxx) =  3
               file C.pbe-n-kjpaw_psl.0.1.UPF: wavefunction(s)  2P renormalized
               file N.pbe-n-kjpaw_psl.0.1.UPF: wavefunction(s)  2P renormalized
               file H.pbe-kjpaw_psl.0.1.UPF: wavefunction(s)  1S renormalized
               file O.pbe-n-kjpaw_psl.0.1.UPF: wavefunction(s)  2P renormalized

     -------------------------------------
     Parameters for Dispersion Correction:
     -------------------------------------
       atom      VdW radius       C_6     

        C          2.744         60.710
        N          2.640         42.670
        H          1.892          4.857
        O          2.536         24.284

     Subspace diagonalization in iterative solution of the eigenvalue problem:
     a serial algorithm will be used

 
     Parallelization info
     --------------------
     sticks:   dense  smooth     PW     G-vecs:    dense   smooth      PW
     Min        1637    1637    430               145699   145699   19700
     Max        1638    1638    431               145702   145702   19703
     Sum       13097   13097   3447              1165605  1165605  157611
 


     bravais-lattice index     =            0
     lattice parameter (alat)  =      20.7282  a.u.
     unit-cell volume          =    8629.0787 (a.u.)^3
     number of atoms/cell      =          152
     number of atomic types    =            4
     number of electrons       =       384.00
     number of Kohn-Sham states=          230
     kinetic-energy cutoff     =     100.0000  Ry
     charge density cutoff     =     400.0000  Ry
     convergence threshold     =      1.0E-08
     mixing beta               =       0.5000
     number of iterations used =            8  plain     mixing
     Exchange-correlation      =  SLA  PW   PBX  PBC ( 1  4  3  4 0 0)

     celldm(1)=  20.728217  celldm(2)=   0.000000  celldm(3)=   0.000000
     celldm(4)=   0.000000  celldm(5)=   0.000000  celldm(6)=   0.000000

     crystal axes: (cart. coord. in units of alat)
               a(1) = (   1.000000   0.000000   0.000000 )  
               a(2) = (   0.000000   0.957999   0.000000 )  
               a(3) = (   0.000000   0.000000   1.011378 )  

     reciprocal axes: (cart. coord. in units 2 pi/alat)
               b(1) = (  1.000000  0.000000  0.000000 )  
               b(2) = (  0.000000  1.043842  0.000000 )  
               b(3) = (  0.000000  0.000000  0.988750 )  


     PseudoPot. # 1 for  C read from file:
     /scratch/ahofstet/pseudo/C.pbe-n-kjpaw_psl.0.1.UPF
     MD5 check sum: 430fe95172b1e11ef3f8ed03bac87931
     Pseudo is Projector augmented-wave + core cor, Zval =  4.0
     Generated using "atomic" code by A. Dal Corso  v.5.0.99 svn rev. 10869
     Shape of augmentation charge: BESSEL
     Using radial grid of 1073 points,  4 beta functions with: 
                l(1) =   0
                l(2) =   0
                l(3) =   1
                l(4) =   1
     Q(r) pseudized with 0 coefficients 


     PseudoPot. # 2 for  N read from file:
     /scratch/ahofstet/pseudo/N.pbe-n-kjpaw_psl.0.1.UPF
     MD5 check sum: f73187c8b701007e77325f868c9291d7
     Pseudo is Projector augmented-wave + core cor, Zval =  5.0
     Generated using "atomic" code by A. Dal Corso  v.5.0.99 svn rev. 10869
     Shape of augmentation charge: PSQ
     Using radial grid of 1085 points,  4 beta functions with: 
                l(1) =   0
                l(2) =   0
                l(3) =   1
                l(4) =   1
     Q(r) pseudized with 0 coefficients 


     PseudoPot. # 3 for  H read from file:
     /scratch/ahofstet/pseudo/H.pbe-kjpaw_psl.0.1.UPF
     MD5 check sum: 94e484f906d9e9773b2f6e52662335b2
     Pseudo is Projector augmented-wave, Zval =  1.0
     Generated using "atomic" code by A. Dal Corso  v.5.0.99 svn rev. 10869
     Shape of augmentation charge: PSQ
     Using radial grid of  929 points,  2 beta functions with: 
                l(1) =   0
                l(2) =   0
     Q(r) pseudized with 0 coefficients 


     PseudoPot. # 4 for  O read from file:
     /scratch/ahofstet/pseudo/O.pbe-n-kjpaw_psl.0.1.UPF
     MD5 check sum: 3f94a2996a3169367d6eb21d9b593f20
     Pseudo is Projector augmented-wave + core cor, Zval =  6.0
     Generated using "atomic" code by A. Dal Corso  v.5.0.99 svn rev. 10869
     Shape of augmentation charge: BESSEL
     Using radial grid of 1095 points,  4 beta functions with: 
                l(1) =   0
                l(2) =   0
                l(3) =   1
                l(4) =   1
     Q(r) pseudized with 0 coefficients 


     atomic species   valence    mass     pseudopotential
        C              4.00    12.01070      C( 1.00)
        N              5.00    14.00670      N( 1.00)
        H              1.00     1.00794      H( 1.00)
        O              6.00    15.99940      O( 1.00)

      2 Sym. Ops., with inversion, found
          (note:  6 additional sym.ops. were found but ignored
           their fractional translations are incommensurate with FFT grid)


   Cartesian axes

     site n.     atom                  positions (alat units)
         1           N   tau(   1) = (   0.9441380   0.2276566   0.2643009  )
         2           N   tau(   2) = (   0.4441380   0.2276566   0.2413879  )
         3           N   tau(   3) = (   0.9441380   0.2513431   0.7699897  )
         4           N   tau(   4) = (   0.5558620   0.7066564   0.2643009  )
         5           N   tau(   5) = (   0.0558620   0.7303428   0.7470767  )
         6           N   tau(   6) = (   0.5558620   0.7303428   0.7699897  )
         7           N   tau(   7) = (   0.0558620   0.7066564   0.2413879  )
         8           N   tau(   8) = (   0.4441380   0.2513431   0.7470767  )
         9           N   tau(   9) = (   0.0238112   0.1466734   0.3335201  )
        10           N   tau(  10) = (   0.5238112   0.1466734   0.1721687  )
        11           N   tau(  11) = (   0.0238112   0.3323263   0.8392089  )
        12           N   tau(  12) = (   0.4761888   0.6256732   0.3335201  )
        13           N   tau(  13) = (   0.9761888   0.8113260   0.6778575  )
        14           N   tau(  14) = (   0.4761888   0.8113260   0.8392089  )
        15           N   tau(  15) = (   0.9761888   0.6256732   0.1721687  )
        16           N   tau(  16) = (   0.5238112   0.3323263   0.6778575  )
        17           N   tau(  17) = (   0.8288988   0.0123884   0.4763527  )
        18           N   tau(  18) = (   0.3288988   0.0123884   0.0293361  )
        19           N   tau(  19) = (   0.8288988   0.4666113   0.9820415  )
        20           N   tau(  20) = (   0.6711012   0.4913881   0.4763527  )
        21           N   tau(  21) = (   0.1711012   0.9456110   0.5350249  )
        22           N   tau(  22) = (   0.6711012   0.9456110   0.9820415  )
        23           N   tau(  23) = (   0.1711012   0.4913881   0.0293361  )
        24           N   tau(  24) = (   0.3288988   0.4666113   0.5350249  )
        25           N   tau(  25) = (   0.7434827   0.0662080   0.5150986  )
        26           N   tau(  26) = (   0.2434827   0.0662080   1.0019678  )
        27           N   tau(  27) = (   0.7434827   0.4127917   0.0094098  )
        28           N   tau(  28) = (   0.7565173   0.5452077   0.5150986  )
        29           N   tau(  29) = (   0.2565173   0.8917914   0.4962790  )
        30           N   tau(  30) = (   0.7565173   0.8917914   0.0094098  )
        31           N   tau(  31) = (   0.2565173   0.5452077   1.0019678  )
        32           N   tau(  32) = (   0.2434827   0.4127917   0.4962790  )
        33           N   tau(  33) = (   0.6578092   0.1200383   0.5538635  )
        34           N   tau(  34) = (   0.1578092   0.1200383   0.9632029  )
        35           N   tau(  35) = (   0.6578092   0.3589615   0.0481747  )
        36           N   tau(  36) = (   0.8421908   0.5990380   0.5538635  )
        37           N   tau(  37) = (   0.3421908   0.8379612   0.4575141  )
        38           N   tau(  38) = (   0.8421908   0.8379612   0.0481747  )
        39           N   tau(  39) = (   0.3421908   0.5990380   0.9632029  )
        40           N   tau(  40) = (   0.1578092   0.3589615   0.4575141  )
        41           C   tau(  41) = (   0.8594165   0.1494035   0.1916074  )
        42           C   tau(  42) = (   0.3594165   0.1494035   0.3140814  )
        43           C   tau(  43) = (   0.8594165   0.3295963   0.6972962  )
        44           C   tau(  44) = (   0.6405835   0.6284032   0.1916074  )
        45           C   tau(  45) = (   0.1405835   0.8085960   0.8197702  )
        46           C   tau(  46) = (   0.6405835   0.8085960   0.6972962  )
        47           C   tau(  47) = (   0.1405835   0.6284032   0.3140814  )
        48           C   tau(  48) = (   0.3594165   0.3295963   0.8197702  )
        49           H   tau(  49) = (   0.7992711   0.2088359   0.1382458  )
        50           H   tau(  50) = (   0.2992711   0.2088359   0.3674431  )
        51           H   tau(  51) = (   0.7992711   0.2701639   0.6439346  )
        52           H   tau(  52) = (   0.7007289   0.6878356   0.1382458  )
        53           H   tau(  53) = (   0.2007289   0.7491636   0.8731319  )
        54           H   tau(  54) = (   0.7007289   0.7491636   0.6439346  )
        55           H   tau(  55) = (   0.2007289   0.6878356   0.3674431  )
        56           H   tau(  56) = (   0.2992711   0.2701639   0.8731319  )
        57           H   tau(  57) = (   0.8061096   0.0947080   0.2560106  )
        58           H   tau(  58) = (   0.3061096   0.0947080   0.2496782  )
        59           H   tau(  59) = (   0.8061096   0.3842918   0.7616994  )
        60           H   tau(  60) = (   0.6938904   0.5737077   0.2560106  )
        61           H   tau(  61) = (   0.1938904   0.8632915   0.7553670  )
        62           H   tau(  62) = (   0.6938904   0.8632915   0.7616994  )
        63           H   tau(  63) = (   0.1938904   0.5737077   0.2496782  )
        64           H   tau(  64) = (   0.3061096   0.3842918   0.7553670  )
        65           H   tau(  65) = (   0.9141290   0.0898374   0.1331690  )
        66           H   tau(  66) = (   0.4141290   0.0898374   0.3725198  )
        67           H   tau(  67) = (   0.9141290   0.3891623   0.6388578  )
        68           H   tau(  68) = (   0.5858710   0.5688371   0.1331690  )
        69           H   tau(  69) = (   0.0858710   0.8681620   0.8782086  )
        70           H   tau(  70) = (   0.5858710   0.8681620   0.6388578  )
        71           H   tau(  71) = (   0.0858710   0.5688371   0.3725198  )
        72           H   tau(  72) = (   0.4141290   0.3891623   0.8782086  )
        73           C   tau(  73) = (   0.8714139   0.3115674   0.3449499  )
        74           C   tau(  74) = (   0.3714139   0.3115674   0.1607390  )
        75           C   tau(  75) = (   0.8714139   0.1674323   0.8506387  )
        76           C   tau(  76) = (   0.6285861   0.7905671   0.3449499  )
        77           C   tau(  77) = (   0.1285861   0.6464321   0.6664278  )
        78           C   tau(  78) = (   0.6285861   0.6464321   0.8506387  )
        79           C   tau(  79) = (   0.1285861   0.7905671   0.1607390  )
        80           C   tau(  80) = (   0.3714139   0.1674323   0.6664278  )
        81           H   tau(  81) = (   0.9361489   0.3648506   0.3992429  )
        82           H   tau(  82) = (   0.4361489   0.3648506   0.1064459  )
        83           H   tau(  83) = (   0.9361489   0.1141492   0.9049317  )
        84           H   tau(  84) = (   0.5638511   0.8438503   0.3992429  )
        85           H   tau(  85) = (   0.0638511   0.5931489   0.6121348  )
        86           H   tau(  86) = (   0.5638511   0.5931489   0.9049317  )
        87           H   tau(  87) = (   0.0638511   0.8438503   0.1064459  )
        88           H   tau(  88) = (   0.4361489   0.1141492   0.6121348  )
        89           H   tau(  89) = (   0.8126917   0.2556710   0.4030899  )
        90           H   tau(  90) = (   0.3126917   0.2556710   0.1025990  )
        91           H   tau(  91) = (   0.8126917   0.2233287   0.9087787  )
        92           H   tau(  92) = (   0.6873083   0.7346708   0.4030899  )
        93           H   tau(  93) = (   0.1873083   0.7023284   0.6082878  )
        94           H   tau(  94) = (   0.6873083   0.7023284   0.9087787  )
        95           H   tau(  95) = (   0.1873083   0.7346708   0.1025990  )
        96           H   tau(  96) = (   0.3126917   0.2233287   0.6082878  )
        97           H   tau(  97) = (   0.8162008   0.3713432   0.2870322  )
        98           H   tau(  98) = (   0.3162008   0.3713432   0.2186566  )
        99           H   tau(  99) = (   0.8162008   0.1076565   0.7927210  )
       100           H   tau( 100) = (   0.6837992   0.8503430   0.2870322  )
       101           H   tau( 101) = (   0.1837992   0.5866562   0.7243454  )
       102           H   tau( 102) = (   0.6837992   0.5866562   0.7927210  )
       103           H   tau( 103) = (   0.1837992   0.8503430   0.2186566  )
       104           H   tau( 104) = (   0.3162008   0.1076565   0.7243454  )
       105           C   tau( 105) = (   0.0227597   0.3017079   0.1807278  )
       106           C   tau( 106) = (   0.5227597   0.3017079   0.3249610  )
       107           C   tau( 107) = (   0.0227597   0.1772918   0.6864166  )
       108           C   tau( 108) = (   0.4772403   0.7807077   0.1807278  )
       109           C   tau( 109) = (   0.9772403   0.6562915   0.8306498  )
       110           C   tau( 110) = (   0.4772403   0.6562915   0.6864166  )
       111           C   tau( 111) = (   0.9772403   0.7807077   0.3249610  )
       112           C   tau( 112) = (   0.5227597   0.1772918   0.8306498  )
       113           H   tau( 113) = (   0.0854854   0.3545166   0.2375371  )
       114           H   tau( 114) = (   0.5854854   0.3545166   0.2681517  )
       115           H   tau( 115) = (   0.0854854   0.1244831   0.7432259  )
       116           H   tau( 116) = (   0.4145146   0.8335163   0.2375371  )
       117           H   tau( 117) = (   0.9145146   0.6034828   0.7738405  )
       118           H   tau( 118) = (   0.4145146   0.6034828   0.7432259  )
       119           H   tau( 119) = (   0.9145146   0.8335163   0.2681517  )
       120           H   tau( 120) = (   0.5854854   0.1244831   0.7738405  )
       121           H   tau( 121) = (   0.9639283   0.3628835   0.1280074  )
       122           H   tau( 122) = (   0.4639283   0.3628835   0.3776815  )
       123           H   tau( 123) = (   0.9639283   0.1161162   0.6336962  )
       124           H   tau( 124) = (   0.5360717   0.8418833   0.1280074  )
       125           H   tau( 125) = (   0.0360717   0.5951159   0.8833703  )
       126           H   tau( 126) = (   0.5360717   0.5951159   0.6336962  )
       127           H   tau( 127) = (   0.0360717   0.8418833   0.3776815  )
       128           H   tau( 128) = (   0.4639283   0.1161162   0.8833703  )
       129           H   tau( 129) = (   0.0724175   0.2390063   0.1208187  )
       130           H   tau( 130) = (   0.5724175   0.2390063   0.3848701  )
       131           H   tau( 131) = (   0.0724175   0.2399934   0.6265075  )
       132           H   tau( 132) = (   0.4275825   0.7180060   0.1208187  )
       133           H   tau( 133) = (   0.9275825   0.7189931   0.8905589  )
       134           H   tau( 134) = (   0.4275825   0.7189931   0.6265075  )
       135           H   tau( 135) = (   0.9275825   0.7180060   0.3848701  )
       136           H   tau( 136) = (   0.5724175   0.2399934   0.8905589  )
       137           H   tau( 137) = (   0.9665528   0.0981510   0.3912445  )
       138           H   tau( 138) = (   0.4665528   0.0981510   0.1144443  )
       139           H   tau( 139) = (   0.9665528   0.3808487   0.8969333  )
       140           H   tau( 140) = (   0.5334472   0.5771507   0.3912445  )
       141           H   tau( 141) = (   0.0334472   0.8598484   0.6201331  )
       142           H   tau( 142) = (   0.5334472   0.8598484   0.8969333  )
       143           H   tau( 143) = (   0.0334472   0.5771507   0.1144443  )
       144           H   tau( 144) = (   0.4665528   0.3808487   0.6201331  )
       145           H   tau( 145) = (   0.0771706   0.2034645   0.3864266  )
       146           H   tau( 146) = (   0.5771706   0.2034645   0.1192622  )
       147           H   tau( 147) = (   0.0771706   0.2755352   0.8921154  )
       148           H   tau( 148) = (   0.4228294   0.6824642   0.3864266  )
       149           H   tau( 149) = (   0.9228294   0.7545350   0.6249510  )
       150           H   tau( 150) = (   0.4228294   0.7545350   0.8921154  )
       151           H   tau( 151) = (   0.9228294   0.6824642   0.1192622  )
       152           H   tau( 152) = (   0.5771706   0.2755352   0.6249510  )

     number of k points=     8
                       cart. coord. in units 2pi/alat
        k(    1) = (   0.0000000   0.0000000   0.0000000), wk =   0.2500000
        k(    2) = (   0.0000000   0.0000000  -0.4943752), wk =   0.2500000
        k(    3) = (   0.0000000  -0.5219210   0.0000000), wk =   0.2500000
        k(    4) = (   0.0000000  -0.5219210  -0.4943752), wk =   0.2500000
        k(    5) = (  -0.5000000   0.0000000   0.0000000), wk =   0.2500000
        k(    6) = (  -0.5000000   0.0000000  -0.4943752), wk =   0.2500000
        k(    7) = (  -0.5000000  -0.5219210   0.0000000), wk =   0.2500000
        k(    8) = (  -0.5000000  -0.5219210  -0.4943752), wk =   0.2500000

     Dense  grid:  1165605 G-vectors     FFT dimensions: ( 135, 128, 135)

     Estimated max dynamical RAM per process >    1391.34MB

     Estimated total allocated dynamical RAM >   11130.70MB

     Check: negative/imaginary core charge=   -0.000002    0.000000

     Initial potential from superposition of free atoms

     starting charge  383.99787, renormalised to  384.00000
     Starting wfc are  344 randomized atomic wfcs
     Checking if some PAW data can be deallocated... 

     total cpu time spent up to now is       87.3 secs

     per-process dynamical memory:   911.2 Mb

     Self-consistent Calculation

     iteration #  1     ecut=   100.00 Ry     beta=0.50
     Davidson diagonalization with overlap
     ethr =  1.00E-02,  avg # of iterations =  3.0

     total cpu time spent up to now is      344.2 secs

     total energy              =   -1672.50757315 Ry
     Harris-Foulkes estimate   =   -1679.36252046 Ry
     estimated scf accuracy    <      13.73715682 Ry

     iteration #  2     ecut=   100.00 Ry     beta=0.50
     Davidson diagonalization with overlap
     ethr =  3.58E-03,  avg # of iterations =  2.0

     total cpu time spent up to now is      494.8 secs

     total energy              =   -1673.83460594 Ry
     Harris-Foulkes estimate   =   -1674.46289452 Ry
     estimated scf accuracy    <       1.55085026 Ry

     iteration #  3     ecut=   100.00 Ry     beta=0.50
     Davidson diagonalization with overlap
     ethr =  4.04E-04,  avg # of iterations =  5.8

     total cpu time spent up to now is      786.2 secs

     total energy              =   -1674.77276565 Ry
     Harris-Foulkes estimate   =   -1675.24784399 Ry
     estimated scf accuracy    <       1.32762284 Ry

     iteration #  4     ecut=   100.00 Ry     beta=0.50
     Davidson diagonalization with overlap
     ethr =  3.46E-04,  avg # of iterations =  1.0

     total cpu time spent up to now is      917.3 secs

     total energy              =   -1674.63999386 Ry
     Harris-Foulkes estimate   =   -1674.85787635 Ry
     estimated scf accuracy    <       0.44567551 Ry

     iteration #  5     ecut=   100.00 Ry     beta=0.50
     Davidson diagonalization with overlap
     ethr =  1.16E-04,  avg # of iterations =  5.5

     total cpu time spent up to now is     1183.2 secs

     total energy              =   -1674.89681197 Ry
     Harris-Foulkes estimate   =   -1674.94700311 Ry
     estimated scf accuracy    <       0.37595835 Ry

     iteration #  6     ecut=   100.00 Ry     beta=0.50
     Davidson diagonalization with overlap
     ethr =  9.79E-05,  avg # of iterations =  3.0

     total cpu time spent up to now is     1326.1 secs

     total energy              =   -1674.87184382 Ry
     Harris-Foulkes estimate   =   -1674.93482059 Ry
     estimated scf accuracy    <       0.18822306 Ry

     iteration #  7     ecut=   100.00 Ry     beta=0.50
     Davidson diagonalization with overlap
     ethr =  4.90E-05,  avg # of iterations =  1.0

     total cpu time spent up to now is     1457.1 secs

     total energy              =   -1674.82673640 Ry
     Harris-Foulkes estimate   =   -1674.87804208 Ry
     estimated scf accuracy    <       0.07887532 Ry

     iteration #  8     ecut=   100.00 Ry     beta=0.50
     Davidson diagonalization with overlap
     ethr =  2.05E-05,  avg # of iterations =  5.2

     total cpu time spent up to now is     1714.0 secs

     total energy              =   -1674.86459075 Ry
     Harris-Foulkes estimate   =   -1674.88155705 Ry
     estimated scf accuracy    <       0.03951950 Ry

     iteration #  9     ecut=   100.00 Ry     beta=0.50
     Davidson diagonalization with overlap
     ethr =  1.03E-05,  avg # of iterations =  2.5

     total cpu time spent up to now is     1853.3 secs

     total energy              =   -1674.86215178 Ry
     Harris-Foulkes estimate   =   -1674.86663839 Ry
     estimated scf accuracy    <       0.00979913 Ry

     iteration # 10     ecut=   100.00 Ry     beta=0.50
     Davidson diagonalization with overlap
     ethr =  2.55E-06,  avg # of iterations =  7.9

     total cpu time spent up to now is     2131.5 secs

     total energy              =   -1674.86969767 Ry
     Harris-Foulkes estimate   =   -1674.86987956 Ry
     estimated scf accuracy    <       0.00268150 Ry

     iteration # 11     ecut=   100.00 Ry     beta=0.50
     Davidson diagonalization with overlap
     ethr =  6.98E-07,  avg # of iterations =  1.0

     total cpu time spent up to now is     2262.5 secs

     total energy              =   -1674.86877717 Ry
     Harris-Foulkes estimate   =   -1674.86974958 Ry
     estimated scf accuracy    <       0.00221435 Ry

     iteration # 12     ecut=   100.00 Ry     beta=0.50
     Davidson diagonalization with overlap
     ethr =  5.77E-07,  avg # of iterations =  3.0

     total cpu time spent up to now is     2408.8 secs

     total energy              =   -1674.86892354 Ry
     Harris-Foulkes estimate   =   -1674.86900578 Ry
     estimated scf accuracy    <       0.00021246 Ry

     iteration # 13     ecut=   100.00 Ry     beta=0.50
     Davidson diagonalization with overlap
     ethr =  5.53E-08,  avg # of iterations =  4.0

     total cpu time spent up to now is     2677.6 secs

     total energy              =   -1674.86912460 Ry
     Harris-Foulkes estimate   =   -1674.86912806 Ry
     estimated scf accuracy    <       0.00003362 Ry

     iteration # 14     ecut=   100.00 Ry     beta=0.50
     Davidson diagonalization with overlap
     ethr =  8.76E-09,  avg # of iterations =  1.0

     total cpu time spent up to now is     2808.4 secs

     total energy              =   -1674.86911520 Ry
     Harris-Foulkes estimate   =   -1674.86912533 Ry
     estimated scf accuracy    <       0.00002599 Ry

     iteration # 15     ecut=   100.00 Ry     beta=0.50
     Davidson diagonalization with overlap
     ethr =  6.77E-09,  avg # of iterations =  2.0

     total cpu time spent up to now is     2945.6 secs

     total energy              =   -1674.86911466 Ry
     Harris-Foulkes estimate   =   -1674.86911699 Ry
     estimated scf accuracy    <       0.00000593 Ry

     iteration # 16     ecut=   100.00 Ry     beta=0.50
     Davidson diagonalization with overlap
     ethr =  1.54E-09,  avg # of iterations =  4.0

     total cpu time spent up to now is     3180.0 secs

     total energy              =   -1674.86911846 Ry
     Harris-Foulkes estimate   =   -1674.86911872 Ry
     estimated scf accuracy    <       0.00000104 Ry

     iteration # 17     ecut=   100.00 Ry     beta=0.50
     Davidson diagonalization with overlap
     ethr =  2.72E-10,  avg # of iterations =  1.2

     total cpu time spent up to now is     3311.5 secs

     total energy              =   -1674.86911826 Ry
     Harris-Foulkes estimate   =   -1674.86911850 Ry
     estimated scf accuracy    <       0.00000048 Ry

     iteration # 18     ecut=   100.00 Ry     beta=0.50
     Davidson diagonalization with overlap
     ethr =  1.26E-10,  avg # of iterations =  3.0

     total cpu time spent up to now is     3510.8 secs

     total energy              =   -1674.86911843 Ry
     Harris-Foulkes estimate   =   -1674.86911844 Ry
     estimated scf accuracy    <       0.00000006 Ry

     iteration # 19     ecut=   100.00 Ry     beta=0.50
     Davidson diagonalization with overlap
     ethr =  1.54E-11,  avg # of iterations =  3.4

     total cpu time spent up to now is     3663.4 secs

     total energy              =   -1674.86911842 Ry
     Harris-Foulkes estimate   =   -1674.86911844 Ry
     estimated scf accuracy    <       0.00000005 Ry

     iteration # 20     ecut=   100.00 Ry     beta=0.50
     Davidson diagonalization with overlap
     ethr =  1.33E-11,  avg # of iterations =  2.0

     total cpu time spent up to now is     3798.2 secs

     total energy              =   -1674.86911842 Ry
     Harris-Foulkes estimate   =   -1674.86911842 Ry
     estimated scf accuracy    <       0.00000001 Ry

     iteration # 21     ecut=   100.00 Ry     beta=0.50
     Davidson diagonalization with overlap
     ethr =  3.80E-12,  avg # of iterations =  3.0

     total cpu time spent up to now is     3990.8 secs

     End of self-consistent calculation

          k = 0.0000 0.0000 0.0000 (145753 PWs)   bands (ev):

   -20.8295 -20.8237 -20.8226 -20.8214 -20.8209 -20.8208 -20.8206 -20.8206
   -20.3146 -20.3135 -20.3125 -20.3090 -20.3066 -20.3066 -20.3051 -20.2997
   -16.5299 -16.5289 -16.5236 -16.5227 -16.5222 -16.5214 -16.5190 -16.5187
   -14.9724 -14.9467 -14.9447 -14.9350 -14.9280 -14.9147 -14.9141 -14.8995
   -12.5713 -12.5549 -12.5469 -12.5276 -12.5146 -12.4931 -12.4891 -12.4732
   -12.4548 -12.4423 -12.4252 -12.4246 -12.3977 -12.3727 -12.3629 -12.3528
    -9.9486  -9.7776  -9.7738  -9.7563  -9.5859  -9.5739  -9.5599  -9.4258
    -7.5182  -7.4967  -7.4900  -7.4896  -7.3166  -7.3144  -7.3135  -7.3131
    -7.2868  -7.2856  -7.2306  -7.1748  -7.1542  -7.1228  -7.0496  -7.0366
    -6.7846  -6.7784  -6.6228  -6.5968  -6.5270  -6.5146  -6.5010  -6.4898
    -5.6764  -5.6249  -5.6209  -5.5736  -5.5106  -5.4835  -5.4794  -5.4541
    -5.3766  -5.3385  -5.2481  -5.2232  -5.2117  -5.2099  -5.2060  -5.1762
    -5.1442  -5.1347  -5.1259  -5.1250  -5.1178  -5.0896  -5.0719  -5.0678
    -5.0020  -4.8881  -4.8145  -4.7918  -4.7511  -4.7510  -4.7407  -4.6721
    -4.6075  -4.5193  -4.5146  -4.4518  -4.4434  -4.4217  -4.3559  -4.3139
    -4.3112  -4.1653  -4.0781  -4.0486  -4.0413  -3.9689  -3.9653  -3.9379
    -3.9324  -3.9242  -3.8942  -3.8204  -3.7999  -3.7608  -3.7527  -3.7047
    -3.6940  -3.6875  -3.6803  -3.6534  -3.6335  -3.6127  -3.6111  -3.5766
    -3.5713  -3.5462  -3.5370  -3.5241  -3.5226  -3.4383  -3.4373  -3.4278
    -3.4237  -3.4173  -3.4150  -3.4119  -3.3981  -3.3979  -3.3690  -3.3420
    -2.9667  -2.9084  -2.8516  -2.8459  -2.7535  -2.6787  -2.6089  -2.5613
    -0.6604  -0.6264  -0.6249  -0.6247  -0.6040  -0.6040  -0.6006  -0.5854
     0.7659   0.7721   0.8322   0.8342   0.8603   0.8611   0.9016   0.9220
     0.9411   0.9719   0.9733   0.9744   0.9844   0.9925   0.9938   1.0167
     5.6226   5.6665   5.7228   5.8110   5.8173   5.8380   5.8475   5.8519
     5.8638   5.8945   6.1037   6.2038   6.3010   6.3129   6.3537   6.3935
     6.4498   6.4509   6.4594   6.4912   6.6685   6.6900   6.7448   6.8886
     6.9048   6.9465   7.0095   7.0299   7.0440   7.1028   7.1889   7.3124
     7.5027   7.5062   7.5757   7.5888   7.6544   7.7057

          k = 0.0000 0.0000-0.4944 (145714 PWs)   bands (ev):

   -20.8266 -20.8266 -20.8217 -20.8216 -20.8210 -20.8210 -20.8208 -20.8208
   -20.3137 -20.3137 -20.3105 -20.3105 -20.3074 -20.3074 -20.3022 -20.3022
   -16.5295 -16.5294 -16.5230 -16.5229 -16.5220 -16.5220 -16.5188 -16.5188
   -14.9597 -14.9597 -14.9364 -14.9364 -14.9247 -14.9247 -14.9066 -14.9066
   -12.5487 -12.5487 -12.5481 -12.5481 -12.4823 -12.4823 -12.4700 -12.4700
   -12.4554 -12.4554 -12.4525 -12.4525 -12.3831 -12.3831 -12.3663 -12.3663
    -9.8609  -9.8609  -9.6757  -9.6757  -9.6578  -9.6578  -9.5051  -9.5051
    -7.4495  -7.4495  -7.4270  -7.4270  -7.4033  -7.4033  -7.3386  -7.3386
    -7.2600  -7.2600  -7.2441  -7.2441  -7.1271  -7.1271  -7.0690  -7.0690
    -6.7832  -6.7832  -6.6106  -6.6106  -6.5197  -6.5197  -6.4954  -6.4954
    -5.6153  -5.6153  -5.6147  -5.6147  -5.4804  -5.4804  -5.4416  -5.4416
    -5.3305  -5.3305  -5.2991  -5.2990  -5.2200  -5.2200  -5.2101  -5.2101
    -5.1838  -5.1838  -5.1613  -5.1613  -5.0689  -5.0689  -5.0599  -5.0598
    -4.8444  -4.8444  -4.8395  -4.8395  -4.6785  -4.6785  -4.6463  -4.6463
    -4.6218  -4.6218  -4.4620  -4.4620  -4.4084  -4.4084  -4.3961  -4.3961
    -4.2682  -4.2682  -4.1958  -4.1958  -3.9735  -3.9735  -3.9013  -3.9013
    -3.8503  -3.8503  -3.8421  -3.8421  -3.7731  -3.7731  -3.7656  -3.7656
    -3.6885  -3.6885  -3.6372  -3.6371  -3.6287  -3.6287  -3.5829  -3.5829
    -3.5780  -3.5780  -3.5707  -3.5707  -3.5027  -3.5027  -3.4750  -3.4750
    -3.4242  -3.4242  -3.4050  -3.4050  -3.3689  -3.3689  -3.3541  -3.3541
    -2.9185  -2.9185  -2.8740  -2.8740  -2.6470  -2.6470  -2.6425  -2.6424
    -0.6445  -0.6445  -0.6224  -0.6224  -0.5998  -0.5998  -0.5976  -0.5976
     0.7972   0.7972   0.8334   0.8334   0.8676   0.8676   0.8806   0.8806
     0.9594   0.9594   0.9779   0.9779   0.9797   0.9797   1.0067   1.0067
     5.7090   5.7090   5.7725   5.7725   5.7775   5.7776   5.8610   5.8610
     5.9465   5.9465   6.1429   6.1429   6.3307   6.3307   6.4079   6.4079
     6.4326   6.4326   6.6026   6.6026   6.6073   6.6073   6.7391   6.7391
     6.8948   6.8948   6.9021   6.9021   7.0229   7.0229   7.1823   7.1823
     7.5603   7.5603   7.6068   7.6068   7.7384   7.7384

          k = 0.0000-0.5219 0.0000 (145692 PWs)   bands (ev):

   -20.8261 -20.8261 -20.8223 -20.8223 -20.8214 -20.8214 -20.8202 -20.8202
   -20.3111 -20.3111 -20.3103 -20.3102 -20.3093 -20.3093 -20.3031 -20.3031
   -16.5264 -16.5263 -16.5261 -16.5261 -16.5208 -16.5208 -16.5200 -16.5200
   -14.9538 -14.9538 -14.9307 -14.9306 -14.9295 -14.9295 -14.9136 -14.9136
   -12.5333 -12.5333 -12.5324 -12.5324 -12.5134 -12.5134 -12.4863 -12.4863
   -12.4748 -12.4748 -12.4214 -12.4214 -12.3867 -12.3867 -12.3577 -12.3577
    -9.8617  -9.8617  -9.6728  -9.6728  -9.6708  -9.6708  -9.4926  -9.4926
    -7.5081  -7.5081  -7.4149  -7.4149  -7.3916  -7.3916  -7.2876  -7.2876
    -7.2861  -7.2861  -7.2022  -7.2022  -7.1467  -7.1467  -7.0848  -7.0848
    -6.7072  -6.7072  -6.6941  -6.6941  -6.5118  -6.5118  -6.5040  -6.5040
    -5.6393  -5.6393  -5.6318  -5.6318  -5.5143  -5.5142  -5.4016  -5.4016
    -5.2909  -5.2909  -5.2263  -5.2263  -5.2031  -5.2031  -5.1967  -5.1967
    -5.1663  -5.1663  -5.1610  -5.1610  -5.1302  -5.1301  -5.0456  -5.0456
    -4.8851  -4.8851  -4.8034  -4.8034  -4.7533  -4.7533  -4.7031  -4.7031
    -4.5855  -4.5855  -4.4906  -4.4906  -4.4513  -4.4513  -4.3196  -4.3196
    -4.2417  -4.2417  -4.0883  -4.0883  -3.9993  -3.9993  -3.9749  -3.9749
    -3.8612  -3.8612  -3.8368  -3.8368  -3.8140  -3.8140  -3.7651  -3.7651
    -3.7047  -3.7047  -3.6830  -3.6830  -3.6332  -3.6332  -3.6094  -3.6094
    -3.5649  -3.5649  -3.4888  -3.4888  -3.4825  -3.4825  -3.4589  -3.4589
    -3.4209  -3.4209  -3.4049  -3.4049  -3.3969  -3.3969  -3.3196  -3.3196
    -2.9409  -2.9409  -2.8750  -2.8750  -2.6624  -2.6624  -2.6113  -2.6113
    -0.6402  -0.6402  -0.6180  -0.6180  -0.6100  -0.6100  -0.5937  -0.5937
     0.8343   0.8343   0.8400   0.8400   0.8741   0.8741   0.8842   0.8842
     0.9280   0.9280   0.9316   0.9316   0.9948   0.9948   1.0005   1.0005
     5.7164   5.7164   5.7882   5.7882   5.8755   5.8755   5.9637   5.9637
     6.0942   6.0942   6.1000   6.1000   6.1889   6.1889   6.2502   6.2502
     6.3756   6.3756   6.4912   6.4912   6.5864   6.5864   6.6690   6.6690
     6.9286   6.9286   6.9984   6.9984   7.0646   7.0646   7.1801   7.1801
     7.4503   7.4503   7.6507   7.6507   7.7694   7.7694

          k = 0.0000-0.5219-0.4944 (145612 PWs)   bands (ev):

   -20.8242 -20.8242 -20.8242 -20.8242 -20.8208 -20.8208 -20.8208 -20.8208
   -20.3110 -20.3110 -20.3110 -20.3110 -20.3059 -20.3059 -20.3059 -20.3059
   -16.5263 -16.5263 -16.5263 -16.5263 -16.5203 -16.5203 -16.5203 -16.5203
   -14.9424 -14.9424 -14.9424 -14.9424 -14.9213 -14.9213 -14.9213 -14.9213
   -12.5191 -12.5191 -12.5191 -12.5191 -12.5069 -12.5069 -12.5069 -12.5069
   -12.4538 -12.4538 -12.4538 -12.4538 -12.3755 -12.3755 -12.3755 -12.3755
    -9.7670  -9.7670  -9.7670  -9.7670  -9.5811  -9.5811  -9.5811  -9.5811
    -7.4262  -7.4262  -7.4262  -7.4262  -7.3362  -7.3362  -7.3362  -7.3362
    -7.2866  -7.2866  -7.2866  -7.2865  -7.1245  -7.1245  -7.1245  -7.1245
    -6.7019  -6.7019  -6.7019  -6.7019  -6.5093  -6.5093  -6.5093  -6.5093
    -5.5713  -5.5713  -5.5713  -5.5713  -5.4944  -5.4943  -5.4943  -5.4943
    -5.3173  -5.3173  -5.3173  -5.3173  -5.2197  -5.2197  -5.2197  -5.2197
    -5.1342  -5.1342  -5.1342  -5.1342  -5.0433  -5.0433  -5.0433  -5.0433
    -4.8693  -4.8693  -4.8693  -4.8693  -4.6691  -4.6691  -4.6691  -4.6691
    -4.5534  -4.5534  -4.5534  -4.5534  -4.4067  -4.4067  -4.4067  -4.4067
    -4.1832  -4.1832  -4.1832  -4.1832  -3.9492  -3.9492  -3.9492  -3.9492
    -3.8670  -3.8670  -3.8670  -3.8670  -3.7987  -3.7987  -3.7987  -3.7987
    -3.6482  -3.6482  -3.6482  -3.6482  -3.5755  -3.5755  -3.5755  -3.5755
    -3.5636  -3.5636  -3.5636  -3.5636  -3.5011  -3.5011  -3.5011  -3.5011
    -3.4562  -3.4562  -3.4562  -3.4562  -3.3572  -3.3572  -3.3572  -3.3572
    -2.8908  -2.8908  -2.8908  -2.8908  -2.6358  -2.6358  -2.6358  -2.6358
    -0.6271  -0.6271  -0.6271  -0.6271  -0.6032  -0.6032  -0.6032  -0.6032
     0.8449   0.8449   0.8449   0.8449   0.8963   0.8963   0.8963   0.8963
     0.9065   0.9065   0.9065   0.9065   0.9970   0.9970   0.9970   0.9970
     5.7436   5.7436   5.7436   5.7436   5.9824   5.9824   5.9824   5.9824
     6.0856   6.0856   6.0856   6.0857   6.2347   6.2347   6.2347   6.2347
     6.4397   6.4397   6.4397   6.4397   6.6197   6.6197   6.6197   6.6197
     6.9091   6.9091   6.9091   6.9091   7.1655   7.1655   7.1655   7.1655
     7.4850   7.4850   7.4850   7.4850   7.7560   7.7560

          k =-0.5000 0.0000 0.0000 (145714 PWs)   bands (ev):

   -20.8261 -20.8261 -20.8223 -20.8223 -20.8210 -20.8210 -20.8207 -20.8207
   -20.3131 -20.3130 -20.3107 -20.3106 -20.3070 -20.3069 -20.3031 -20.3031
   -16.5263 -16.5263 -16.5263 -16.5263 -16.5206 -16.5206 -16.5199 -16.5199
   -14.9585 -14.9585 -14.9373 -14.9373 -14.9245 -14.9245 -14.9071 -14.9071
   -12.5658 -12.5658 -12.5353 -12.5353 -12.5006 -12.5006 -12.4556 -12.4556
   -12.4462 -12.4462 -12.4141 -12.4141 -12.3999 -12.3998 -12.3899 -12.3898
    -9.8514  -9.8514  -9.6818  -9.6818  -9.6685  -9.6685  -9.4964  -9.4964
    -7.4911  -7.4911  -7.4119  -7.4119  -7.3850  -7.3849  -7.3043  -7.3042
    -7.2756  -7.2755  -7.2260  -7.2260  -7.1238  -7.1238  -7.1233  -7.1233
    -6.6635  -6.6635  -6.6467  -6.6467  -6.5576  -6.5576  -6.5270  -6.5270
    -5.6508  -5.6507  -5.5937  -5.5937  -5.4856  -5.4856  -5.4771  -5.4771
    -5.3068  -5.3068  -5.2837  -5.2837  -5.2067  -5.2067  -5.1993  -5.1993
    -5.1631  -5.1631  -5.1391  -5.1391  -5.0490  -5.0490  -5.0470  -5.0470
    -4.8663  -4.8663  -4.7930  -4.7930  -4.7835  -4.7835  -4.6890  -4.6890
    -4.6004  -4.6004  -4.4741  -4.4741  -4.3980  -4.3980  -4.3857  -4.3856
    -4.3358  -4.3358  -4.0513  -4.0513  -4.0477  -4.0476  -3.9252  -3.9252
    -3.8689  -3.8689  -3.8571  -3.8571  -3.7775  -3.7775  -3.7145  -3.7145
    -3.6912  -3.6912  -3.6360  -3.6360  -3.6314  -3.6314  -3.5879  -3.5879
    -3.5582  -3.5582  -3.5179  -3.5178  -3.5109  -3.5109  -3.4889  -3.4889
    -3.4703  -3.4703  -3.4358  -3.4358  -3.3318  -3.3318  -3.3308  -3.3308
    -2.8910  -2.8910  -2.7630  -2.7630  -2.7322  -2.7322  -2.6905  -2.6905
    -0.6474  -0.6474  -0.6285  -0.6285  -0.6025  -0.6025  -0.5986  -0.5986
     0.8097   0.8097   0.8125   0.8125   0.8972   0.8972   0.9108   0.9108
     0.9534   0.9534   0.9601   0.9601   0.9638   0.9638   1.0004   1.0004
     5.6630   5.6630   5.8165   5.8165   5.9096   5.9096   5.9968   5.9968
     6.0562   6.0562   6.0987   6.0987   6.1164   6.1164   6.2532   6.2532
     6.3414   6.3414   6.5329   6.5329   6.5519   6.5519   6.7293   6.7293
     6.8254   6.8254   7.0139   7.0139   7.1620   7.1620   7.2685   7.2685
     7.4644   7.4645   7.5688   7.5688   7.7347   7.7348

          k =-0.5000 0.0000-0.4944 (145688 PWs)   bands (ev):

   -20.8242 -20.8242 -20.8242 -20.8242 -20.8208 -20.8208 -20.8208 -20.8208
   -20.3118 -20.3118 -20.3118 -20.3118 -20.3051 -20.3051 -20.3050 -20.3050
   -16.5264 -16.5264 -16.5264 -16.5264 -16.5202 -16.5202 -16.5202 -16.5202
   -14.9479 -14.9479 -14.9479 -14.9479 -14.9157 -14.9157 -14.9157 -14.9157
   -12.5476 -12.5476 -12.5476 -12.5476 -12.4740 -12.4740 -12.4740 -12.4740
   -12.4266 -12.4266 -12.4266 -12.4266 -12.4078 -12.4078 -12.4077 -12.4077
    -9.7589  -9.7589  -9.7589  -9.7589  -9.5896  -9.5896  -9.5895  -9.5895
    -7.4182  -7.4181  -7.4181  -7.4181  -7.3382  -7.3382  -7.3382  -7.3382
    -7.2734  -7.2734  -7.2734  -7.2734  -7.1530  -7.1530  -7.1530  -7.1530
    -6.6544  -6.6544  -6.6544  -6.6544  -6.5446  -6.5446  -6.5446  -6.5446
    -5.5612  -5.5612  -5.5612  -5.5612  -5.5185  -5.5185  -5.5185  -5.5185
    -5.3130  -5.3130  -5.3130  -5.3130  -5.2035  -5.2035  -5.2035  -5.2034
    -5.1564  -5.1564  -5.1563  -5.1563  -5.0582  -5.0582  -5.0582  -5.0582
    -4.8003  -4.8003  -4.8003  -4.8003  -4.7098  -4.7098  -4.7098  -4.7098
    -4.5656  -4.5656  -4.5656  -4.5656  -4.3769  -4.3769  -4.3769  -4.3769
    -4.2165  -4.2165  -4.2165  -4.2165  -4.0126  -4.0126  -4.0126  -4.0126
    -3.8562  -3.8562  -3.8562  -3.8562  -3.7420  -3.7420  -3.7420  -3.7420
    -3.6277  -3.6277  -3.6277  -3.6277  -3.5657  -3.5657  -3.5657  -3.5657
    -3.5320  -3.5320  -3.5320  -3.5320  -3.5041  -3.5041  -3.5041  -3.5041
    -3.4625  -3.4625  -3.4625  -3.4625  -3.3985  -3.3985  -3.3985  -3.3985
    -2.8132  -2.8132  -2.8132  -2.8132  -2.7126  -2.7126  -2.7126  -2.7125
    -0.6374  -0.6374  -0.6374  -0.6374  -0.6004  -0.6004  -0.6003  -0.6003
     0.8154   0.8154   0.8154   0.8154   0.9120   0.9120   0.9120   0.9120
     0.9458   0.9458   0.9458   0.9458   0.9823   0.9823   0.9824   0.9824
     5.7548   5.7548   5.7548   5.7548   5.9405   5.9405   5.9405   5.9405
     6.0920   6.0920   6.0920   6.0920   6.2711   6.2711   6.2711   6.2711
     6.3548   6.3548   6.3548   6.3548   6.6408   6.6408   6.6408   6.6408
     6.9189   6.9189   6.9189   6.9189   7.2260   7.2260   7.2260   7.2260
     7.5381   7.5381   7.5381   7.5381   7.7042   7.7042

          k =-0.5000-0.5219 0.0000 (145792 PWs)   bands (ev):

   -20.8238 -20.8238 -20.8238 -20.8238 -20.8212 -20.8212 -20.8212 -20.8212
   -20.3101 -20.3101 -20.3100 -20.3100 -20.3069 -20.3069 -20.3068 -20.3068
   -16.5251 -16.5251 -16.5251 -16.5251 -16.5215 -16.5215 -16.5215 -16.5215
   -14.9416 -14.9416 -14.9416 -14.9416 -14.9221 -14.9221 -14.9221 -14.9221
   -12.5333 -12.5333 -12.5333 -12.5333 -12.4981 -12.4981 -12.4981 -12.4981
   -12.4311 -12.4311 -12.4310 -12.4310 -12.3933 -12.3933 -12.3933 -12.3933
    -9.7657  -9.7657  -9.7657  -9.7657  -9.5819  -9.5819  -9.5819  -9.5819
    -7.4155  -7.4155  -7.4155  -7.4155  -7.3777  -7.3777  -7.3777  -7.3777
    -7.2209  -7.2209  -7.2208  -7.2208  -7.1698  -7.1698  -7.1698  -7.1698
    -6.6053  -6.6053  -6.6053  -6.6053  -6.5971  -6.5971  -6.5971  -6.5970
    -5.6058  -5.6058  -5.6058  -5.6058  -5.4861  -5.4861  -5.4861  -5.4861
    -5.2494  -5.2494  -5.2494  -5.2494  -5.1956  -5.1956  -5.1956  -5.1956
    -5.1775  -5.1775  -5.1775  -5.1775  -5.0669  -5.0669  -5.0669  -5.0669
    -4.8247  -4.8247  -4.8247  -4.8247  -4.7458  -4.7458  -4.7458  -4.7458
    -4.5275  -4.5275  -4.5275  -4.5275  -4.3834  -4.3834  -4.3834  -4.3834
    -4.2286  -4.2286  -4.2286  -4.2286  -3.9630  -3.9630  -3.9629  -3.9629
    -3.8326  -3.8326  -3.8326  -3.8326  -3.7880  -3.7880  -3.7880  -3.7880
    -3.6753  -3.6753  -3.6753  -3.6753  -3.5949  -3.5949  -3.5949  -3.5949
    -3.5204  -3.5204  -3.5204  -3.5204  -3.4711  -3.4711  -3.4711  -3.4711
    -3.4614  -3.4614  -3.4614  -3.4614  -3.3800  -3.3800  -3.3800  -3.3799
    -2.8236  -2.8236  -2.8236  -2.8236  -2.7003  -2.7003  -2.7003  -2.7003
    -0.6289  -0.6289  -0.6289  -0.6289  -0.6084  -0.6084  -0.6083  -0.6083
     0.8655   0.8655   0.8655   0.8655   0.8853   0.8853   0.8853   0.8853
     0.9254   0.9254   0.9254   0.9254   0.9730   0.9730   0.9730   0.9730
     5.7622   5.7622   5.7622   5.7622   6.0012   6.0012   6.0012   6.0012
     6.1151   6.1151   6.1151   6.1151   6.1866   6.1866   6.1866   6.1866
     6.3394   6.3394   6.3394   6.3394   6.6567   6.6567   6.6567   6.6567
     6.9714   6.9714   6.9714   6.9714   7.1215   7.1215   7.1215   7.1215
     7.5357   7.5357   7.5357   7.5357   7.6361   7.6361

          k =-0.5000-0.5219-0.4944 (145640 PWs)   bands (ev):

   -20.8228 -20.8228 -20.8228 -20.8228 -20.8222 -20.8222 -20.8222 -20.8222
   -20.3085 -20.3085 -20.3085 -20.3085 -20.3084 -20.3084 -20.3084 -20.3084
   -16.5251 -16.5251 -16.5251 -16.5251 -16.5215 -16.5215 -16.5215 -16.5215
   -14.9331 -14.9331 -14.9331 -14.9331 -14.9306 -14.9305 -14.9305 -14.9305
   -12.5125 -12.5125 -12.5125 -12.5125 -12.5117 -12.5117 -12.5117 -12.5117
   -12.4188 -12.4188 -12.4187 -12.4187 -12.4150 -12.4150 -12.4150 -12.4150
    -9.6779  -9.6779  -9.6779  -9.6779  -9.6690  -9.6690  -9.6690  -9.6690
    -7.3825  -7.3825  -7.3824  -7.3824  -7.3426  -7.3426  -7.3425  -7.3425
    -7.2376  -7.2376  -7.2376  -7.2376  -7.2331  -7.2331  -7.2331  -7.2331
    -6.6033  -6.6033  -6.6033  -6.6033  -6.6003  -6.6003  -6.6003  -6.6002
    -5.5478  -5.5478  -5.5478  -5.5478  -5.5346  -5.5346  -5.5346  -5.5346
    -5.2556  -5.2556  -5.2556  -5.2556  -5.2543  -5.2542  -5.2542  -5.2542
    -5.1474  -5.1474  -5.1474  -5.1474  -5.0315  -5.0315  -5.0315  -5.0315
    -4.8015  -4.8015  -4.8015  -4.8015  -4.7232  -4.7232  -4.7232  -4.7232
    -4.4825  -4.4825  -4.4825  -4.4825  -4.4623  -4.4623  -4.4623  -4.4623
    -4.1475  -4.1475  -4.1475  -4.1475  -4.0549  -4.0549  -4.0549  -4.0549
    -3.8247  -3.8247  -3.8247  -3.8247  -3.8138  -3.8138  -3.8138  -3.8138
    -3.6675  -3.6675  -3.6675  -3.6675  -3.5798  -3.5798  -3.5798  -3.5798
    -3.5227  -3.5227  -3.5226  -3.5226  -3.5013  -3.5013  -3.5013  -3.5013
    -3.4135  -3.4135  -3.4135  -3.4135  -3.4094  -3.4094  -3.4094  -3.4094
    -2.7840  -2.7840  -2.7840  -2.7840  -2.7305  -2.7304  -2.7304  -2.7304
    -0.6198  -0.6198  -0.6198  -0.6198  -0.6168  -0.6168  -0.6168  -0.6168
     0.8714   0.8714   0.8714   0.8714   0.8787   0.8787   0.8787   0.8787
     0.9469   0.9469   0.9469   0.9469   0.9531   0.9531   0.9531   0.9531
     5.8134   5.8134   5.8134   5.8134   5.9570   5.9570   5.9570   5.9571
     6.1380   6.1380   6.1380   6.1380   6.1549   6.1549   6.1549   6.1549
     6.4792   6.4792   6.4792   6.4792   6.5090   6.5090   6.5090   6.5090
     7.0328   7.0328   7.0328   7.0328   7.1814   7.1814   7.1814   7.1814
     7.5390   7.5390   7.5390   7.5390   7.5971   7.5971

     highest occupied, lowest unoccupied level (ev):     1.0167    5.6226

!    total energy              =   -1674.86911842 Ry
     Harris-Foulkes estimate   =   -1674.86911842 Ry
     estimated scf accuracy    <          3.4E-09 Ry

     total all-electron energy =     -6313.159217 Ry

     The total energy is the sum of the following terms:

     one-electron contribution =    -814.51133357 Ry
     hartree contribution      =     540.93882070 Ry
     xc contribution           =    -378.30659932 Ry
     ewald contribution        =    -531.42321354 Ry
     Dispersion Correction     =      -0.72553440 Ry
     one-center paw contrib.   =    -490.84125830 Ry

     convergence has been achieved in  21 iterations

     Forces acting on atoms (cartesian axes, Ry/au):

     atom    1 type  2   force =    -0.00016779    0.00005553    0.00000321
     atom    2 type  2   force =    -0.00016791    0.00005505   -0.00000292
     atom    3 type  2   force =    -0.00016804   -0.00005583    0.00000277
     atom    4 type  2   force =     0.00016793    0.00005497    0.00000282
     atom    5 type  2   force =     0.00016779   -0.00005553   -0.00000321
     atom    6 type  2   force =     0.00016791   -0.00005505    0.00000292
     atom    7 type  2   force =     0.00016804    0.00005583   -0.00000277
     atom    8 type  2   force =    -0.00016793   -0.00005497   -0.00000282
     atom    9 type  2   force =    -0.00015769    0.00035655   -0.00056640
     atom   10 type  2   force =    -0.00015875    0.00035830    0.00056524
     atom   11 type  2   force =    -0.00015747   -0.00035618   -0.00056615
     atom   12 type  2   force =     0.00015768    0.00035762   -0.00056663
     atom   13 type  2   force =     0.00015769   -0.00035655    0.00056640
     atom   14 type  2   force =     0.00015875   -0.00035830   -0.00056524
     atom   15 type  2   force =     0.00015747    0.00035618    0.00056615
     atom   16 type  2   force =    -0.00015768   -0.00035762    0.00056663
     atom   17 type  2   force =    -0.00069636    0.00001451   -0.00000741
     atom   18 type  2   force =    -0.00069682    0.00001472    0.00000718
     atom   19 type  2   force =    -0.00069361   -0.00001278   -0.00000881
     atom   20 type  2   force =     0.00069494    0.00001342   -0.00000808
     atom   21 type  2   force =     0.00069636   -0.00001451    0.00000741
     atom   22 type  2   force =     0.00069682   -0.00001472   -0.00000718
     atom   23 type  2   force =     0.00069361    0.00001278    0.00000881
     atom   24 type  2   force =    -0.00069494   -0.00001342    0.00000808
     atom   25 type  2   force =    -0.00000123    0.00017840    0.00001406
     atom   26 type  2   force =    -0.00000074    0.00017831   -0.00001425
     atom   27 type  2   force =    -0.00000339   -0.00017987    0.00001511
     atom   28 type  2   force =     0.00000199    0.00017880    0.00001461
     atom   29 type  2   force =     0.00000123   -0.00017840   -0.00001406
     atom   30 type  2   force =     0.00000074   -0.00017831    0.00001425
     atom   31 type  2   force =     0.00000339    0.00017987   -0.00001511
     atom   32 type  2   force =    -0.00000199   -0.00017880   -0.00001461
     atom   33 type  2   force =     0.00017120    0.00005580   -0.00004110
     atom   34 type  2   force =     0.00017197    0.00005542    0.00004144
     atom   35 type  2   force =     0.00017371   -0.00005444   -0.00004204
     atom   36 type  2   force =    -0.00017208    0.00005563   -0.00004136
     atom   37 type  2   force =    -0.00017120   -0.00005580    0.00004110
     atom   38 type  2   force =    -0.00017197   -0.00005542   -0.00004144
     atom   39 type  2   force =    -0.00017371    0.00005444    0.00004204
     atom   40 type  2   force =     0.00017208   -0.00005563    0.00004136
     atom   41 type  1   force =    -0.00008271   -0.00036916    0.00028586
     atom   42 type  1   force =    -0.00008824   -0.00036865   -0.00029582
     atom   43 type  1   force =    -0.00008189    0.00036862    0.00029631
     atom   44 type  1   force =     0.00008846   -0.00036918    0.00028674
     atom   45 type  1   force =     0.00008271    0.00036916   -0.00028586
     atom   46 type  1   force =     0.00008824    0.00036865    0.00029582
     atom   47 type  1   force =     0.00008189   -0.00036862   -0.00029631
     atom   48 type  1   force =    -0.00008846    0.00036918   -0.00028674
     atom   49 type  3   force =     0.00030369    0.00044844    0.00047532
     atom   50 type  3   force =     0.00030409    0.00044780   -0.00047516
     atom   51 type  3   force =     0.00030360   -0.00044864    0.00047476
     atom   52 type  3   force =    -0.00030396    0.00044792    0.00047568
     atom   53 type  3   force =    -0.00030369   -0.00044844   -0.00047532
     atom   54 type  3   force =    -0.00030409   -0.00044780    0.00047516
     atom   55 type  3   force =    -0.00030360    0.00044864   -0.00047476
     atom   56 type  3   force =     0.00030396   -0.00044792   -0.00047568
     atom   57 type  3   force =    -0.00031380   -0.00025315    0.00052125
     atom   58 type  3   force =    -0.00031407   -0.00025304   -0.00052055
     atom   59 type  3   force =    -0.00031399    0.00025329    0.00052152
     atom   60 type  3   force =     0.00031382   -0.00025289    0.00052069
     atom   61 type  3   force =     0.00031380    0.00025315   -0.00052125
     atom   62 type  3   force =     0.00031407    0.00025304    0.00052055
     atom   63 type  3   force =     0.00031399   -0.00025329   -0.00052152
     atom   64 type  3   force =    -0.00031382    0.00025289   -0.00052069
     atom   65 type  3   force =     0.00060645    0.00045803   -0.00012520
     atom   66 type  3   force =     0.00060582    0.00045855    0.00012478
     atom   67 type  3   force =     0.00060661   -0.00045804   -0.00012534
     atom   68 type  3   force =    -0.00060595    0.00045838   -0.00012465
     atom   69 type  3   force =    -0.00060645   -0.00045803    0.00012520
     atom   70 type  3   force =    -0.00060582   -0.00045855   -0.00012478
     atom   71 type  3   force =    -0.00060661    0.00045804    0.00012534
     atom   72 type  3   force =     0.00060595   -0.00045838    0.00012465
     atom   73 type  1   force =    -0.00012834    0.00008057   -0.00035205
     atom   74 type  1   force =    -0.00011741    0.00008073    0.00035265
     atom   75 type  1   force =    -0.00012735   -0.00008034   -0.00035280
     atom   76 type  1   force =     0.00011699    0.00008026   -0.00035236
     atom   77 type  1   force =     0.00012834   -0.00008057    0.00035205
     atom   78 type  1   force =     0.00011741   -0.00008073   -0.00035265
     atom   79 type  1   force =     0.00012735    0.00008034    0.00035280
     atom   80 type  1   force =    -0.00011699   -0.00008026    0.00035236
     atom   81 type  3   force =     0.00007267   -0.00015862   -0.00037618
     atom   82 type  3   force =     0.00007242   -0.00015854    0.00037584
     atom   83 type  3   force =     0.00007305    0.00015876   -0.00037590
     atom   84 type  3   force =    -0.00007262   -0.00015861   -0.00037608
     atom   85 type  3   force =    -0.00007267    0.00015862    0.00037618
     atom   86 type  3   force =    -0.00007242    0.00015854   -0.00037584
     atom   87 type  3   force =    -0.00007305   -0.00015876    0.00037590
     atom   88 type  3   force =     0.00007262    0.00015861    0.00037608
     atom   89 type  3   force =    -0.00024792    0.00045172   -0.00002021
     atom   90 type  3   force =    -0.00024776    0.00045218    0.00001995
     atom   91 type  3   force =    -0.00024785   -0.00045146   -0.00001991
     atom   92 type  3   force =     0.00024767    0.00045199   -0.00002019
     atom   93 type  3   force =     0.00024792   -0.00045172    0.00002021
     atom   94 type  3   force =     0.00024776   -0.00045218   -0.00001995
     atom   95 type  3   force =     0.00024785    0.00045146    0.00001991
     atom   96 type  3   force =    -0.00024767   -0.00045199    0.00002019
     atom   97 type  3   force =    -0.00048807   -0.00013610    0.00014348
     atom   98 type  3   force =    -0.00048762   -0.00013616   -0.00014398
     atom   99 type  3   force =    -0.00048813    0.00013601    0.00014338
     atom  100 type  3   force =     0.00048767   -0.00013602    0.00014367
     atom  101 type  3   force =     0.00048807    0.00013610   -0.00014348
     atom  102 type  3   force =     0.00048762    0.00013616    0.00014398
     atom  103 type  3   force =     0.00048813   -0.00013601   -0.00014338
     atom  104 type  3   force =    -0.00048767    0.00013602   -0.00014367
     atom  105 type  1   force =     0.00005147    0.00021027   -0.00003570
     atom  106 type  1   force =     0.00004732    0.00021010    0.00005135
     atom  107 type  1   force =     0.00005151   -0.00020967   -0.00005101
     atom  108 type  1   force =    -0.00004758    0.00021001   -0.00003582
     atom  109 type  1   force =    -0.00005147   -0.00021027    0.00003570
     atom  110 type  1   force =    -0.00004732   -0.00021010   -0.00005135
     atom  111 type  1   force =    -0.00005151    0.00020967    0.00005101
     atom  112 type  1   force =     0.00004758   -0.00021001    0.00003582
     atom  113 type  3   force =     0.00012698    0.00013290    0.00063866
     atom  114 type  3   force =     0.00012751    0.00013338   -0.00063866
     atom  115 type  3   force =     0.00012639   -0.00013231    0.00063838
     atom  116 type  3   force =    -0.00012761    0.00013335    0.00063918
     atom  117 type  3   force =    -0.00012698   -0.00013290   -0.00063866
     atom  118 type  3   force =    -0.00012751   -0.00013338    0.00063866
     atom  119 type  3   force =    -0.00012639    0.00013231   -0.00063838
     atom  120 type  3   force =     0.00012761   -0.00013335   -0.00063918
     atom  121 type  3   force =    -0.00009010    0.00007715   -0.00040675
     atom  122 type  3   force =    -0.00009027    0.00007776    0.00040713
     atom  123 type  3   force =    -0.00009006   -0.00007693   -0.00040639
     atom  124 type  3   force =     0.00009054    0.00007775   -0.00040719
     atom  125 type  3   force =     0.00009010   -0.00007715    0.00040675
     atom  126 type  3   force =     0.00009027   -0.00007776   -0.00040713
     atom  127 type  3   force =     0.00009006    0.00007693    0.00040639
     atom  128 type  3   force =    -0.00009054   -0.00007775    0.00040719
     atom  129 type  3   force =    -0.00073043   -0.00040978   -0.00003889
     atom  130 type  3   force =    -0.00073013   -0.00041015    0.00003974
     atom  131 type  3   force =    -0.00073063    0.00040961   -0.00003866
     atom  132 type  3   force =     0.00073013   -0.00041037   -0.00003935
     atom  133 type  3   force =     0.00073043    0.00040978    0.00003889
     atom  134 type  3   force =     0.00073013    0.00041015   -0.00003974
     atom  135 type  3   force =     0.00073063   -0.00040961    0.00003866
     atom  136 type  3   force =    -0.00073013    0.00041037    0.00003935
     atom  137 type  3   force =     0.00065209    0.00027311   -0.00008237
     atom  138 type  3   force =     0.00065225    0.00027300    0.00008203
     atom  139 type  3   force =     0.00065186   -0.00027297   -0.00008203
     atom  140 type  3   force =    -0.00065214    0.00027301   -0.00008229
     atom  141 type  3   force =    -0.00065209   -0.00027311    0.00008237
     atom  142 type  3   force =    -0.00065225   -0.00027300   -0.00008203
     atom  143 type  3   force =    -0.00065186    0.00027297    0.00008203
     atom  144 type  3   force =     0.00065214   -0.00027301    0.00008229
     atom  145 type  3   force =    -0.00007280   -0.00088636    0.00000779
     atom  146 type  3   force =    -0.00007278   -0.00088651   -0.00000830
     atom  147 type  3   force =    -0.00007260    0.00088608    0.00000846
     atom  148 type  3   force =     0.00007271   -0.00088642    0.00000780
     atom  149 type  3   force =     0.00007280    0.00088636   -0.00000779
     atom  150 type  3   force =     0.00007278    0.00088651    0.00000830
     atom  151 type  3   force =     0.00007260   -0.00088608   -0.00000846
     atom  152 type  3   force =    -0.00007271    0.00088642   -0.00000780

     Total force =     0.007133     Total SCF correction =     0.000089


     Computing stress (Cartesian axis) and pressure

          total   stress  (Ry/bohr**3)                   (kbar)     P=   -7.07
  -0.00005130   0.00000000   0.00000000         -7.55      0.00      0.00
   0.00000000  -0.00004391  -0.00000000          0.00     -6.46     -0.00
   0.00000000  -0.00000000  -0.00004908          0.00     -0.00     -7.22


     Writing output data file scf.save
 
     init_run     :     83.54s CPU     86.61s WALL (       1 calls)
     electrons    :   3767.89s CPU   3903.80s WALL (       1 calls)
     forces       :     40.91s CPU     41.26s WALL (       1 calls)
     stress       :    196.79s CPU    197.40s WALL (       1 calls)

     Called by init_run:
     wfcinit      :     75.43s CPU     78.24s WALL (       1 calls)
     potinit      :      2.83s CPU      2.92s WALL (       1 calls)

     Called by electrons:
     c_bands      :   3397.38s CPU   3511.72s WALL (      21 calls)
     sum_band     :    344.51s CPU    363.00s WALL (      21 calls)
     v_of_rho     :      3.35s CPU      3.70s WALL (      22 calls)
     newd         :      8.93s CPU     11.56s WALL (      22 calls)
     PAW_pot      :     12.69s CPU     12.69s WALL (      22 calls)
     mix_rho      :      0.84s CPU      0.92s WALL (      21 calls)

     Called by c_bands:
     init_us_2    :     17.04s CPU     17.09s WALL (     360 calls)
     cegterg      :   3335.10s CPU   3449.37s WALL (     168 calls)

     Called by sum_band:
     sum_band:bec :      0.17s CPU      0.17s WALL (     168 calls)
     addusdens    :      9.04s CPU     11.57s WALL (      21 calls)

     Called by *egterg:
     h_psi        :   1743.23s CPU   1831.98s WALL (     692 calls)
     s_psi        :    460.64s CPU    460.71s WALL (     692 calls)
     g_psi        :      7.62s CPU      7.62s WALL (     516 calls)
     cdiaghg      :    156.97s CPU    157.01s WALL (     684 calls)

     Called by h_psi:
     h_psi:pot    :   1732.29s CPU   1820.88s WALL (     692 calls)
     h_psi:calbec :    445.85s CPU    446.50s WALL (     692 calls)
     vloc_psi     :    825.35s CPU    913.21s WALL (     692 calls)
     add_vuspsi   :    461.08s CPU    461.16s WALL (     692 calls)

     General routines
     calbec       :    646.18s CPU    647.13s WALL (     900 calls)
     fft          :      2.22s CPU      2.81s WALL (     310 calls)
     fftw         :    892.27s CPU    995.49s WALL (  248842 calls)
 
     Parallel routines
     fft_scatter  :    159.72s CPU    256.39s WALL (  249152 calls)
 
     PWSCF        :     1h 8m CPU        1h11m WALL

 
   This run was terminated on:   6:51:52   4Nov2017            

=------------------------------------------------------------------------------=
   JOB DONE.
=------------------------------------------------------------------------------=
