
     Program PWSCF v.6.1 (svn rev. 13369) starts on 19Dec2017 at  0:41:12 

     This program is part of the open-source Quantum ESPRESSO suite
     for quantum simulation of materials; please cite
         "P. Giannozzi et al., J. Phys.:Condens. Matter 21 395502 (2009);
          URL http://www.quantum-espresso.org", 
     in publications or presentations arising from this work. More details at
     http://www.quantum-espresso.org/quote

     Parallel version (MPI), running on     8 processors
     R & G space division:  proc/nbgrp/npool/nimage =       8
     Waiting for input...
     Reading input from standard input

     Current dimensions of program PWSCF are:
     Max number of different atomic species (ntypx) = 10
     Max number of k-points (npk) =  40000
     Max angular momentum in pseudopotentials (lmaxx) =  3
               file C.pbe-n-kjpaw_psl.0.1.UPF: wavefunction(s)  2P renormalized
               file N.pbe-n-kjpaw_psl.0.1.UPF: wavefunction(s)  2P renormalized
               file H.pbe-kjpaw_psl.0.1.UPF: wavefunction(s)  1S renormalized
               file O.pbe-n-kjpaw_psl.0.1.UPF: wavefunction(s)  2P renormalized

     -------------------------------------
     Parameters for Dispersion Correction:
     -------------------------------------
       atom      VdW radius       C_6     

        C          2.744         60.710
        N          2.640         42.670
        H          1.892          4.857
        O          2.536         24.284

     Subspace diagonalization in iterative solution of the eigenvalue problem:
     a serial algorithm will be used

 
     Parallelization info
     --------------------
     sticks:   dense  smooth     PW     G-vecs:    dense   smooth      PW
     Min        1381    1381    371               127100   127100   17713
     Max        1382    1382    372               127103   127103   17715
     Sum       11053   11053   2969              1016807  1016807  141707
 


     bravais-lattice index     =            0
     lattice parameter (alat)  =      18.8908  a.u.
     unit-cell volume          =    7526.3465 (a.u.)^3
     number of atoms/cell      =          126
     number of atomic types    =            4
     number of electrons       =       336.00
     number of Kohn-Sham states=          201
     kinetic-energy cutoff     =     100.0000  Ry
     charge density cutoff     =     400.0000  Ry
     convergence threshold     =      1.0E-08
     mixing beta               =       0.5000
     number of iterations used =            8  plain     mixing
     Exchange-correlation      =  SLA  PW   PBX  PBC ( 1  4  3  4 0 0)

     celldm(1)=  18.890836  celldm(2)=   0.000000  celldm(3)=   0.000000
     celldm(4)=   0.000000  celldm(5)=   0.000000  celldm(6)=   0.000000

     crystal axes: (cart. coord. in units of alat)
               a(1) = (   1.000000   0.000000   0.000000 )  
               a(2) = (  -0.454188   0.972856   0.000000 )  
               a(3) = (  -0.186173  -0.207716   1.147578 )  

     reciprocal axes: (cart. coord. in units 2 pi/alat)
               b(1) = (  1.000000  0.466860  0.246735 )  
               b(2) = (  0.000000  1.027901  0.186054 )  
               b(3) = (  0.000000  0.000000  0.871401 )  


     PseudoPot. # 1 for  C read from file:
     /scratch/ahofstet/pseudo/C.pbe-n-kjpaw_psl.0.1.UPF
     MD5 check sum: 430fe95172b1e11ef3f8ed03bac87931
     Pseudo is Projector augmented-wave + core cor, Zval =  4.0
     Generated using "atomic" code by A. Dal Corso  v.5.0.99 svn rev. 10869
     Shape of augmentation charge: BESSEL
     Using radial grid of 1073 points,  4 beta functions with: 
                l(1) =   0
                l(2) =   0
                l(3) =   1
                l(4) =   1
     Q(r) pseudized with 0 coefficients 


     PseudoPot. # 2 for  N read from file:
     /scratch/ahofstet/pseudo/N.pbe-n-kjpaw_psl.0.1.UPF
     MD5 check sum: f73187c8b701007e77325f868c9291d7
     Pseudo is Projector augmented-wave + core cor, Zval =  5.0
     Generated using "atomic" code by A. Dal Corso  v.5.0.99 svn rev. 10869
     Shape of augmentation charge: PSQ
     Using radial grid of 1085 points,  4 beta functions with: 
                l(1) =   0
                l(2) =   0
                l(3) =   1
                l(4) =   1
     Q(r) pseudized with 0 coefficients 


     PseudoPot. # 3 for  H read from file:
     /scratch/ahofstet/pseudo/H.pbe-kjpaw_psl.0.1.UPF
     MD5 check sum: 94e484f906d9e9773b2f6e52662335b2
     Pseudo is Projector augmented-wave, Zval =  1.0
     Generated using "atomic" code by A. Dal Corso  v.5.0.99 svn rev. 10869
     Shape of augmentation charge: PSQ
     Using radial grid of  929 points,  2 beta functions with: 
                l(1) =   0
                l(2) =   0
     Q(r) pseudized with 0 coefficients 


     PseudoPot. # 4 for  O read from file:
     /scratch/ahofstet/pseudo/O.pbe-n-kjpaw_psl.0.1.UPF
     MD5 check sum: 3f94a2996a3169367d6eb21d9b593f20
     Pseudo is Projector augmented-wave + core cor, Zval =  6.0
     Generated using "atomic" code by A. Dal Corso  v.5.0.99 svn rev. 10869
     Shape of augmentation charge: BESSEL
     Using radial grid of 1095 points,  4 beta functions with: 
                l(1) =   0
                l(2) =   0
                l(3) =   1
                l(4) =   1
     Q(r) pseudized with 0 coefficients 


     atomic species   valence    mass     pseudopotential
        C              4.00    12.01070      C( 1.00)
        N              5.00    14.00670      N( 1.00)
        H              1.00     1.00794      H( 1.00)
        O              6.00    15.99940      O( 1.00)

      2 Sym. Ops., with inversion, found



   Cartesian axes

     site n.     atom                  positions (alat units)
         1           O   tau(   1) = (   0.3836288   0.7050999   0.5306021  )
         2           O   tau(   2) = (  -0.0239893   0.0600400   0.6169756  )
         3           C   tau(   3) = (   0.3453942   0.8000001   0.4609530  )
         4           C   tau(   4) = (   0.0142453  -0.0348603   0.6866248  )
         5           C   tau(   5) = (   0.4076787   0.8308511   0.3292747  )
         6           C   tau(   6) = (  -0.0480391  -0.0657113   0.8183030  )
         7           O   tau(   7) = (   0.8909449   0.0002508   0.1460017  )
         8           O   tau(   8) = (  -0.5313053   0.7648890   1.0015761  )
         9           C   tau(   9) = (   0.8232339  -0.0306467   0.2593458  )
        10           C   tau(  10) = (  -0.4635944   0.7957865   0.8882320  )
        11           O   tau(  11) = (   0.6908559   0.1707024   0.2477705  )
        12           O   tau(  12) = (  -0.3312164   0.5944374   0.8998073  )
        13           C   tau(  13) = (   0.7182977   0.0665589   0.3085100  )
        14           C   tau(  14) = (  -0.3586582   0.6985809   0.8390677  )
        15           C   tau(  15) = (   0.6568068   0.0265885   0.4333481  )
        16           C   tau(  16) = (  -0.2971672   0.7385513   0.7142297  )
        17           O   tau(  17) = (   0.5571139   0.0985618   0.4928395  )
        18           O   tau(  18) = (  -0.1974744   0.6665781   0.6547382  )
        19           C   tau(  19) = (   0.5253713   0.0294242   0.6077259  )
        20           C   tau(  20) = (  -0.1657318   0.7357157   0.5398519  )
        21           C   tau(  21) = (   0.4269253   0.0690472   0.6983233  )
        22           C   tau(  22) = (  -0.0672857   0.6960926   0.4492545  )
        23           O   tau(  23) = (   0.3059381   0.0115549   0.8929695  )
        24           O   tau(  24) = (   0.0537014   0.7535849   0.2546082  )
        25           C   tau(  25) = (   0.4071787  -0.0189208   0.8058672  )
        26           C   tau(  26) = (  -0.0475392   0.7840606   0.3417106  )
        27           O   tau(  27) = (  -0.0162520   0.7480576   0.9172443  )
        28           O   tau(  28) = (   0.3758916   0.0170822   0.2303334  )
        29           C   tau(  29) = (   0.4797484  -0.1424561   0.8166322  )
        30           C   tau(  30) = (  -0.1201088   0.9075959   0.3309456  )
        31           C   tau(  31) = (   0.1266575   0.7975076   0.7266223  )
        32           C   tau(  32) = (   0.2329821  -0.0323677   0.4209554  )
        33           H   tau(  33) = (   0.1827512   0.7046154   0.7343871  )
        34           H   tau(  34) = (   0.1768884   0.0605245   0.4131906  )
        35           C   tau(  35) = (   0.6046764  -0.0868018   0.6202286  )
        36           C   tau(  36) = (  -0.2450369   0.8519416   0.5273492  )
        37           C   tau(  37) = (   0.6906546  -0.0851333   0.5058448  )
        38           C   tau(  38) = (  -0.3310151   0.8502731   0.6417330  )
        39           C   tau(  39) = (   0.5137749   0.7370325   0.2791370  )
        40           C   tau(  40) = (  -0.1541354   0.0281073   0.8684407  )
        41           H   tau(  41) = (   0.5615221   0.6902702   0.3664869  )
        42           H   tau(  42) = (  -0.2018826   0.0748696   0.7810908  )
        43           H   tau(  43) = (  -0.4093647   0.7937624   0.2248140  )
        44           H   tau(  44) = (   0.7690042  -0.0286225   0.9227638  )
        45           C   tau(  45) = (   0.4635485   0.6226214   0.1858970  )
        46           C   tau(  46) = (  -0.1039090   0.1425185   0.9616808  )
        47           C   tau(  47) = (   0.3565170   0.5382255   0.2562626  )
        48           C   tau(  48) = (   0.0031226   0.2269144   0.8913152  )
        49           H   tau(  49) = (   0.3252964   0.4553847   0.1906775  )
        50           H   tau(  50) = (   0.0343431   0.3097551   0.9569002  )
        51           H   tau(  51) = (   0.2675580   0.5987969   0.2788631  )
        52           H   tau(  52) = (   0.0920815   0.1663430   0.8687147  )
        53           H   tau(  53) = (   0.3945683   0.4962826   0.3505345  )
        54           H   tau(  54) = (  -0.0349288   0.2688572   0.7970433  )
        55           C   tau(  55) = (   0.5844204   0.5345203   0.1524434  )
        56           C   tau(  56) = (  -0.2247809   0.2306195   0.9951344  )
        57           H   tau(  57) = (   0.5549499   0.4521553   0.0857028  )
        58           H   tau(  58) = (  -0.1953104   0.3129845   1.0618750  )
        59           H   tau(  59) = (   0.6281623   0.4902439   0.2430903  )
        60           H   tau(  60) = (  -0.2685228   0.2748959   0.9044875  )
        61           H   tau(  61) = (   0.6626723   0.5927460   0.1012313  )
        62           H   tau(  62) = (  -0.3030328   0.1723938   1.0463465  )
        63           C   tau(  63) = (   0.4047733   0.6794083   0.0562001  )
        64           C   tau(  64) = (  -0.0451338   0.0857315   1.0913777  )
        65           H   tau(  65) = (   0.1844003   0.3894486   1.1389596  )
        66           H   tau(  66) = (   0.1752393   0.3756912   0.0086181  )
        67           H   tau(  67) = (   0.4795009   0.7379923   0.0007289  )
        68           H   tau(  68) = (  -0.1198613   0.0271475   1.1468489  )
        69           H   tau(  69) = (   0.3187106   0.7444270   0.0773401  )
        70           H   tau(  70) = (   0.0409290   0.0207128   1.0702376  )
        71           C   tau(  71) = (   0.3454259   0.1938002   0.6782586  )
        72           C   tau(  72) = (   0.0142136   0.5713396   0.4693192  )
        73           H   tau(  73) = (   0.2451775   0.1784105   0.7202665  )
        74           H   tau(  74) = (   0.1144621   0.5867294   0.4273113  )
        75           H   tau(  75) = (   0.3329959   0.2097578   0.5700630  )
        76           H   tau(  76) = (   0.0266437   0.5553820   0.5775148  )
        77           C   tau(  77) = (   0.4050100   0.3240462   0.7387533  )
        78           C   tau(  78) = (  -0.0453704   0.4410936   0.4088244  )
        79           C   tau(  79) = (   0.4216096   0.3110651   0.8905326  )
        80           C   tau(  80) = (  -0.0619700   0.4540747   0.2570451  )
        81           H   tau(  81) = (   0.4649799   0.4036540   0.9312450  )
        82           H   tau(  82) = (  -0.1053404   0.3614858   0.2163328  )
        83           H   tau(  83) = (   0.4895516   0.2284056   0.9157892  )
        84           H   tau(  84) = (  -0.1299121   0.5367343   0.2317886  )
        85           H   tau(  85) = (   0.3246995   0.2927699   0.9392460  )
        86           H   tau(  86) = (   0.0349400   0.4723699   0.2083318  )
        87           C   tau(  87) = (   0.3066225   0.4377990   0.7086060  )
        88           C   tau(  88) = (   0.0530170   0.3273408   0.4389718  )
        89           H   tau(  89) = (   0.3447984   0.5327727   0.7489044  )
        90           H   tau(  90) = (   0.0148411   0.2323672   0.3986734  )
        91           H   tau(  91) = (   0.2082536   0.4169102   0.7536516  )
        92           H   tau(  92) = (   0.1513859   0.3482296   0.3939262  )
        93           H   tau(  93) = (   0.2929460   0.4518375   0.6004399  )
        94           H   tau(  94) = (   0.0666935   0.3133023   0.5471379  )
        95           C   tau(  95) = (   0.5406814   0.3554466   0.6748229  )
        96           C   tau(  96) = (  -0.1810418   0.4096933   0.4727549  )
        97           H   tau(  97) = (   0.5824454   0.4477017   0.7171844  )
        98           H   tau(  98) = (  -0.2228058   0.3174381   0.4303934  )
        99           H   tau(  99) = (   0.5313625   0.3678844   0.5659780  )
       100           H   tau( 100) = (  -0.1717230   0.3972555   0.5815998  )
       101           H   tau( 101) = (   0.6129017   0.2745920   0.6935479  )
       102           H   tau( 102) = (  -0.2532622   0.4905478   0.4540298  )
       103           C   tau( 103) = (   0.8214595   0.0547462   0.0314183  )
       104           C   tau( 104) = (  -0.4618200   0.7103937   1.1161595  )
       105           H   tau( 105) = (   0.7193635   0.0149542   0.0247522  )
       106           H   tau( 106) = (  -0.3597239   0.7501856   1.1228256  )
       107           H   tau( 107) = (   0.6938288  -0.1851209   1.0919549  )
       108           H   tau( 108) = (  -0.3341893   0.9502607   0.0556229  )
       109           H   tau( 109) = (   0.8174292   0.1641789   0.0370894  )
       110           H   tau( 110) = (  -0.4577897   0.6009609   1.1104883  )
       111           C   tau( 111) = (   0.3336238   0.0095687   1.0341162  )
       112           C   tau( 112) = (   0.0260157   0.7555711   0.1134616  )
       113           H   tau( 113) = (   0.3110836  -0.0889341   1.0773049  )
       114           H   tau( 114) = (   0.0485559   0.8540739   0.0702728  )
       115           H   tau( 115) = (   0.2688203   0.0861981   1.0787689  )
       116           H   tau( 116) = (   0.0908193   0.6789417   0.0688089  )
       117           H   tau( 117) = (   0.4386506   0.0349843   1.0545310  )
       118           H   tau( 118) = (  -0.0790111   0.7301556   0.0930468  )
       119           C   tau( 119) = (   0.0284679   0.6120590   0.9128203  )
       120           C   tau( 120) = (   0.3311717   0.1530808   0.2347574  )
       121           H   tau( 121) = (   0.0059738   0.5676624   0.8145781  )
       122           H   tau( 122) = (   0.3536657   0.1974774   0.3329997  )
       123           H   tau( 123) = (  -0.0281387   0.5596849   0.9906556  )
       124           H   tau( 124) = (   0.3877782   0.2054549   0.1569222  )
       125           H   tau( 125) = (   0.1364911   0.6045169   0.9331511  )
       126           H   tau( 126) = (   0.2231484   0.1606230   0.2144267  )

     number of k points=     8
                       cart. coord. in units 2pi/alat
        k(    1) = (   0.0000000   0.0000000   0.0000000), wk =   0.2500000
        k(    2) = (   0.0000000   0.0000000  -0.4357003), wk =   0.2500000
        k(    3) = (   0.0000000  -0.5139507  -0.0930271), wk =   0.2500000
        k(    4) = (   0.0000000  -0.5139507  -0.5287274), wk =   0.2500000
        k(    5) = (  -0.5000000  -0.2334301  -0.1233673), wk =   0.2500000
        k(    6) = (  -0.5000000  -0.2334301  -0.5590676), wk =   0.2500000
        k(    7) = (  -0.5000000  -0.7473808  -0.2163944), wk =   0.2500000
        k(    8) = (  -0.5000000  -0.7473808  -0.6520947), wk =   0.2500000

     Dense  grid:  1016807 G-vectors     FFT dimensions: ( 125, 135, 144)

     Estimated max dynamical RAM per process >    1078.83MB

     Estimated total allocated dynamical RAM >    8630.65MB

     Check: negative/imaginary core charge=   -0.000002    0.000000

     Initial potential from superposition of free atoms

     starting charge  335.99729, renormalised to  336.00000
     Starting wfc are  312 randomized atomic wfcs
     Checking if some PAW data can be deallocated... 

     total cpu time spent up to now is       86.1 secs

     per-process dynamical memory:   730.7 Mb

     Self-consistent Calculation

     iteration #  1     ecut=   100.00 Ry     beta=0.50
     Davidson diagonalization with overlap
     ethr =  1.00E-02,  avg # of iterations =  5.4

     total cpu time spent up to now is      338.5 secs

     total energy              =   -1495.51060330 Ry
     Harris-Foulkes estimate   =   -1502.38834140 Ry
     estimated scf accuracy    <      13.16322952 Ry

     iteration #  2     ecut=   100.00 Ry     beta=0.50
     Davidson diagonalization with overlap
     ethr =  3.92E-03,  avg # of iterations =  2.0

     total cpu time spent up to now is      452.8 secs

     total energy              =   -1495.93098191 Ry
     Harris-Foulkes estimate   =   -1496.91512980 Ry
     estimated scf accuracy    <       1.90982610 Ry

     iteration #  3     ecut=   100.00 Ry     beta=0.50
     Davidson diagonalization with overlap
     ethr =  5.68E-04,  avg # of iterations =  5.0

     total cpu time spent up to now is      723.1 secs

     total energy              =   -1497.56822825 Ry
     Harris-Foulkes estimate   =   -1498.61313422 Ry
     estimated scf accuracy    <       3.17792903 Ry

     iteration #  4     ecut=   100.00 Ry     beta=0.50
     Davidson diagonalization with overlap
     ethr =  5.68E-04,  avg # of iterations =  3.6

     total cpu time spent up to now is      844.1 secs

     total energy              =   -1497.39719641 Ry
     Harris-Foulkes estimate   =   -1497.80548366 Ry
     estimated scf accuracy    <       0.91121877 Ry

     iteration #  5     ecut=   100.00 Ry     beta=0.50
     Davidson diagonalization with overlap
     ethr =  2.71E-04,  avg # of iterations =  6.9

     total cpu time spent up to now is     1037.5 secs

     total energy              =   -1497.78071945 Ry
     Harris-Foulkes estimate   =   -1497.79616022 Ry
     estimated scf accuracy    <       0.16631654 Ry

     iteration #  6     ecut=   100.00 Ry     beta=0.50
     Davidson diagonalization with overlap
     ethr =  4.95E-05,  avg # of iterations =  4.8

     total cpu time spent up to now is     1180.5 secs

     total energy              =   -1497.74367426 Ry
     Harris-Foulkes estimate   =   -1497.80765737 Ry
     estimated scf accuracy    <       0.13633496 Ry

     iteration #  7     ecut=   100.00 Ry     beta=0.50
     Davidson diagonalization with overlap
     ethr =  4.06E-05,  avg # of iterations =  2.0

     total cpu time spent up to now is     1295.6 secs

     total energy              =   -1497.74007976 Ry
     Harris-Foulkes estimate   =   -1497.75609211 Ry
     estimated scf accuracy    <       0.02909438 Ry

     iteration #  8     ecut=   100.00 Ry     beta=0.50
     Davidson diagonalization with overlap
     ethr =  8.66E-06,  avg # of iterations =  6.6

     total cpu time spent up to now is     1555.0 secs

     total energy              =   -1497.75982563 Ry
     Harris-Foulkes estimate   =   -1497.76342965 Ry
     estimated scf accuracy    <       0.01158382 Ry

     iteration #  9     ecut=   100.00 Ry     beta=0.50
     Davidson diagonalization with overlap
     c_bands:  1 eigenvalues not converged
     c_bands:  1 eigenvalues not converged
     ethr =  3.45E-06,  avg # of iterations =  6.5

     total cpu time spent up to now is     1676.8 secs

     total energy              =   -1497.75695758 Ry
     Harris-Foulkes estimate   =   -1497.76012746 Ry
     estimated scf accuracy    <       0.00501268 Ry

     iteration # 10     ecut=   100.00 Ry     beta=0.50
     Davidson diagonalization with overlap
     ethr =  1.49E-06,  avg # of iterations =  8.6

     total cpu time spent up to now is     1911.2 secs

     total energy              =   -1497.75980192 Ry
     Harris-Foulkes estimate   =   -1497.76109906 Ry
     estimated scf accuracy    <       0.00389374 Ry

     iteration # 11     ecut=   100.00 Ry     beta=0.50
     Davidson diagonalization with overlap
     ethr =  1.16E-06,  avg # of iterations =  1.0

     total cpu time spent up to now is     2019.8 secs

     total energy              =   -1497.75908756 Ry
     Harris-Foulkes estimate   =   -1497.75991546 Ry
     estimated scf accuracy    <       0.00164408 Ry

     iteration # 12     ecut=   100.00 Ry     beta=0.50
     Davidson diagonalization with overlap
     ethr =  4.89E-07,  avg # of iterations =  4.0

     total cpu time spent up to now is     2191.7 secs

     total energy              =   -1497.75996472 Ry
     Harris-Foulkes estimate   =   -1497.75999788 Ry
     estimated scf accuracy    <       0.00028560 Ry

     iteration # 13     ecut=   100.00 Ry     beta=0.50
     Davidson diagonalization with overlap
     ethr =  8.50E-08,  avg # of iterations =  1.0

     total cpu time spent up to now is     2299.6 secs

     total energy              =   -1497.75988944 Ry
     Harris-Foulkes estimate   =   -1497.75997242 Ry
     estimated scf accuracy    <       0.00021990 Ry

     iteration # 14     ecut=   100.00 Ry     beta=0.50
     Davidson diagonalization with overlap
     ethr =  6.54E-08,  avg # of iterations =  4.2

     total cpu time spent up to now is     2436.0 secs

     total energy              =   -1497.75991573 Ry
     Harris-Foulkes estimate   =   -1497.75992242 Ry
     estimated scf accuracy    <       0.00001713 Ry

     iteration # 15     ecut=   100.00 Ry     beta=0.50
     Davidson diagonalization with overlap
     ethr =  5.10E-09,  avg # of iterations =  5.0

     total cpu time spent up to now is     2626.3 secs

     total energy              =   -1497.75992166 Ry
     Harris-Foulkes estimate   =   -1497.75992211 Ry
     estimated scf accuracy    <       0.00000143 Ry

     iteration # 16     ecut=   100.00 Ry     beta=0.50
     Davidson diagonalization with overlap
     ethr =  4.26E-10,  avg # of iterations =  5.0

     total cpu time spent up to now is     2750.3 secs

     total energy              =   -1497.75992176 Ry
     Harris-Foulkes estimate   =   -1497.75992188 Ry
     estimated scf accuracy    <       0.00000043 Ry

     iteration # 17     ecut=   100.00 Ry     beta=0.50
     Davidson diagonalization with overlap
     ethr =  1.29E-10,  avg # of iterations =  4.0

     total cpu time spent up to now is     2952.8 secs

     total energy              =   -1497.75992185 Ry
     Harris-Foulkes estimate   =   -1497.75992199 Ry
     estimated scf accuracy    <       0.00000038 Ry

     iteration # 18     ecut=   100.00 Ry     beta=0.50
     Davidson diagonalization with overlap
     ethr =  1.13E-10,  avg # of iterations =  1.0

     total cpu time spent up to now is     3060.5 secs

     total energy              =   -1497.75992181 Ry
     Harris-Foulkes estimate   =   -1497.75992187 Ry
     estimated scf accuracy    <       0.00000011 Ry

     iteration # 19     ecut=   100.00 Ry     beta=0.50
     Davidson diagonalization with overlap
     ethr =  3.16E-11,  avg # of iterations =  4.0

     total cpu time spent up to now is     3267.0 secs

     total energy              =   -1497.75992188 Ry
     Harris-Foulkes estimate   =   -1497.75992191 Ry
     estimated scf accuracy    <       0.00000011 Ry

     iteration # 20     ecut=   100.00 Ry     beta=0.50
     Davidson diagonalization with overlap
     ethr =  3.16E-11,  avg # of iterations =  1.0

     total cpu time spent up to now is     3375.0 secs

     total energy              =   -1497.75992186 Ry
     Harris-Foulkes estimate   =   -1497.75992188 Ry
     estimated scf accuracy    <       0.00000005 Ry

     iteration # 21     ecut=   100.00 Ry     beta=0.50
     Davidson diagonalization with overlap
     ethr =  1.36E-11,  avg # of iterations =  4.0

     total cpu time spent up to now is     3569.5 secs

     total energy              =   -1497.75992188 Ry
     Harris-Foulkes estimate   =   -1497.75992189 Ry
     estimated scf accuracy    <       0.00000002 Ry

     iteration # 22     ecut=   100.00 Ry     beta=0.50
     Davidson diagonalization with overlap
     ethr =  6.93E-12,  avg # of iterations =  1.0

     total cpu time spent up to now is     3677.8 secs

     total energy              =   -1497.75992188 Ry
     Harris-Foulkes estimate   =   -1497.75992188 Ry
     estimated scf accuracy    <       0.00000001 Ry

     iteration # 23     ecut=   100.00 Ry     beta=0.50
     Davidson diagonalization with overlap
     ethr =  2.99E-12,  avg # of iterations =  4.0

     total cpu time spent up to now is     3848.8 secs

     End of self-consistent calculation

          k = 0.0000 0.0000 0.0000 (127103 PWs)   bands (ev):

   -22.0964 -22.0907 -20.9738 -20.9732 -20.8687 -20.8503 -20.3605 -20.3594
   -19.8263 -19.8225 -19.7595 -19.7090 -15.5085 -15.4018 -15.0101 -14.9879
   -14.4579 -14.4304 -14.1197 -14.1126 -13.5701 -13.5677 -12.9437 -12.9357
   -12.7236 -12.7127 -11.8110 -11.7860 -11.6407 -11.5916 -11.5728 -11.5284
   -10.8258 -10.8065 -10.6966 -10.6351 -10.5941 -10.5786 -10.5237 -10.4982
   -10.4314 -10.3973 -10.3475 -10.2379 -10.1906 -10.1766  -9.1886  -9.1818
    -8.9786  -8.9678  -8.3924  -8.3821  -7.9703  -7.9500  -7.3805  -7.3502
    -7.2984  -7.2039  -6.9742  -6.9031  -6.7543  -6.7524  -6.5486  -6.4782
    -6.4231  -6.3634  -6.1902  -6.0422  -6.0076  -5.8529  -5.6711  -5.5955
    -5.5174  -5.5077  -5.4224  -5.3841  -5.3262  -5.2571  -5.2026  -5.1636
    -5.0005  -4.9599  -4.8791  -4.8272  -4.8230  -4.7502  -4.7367  -4.6827
    -4.6729  -4.6442  -4.5735  -4.5729  -4.4893  -4.4544  -4.3736  -4.3218
    -4.3194  -4.2439  -4.2049  -4.1267  -4.1022  -4.0884  -4.0135  -3.7999
    -3.7502  -3.7265  -3.6708  -3.5612  -3.5560  -3.5198  -3.4531  -3.3295
    -3.2653  -3.2303  -3.0702  -3.0349  -2.9790  -2.9605  -2.9448  -2.9276
    -2.8778  -2.7099  -2.6024  -2.5872  -2.5288  -2.4983  -2.4917  -2.4404
    -2.3969  -2.3392  -2.3319  -2.2775  -2.2296  -2.2153  -2.1787  -2.1378
    -2.0254  -1.9316  -1.8493  -1.7866  -1.7768  -1.6925  -1.6414  -1.6056
    -1.5585  -1.5364  -1.4670  -1.4043  -1.3847  -1.3349  -1.2763  -1.2003
    -1.1448  -1.1093  -1.0182  -0.9462  -0.6599  -0.5520  -0.0627   0.0415
     0.1814   0.2327   0.2958   0.3391   0.5893   0.6201   0.8958   0.9598
     2.2881   2.3225   4.4565   4.5030   5.1524   5.3750   5.4626   5.4775
     5.5485   5.9585   6.0332   6.0589   6.4075   6.5416   6.6047   6.6486
     6.7588   6.8167   6.8512   7.0563   7.0669   7.1667   7.2891   7.3332
     7.3434   7.6279   7.6470   7.8203   7.8469   7.9481   8.0380   8.0856
     8.1520

          k = 0.0000 0.0000-0.4357 (127106 PWs)   bands (ev):

   -22.0964 -22.0907 -20.9755 -20.9718 -20.8681 -20.8505 -20.3605 -20.3595
   -19.8261 -19.8228 -19.7595 -19.7090 -15.5072 -15.4028 -15.0129 -14.9869
   -14.4552 -14.4263 -14.1341 -14.1156 -13.5730 -13.5303 -12.9559 -12.9334
   -12.7360 -12.7322 -11.8309 -11.7817 -11.6362 -11.6120 -11.5087 -11.4970
   -10.8144 -10.8107 -10.6803 -10.6384 -10.6197 -10.5928 -10.5520 -10.5343
   -10.4288 -10.3788 -10.3332 -10.2437 -10.2170 -10.2027  -9.1290  -9.1089
    -8.9955  -8.9670  -8.3597  -8.3462  -8.0318  -7.9917  -7.4365  -7.4308
    -7.2556  -7.2432  -6.9508  -6.9177  -6.8029  -6.7508  -6.5527  -6.4424
    -6.2903  -6.2470  -6.1913  -6.0645  -6.0455  -5.8864  -5.6214  -5.6082
    -5.5475  -5.5446  -5.4911  -5.3024  -5.2715  -5.2559  -5.2028  -5.1460
    -5.0367  -4.9802  -4.9154  -4.8079  -4.8007  -4.7866  -4.7260  -4.7104
    -4.6335  -4.6214  -4.5823  -4.5605  -4.5051  -4.4329  -4.4050  -4.3419
    -4.3045  -4.2726  -4.2551  -4.1641  -4.1067  -4.0212  -3.9680  -3.7974
    -3.7959  -3.7183  -3.7025  -3.6150  -3.4942  -3.4905  -3.4041  -3.3658
    -3.3167  -3.1894  -3.0711  -3.0535  -2.9830  -2.9581  -2.9487  -2.8996
    -2.8626  -2.7326  -2.5885  -2.5775  -2.5342  -2.5327  -2.4670  -2.4055
    -2.3868  -2.3676  -2.2764  -2.2714  -2.2146  -2.2145  -2.2079  -2.1601
    -2.0308  -1.9332  -1.8530  -1.8185  -1.7687  -1.7407  -1.6093  -1.5731
    -1.5531  -1.5281  -1.4541  -1.4407  -1.3850  -1.3093  -1.2734  -1.1897
    -1.1805  -1.1205  -1.0358  -0.9186  -0.6565  -0.6131  -0.0253   0.0042
     0.2203   0.2331   0.3066   0.3739   0.6068   0.6457   0.8369   0.9474
     2.2787   2.3158   4.4441   4.5211   5.1579   5.3404   5.4757   5.4940
     5.6974   5.7287   5.9700   6.1985   6.4361   6.5806   6.5882   6.7396
     6.7569   6.7620   6.8517   6.9269   7.0099   7.1523   7.3234   7.3806
     7.5558   7.6912   7.7102   7.7122   7.9165   7.9217   8.0153   8.0776
     8.1092

          k = 0.0000-0.5140-0.0930 (127072 PWs)   bands (ev):

   -22.0964 -22.0907 -20.9738 -20.9732 -20.8687 -20.8503 -20.3605 -20.3594
   -19.8264 -19.8225 -19.7595 -19.7090 -15.5082 -15.4020 -15.0112 -14.9858
   -14.4632 -14.4180 -14.1458 -14.1094 -13.5661 -13.5457 -12.9451 -12.9394
   -12.7225 -12.7191 -11.8030 -11.7992 -11.6116 -11.5912 -11.5787 -11.5370
   -10.8368 -10.8037 -10.6653 -10.6350 -10.6164 -10.5990 -10.5399 -10.5373
   -10.4204 -10.3636 -10.3574 -10.2315 -10.1816 -10.1775  -9.1795  -9.1751
    -8.9970  -8.9851  -8.4186  -8.3899  -7.9188  -7.8992  -7.3595  -7.3179
    -7.2275  -7.1836  -6.9129  -6.8700  -6.8519  -6.7643  -6.6568  -6.5203
    -6.4281  -6.3954  -6.1664  -6.0304  -6.0023  -5.8540  -5.6584  -5.6057
    -5.4994  -5.4890  -5.4352  -5.3671  -5.3505  -5.2732  -5.2110  -5.1804
    -4.9687  -4.9340  -4.8884  -4.8778  -4.8487  -4.8197  -4.7996  -4.7191
    -4.6821  -4.6219  -4.5835  -4.5566  -4.5041  -4.4954  -4.4073  -4.3800
    -4.3005  -4.1987  -4.1949  -4.0828  -4.0668  -3.9981  -3.9896  -3.8234
    -3.7752  -3.7418  -3.6949  -3.6530  -3.5047  -3.4954  -3.3631  -3.3094
    -3.2916  -3.1798  -3.0856  -3.0420  -3.0070  -2.9669  -2.8786  -2.8106
    -2.8076  -2.6587  -2.6336  -2.6310  -2.5630  -2.5387  -2.4190  -2.4090
    -2.3656  -2.3529  -2.3272  -2.3075  -2.2640  -2.2253  -2.1941  -2.1276
    -2.0532  -1.9181  -1.8638  -1.8078  -1.7224  -1.6558  -1.6469  -1.5868
    -1.5852  -1.5427  -1.4769  -1.4509  -1.3590  -1.3530  -1.2827  -1.2141
    -1.1470  -1.0997  -1.0428  -0.9839  -0.6937  -0.5553  -0.0730   0.0577
     0.1832   0.2394   0.2885   0.3607   0.6031   0.6298   0.8774   0.9553
     2.2835   2.3311   4.4458   4.5040   5.1505   5.3761   5.4599   5.5350
     5.7803   5.9353   5.9458   6.0610   6.1863   6.2677   6.5850   6.6107
     6.6597   6.8141   7.0016   7.0569   7.2422   7.3068   7.3742   7.3746
     7.4775   7.6250   7.6409   7.7327   7.7724   7.8701   7.9473   8.0209
     8.0285

          k = 0.0000-0.5140-0.5287 (127062 PWs)   bands (ev):

   -22.0964 -22.0907 -20.9755 -20.9718 -20.8681 -20.8505 -20.3605 -20.3595
   -19.8260 -19.8228 -19.7595 -19.7090 -15.5069 -15.4030 -15.0133 -14.9853
   -14.4587 -14.4273 -14.1417 -14.1044 -13.5793 -13.5271 -12.9579 -12.9373
   -12.7259 -12.7196 -11.8442 -11.7857 -11.6366 -11.5959 -11.5140 -11.5057
   -10.8217 -10.8122 -10.6984 -10.6509 -10.5971 -10.5785 -10.5598 -10.5042
   -10.4160 -10.3728 -10.3720 -10.2419 -10.2344 -10.2027  -9.1358  -9.1101
    -9.0047  -8.9963  -8.3443  -8.3232  -7.9881  -7.9481  -7.4484  -7.4180
    -7.2517  -7.1794  -6.8922  -6.8816  -6.8162  -6.7979  -6.6824  -6.4848
    -6.2924  -6.2522  -6.1801  -6.0684  -6.0012  -5.8953  -5.6349  -5.6119
    -5.5564  -5.5094  -5.4852  -5.3152  -5.2805  -5.2358  -5.1992  -5.1538
    -5.0231  -4.9724  -4.8899  -4.8711  -4.8634  -4.8502  -4.7731  -4.7625
    -4.6797  -4.6151  -4.5650  -4.5586  -4.5482  -4.4896  -4.4097  -4.3588
    -4.2943  -4.2175  -4.1875  -4.1235  -4.0789  -3.9872  -3.9739  -3.7871
    -3.7503  -3.7316  -3.7025  -3.6480  -3.5573  -3.5131  -3.4185  -3.2607
    -3.2379  -3.1787  -3.0729  -3.0223  -3.0131  -2.9592  -2.9005  -2.8802
    -2.7978  -2.6255  -2.6206  -2.6183  -2.5613  -2.5400  -2.4279  -2.4017
    -2.3708  -2.3615  -2.3362  -2.2960  -2.2755  -2.2024  -2.1714  -2.1432
    -2.0295  -1.9569  -1.9094  -1.7796  -1.7062  -1.6747  -1.6290  -1.6219
    -1.5720  -1.5443  -1.4491  -1.4128  -1.4051  -1.2984  -1.2780  -1.2108
    -1.1847  -1.1172  -1.0957  -0.9566  -0.6784  -0.5738  -0.0519   0.0019
     0.2327   0.2391   0.2880   0.3681   0.6209   0.6549   0.8473   0.9538
     2.2722   2.3167   4.4492   4.5181   5.1470   5.3498   5.4717   5.5148
     5.8216   5.9117   5.9802   6.0495   6.1498   6.3492   6.5561   6.6363
     6.6704   6.7808   6.9714   6.9736   7.2616   7.3458   7.3590   7.3875
     7.4927   7.5838   7.7605   7.7691   7.8755   7.8935   8.0372   8.0482
     8.1279

          k =-0.5000-0.2334-0.1234 (127168 PWs)   bands (ev):

   -22.0962 -22.0909 -20.9738 -20.9731 -20.8689 -20.8502 -20.3605 -20.3594
   -19.8260 -19.8228 -19.7595 -19.7090 -15.5088 -15.4023 -15.0024 -14.9955
   -14.4441 -14.4408 -14.1179 -14.1145 -13.5861 -13.5554 -12.9450 -12.9337
   -12.7350 -12.7023 -11.8068 -11.7867 -11.6565 -11.5916 -11.5553 -11.5337
   -10.8173 -10.8054 -10.6556 -10.6478 -10.6193 -10.6171 -10.5357 -10.4598
   -10.4107 -10.3817 -10.3589 -10.2672 -10.1841 -10.1769  -9.2205  -9.1520
    -8.9806  -8.9666  -8.3974  -8.3772  -7.9848  -7.9305  -7.3688  -7.3469
    -7.2646  -7.2495  -6.9294  -6.9288  -6.7712  -6.7632  -6.5536  -6.5130
    -6.3974  -6.3713  -6.1345  -6.0567  -5.9952  -5.8945  -5.6791  -5.6118
    -5.5559  -5.5404  -5.4410  -5.3247  -5.2686  -5.2134  -5.1827  -5.1823
    -5.1085  -4.9092  -4.8575  -4.8455  -4.8144  -4.7595  -4.7242  -4.7149
    -4.6724  -4.5907  -4.5578  -4.5355  -4.5119  -4.4677  -4.3679  -4.3548
    -4.2833  -4.2474  -4.2212  -4.1350  -4.0865  -4.0845  -3.9985  -3.7745
    -3.7589  -3.7494  -3.6844  -3.6341  -3.5570  -3.4878  -3.4218  -3.3524
    -3.2325  -3.1898  -3.1183  -3.1173  -2.9858  -2.9802  -2.9452  -2.9008
    -2.8793  -2.6715  -2.6197  -2.5883  -2.5695  -2.5398  -2.4105  -2.3805
    -2.3543  -2.3385  -2.3092  -2.3004  -2.2539  -2.2185  -2.1992  -2.0997
    -2.0322  -1.9593  -1.8839  -1.7868  -1.7474  -1.6592  -1.5944  -1.5873
    -1.5387  -1.5025  -1.4908  -1.4734  -1.3993  -1.3550  -1.2429  -1.2327
    -1.1317  -1.0797  -1.0140  -0.9848  -0.8240  -0.4345  -0.0273  -0.0075
     0.2333   0.2342   0.2521   0.3308   0.6063   0.6231   0.8621   0.9871
     2.2521   2.3611   4.4381   4.5021   5.1358   5.3178   5.4175   5.6797
     5.9413   5.9486   6.0180   6.1186   6.2248   6.2691   6.3782   6.6041
     6.6280   6.8052   6.9240   6.9318   7.1076   7.1099   7.2899   7.4580
     7.4746   7.5401   7.5464   7.7721   7.7973   8.0294   8.0780   8.1575
     8.2662

          k =-0.5000-0.2334-0.5591 (127056 PWs)   bands (ev):

   -22.0962 -22.0909 -20.9753 -20.9719 -20.8688 -20.8500 -20.3605 -20.3595
   -19.8263 -19.8226 -19.7595 -19.7090 -15.5076 -15.4031 -15.0025 -14.9975
   -14.4473 -14.4315 -14.1251 -14.1236 -13.5580 -13.5497 -12.9562 -12.9336
   -12.7419 -12.7263 -11.8296 -11.7849 -11.6269 -11.6177 -11.5098 -11.4944
   -10.8326 -10.7890 -10.6765 -10.6433 -10.6245 -10.6000 -10.5604 -10.5102
   -10.4024 -10.3802 -10.3593 -10.2459 -10.2328 -10.1908  -9.1225  -9.1171
    -8.9958  -8.9669  -8.3627  -8.3434  -8.0492  -7.9703  -7.4370  -7.4330
    -7.2827  -7.1920  -6.9343  -6.9257  -6.8023  -6.7715  -6.5426  -6.4978
    -6.2916  -6.2411  -6.1628  -6.0546  -6.0302  -5.9209  -5.6537  -5.6499
    -5.5510  -5.5250  -5.4903  -5.2964  -5.2910  -5.2352  -5.1738  -5.1114
    -5.0206  -4.9427  -4.8940  -4.8801  -4.8030  -4.8008  -4.7281  -4.6959
    -4.6922  -4.6352  -4.5629  -4.5092  -4.4948  -4.4352  -4.3707  -4.3309
    -4.3101  -4.2776  -4.1822  -4.1614  -4.1272  -4.0565  -3.9456  -3.8625
    -3.7923  -3.7624  -3.7261  -3.6283  -3.4832  -3.4771  -3.4500  -3.3299
    -3.2401  -3.2236  -3.1346  -3.0681  -2.9799  -2.9707  -2.9683  -2.8611
    -2.8303  -2.7067  -2.6107  -2.5818  -2.5714  -2.5379  -2.3897  -2.3884
    -2.3563  -2.3309  -2.3071  -2.2878  -2.2465  -2.2204  -2.1999  -2.1210
    -1.9563  -1.9488  -1.8984  -1.8415  -1.6907  -1.6783  -1.6265  -1.5729
    -1.5624  -1.5485  -1.5317  -1.4624  -1.3717  -1.3643  -1.2686  -1.2410
    -1.1314  -1.0537  -1.0120  -1.0004  -0.7955  -0.4774  -0.0206   0.0171
     0.2323   0.2515   0.2697   0.3512   0.6152   0.6421   0.8275   0.9660
     2.2430   2.3555   4.4441   4.5033   5.1273   5.3036   5.4518   5.6348
     5.8692   6.0702   6.1216   6.1554   6.1856   6.2389   6.3847   6.4212
     6.6144   6.7963   6.7972   7.0201   7.0513   7.2871   7.3033   7.4557
     7.5120   7.6208   7.8244   7.8379   7.8799   7.9315   7.9593   8.0381
     8.1312

          k =-0.5000-0.7474-0.2164 (127156 PWs)   bands (ev):

   -22.0962 -22.0908 -20.9738 -20.9730 -20.8689 -20.8502 -20.3605 -20.3594
   -19.8261 -19.8228 -19.7596 -19.7090 -15.5083 -15.4027 -15.0019 -14.9950
   -14.4465 -14.4324 -14.1383 -14.1178 -13.5762 -13.5367 -12.9433 -12.9399
   -12.7387 -12.7050 -11.8215 -11.7806 -11.6234 -11.5905 -11.5612 -11.5425
   -10.8143 -10.8059 -10.6751 -10.6411 -10.6320 -10.5953 -10.5709 -10.4998
   -10.4175 -10.3721 -10.3369 -10.2500 -10.1811 -10.1711  -9.2061  -9.1513
    -9.0073  -8.9759  -8.4051  -8.4012  -7.9158  -7.9018  -7.3543  -7.3266
    -7.2495  -7.1628  -6.9174  -6.8937  -6.7756  -6.7710  -6.6228  -6.5569
    -6.4239  -6.3987  -6.1480  -6.0262  -6.0123  -5.9071  -5.6603  -5.6093
    -5.5531  -5.5435  -5.4612  -5.3684  -5.2660  -5.2103  -5.1956  -5.1863
    -5.0674  -4.9586  -4.9493  -4.8833  -4.8181  -4.7932  -4.7629  -4.7181
    -4.6410  -4.6363  -4.6055  -4.5621  -4.4751  -4.4715  -4.4091  -4.3624
    -4.2831  -4.2182  -4.1913  -4.1216  -4.0573  -4.0081  -3.9969  -3.7999
    -3.7300  -3.7283  -3.6797  -3.6621  -3.5529  -3.4082  -3.3976  -3.2726
    -3.2204  -3.1833  -3.1030  -3.0716  -3.0147  -2.9703  -2.9104  -2.8526
    -2.7661  -2.6889  -2.6143  -2.6066  -2.5842  -2.5582  -2.4277  -2.3872
    -2.3723  -2.3252  -2.3012  -2.2838  -2.2532  -2.2298  -2.1915  -2.1738
    -1.9800  -1.9653  -1.8567  -1.8264  -1.7299  -1.7173  -1.6162  -1.5918
    -1.5584  -1.5489  -1.5144  -1.4612  -1.3986  -1.3553  -1.2511  -1.2115
    -1.1443  -1.0969  -1.0522  -1.0104  -0.7797  -0.4838  -0.0119   0.0302
     0.2424   0.2488   0.2556   0.3358   0.6115   0.6272   0.8499   0.9762
     2.2500   2.3637   4.4235   4.5021   5.1428   5.3108   5.4021   5.6718
     5.7647   5.8258   5.9590   6.1587   6.3412   6.3539   6.5795   6.6684
     6.7139   6.7658   6.8835   6.9267   6.9807   7.3249   7.3447   7.4027
     7.4414   7.5182   7.5524   7.7927   7.8899   7.9461   7.9489   8.1373
     8.1726

          k =-0.5000-0.7474-0.6521 (127084 PWs)   bands (ev):

   -22.0962 -22.0908 -20.9753 -20.9719 -20.8688 -20.8500 -20.3605 -20.3595
   -19.8262 -19.8226 -19.7595 -19.7090 -15.5071 -15.4035 -15.0013 -14.9973
   -14.4490 -14.4347 -14.1286 -14.1181 -13.5586 -13.5506 -12.9552 -12.9398
   -12.7291 -12.7165 -11.8315 -11.8002 -11.6287 -11.6013 -11.5200 -11.4993
   -10.8241 -10.8106 -10.6790 -10.6584 -10.6029 -10.5985 -10.5463 -10.4825
   -10.4249 -10.3813 -10.3580 -10.2673 -10.2258 -10.2030  -9.1327  -9.1156
    -9.0126  -8.9851  -8.3403  -8.3287  -7.9918  -7.9460  -7.4457  -7.4181
    -7.2377  -7.1957  -6.9048  -6.8845  -6.8242  -6.7511  -6.6011  -6.5620
    -6.2907  -6.2421  -6.1407  -6.0806  -5.9988  -5.9324  -5.6854  -5.6569
    -5.5651  -5.5258  -5.5051  -5.3330  -5.2508  -5.2246  -5.1573  -5.1085
    -5.0856  -4.9727  -4.8918  -4.8871  -4.8260  -4.8198  -4.7969  -4.7861
    -4.6497  -4.6491  -4.5913  -4.5798  -4.5287  -4.5203  -4.3773  -4.3455
    -4.2625  -4.2331  -4.1593  -4.1072  -4.0912  -4.0199  -3.9343  -3.7825
    -3.7444  -3.6990  -3.6956  -3.6500  -3.5573  -3.4483  -3.4186  -3.2752
    -3.2056  -3.1271  -3.1190  -3.0931  -2.9938  -2.9665  -2.9094  -2.8660
    -2.7793  -2.6973  -2.6304  -2.5890  -2.5690  -2.5404  -2.4048  -2.3943
    -2.3809  -2.3503  -2.3152  -2.2707  -2.2623  -2.2063  -2.1889  -2.1779
    -1.9900  -1.9693  -1.8512  -1.8082  -1.7908  -1.6617  -1.6217  -1.6063
    -1.5505  -1.5097  -1.5026  -1.4892  -1.3662  -1.3608  -1.2896  -1.2614
    -1.1363  -1.1119  -1.0541  -0.9765  -0.7527  -0.5121  -0.0042   0.0032
     0.2436   0.2535   0.2697   0.3359   0.6276   0.6435   0.8473   0.9705
     2.2349   2.3549   4.4336   4.5113   5.1333   5.2828   5.4282   5.6414
     5.9121   5.9304   5.9708   6.0648   6.0941   6.2136   6.6022   6.6766
     6.8340   6.8351   6.8769   6.9832   7.0293   7.2669   7.3152   7.4397
     7.5091   7.6522   7.6765   7.7225   7.8680   7.8734   7.9810   8.0267
     8.0557

     highest occupied, lowest unoccupied level (ev):     0.9871    2.2349

!    total energy              =   -1497.75992188 Ry
     Harris-Foulkes estimate   =   -1497.75992188 Ry
     estimated scf accuracy    <          5.7E-10 Ry

     total all-electron energy =     -5692.127425 Ry

     The total energy is the sum of the following terms:

     one-electron contribution =   -1038.87747275 Ry
     hartree contribution      =     642.98943209 Ry
     xc contribution           =    -341.90253640 Ry
     ewald contribution        =    -312.61661591 Ry
     Dispersion Correction     =      -0.58919927 Ry
     one-center paw contrib.   =    -446.76352964 Ry

     convergence has been achieved in  23 iterations

     Forces acting on atoms (cartesian axes, Ry/au):

     atom    1 type  4   force =    -0.00037802    0.00049409   -0.00059677
     atom    2 type  4   force =     0.00037802   -0.00049409    0.00059677
     atom    3 type  1   force =    -0.00064761   -0.00061313    0.00032261
     atom    4 type  1   force =     0.00064761    0.00061313   -0.00032261
     atom    5 type  1   force =    -0.00058236    0.00000753    0.00053046
     atom    6 type  1   force =     0.00058236   -0.00000753   -0.00053046
     atom    7 type  4   force =     0.00021174    0.00010385    0.00036543
     atom    8 type  4   force =    -0.00021174   -0.00010385   -0.00036543
     atom    9 type  1   force =    -0.00018567    0.00025338    0.00003958
     atom   10 type  1   force =     0.00018567   -0.00025338   -0.00003958
     atom   11 type  4   force =    -0.00097791   -0.00104254    0.00069726
     atom   12 type  4   force =     0.00097791    0.00104254   -0.00069726
     atom   13 type  1   force =    -0.00012485   -0.00002352   -0.00076184
     atom   14 type  1   force =     0.00012485    0.00002352    0.00076184
     atom   15 type  1   force =    -0.00018305   -0.00009461    0.00016575
     atom   16 type  1   force =     0.00018305    0.00009461   -0.00016575
     atom   17 type  4   force =     0.00053315   -0.00036796   -0.00052589
     atom   18 type  4   force =    -0.00053315    0.00036796    0.00052589
     atom   19 type  1   force =    -0.00010223    0.00000702   -0.00022892
     atom   20 type  1   force =     0.00010223   -0.00000702    0.00022892
     atom   21 type  1   force =     0.00069333   -0.00060921   -0.00024034
     atom   22 type  1   force =    -0.00069333    0.00060921    0.00024034
     atom   23 type  4   force =    -0.00004326    0.00000663    0.00072627
     atom   24 type  4   force =     0.00004326   -0.00000663   -0.00072627
     atom   25 type  1   force =    -0.00025187    0.00075636   -0.00051473
     atom   26 type  1   force =     0.00025187   -0.00075636    0.00051473
     atom   27 type  4   force =    -0.00039270   -0.00037278   -0.00012741
     atom   28 type  4   force =     0.00039270    0.00037278    0.00012741
     atom   29 type  1   force =     0.00048018   -0.00019368   -0.00015066
     atom   30 type  1   force =    -0.00048018    0.00019368    0.00015066
     atom   31 type  1   force =     0.00002296    0.00046930    0.00040549
     atom   32 type  1   force =    -0.00002296   -0.00046930   -0.00040549
     atom   33 type  3   force =     0.00007753    0.00071673    0.00006606
     atom   34 type  3   force =    -0.00007753   -0.00071673   -0.00006606
     atom   35 type  1   force =     0.00006936   -0.00084509   -0.00030154
     atom   36 type  1   force =    -0.00006936    0.00084509    0.00030154
     atom   37 type  1   force =    -0.00023628    0.00027972    0.00051779
     atom   38 type  1   force =     0.00023628   -0.00027972   -0.00051779
     atom   39 type  1   force =     0.00013984    0.00044671    0.00033871
     atom   40 type  1   force =    -0.00013984   -0.00044671   -0.00033871
     atom   41 type  3   force =     0.00007181   -0.00012887    0.00007136
     atom   42 type  3   force =    -0.00007181    0.00012887   -0.00007136
     atom   43 type  3   force =     0.00015750    0.00030211   -0.00000225
     atom   44 type  3   force =    -0.00015750   -0.00030211    0.00000225
     atom   45 type  1   force =    -0.00036342    0.00017467    0.00008397
     atom   46 type  1   force =     0.00036342   -0.00017467   -0.00008397
     atom   47 type  1   force =     0.00008008   -0.00011568   -0.00011288
     atom   48 type  1   force =    -0.00008008    0.00011568    0.00011288
     atom   49 type  3   force =     0.00000796   -0.00054163    0.00007904
     atom   50 type  3   force =    -0.00000796    0.00054163   -0.00007904
     atom   51 type  3   force =    -0.00033587   -0.00005872   -0.00029656
     atom   52 type  3   force =     0.00033587    0.00005872    0.00029656
     atom   53 type  3   force =    -0.00010319    0.00041195    0.00015488
     atom   54 type  3   force =     0.00010319   -0.00041195   -0.00015488
     atom   55 type  1   force =     0.00064143   -0.00058577    0.00006824
     atom   56 type  1   force =    -0.00064143    0.00058577   -0.00006824
     atom   57 type  3   force =    -0.00018887   -0.00042937   -0.00065324
     atom   58 type  3   force =     0.00018887    0.00042937    0.00065324
     atom   59 type  3   force =    -0.00042301    0.00010414    0.00010600
     atom   60 type  3   force =     0.00042301   -0.00010414   -0.00010600
     atom   61 type  3   force =    -0.00003073    0.00034447    0.00002073
     atom   62 type  3   force =     0.00003073   -0.00034447   -0.00002073
     atom   63 type  1   force =    -0.00012793    0.00002615   -0.00015778
     atom   64 type  1   force =     0.00012793   -0.00002615    0.00015778
     atom   65 type  3   force =    -0.00010437   -0.00022769   -0.00039273
     atom   66 type  3   force =     0.00010437    0.00022769    0.00039273
     atom   67 type  3   force =     0.00001555    0.00009893    0.00003950
     atom   68 type  3   force =    -0.00001555   -0.00009893   -0.00003950
     atom   69 type  3   force =    -0.00026341   -0.00013373   -0.00020874
     atom   70 type  3   force =     0.00026341    0.00013373    0.00020874
     atom   71 type  1   force =     0.00000225   -0.00009942   -0.00022644
     atom   72 type  1   force =    -0.00000225    0.00009942    0.00022644
     atom   73 type  3   force =    -0.00029660   -0.00025163    0.00052910
     atom   74 type  3   force =     0.00029660    0.00025163   -0.00052910
     atom   75 type  3   force =     0.00007665    0.00016604   -0.00045276
     atom   76 type  3   force =    -0.00007665   -0.00016604    0.00045276
     atom   77 type  1   force =    -0.00014341   -0.00060640   -0.00024059
     atom   78 type  1   force =     0.00014341    0.00060640    0.00024059
     atom   79 type  1   force =     0.00006368   -0.00009956    0.00007241
     atom   80 type  1   force =    -0.00006368    0.00009956   -0.00007241
     atom   81 type  3   force =    -0.00007100    0.00002599    0.00035506
     atom   82 type  3   force =     0.00007100   -0.00002599   -0.00035506
     atom   83 type  3   force =    -0.00023895   -0.00009275    0.00033287
     atom   84 type  3   force =     0.00023895    0.00009275   -0.00033287
     atom   85 type  3   force =    -0.00016721   -0.00022435    0.00031579
     atom   86 type  3   force =     0.00016721    0.00022435   -0.00031579
     atom   87 type  1   force =    -0.00024720    0.00063801    0.00031303
     atom   88 type  1   force =     0.00024720   -0.00063801   -0.00031303
     atom   89 type  3   force =    -0.00012019    0.00028229    0.00027165
     atom   90 type  3   force =     0.00012019   -0.00028229   -0.00027165
     atom   91 type  3   force =     0.00013864   -0.00027863    0.00017929
     atom   92 type  3   force =    -0.00013864    0.00027863   -0.00017929
     atom   93 type  3   force =     0.00040882   -0.00054806   -0.00013623
     atom   94 type  3   force =    -0.00040882    0.00054806    0.00013623
     atom   95 type  1   force =     0.00008214   -0.00005411   -0.00004124
     atom   96 type  1   force =    -0.00008214    0.00005411    0.00004124
     atom   97 type  3   force =     0.00002488    0.00022107    0.00008530
     atom   98 type  3   force =    -0.00002488   -0.00022107   -0.00008530
     atom   99 type  3   force =     0.00003484   -0.00024454    0.00004672
     atom  100 type  3   force =    -0.00003484    0.00024454   -0.00004672
     atom  101 type  3   force =     0.00006838    0.00007891   -0.00018682
     atom  102 type  3   force =    -0.00006838   -0.00007891    0.00018682
     atom  103 type  1   force =    -0.00006904    0.00025175    0.00022770
     atom  104 type  1   force =     0.00006904   -0.00025175   -0.00022770
     atom  105 type  3   force =     0.00017235    0.00009713   -0.00010516
     atom  106 type  3   force =    -0.00017235   -0.00009713    0.00010516
     atom  107 type  3   force =    -0.00005409   -0.00003703    0.00029302
     atom  108 type  3   force =     0.00005409    0.00003703   -0.00029302
     atom  109 type  3   force =     0.00013919    0.00050470   -0.00022137
     atom  110 type  3   force =    -0.00013919   -0.00050470    0.00022137
     atom  111 type  1   force =     0.00003819   -0.00016235   -0.00086220
     atom  112 type  1   force =    -0.00003819    0.00016235    0.00086220
     atom  113 type  3   force =     0.00008239   -0.00071259    0.00006202
     atom  114 type  3   force =    -0.00008239    0.00071259   -0.00006202
     atom  115 type  3   force =     0.00004267   -0.00004442   -0.00055595
     atom  116 type  3   force =    -0.00004267    0.00004442    0.00055595
     atom  117 type  3   force =     0.00010398    0.00008348   -0.00059576
     atom  118 type  3   force =    -0.00010398   -0.00008348    0.00059576
     atom  119 type  1   force =     0.00004381    0.00087359   -0.00005724
     atom  120 type  1   force =    -0.00004381   -0.00087359    0.00005724
     atom  121 type  3   force =    -0.00008263    0.00012461    0.00045140
     atom  122 type  3   force =     0.00008263   -0.00012461   -0.00045140
     atom  123 type  3   force =     0.00041848    0.00022401   -0.00044829
     atom  124 type  3   force =    -0.00041848   -0.00022401    0.00044829
     atom  125 type  3   force =     0.00038159    0.00040060    0.00027742
     atom  126 type  3   force =    -0.00038159   -0.00040060   -0.00027742

     Total force =     0.006731     Total SCF correction =     0.000046


     Computing stress (Cartesian axis) and pressure

          total   stress  (Ry/bohr**3)                   (kbar)     P=   -5.63
  -0.00004167   0.00000211   0.00000266         -6.13      0.31      0.39
   0.00000211  -0.00003214   0.00000343          0.31     -4.73      0.51
   0.00000266   0.00000343  -0.00004108          0.39      0.51     -6.04


     Writing output data file scf.save
 
     init_run     :     82.86s CPU     85.49s WALL (       1 calls)
     electrons    :   3660.99s CPU   3762.78s WALL (       1 calls)
     forces       :     35.99s CPU     36.26s WALL (       1 calls)
     stress       :    154.63s CPU    155.04s WALL (       1 calls)

     Called by init_run:
     wfcinit      :     68.59s CPU     71.04s WALL (       1 calls)
     potinit      :      5.17s CPU      5.20s WALL (       1 calls)

     Called by electrons:
     c_bands      :   3280.47s CPU   3367.32s WALL (      23 calls)
     sum_band     :    353.93s CPU    366.40s WALL (      23 calls)
     v_of_rho     :      4.13s CPU      4.41s WALL (      24 calls)
     newd         :      9.44s CPU     11.62s WALL (      24 calls)
     PAW_pot      :     11.94s CPU     11.95s WALL (      24 calls)
     mix_rho      :      0.94s CPU      1.01s WALL (      23 calls)

     Called by c_bands:
     init_us_2    :     15.48s CPU     15.56s WALL (     392 calls)
     cegterg      :   3216.84s CPU   3303.20s WALL (     184 calls)

     Called by sum_band:
     sum_band:bec :      0.14s CPU      0.14s WALL (     184 calls)
     addusdens    :      9.68s CPU     11.81s WALL (      23 calls)

     Called by *egterg:
     h_psi        :   1814.86s CPU   1879.44s WALL (     917 calls)
     s_psi        :    370.43s CPU    370.43s WALL (     917 calls)
     g_psi        :      6.70s CPU      6.69s WALL (     725 calls)
     cdiaghg      :    147.79s CPU    147.79s WALL (     909 calls)

     Called by h_psi:
     h_psi:pot    :   1805.35s CPU   1869.75s WALL (     917 calls)
     h_psi:calbec :    374.26s CPU    375.03s WALL (     917 calls)
     vloc_psi     :   1061.01s CPU   1124.64s WALL (     917 calls)
     add_vuspsi   :    370.08s CPU    370.07s WALL (     917 calls)

     General routines
     calbec       :    541.78s CPU    542.83s WALL (    1141 calls)
     fft          :      5.83s CPU      6.28s WALL (     336 calls)
     fftw         :   1152.20s CPU   1225.43s WALL (  246954 calls)
 
     Parallel routines
     fft_scatter  :    324.39s CPU    396.94s WALL (  247290 calls)
 
     PWSCF        :     1h 5m CPU        1h 8m WALL

 
   This run was terminated on:   1:49:47  19Dec2017            

=------------------------------------------------------------------------------=
   JOB DONE.
=------------------------------------------------------------------------------=
