
     Program PWSCF v.6.1 (svn rev. 13369) starts on 15Dec2017 at  5:36:19 

     This program is part of the open-source Quantum ESPRESSO suite
     for quantum simulation of materials; please cite
         "P. Giannozzi et al., J. Phys.:Condens. Matter 21 395502 (2009);
          URL http://www.quantum-espresso.org", 
     in publications or presentations arising from this work. More details at
     http://www.quantum-espresso.org/quote

     Parallel version (MPI), running on     8 processors
     R & G space division:  proc/nbgrp/npool/nimage =       8
     Waiting for input...
     Reading input from standard input

     Current dimensions of program PWSCF are:
     Max number of different atomic species (ntypx) = 10
     Max number of k-points (npk) =  40000
     Max angular momentum in pseudopotentials (lmaxx) =  3
               file C.pbe-n-kjpaw_psl.0.1.UPF: wavefunction(s)  2P renormalized
               file N.pbe-n-kjpaw_psl.0.1.UPF: wavefunction(s)  2P renormalized
               file H.pbe-kjpaw_psl.0.1.UPF: wavefunction(s)  1S renormalized
               file O.pbe-n-kjpaw_psl.0.1.UPF: wavefunction(s)  2P renormalized

     -------------------------------------
     Parameters for Dispersion Correction:
     -------------------------------------
       atom      VdW radius       C_6     

        C          2.744         60.710
        N          2.640         42.670
        H          1.892          4.857
        O          2.536         24.284

     Subspace diagonalization in iterative solution of the eigenvalue problem:
     a serial algorithm will be used

 
     Parallelization info
     --------------------
     sticks:   dense  smooth     PW     G-vecs:    dense   smooth      PW
     Min        1328    1328    348                88535    88535   11898
     Max        1329    1329    349                88536    88536   11901
     Sum       10629   10629   2787               708287   708287   95195
 


     bravais-lattice index     =            0
     lattice parameter (alat)  =      13.7028  a.u.
     unit-cell volume          =    5242.5133 (a.u.)^3
     number of atoms/cell      =           88
     number of atomic types    =            4
     number of electrons       =       288.00
     number of Kohn-Sham states=          172
     kinetic-energy cutoff     =     100.0000  Ry
     charge density cutoff     =     400.0000  Ry
     convergence threshold     =      1.0E-08
     mixing beta               =       0.5000
     number of iterations used =            8  plain     mixing
     Exchange-correlation      =  SLA  PW   PBX  PBC ( 1  4  3  4 0 0)

     celldm(1)=  13.702782  celldm(2)=   0.000000  celldm(3)=   0.000000
     celldm(4)=   0.000000  celldm(5)=   0.000000  celldm(6)=   0.000000

     crystal axes: (cart. coord. in units of alat)
               a(1) = (   1.000000   0.000000   0.000000 )  
               a(2) = (   0.000000   1.779705   0.000000 )  
               a(3) = (  -0.019844   0.000000   1.144894 )  

     reciprocal axes: (cart. coord. in units 2 pi/alat)
               b(1) = (  1.000000  0.000000  0.017333 )  
               b(2) = (  0.000000  0.561891  0.000000 )  
               b(3) = (  0.000000  0.000000  0.873444 )  


     PseudoPot. # 1 for  C read from file:
     /scratch/ahofstet/pseudo/C.pbe-n-kjpaw_psl.0.1.UPF
     MD5 check sum: 430fe95172b1e11ef3f8ed03bac87931
     Pseudo is Projector augmented-wave + core cor, Zval =  4.0
     Generated using "atomic" code by A. Dal Corso  v.5.0.99 svn rev. 10869
     Shape of augmentation charge: BESSEL
     Using radial grid of 1073 points,  4 beta functions with: 
                l(1) =   0
                l(2) =   0
                l(3) =   1
                l(4) =   1
     Q(r) pseudized with 0 coefficients 


     PseudoPot. # 2 for  N read from file:
     /scratch/ahofstet/pseudo/N.pbe-n-kjpaw_psl.0.1.UPF
     MD5 check sum: f73187c8b701007e77325f868c9291d7
     Pseudo is Projector augmented-wave + core cor, Zval =  5.0
     Generated using "atomic" code by A. Dal Corso  v.5.0.99 svn rev. 10869
     Shape of augmentation charge: PSQ
     Using radial grid of 1085 points,  4 beta functions with: 
                l(1) =   0
                l(2) =   0
                l(3) =   1
                l(4) =   1
     Q(r) pseudized with 0 coefficients 


     PseudoPot. # 3 for  H read from file:
     /scratch/ahofstet/pseudo/H.pbe-kjpaw_psl.0.1.UPF
     MD5 check sum: 94e484f906d9e9773b2f6e52662335b2
     Pseudo is Projector augmented-wave, Zval =  1.0
     Generated using "atomic" code by A. Dal Corso  v.5.0.99 svn rev. 10869
     Shape of augmentation charge: PSQ
     Using radial grid of  929 points,  2 beta functions with: 
                l(1) =   0
                l(2) =   0
     Q(r) pseudized with 0 coefficients 


     PseudoPot. # 4 for  O read from file:
     /scratch/ahofstet/pseudo/O.pbe-n-kjpaw_psl.0.1.UPF
     MD5 check sum: 3f94a2996a3169367d6eb21d9b593f20
     Pseudo is Projector augmented-wave + core cor, Zval =  6.0
     Generated using "atomic" code by A. Dal Corso  v.5.0.99 svn rev. 10869
     Shape of augmentation charge: BESSEL
     Using radial grid of 1095 points,  4 beta functions with: 
                l(1) =   0
                l(2) =   0
                l(3) =   1
                l(4) =   1
     Q(r) pseudized with 0 coefficients 


     atomic species   valence    mass     pseudopotential
        C              4.00    12.01070      C( 1.00)
        N              5.00    14.00670      N( 1.00)
        H              1.00     1.00794      H( 1.00)
        O              6.00    15.99940      O( 1.00)

      2 Sym. Ops., with inversion, found



   Cartesian axes

     site n.     atom                  positions (alat units)
         1           C   tau(   1) = (   0.8720947   0.1395219   0.6183225  )
         2           C   tau(   2) = (   0.5981279   1.0293981   1.0990209  )
         3           C   tau(   3) = (   0.1080610   1.6401836   0.5265711  )
         4           C   tau(   4) = (   0.3820278   0.7503073   0.0458728  )
         5           C   tau(   5) = (   0.8121922   1.7260575   0.5444995  )
         6           C   tau(   6) = (   0.6778886   0.8362184   0.0279452  )
         7           C   tau(   7) = (   0.1679635   0.0536479   0.6003942  )
         8           C   tau(   8) = (   0.3022671   0.9434870   1.1169485  )
         9           C   tau(   9) = (   0.0154882   0.0457762   0.7532243  )
        10           C   tau(  10) = (   0.4547414   0.9356257   0.9641192  )
        11           C   tau(  11) = (   0.9646675   1.7339292   0.3916694  )
        12           C   tau(  12) = (   0.5254143   0.8440798   0.1807745  )
        13           C   tau(  13) = (   0.0292401   0.1474066   0.4643951  )
        14           C   tau(  14) = (   0.4608240   1.0372461   0.1080545  )
        15           C   tau(  15) = (   0.9509156   1.6322988   0.6804986  )
        16           C   tau(  16) = (   0.5193317   0.7424593   1.0368391  )
        17           C   tau(  17) = (   0.7435970   0.2931021   0.6590397  )
        18           C   tau(  18) = (   0.7266212   1.1829826   1.0582985  )
        19           C   tau(  19) = (   0.2365588   1.4866034   0.4858539  )
        20           C   tau(  20) = (   0.2535346   0.5967229   0.0865952  )
        21           O   tau(  21) = (   0.8070932   0.4388702   0.7486396  )
        22           O   tau(  22) = (   0.6631383   1.3287502   0.9686941  )
        23           O   tau(  23) = (   0.1730625   1.3408353   0.3962541  )
        24           O   tau(  24) = (   0.3170174   0.4509552   0.1761996  )
        25           O   tau(  25) = (   0.5795311   0.2884406   0.6103450  )
        26           O   tau(  26) = (   0.8906983   1.1783036   1.1069913  )
        27           O   tau(  27) = (   0.4006246   1.4912648   0.5345487  )
        28           O   tau(  28) = (   0.0894574   0.6014018   0.0379024  )
        29           C   tau(  29) = (   0.8768103   1.0338831   0.5284661  )
        30           C   tau(  30) = (   0.6132859   0.1440230   0.0439704  )
        31           C   tau(  31) = (   0.1033454   0.7458223   0.6164276  )
        32           C   tau(  32) = (   0.3668698   1.6356824   1.1009233  )
        33           C   tau(  33) = (   0.0128817   0.9340520   0.3912398  )
        34           C   tau(  34) = (   0.4772016   0.0442193   0.1812017  )
        35           C   tau(  35) = (   0.9672741   0.8456535   0.7536539  )
        36           C   tau(  36) = (   0.5029541   1.7354862   0.9636920  )
        37           C   tau(  37) = (   0.8104398   0.8433236   0.6049003  )
        38           C   tau(  38) = (   0.6597892   1.7331403   1.1124470  )
        39           C   tau(  39) = (   0.1697159   0.9363818   0.5399934  )
        40           C   tau(  40) = (   0.3203665   0.0465651   0.0324467  )
        41           C   tau(  41) = (   0.0376989   1.0357376   0.6788614  )
        42           C   tau(  42) = (   0.4325579   0.1458929   1.0384655  )
        43           C   tau(  43) = (   0.9424569   0.7439678   0.4660323  )
        44           C   tau(  44) = (   0.5475978   1.6338125   0.1064281  )
        45           C   tau(  45) = (   0.7614067   1.1963492   0.4849227  )
        46           C   tau(  46) = (   0.7286887   0.3064654   0.0875011  )
        47           C   tau(  47) = (   0.2187490   0.5833562   0.6599709  )
        48           C   tau(  48) = (   0.2514671   1.4732400   1.0573925  )
        49           O   tau(  49) = (   0.5927919   1.1893328   0.5525903  )
        50           O   tau(  50) = (   0.8972940   0.2994908   0.0198449  )
        51           O   tau(  51) = (   0.3873638   0.5903727   0.5923034  )
        52           O   tau(  52) = (   0.0828618   1.4802146   1.1250488  )
        53           O   tau(  53) = (   0.8191223   1.3298466   0.3931165  )
        54           O   tau(  54) = (   0.6709467   0.4399953   0.1793339  )
        55           O   tau(  55) = (   0.1610334   0.4498589   0.7517771  )
        56           O   tau(  56) = (   0.3092090   1.3397102   0.9655598  )
        57           H   tau(  57) = (   0.6687584   1.6841919   0.5236373  )
        58           H   tau(  58) = (   0.8213276   0.7943616   0.0488085  )
        59           H   tau(  59) = (   0.3113974   0.0955135   0.6212564  )
        60           H   tau(  60) = (   0.1588281   0.9853438   1.0960852  )
        61           H   tau(  61) = (   0.0334083   0.0842457   0.8980198  )
        62           H   tau(  62) = (   0.4368152   0.9740879   0.8193208  )
        63           H   tau(  63) = (   0.9467474   1.6954597   0.2468738  )
        64           H   tau(  64) = (   0.5433406   0.8056176   0.3255729  )
        65           H   tau(  65) = (   0.0597533   0.2676813   0.3786611  )
        66           H   tau(  66) = (   0.4302931   1.1575113   0.1937988  )
        67           H   tau(  67) = (   0.9204024   1.5120242   0.7662326  )
        68           H   tau(  68) = (   0.5498626   0.6221941   0.9510949  )
        69           H   tau(  69) = (   0.9482066   0.4358364   0.7637765  )
        70           H   tau(  70) = (   0.5220284   1.3257209   0.9535618  )
        71           H   tau(  71) = (   0.0319491   1.3438691   0.3811172  )
        72           H   tau(  72) = (   0.4581273   0.4539845   0.1913319  )
        73           H   tau(  73) = (   0.0277364   0.9703701   0.2454807  )
        74           H   tau(  74) = (   0.4623543   0.0805547   0.3269561  )
        75           H   tau(  75) = (   0.9524193   0.8093353   0.8994130  )
        76           H   tau(  76) = (   0.5178014   1.6991508   0.8179376  )
        77           H   tau(  77) = (   0.6660353   0.8063410   0.6294202  )
        78           H   tau(  78) = (   0.8041854   1.6961366   1.0879246  )
        79           H   tau(  79) = (   0.3141205   0.9733645   0.5154735  )
        80           H   tau(  80) = (   0.1759703   0.0835688   0.0569690  )
        81           H   tau(  81) = (   0.0745426   1.1543795   0.7643901  )
        82           H   tau(  82) = (   0.3957325   0.2645317   0.9529272  )
        83           H   tau(  83) = (   0.9056132   0.6253259   0.3805035  )
        84           H   tau(  84) = (   0.5844232   1.5151737   0.1919665  )
        85           H   tau(  85) = (   0.5205931   1.3104276   0.5320367  )
        86           H   tau(  86) = (   0.9694873   0.4205824   0.0404039  )
        87           H   tau(  87) = (   0.4595626   0.4692778   0.6128569  )
        88           H   tau(  88) = (   0.0106684   1.3591230   1.1044898  )

     number of k points=    10
                       cart. coord. in units 2pi/alat
        k(    1) = (   0.0000000   0.0000000   0.0000000), wk =   0.1111111
        k(    2) = (   0.0000000   0.0000000   0.2911479), wk =   0.2222222
        k(    3) = (   0.0000000  -0.2809454   0.0000000), wk =   0.1111111
        k(    4) = (   0.0000000  -0.2809454   0.2911479), wk =   0.2222222
        k(    5) = (   0.3333333   0.0000000   0.0057776), wk =   0.2222222
        k(    6) = (   0.3333333   0.0000000   0.2969255), wk =   0.2222222
        k(    7) = (   0.3333333   0.0000000  -0.2853702), wk =   0.2222222
        k(    8) = (   0.3333333  -0.2809454   0.0057776), wk =   0.2222222
        k(    9) = (   0.3333333  -0.2809454   0.2969255), wk =   0.2222222
        k(   10) = (   0.3333333  -0.2809454  -0.2853702), wk =   0.2222222

     Dense  grid:   708287 G-vectors     FFT dimensions: (  90, 160, 100)

     Estimated max dynamical RAM per process >     706.43MB

     Estimated total allocated dynamical RAM >    5651.41MB

     Check: negative/imaginary core charge=   -0.000002    0.000000

     Initial potential from superposition of free atoms

     starting charge  287.99801, renormalised to  288.00000
     Starting wfc are  256 randomized atomic wfcs
     Checking if some PAW data can be deallocated... 

     total cpu time spent up to now is       49.1 secs

     per-process dynamical memory:   512.4 Mb

     Self-consistent Calculation

     iteration #  1     ecut=   100.00 Ry     beta=0.50
     Davidson diagonalization with overlap
     ethr =  1.00E-02,  avg # of iterations =  3.3

     total cpu time spent up to now is      177.5 secs

     total energy              =   -1439.25781535 Ry
     Harris-Foulkes estimate   =   -1443.81812872 Ry
     estimated scf accuracy    <       8.54763638 Ry

     iteration #  2     ecut=   100.00 Ry     beta=0.50
     Davidson diagonalization with overlap
     ethr =  2.97E-03,  avg # of iterations =  3.0

     total cpu time spent up to now is      255.0 secs

     total energy              =   -1440.23472143 Ry
     Harris-Foulkes estimate   =   -1440.70478269 Ry
     estimated scf accuracy    <       1.05222471 Ry

     iteration #  3     ecut=   100.00 Ry     beta=0.50
     Davidson diagonalization with overlap
     ethr =  3.65E-04,  avg # of iterations =  5.0

     total cpu time spent up to now is      408.7 secs

     total energy              =   -1440.90217394 Ry
     Harris-Foulkes estimate   =   -1441.28944910 Ry
     estimated scf accuracy    <       0.98392574 Ry

     iteration #  4     ecut=   100.00 Ry     beta=0.50
     Davidson diagonalization with overlap
     ethr =  3.42E-04,  avg # of iterations =  6.5

     total cpu time spent up to now is      485.9 secs

     total energy              =   -1440.85999622 Ry
     Harris-Foulkes estimate   =   -1440.98467477 Ry
     estimated scf accuracy    <       0.21299393 Ry

     iteration #  5     ecut=   100.00 Ry     beta=0.50
     Davidson diagonalization with overlap
     ethr =  7.40E-05,  avg # of iterations =  6.4

     total cpu time spent up to now is      636.7 secs

     total energy              =   -1441.00003537 Ry
     Harris-Foulkes estimate   =   -1441.12265342 Ry
     estimated scf accuracy    <       0.33696160 Ry

     iteration #  6     ecut=   100.00 Ry     beta=0.50
     Davidson diagonalization with overlap
     ethr =  7.40E-05,  avg # of iterations =  2.2

     total cpu time spent up to now is      704.7 secs

     total energy              =   -1440.96951069 Ry
     Harris-Foulkes estimate   =   -1441.01758350 Ry
     estimated scf accuracy    <       0.09931942 Ry

     iteration #  7     ecut=   100.00 Ry     beta=0.50
     Davidson diagonalization with overlap
     ethr =  3.45E-05,  avg # of iterations =  5.1

     total cpu time spent up to now is      835.4 secs

     total energy              =   -1441.02327047 Ry
     Harris-Foulkes estimate   =   -1441.02861744 Ry
     estimated scf accuracy    <       0.01921861 Ry

     iteration #  8     ecut=   100.00 Ry     beta=0.50
     Davidson diagonalization with overlap
     ethr =  6.67E-06,  avg # of iterations =  1.4

     total cpu time spent up to now is      900.8 secs

     total energy              =   -1441.01886535 Ry
     Harris-Foulkes estimate   =   -1441.02377674 Ry
     estimated scf accuracy    <       0.00900286 Ry

     iteration #  9     ecut=   100.00 Ry     beta=0.50
     Davidson diagonalization with overlap
     ethr =  3.13E-06,  avg # of iterations =  4.8

     total cpu time spent up to now is     1026.3 secs

     total energy              =   -1441.02357738 Ry
     Harris-Foulkes estimate   =   -1441.02402459 Ry
     estimated scf accuracy    <       0.00249999 Ry

     iteration # 10     ecut=   100.00 Ry     beta=0.50
     Davidson diagonalization with overlap
     ethr =  8.68E-07,  avg # of iterations =  1.0

     total cpu time spent up to now is     1090.6 secs

     total energy              =   -1441.02259218 Ry
     Harris-Foulkes estimate   =   -1441.02360730 Ry
     estimated scf accuracy    <       0.00168422 Ry

     iteration # 11     ecut=   100.00 Ry     beta=0.50
     Davidson diagonalization with overlap
     ethr =  5.85E-07,  avg # of iterations =  4.0

     total cpu time spent up to now is     1198.6 secs

     total energy              =   -1441.02327405 Ry
     Harris-Foulkes estimate   =   -1441.02338465 Ry
     estimated scf accuracy    <       0.00035142 Ry

     iteration # 12     ecut=   100.00 Ry     beta=0.50
     Davidson diagonalization with overlap
     ethr =  1.22E-07,  avg # of iterations =  1.0

     total cpu time spent up to now is     1263.2 secs

     total energy              =   -1441.02323042 Ry
     Harris-Foulkes estimate   =   -1441.02328526 Ry
     estimated scf accuracy    <       0.00015118 Ry

     iteration # 13     ecut=   100.00 Ry     beta=0.50
     Davidson diagonalization with overlap
     ethr =  5.25E-08,  avg # of iterations =  4.0

     total cpu time spent up to now is     1365.2 secs

     total energy              =   -1441.02328357 Ry
     Harris-Foulkes estimate   =   -1441.02328309 Ry
     estimated scf accuracy    <       0.00000087 Ry

     iteration # 14     ecut=   100.00 Ry     beta=0.50
     Davidson diagonalization with overlap
     ethr =  3.03E-10,  avg # of iterations =  4.4

     total cpu time spent up to now is     1522.8 secs

     total energy              =   -1441.02328269 Ry
     Harris-Foulkes estimate   =   -1441.02328568 Ry
     estimated scf accuracy    <       0.00000626 Ry

     iteration # 15     ecut=   100.00 Ry     beta=0.50
     Davidson diagonalization with overlap
     ethr =  3.03E-10,  avg # of iterations =  4.0

     total cpu time spent up to now is     1653.9 secs

     total energy              =   -1441.02328383 Ry
     Harris-Foulkes estimate   =   -1441.02328381 Ry
     estimated scf accuracy    <       0.00000003 Ry

     iteration # 16     ecut=   100.00 Ry     beta=0.50
     Davidson diagonalization with overlap
     ethr =  8.79E-12,  avg # of iterations =  4.9

     total cpu time spent up to now is     1803.2 secs

     total energy              =   -1441.02328373 Ry
     Harris-Foulkes estimate   =   -1441.02328393 Ry
     estimated scf accuracy    <       0.00000039 Ry

     iteration # 17     ecut=   100.00 Ry     beta=0.50
     Davidson diagonalization with overlap
     ethr =  8.79E-12,  avg # of iterations =  4.0

     total cpu time spent up to now is     1947.4 secs

     End of self-consistent calculation

          k = 0.0000 0.0000 0.0000 ( 88529 PWs)   bands (ev):

   -20.3609 -20.3542 -20.3228 -20.3175 -20.0115 -20.0063 -19.9811 -19.9767
   -18.1994 -18.1972 -18.1572 -18.1560 -17.6901 -17.6870 -17.6631 -17.6595
   -16.6488 -16.6410 -16.6210 -16.6147 -11.7126 -11.7034 -11.5772 -11.5720
   -10.9711 -10.9571 -10.9067 -10.8916 -10.8227 -10.8153 -10.7936 -10.7915
    -9.7890  -9.7592  -9.0948  -9.0827  -8.4250  -8.3353  -7.6373  -7.6084
    -7.5695  -7.5151  -6.8602  -6.8447  -6.7061  -6.6374  -6.5826  -6.5337
    -6.5147  -6.4712  -6.3582  -6.3426  -6.3376  -6.3224  -6.2298  -6.1366
    -5.6945  -5.6700  -5.3209  -5.3176  -4.8961  -4.8439  -4.7362  -4.6922
    -4.5564  -4.5089  -4.4554  -4.4039  -4.1500  -4.1327  -4.1314  -4.0822
    -3.9995  -3.7227  -3.6753  -3.6715  -3.6583  -3.6371  -3.6108  -3.6047
    -3.4960  -3.4804  -3.2126  -3.1990  -3.1850  -3.1634  -3.1435  -3.1015
    -3.0539  -2.9951  -2.9616  -2.9246  -2.9186  -2.8814  -2.8508  -2.8136
    -2.2991  -2.2696  -2.0372  -2.0277  -1.9533  -1.8579  -1.7661  -1.6667
    -0.7644  -0.6525  -0.6393  -0.5786  -0.4075  -0.3653  -0.3164  -0.2776
    -0.1214  -0.0382   0.0236   0.0303   0.1177   0.1221   0.1497   0.1591
     0.4467   0.4503   0.4914   0.4956   0.5047   0.5402   0.5730   0.6242
     0.6912   0.7553   0.7889   0.8038   0.8103   0.8256   0.9326   0.9567
     0.9825   1.0539   1.0574   1.0618   1.1946   1.2264   1.2873   1.3514
     5.5176   5.5715   5.7574   5.8810   5.8969   5.9453   6.0248   6.0815
     6.8420   7.0521   7.4745   7.7494   7.8086   8.1046   8.2552   8.4525
     8.4666   8.5240   8.5532   8.7782   8.9169   9.0749   9.1084   9.1625
     9.3459   9.5361   9.5997   9.6770

          k = 0.0000 0.0000 0.2911 ( 88556 PWs)   bands (ev):

   -20.3516 -20.3452 -20.3326 -20.3269 -20.0039 -19.9989 -19.9886 -19.9841
   -18.1888 -18.1868 -18.1676 -18.1662 -17.6833 -17.6801 -17.6697 -17.6663
   -16.6420 -16.6345 -16.6280 -16.6213 -11.7095 -11.7048 -11.5760 -11.5733
   -10.9390 -10.9257 -10.8852 -10.8843 -10.8481 -10.8462 -10.8225 -10.8166
    -9.7810  -9.7660  -9.0915  -9.0855  -8.4041  -8.3595  -7.6317  -7.6176
    -7.5507  -7.5236  -6.7647  -6.7324  -6.6595  -6.6163  -6.5660  -6.5090
    -6.5012  -6.4756  -6.3781  -6.3556  -6.3253  -6.3051  -6.2280  -6.1717
    -5.8978  -5.8662  -5.3111  -5.3051  -4.9044  -4.8821  -4.7191  -4.6981
    -4.5348  -4.5163  -4.4204  -4.3414  -4.2458  -4.1471  -4.1000  -4.0919
    -3.9711  -3.7823  -3.7157  -3.6918  -3.6393  -3.5896  -3.5472  -3.5367
    -3.5225  -3.5086  -3.2971  -3.2612  -3.2529  -3.2060  -3.0977  -3.0872
    -3.0074  -3.0018  -2.9714  -2.9347  -2.8527  -2.8256  -2.8124  -2.8025
    -2.2570  -2.2403  -2.0220  -2.0141  -1.9476  -1.8988  -1.7610  -1.7119
    -0.7109  -0.6624  -0.5633  -0.5217  -0.4212  -0.4065  -0.2749  -0.2511
    -0.1681  -0.1165   0.0115   0.0153   0.1204   0.1400   0.1660   0.1856
     0.4451   0.4474   0.4732   0.4886   0.4925   0.4981   0.5254   0.5403
     0.7682   0.7824   0.8560   0.8562   0.8671   0.9201   0.9494   0.9670
     0.9946   1.0370   1.0416   1.0565   1.1407   1.1803   1.2396   1.3183
     5.6038   5.6559   5.7444   5.8397   5.8724   5.8792   6.0557   6.0786
     7.1365   7.3009   7.5324   7.6998   7.8610   7.9173   7.9879   8.1449
     8.1484   8.2377   8.6975   8.7353   8.8070   8.9319   9.0690   9.2394
     9.3396   9.4782   9.6341   9.6864

          k = 0.0000-0.2809 0.0000 ( 88502 PWs)   bands (ev):

   -20.3576 -20.3576 -20.3202 -20.3202 -20.0089 -20.0089 -19.9788 -19.9788
   -18.1983 -18.1983 -18.1566 -18.1566 -17.6887 -17.6885 -17.6613 -17.6612
   -16.6451 -16.6447 -16.6181 -16.6176 -11.7023 -11.7010 -11.5809 -11.5801
   -10.9650 -10.9646 -10.9013 -10.9007 -10.8213 -10.8208 -10.7956 -10.7950
    -9.7134  -9.7115  -9.2253  -9.2252  -8.0998  -8.0986  -7.9269  -7.9267
    -7.4572  -7.4570  -6.8446  -6.8439  -6.6304  -6.6296  -6.6053  -6.6043
    -6.5393  -6.5383  -6.3583  -6.3576  -6.2835  -6.2831  -6.1375  -6.1368
    -5.6944  -5.6936  -5.3480  -5.3471  -4.7965  -4.7960  -4.7740  -4.7735
    -4.4943  -4.4940  -4.4539  -4.4534  -4.2716  -4.2714  -4.0622  -4.0618
    -3.8035  -3.8034  -3.6558  -3.6554  -3.6280  -3.6274  -3.5648  -3.5644
    -3.4168  -3.4167  -3.3253  -3.3251  -3.1887  -3.1883  -3.0876  -3.0868
    -3.0423  -3.0419  -3.0109  -3.0104  -2.8774  -2.8769  -2.8293  -2.8292
    -2.1737  -2.1732  -2.1191  -2.1189  -1.8899  -1.8897  -1.7861  -1.7861
    -0.7162  -0.7162  -0.4301  -0.4299  -0.3477  -0.3475  -0.3027  -0.3023
    -0.1625  -0.1624  -0.0618  -0.0616   0.0865   0.0866   0.1506   0.1511
     0.4557   0.4562   0.4873   0.4876   0.5192   0.5201   0.5988   0.5992
     0.7547   0.7552   0.7920   0.7924   0.8591   0.8595   0.9443   0.9449
     1.0266   1.0272   1.0813   1.0819   1.1809   1.1817   1.3048   1.3053
     5.5516   5.5525   5.8345   5.8351   5.9567   5.9574   5.9817   5.9822
     6.9119   6.9123   7.6647   7.6651   7.9601   7.9609   8.4331   8.4335
     8.4547   8.4554   8.5465   8.5470   8.9118   8.9122   9.2896   9.2901
     9.4351   9.4351   9.5421   9.5422

          k = 0.0000-0.2809 0.2911 ( 88474 PWs)   bands (ev):

   -20.3485 -20.3485 -20.3298 -20.3297 -20.0014 -20.0014 -19.9863 -19.9863
   -18.1878 -18.1878 -18.1669 -18.1669 -17.6819 -17.6816 -17.6680 -17.6677
   -16.6384 -16.6380 -16.6249 -16.6244 -11.7014 -11.7002 -11.5811 -11.5804
   -10.9325 -10.9321 -10.8843 -10.8836 -10.8499 -10.8494 -10.8250 -10.8244
    -9.7132  -9.7113  -9.2253  -9.2252  -8.0965  -8.0953  -7.9324  -7.9322
    -7.4517  -7.4515  -6.7449  -6.7440  -6.5950  -6.5941  -6.5727  -6.5718
    -6.5244  -6.5233  -6.3882  -6.3877  -6.2617  -6.2613  -6.1685  -6.1681
    -5.8903  -5.8896  -5.3534  -5.3525  -4.7998  -4.7993  -4.7774  -4.7769
    -4.4611  -4.4607  -4.4114  -4.4111  -4.2627  -4.2625  -4.1914  -4.1910
    -3.7449  -3.7446  -3.6556  -3.6553  -3.6247  -3.6245  -3.5612  -3.5610
    -3.3989  -3.3987  -3.3465  -3.3462  -3.1800  -3.1795  -3.1375  -3.1369
    -3.0222  -3.0218  -3.0067  -3.0062  -2.8379  -2.8376  -2.8143  -2.8141
    -2.1688  -2.1683  -2.1353  -2.1351  -1.8759  -1.8756  -1.8016  -1.8016
    -0.6435  -0.6434  -0.4730  -0.4727  -0.3069  -0.3063  -0.2654  -0.2653
    -0.1618  -0.1615  -0.1261  -0.1260   0.1178   0.1178   0.1475   0.1480
     0.4528   0.4532   0.4821   0.4824   0.4889   0.4892   0.5390   0.5397
     0.8147   0.8151   0.8387   0.8390   0.9209   0.9213   0.9503   0.9508
     1.0169   1.0175   1.0498   1.0503   1.1698   1.1701   1.2558   1.2560
     5.6350   5.6360   5.7876   5.7883   5.9451   5.9462   5.9837   5.9840
     7.1830   7.1835   7.7419   7.7423   7.8240   7.8243   7.9926   7.9931
     8.4137   8.4138   8.4738   8.4741   8.9117   8.9120   9.0883   9.0884
     9.4884   9.4885   9.6304   9.6306

          k = 0.3333 0.0000 0.0058 ( 88521 PWs)   bands (ev):

   -20.2896 -20.2851 -20.2555 -20.2519 -20.1040 -20.1015 -20.0736 -20.0717
   -18.0686 -18.0665 -18.0333 -18.0321 -17.7925 -17.7909 -17.7646 -17.7631
   -16.6465 -16.6326 -16.6326 -16.6195 -11.7116 -11.7077 -11.5690 -11.5641
   -10.9371 -10.9252 -10.8912 -10.8876 -10.8493 -10.8468 -10.8248 -10.8194
    -9.7173  -9.7074  -9.1867  -9.1653  -8.1957  -8.1670  -7.8766  -7.8756
    -7.5564  -7.5264  -6.7954  -6.7895  -6.6620  -6.6344  -6.5925  -6.5803
    -6.5005  -6.4882  -6.3593  -6.3564  -6.2698  -6.2165  -6.0842  -6.0221
    -5.8482  -5.8042  -5.3437  -5.3378  -4.9240  -4.8927  -4.6996  -4.6837
    -4.4365  -4.4362  -4.3008  -4.2771  -4.2487  -4.2003  -4.0940  -4.0519
    -3.8407  -3.8218  -3.7959  -3.7244  -3.6825  -3.6340  -3.6047  -3.5949
    -3.5037  -3.4992  -3.4224  -3.4148  -3.2631  -3.1630  -3.1405  -3.1096
    -3.1060  -3.0142  -3.0006  -2.9606  -2.8537  -2.8482  -2.8270  -2.7852
    -2.1891  -2.1825  -2.1695  -2.1211  -1.9805  -1.9441  -1.5943  -1.5721
    -0.6431  -0.5777  -0.5085  -0.4459  -0.4424  -0.4171  -0.2802  -0.2032
    -0.1747  -0.1677  -0.1320  -0.0926  -0.0278  -0.0158   0.1935   0.2027
     0.4414   0.4619   0.4771   0.4773   0.4875   0.5199   0.5284   0.5666
     0.7505   0.8119   0.8167   0.8279   0.8984   0.9617   0.9860   1.0073
     1.0260   1.0451   1.0958   1.1211   1.1226   1.2210   1.3470   1.3813
     5.5748   5.6516   5.7484   5.8075   5.8629   5.8900   5.9170   5.9559
     7.1566   7.2278   7.4861   7.7207   7.7627   7.9652   8.0853   8.2586
     8.3370   8.4724   8.6328   8.6655   8.7900   8.9839   9.0697   9.3990
     9.4189   9.5646   9.5818   9.7030

          k = 0.3333 0.0000 0.2969 ( 88550 PWs)   bands (ev):

   -20.2823 -20.2780 -20.2629 -20.2592 -20.0978 -20.0958 -20.0801 -20.0778
   -18.0597 -18.0580 -18.0417 -18.0401 -17.7860 -17.7844 -17.7712 -17.7698
   -16.6413 -16.6379 -16.6278 -16.6242 -11.7117 -11.7091 -11.5705 -11.5665
   -10.9542 -10.9531 -10.9133 -10.9105 -10.8330 -10.8116 -10.8083 -10.7889
    -9.7163  -9.7086  -9.1794  -9.1731  -8.2029  -8.1562  -7.8936  -7.8542
    -7.5498  -7.5359  -6.7856  -6.7733  -6.6291  -6.6242  -6.5811  -6.5591
    -6.5080  -6.4735  -6.4132  -6.4009  -6.1593  -6.1533  -6.1015  -6.0438
    -5.9111  -5.9042  -5.3721  -5.3069  -4.9194  -4.8955  -4.7366  -4.6757
    -4.4417  -4.3457  -4.3130  -4.2695  -4.2524  -4.1654  -4.0844  -4.0529
    -3.8434  -3.8387  -3.8076  -3.7953  -3.7463  -3.6704  -3.6541  -3.6466
    -3.5718  -3.5321  -3.4279  -3.4042  -3.3156  -3.3107  -3.1259  -3.0422
    -2.9581  -2.9555  -2.9189  -2.9100  -2.8554  -2.8504  -2.7661  -2.7565
    -2.2495  -2.1893  -2.1378  -2.1279  -1.9679  -1.9391  -1.5736  -1.5675
    -0.6056  -0.5514  -0.5013  -0.3785  -0.3688  -0.3596  -0.3175  -0.2742
    -0.2211  -0.1864  -0.1387  -0.1233  -0.0195   0.0109   0.1856   0.2400
     0.4422   0.4727   0.4773   0.4862   0.5005   0.5248   0.5275   0.5719
     0.7389   0.7872   0.8220   0.8283   0.8959   0.9348   0.9689   0.9817
     0.9964   1.0222   1.0641   1.1313   1.1817   1.2293   1.3311   1.3511
     5.6154   5.6491   5.6938   5.7449   5.8785   5.9089   5.9310   5.9707
     7.3374   7.3523   7.4368   7.6285   7.8684   7.8719   8.2137   8.3658
     8.3755   8.4772   8.7736   8.8222   8.8837   8.8939   9.0153   9.1706
     9.3504   9.4481   9.4838   9.6790

          k = 0.3333 0.0000-0.2854 ( 88492 PWs)   bands (ev):

   -20.2802 -20.2760 -20.2654 -20.2616 -20.0950 -20.0925 -20.0824 -20.0806
   -18.0595 -18.0574 -18.0420 -18.0408 -17.7852 -17.7838 -17.7719 -17.7703
   -16.6449 -16.6344 -16.6307 -16.6213 -11.7122 -11.7105 -11.5684 -11.5672
   -10.9706 -10.9456 -10.9265 -10.9033 -10.8334 -10.8328 -10.7797 -10.7776
    -9.7144  -9.7115  -9.1835  -9.1685  -8.1891  -8.1710  -7.8928  -7.8547
    -7.5507  -7.5343  -6.7896  -6.7880  -6.6586  -6.5904  -6.5863  -6.5478
    -6.5050  -6.4849  -6.4097  -6.3850  -6.2280  -6.1948  -6.0417  -6.0265
    -5.9163  -5.8611  -5.3785  -5.3079  -4.9133  -4.9103  -4.7197  -4.6766
    -4.4050  -4.3877  -4.2915  -4.2668  -4.2259  -4.2192  -4.0601  -4.0458
    -3.8453  -3.8423  -3.8110  -3.7726  -3.7344  -3.7090  -3.7048  -3.6121
    -3.5571  -3.5339  -3.4742  -3.4296  -3.2994  -3.2499  -3.1407  -3.0647
    -2.9926  -2.9539  -2.9002  -2.8931  -2.8269  -2.8232  -2.8134  -2.7622
    -2.2218  -2.1953  -2.1454  -2.1113  -1.9780  -1.9703  -1.5695  -1.5553
    -0.5912  -0.5313  -0.4877  -0.4479  -0.4138  -0.3692  -0.2969  -0.2118
    -0.1896  -0.1814  -0.1592  -0.1097  -0.0353   0.0058   0.1878   0.2235
     0.4437   0.4635   0.4728   0.4761   0.5029   0.5260   0.5479   0.5872
     0.7820   0.7821   0.8260   0.8267   0.9073   0.9203   0.9594   0.9677
     0.9996   1.0128   1.0861   1.0869   1.1191   1.2363   1.3505   1.3904
     5.5686   5.6632   5.6940   5.7486   5.8936   5.8945   5.9440   5.9732
     7.3080   7.3300   7.4706   7.6403   7.8574   7.8704   8.2156   8.3582
     8.3845   8.4257   8.8028   8.8188   8.8380   8.9485   9.0774   9.1567
     9.2527   9.5302   9.5696   9.6412

          k = 0.3333-0.2809 0.0058 ( 88524 PWs)   bands (ev):

   -20.2875 -20.2874 -20.2537 -20.2536 -20.1029 -20.1029 -20.0726 -20.0725
   -18.0676 -18.0675 -18.0327 -18.0327 -17.7917 -17.7917 -17.7639 -17.7638
   -16.6400 -16.6396 -16.6260 -16.6256 -11.7092 -11.7081 -11.5655 -11.5648
   -10.9305 -10.9302 -10.8891 -10.8885 -10.8485 -10.8480 -10.8279 -10.8272
    -9.7389  -9.7371  -9.1006  -9.1005  -8.2945  -8.2933  -7.8834  -7.8833
    -7.4289  -7.4288  -6.8193  -6.8182  -6.6437  -6.6429  -6.5722  -6.5714
    -6.5269  -6.5258  -6.3746  -6.3742  -6.2256  -6.2252  -6.0711  -6.0705
    -5.8320  -5.8312  -5.3263  -5.3254  -4.8426  -4.8423  -4.7646  -4.7642
    -4.4426  -4.4423  -4.3284  -4.3281  -4.1936  -4.1934  -4.0664  -4.0660
    -3.8029  -3.8026  -3.7544  -3.7543  -3.6958  -3.6955  -3.6356  -3.6351
    -3.4014  -3.4012  -3.3658  -3.3656  -3.2142  -3.2139  -3.1351  -3.1346
    -3.0776  -3.0772  -3.0193  -3.0191  -2.8615  -2.8613  -2.8258  -2.8257
    -2.2769  -2.2768  -2.1259  -2.1258  -1.8431  -1.8428  -1.6272  -1.6270
    -0.6337  -0.6335  -0.5152  -0.5150  -0.4355  -0.4354  -0.2591  -0.2590
    -0.1464  -0.1459  -0.0752  -0.0749  -0.0026  -0.0023   0.2195   0.2196
     0.4558   0.4563   0.4799   0.4801   0.5040   0.5046   0.5484   0.5489
     0.7743   0.7747   0.7861   0.7863   0.9350   0.9352   1.0027   1.0030
     1.0502   1.0507   1.0824   1.0831   1.2204   1.2208   1.3287   1.3288
     5.6223   5.6231   5.8030   5.8038   5.8325   5.8331   5.9285   5.9291
     7.1835   7.1839   7.5961   7.5962   8.0071   8.0078   8.1379   8.1382
     8.3547   8.3552   8.5892   8.5896   8.8288   8.8291   9.1787   9.1790
     9.5941   9.5942   9.7004   9.7007

          k = 0.3333-0.2809 0.2969 ( 88586 PWs)   bands (ev):

   -20.2803 -20.2802 -20.2609 -20.2608 -20.0971 -20.0970 -20.0787 -20.0786
   -18.0589 -18.0588 -18.0410 -18.0409 -17.7853 -17.7852 -17.7705 -17.7704
   -16.6354 -16.6351 -16.6306 -16.6302 -11.7100 -11.7089 -11.5673 -11.5667
   -10.9511 -10.9507 -10.9172 -10.9166 -10.8235 -10.8228 -10.8002 -10.7997
    -9.7389  -9.7371  -9.1004  -9.1003  -8.2935  -8.2922  -7.8826  -7.8825
    -7.4279  -7.4278  -6.8169  -6.8157  -6.6077  -6.6069  -6.5486  -6.5477
    -6.5306  -6.5300  -6.4196  -6.4191  -6.1595  -6.1592  -6.0716  -6.0710
    -5.9190  -5.9181  -5.3255  -5.3246  -4.8462  -4.8459  -4.7736  -4.7731
    -4.4121  -4.4118  -4.2911  -4.2907  -4.2076  -4.2073  -4.0558  -4.0553
    -3.8685  -3.8682  -3.7736  -3.7733  -3.7202  -3.7202  -3.6799  -3.6793
    -3.4467  -3.4466  -3.3951  -3.3949  -3.2966  -3.2962  -3.1175  -3.1171
    -3.0058  -3.0057  -2.9130  -2.9125  -2.8704  -2.8703  -2.7658  -2.7655
    -2.2571  -2.2571  -2.1276  -2.1275  -1.8558  -1.8555  -1.6227  -1.6225
    -0.6103  -0.6100  -0.4832  -0.4830  -0.3533  -0.3531  -0.3068  -0.3067
    -0.1988  -0.1985  -0.0920  -0.0915   0.0286   0.0289   0.2183   0.2185
     0.4645   0.4652   0.4855   0.4858   0.5038   0.5040   0.5524   0.5529
     0.7571   0.7576   0.8021   0.8023   0.9353   0.9355   1.0058   1.0059
     1.0329   1.0332   1.0603   1.0613   1.2098   1.2101   1.3140   1.3143
     5.6423   5.6430   5.7525   5.7532   5.8331   5.8340   5.9538   5.9543
     7.3296   7.3301   7.5540   7.5543   7.9742   7.9747   8.0934   8.0938
     8.5294   8.5297   8.7291   8.7294   8.9436   8.9438   9.1574   9.1574
     9.3301   9.3302   9.6052   9.6054

          k = 0.3333-0.2809-0.2854 ( 88578 PWs)   bands (ev):

   -20.2783 -20.2782 -20.2634 -20.2633 -20.0941 -20.0940 -20.0813 -20.0811
   -18.0585 -18.0584 -18.0414 -18.0414 -17.7846 -17.7844 -17.7712 -17.7711
   -16.6383 -16.6379 -16.6278 -16.6274 -11.7108 -11.7097 -11.5667 -11.5661
   -10.9593 -10.9587 -10.9165 -10.9161 -10.8326 -10.8320 -10.7818 -10.7812
    -9.7388  -9.7370  -9.1007  -9.1006  -8.2931  -8.2919  -7.8838  -7.8837
    -7.4276  -7.4275  -6.8193  -6.8181  -6.6004  -6.5996  -6.5691  -6.5685
    -6.5225  -6.5215  -6.4131  -6.4126  -6.2032  -6.2028  -6.0485  -6.0479
    -5.8976  -5.8968  -5.3206  -5.3197  -4.8525  -4.8522  -4.7685  -4.7681
    -4.3909  -4.3905  -4.3181  -4.3180  -4.1925  -4.1923  -4.0579  -4.0575
    -3.8715  -3.8713  -3.7821  -3.7819  -3.7246  -3.7244  -3.6681  -3.6677
    -3.4662  -3.4659  -3.3721  -3.3720  -3.2911  -3.2906  -3.1497  -3.1493
    -2.9925  -2.9922  -2.9185  -2.9182  -2.8548  -2.8545  -2.7769  -2.7767
    -2.2662  -2.2661  -2.1253  -2.1252  -1.8351  -1.8347  -1.6353  -1.6350
    -0.6185  -0.6181  -0.4547  -0.4545  -0.4057  -0.4056  -0.2739  -0.2737
    -0.1902  -0.1900  -0.0872  -0.0864   0.0288   0.0290   0.2240   0.2241
     0.4510   0.4513   0.4824   0.4827   0.5071   0.5079   0.5640   0.5645
     0.7473   0.7478   0.7878   0.7878   0.9292   0.9294   0.9824   0.9826
     1.0379   1.0384   1.1064   1.1072   1.1827   1.1828   1.3292   1.3293
     5.6145   5.6153   5.7715   5.7720   5.8344   5.8354   5.9554   5.9559
     7.3020   7.3023   7.5730   7.5734   7.9978   7.9980   8.0746   8.0753
     8.4710   8.4714   8.8161   8.8163   8.8945   8.8946   9.1635   9.1637
     9.3554   9.3554   9.6134   9.6136

     highest occupied, lowest unoccupied level (ev):     1.3904    5.5176

!    total energy              =   -1441.02328381 Ry
     Harris-Foulkes estimate   =   -1441.02328381 Ry
     estimated scf accuracy    <          5.8E-10 Ry

     total all-electron energy =     -5493.137480 Ry

     The total energy is the sum of the following terms:

     one-electron contribution =    -662.13935614 Ry
     hartree contribution      =     455.22729053 Ry
     xc contribution           =    -306.98874569 Ry
     ewald contribution        =    -508.38284639 Ry
     Dispersion Correction     =      -0.46427150 Ry
     one-center paw contrib.   =    -418.27535462 Ry

     convergence has been achieved in  17 iterations

     Forces acting on atoms (cartesian axes, Ry/au):

     atom    1 type  1   force =     0.00018944    0.00173091   -0.00235655
     atom    2 type  1   force =    -0.00019419    0.00166345    0.00234805
     atom    3 type  1   force =    -0.00018944   -0.00173091    0.00235655
     atom    4 type  1   force =     0.00019419   -0.00166345   -0.00234805
     atom    5 type  1   force =    -0.00168321   -0.00139531   -0.00138724
     atom    6 type  1   force =     0.00172350   -0.00133720    0.00139526
     atom    7 type  1   force =     0.00168321    0.00139531    0.00138724
     atom    8 type  1   force =    -0.00172350    0.00133720   -0.00139526
     atom    9 type  1   force =     0.00041663   -0.00050665   -0.00139380
     atom   10 type  1   force =    -0.00042048   -0.00043594    0.00136945
     atom   11 type  1   force =    -0.00041663    0.00050665    0.00139380
     atom   12 type  1   force =     0.00042048    0.00043594   -0.00136945
     atom   13 type  1   force =    -0.00095664    0.00073998    0.00082306
     atom   14 type  1   force =     0.00094803    0.00082346   -0.00080960
     atom   15 type  1   force =     0.00095664   -0.00073998   -0.00082306
     atom   16 type  1   force =    -0.00094803   -0.00082346    0.00080960
     atom   17 type  1   force =     0.00275717    0.00096376    0.00091923
     atom   18 type  1   force =    -0.00259696    0.00091466   -0.00087706
     atom   19 type  1   force =    -0.00275717   -0.00096376   -0.00091923
     atom   20 type  1   force =     0.00259696   -0.00091466    0.00087706
     atom   21 type  4   force =    -0.00035019    0.00002152    0.00006310
     atom   22 type  4   force =     0.00042710    0.00000718   -0.00003828
     atom   23 type  4   force =     0.00035019   -0.00002152   -0.00006310
     atom   24 type  4   force =    -0.00042710   -0.00000718    0.00003828
     atom   25 type  4   force =    -0.00281058   -0.00114522   -0.00016715
     atom   26 type  4   force =     0.00265879   -0.00111222    0.00012658
     atom   27 type  4   force =     0.00281058    0.00114522    0.00016715
     atom   28 type  4   force =    -0.00265879    0.00111222   -0.00012658
     atom   29 type  1   force =     0.00086190    0.00129135    0.00082874
     atom   30 type  1   force =    -0.00087740    0.00112791   -0.00085651
     atom   31 type  1   force =    -0.00086190   -0.00129135   -0.00082874
     atom   32 type  1   force =     0.00087740   -0.00112791    0.00085651
     atom   33 type  1   force =     0.00031181   -0.00027641    0.00055952
     atom   34 type  1   force =    -0.00031222   -0.00032239   -0.00058446
     atom   35 type  1   force =    -0.00031181    0.00027641   -0.00055952
     atom   36 type  1   force =     0.00031222    0.00032239    0.00058446
     atom   37 type  1   force =    -0.00117942   -0.00139694    0.00128030
     atom   38 type  1   force =     0.00112743   -0.00132688   -0.00127509
     atom   39 type  1   force =     0.00117942    0.00139694   -0.00128030
     atom   40 type  1   force =    -0.00112743    0.00132688    0.00127509
     atom   41 type  1   force =    -0.00079315    0.00071091   -0.00055087
     atom   42 type  1   force =     0.00078304    0.00060339    0.00055641
     atom   43 type  1   force =     0.00079315   -0.00071091    0.00055087
     atom   44 type  1   force =    -0.00078304   -0.00060339   -0.00055641
     atom   45 type  1   force =     0.00150203    0.00043238   -0.00133675
     atom   46 type  1   force =    -0.00174509    0.00119193    0.00180828
     atom   47 type  1   force =    -0.00150203   -0.00043238    0.00133675
     atom   48 type  1   force =     0.00174509   -0.00119193   -0.00180828
     atom   49 type  4   force =    -0.00287566   -0.00024478    0.00004241
     atom   50 type  4   force =     0.00289509   -0.00037937   -0.00010074
     atom   51 type  4   force =     0.00287566    0.00024478   -0.00004241
     atom   52 type  4   force =    -0.00289509    0.00037937    0.00010074
     atom   53 type  4   force =    -0.00116858    0.00004595    0.00125968
     atom   54 type  4   force =     0.00141486   -0.00056611   -0.00166515
     atom   55 type  4   force =     0.00116858   -0.00004595   -0.00125968
     atom   56 type  4   force =    -0.00141486    0.00056611    0.00166515
     atom   57 type  3   force =     0.00316136   -0.00038706   -0.00019078
     atom   58 type  3   force =    -0.00318401   -0.00038369    0.00018724
     atom   59 type  3   force =    -0.00316136    0.00038706    0.00019078
     atom   60 type  3   force =     0.00318401    0.00038369   -0.00018724
     atom   61 type  3   force =     0.00006036    0.00018935   -0.00080021
     atom   62 type  3   force =    -0.00005994    0.00018989    0.00081517
     atom   63 type  3   force =    -0.00006036   -0.00018935    0.00080021
     atom   64 type  3   force =     0.00005994   -0.00018989   -0.00081517
     atom   65 type  3   force =     0.00033496    0.00021202   -0.00017124
     atom   66 type  3   force =    -0.00033176    0.00020096    0.00016102
     atom   67 type  3   force =    -0.00033496   -0.00021202    0.00017124
     atom   68 type  3   force =     0.00033176   -0.00020096   -0.00016102
     atom   69 type  3   force =     0.00024164    0.00105029    0.00097167
     atom   70 type  3   force =    -0.00033747    0.00105191   -0.00098063
     atom   71 type  3   force =    -0.00024164   -0.00105029   -0.00097167
     atom   72 type  3   force =     0.00033747   -0.00105191    0.00098063
     atom   73 type  3   force =     0.00001011    0.00075397    0.00098268
     atom   74 type  3   force =    -0.00001337    0.00075769   -0.00097290
     atom   75 type  3   force =    -0.00001011   -0.00075397   -0.00098268
     atom   76 type  3   force =     0.00001337   -0.00075769    0.00097290
     atom   77 type  3   force =     0.00373872   -0.00023445    0.00025894
     atom   78 type  3   force =    -0.00371980   -0.00023797   -0.00025862
     atom   79 type  3   force =    -0.00373872    0.00023445   -0.00025894
     atom   80 type  3   force =     0.00371980    0.00023797    0.00025862
     atom   81 type  3   force =     0.00016256    0.00015061    0.00029241
     atom   82 type  3   force =    -0.00015830    0.00015781   -0.00029711
     atom   83 type  3   force =    -0.00016256   -0.00015061   -0.00029241
     atom   84 type  3   force =     0.00015830   -0.00015781    0.00029711
     atom   85 type  3   force =     0.00049585    0.00003903   -0.00033451
     atom   86 type  3   force =    -0.00046424    0.00012625    0.00035811
     atom   87 type  3   force =    -0.00049585   -0.00003903    0.00033451
     atom   88 type  3   force =     0.00046424   -0.00012625   -0.00035811

     Total force =     0.019478     Total SCF correction =     0.000054


     Computing stress (Cartesian axis) and pressure

          total   stress  (Ry/bohr**3)                   (kbar)     P=   -8.04
  -0.00007327   0.00000024   0.00000053        -10.78      0.04      0.08
   0.00000024  -0.00002784  -0.00000022          0.04     -4.10     -0.03
   0.00000053  -0.00000022  -0.00006291          0.08     -0.03     -9.25


     Writing output data file scf.save
 
     init_run     :     46.94s CPU     48.44s WALL (       1 calls)
     electrons    :   1839.00s CPU   1898.39s WALL (       1 calls)
     forces       :     22.71s CPU     22.89s WALL (       1 calls)
     stress       :     93.71s CPU     94.06s WALL (       1 calls)

     Called by init_run:
     wfcinit      :     37.81s CPU     39.19s WALL (       1 calls)
     potinit      :      3.27s CPU      3.29s WALL (       1 calls)

     Called by electrons:
     c_bands      :   1682.87s CPU   1735.52s WALL (      17 calls)
     sum_band     :    143.50s CPU    149.08s WALL (      17 calls)
     v_of_rho     :      1.77s CPU      1.92s WALL (      18 calls)
     newd         :      4.18s CPU      5.17s WALL (      18 calls)
     PAW_pot      :      6.18s CPU      6.19s WALL (      18 calls)
     mix_rho      :      0.41s CPU      0.44s WALL (      17 calls)

     Called by c_bands:
     init_us_2    :      8.22s CPU      8.27s WALL (     370 calls)
     cegterg      :   1650.27s CPU   1702.81s WALL (     170 calls)

     Called by sum_band:
     sum_band:bec :      0.13s CPU      0.13s WALL (     170 calls)
     addusdens    :      4.36s CPU      5.31s WALL (      17 calls)

     Called by *egterg:
     h_psi        :    857.12s CPU    897.79s WALL (     830 calls)
     s_psi        :    193.61s CPU    193.66s WALL (     830 calls)
     g_psi        :      4.67s CPU      4.67s WALL (     650 calls)
     cdiaghg      :     93.09s CPU     93.09s WALL (     820 calls)

     Called by h_psi:
     h_psi:pot    :    850.61s CPU    891.17s WALL (     830 calls)
     h_psi:calbec :    193.92s CPU    194.31s WALL (     830 calls)
     vloc_psi     :    462.31s CPU    502.44s WALL (     830 calls)
     add_vuspsi   :    194.37s CPU    194.41s WALL (     830 calls)

     General routines
     calbec       :    270.91s CPU    271.44s WALL (    1050 calls)
     fft          :      1.39s CPU      1.65s WALL (     258 calls)
     fftw         :    487.08s CPU    528.65s WALL (  218976 calls)
 
     Parallel routines
     fft_scatter  :    109.78s CPU    140.52s WALL (  219234 calls)
 
     PWSCF        : 33m33.04s CPU    35m55.15s WALL

 
   This run was terminated on:   6:12:14  15Dec2017            

=------------------------------------------------------------------------------=
   JOB DONE.
=------------------------------------------------------------------------------=
