
     Program PWSCF v.6.1 (svn rev. 13369) starts on 22Dec2017 at  7: 1:17 

     This program is part of the open-source Quantum ESPRESSO suite
     for quantum simulation of materials; please cite
         "P. Giannozzi et al., J. Phys.:Condens. Matter 21 395502 (2009);
          URL http://www.quantum-espresso.org", 
     in publications or presentations arising from this work. More details at
     http://www.quantum-espresso.org/quote

     Parallel version (MPI), running on     8 processors
     R & G space division:  proc/nbgrp/npool/nimage =       8
     Waiting for input...
     Reading input from standard input

     Current dimensions of program PWSCF are:
     Max number of different atomic species (ntypx) = 10
     Max number of k-points (npk) =  40000
     Max angular momentum in pseudopotentials (lmaxx) =  3
               file C.pbe-n-kjpaw_psl.0.1.UPF: wavefunction(s)  2P renormalized
               file N.pbe-n-kjpaw_psl.0.1.UPF: wavefunction(s)  2P renormalized
               file H.pbe-kjpaw_psl.0.1.UPF: wavefunction(s)  1S renormalized
               file O.pbe-n-kjpaw_psl.0.1.UPF: wavefunction(s)  2P renormalized

     -------------------------------------
     Parameters for Dispersion Correction:
     -------------------------------------
       atom      VdW radius       C_6     

        C          2.744         60.710
        N          2.640         42.670
        H          1.892          4.857
        O          2.536         24.284

     Subspace diagonalization in iterative solution of the eigenvalue problem:
     a serial algorithm will be used

 
     Parallelization info
     --------------------
     sticks:   dense  smooth     PW     G-vecs:    dense   smooth      PW
     Min         924     924    248                97414    97414   13566
     Max         925     925    249                97419    97419   13571
     Sum        7399    7399   1989               779335   779335  108553
 


     bravais-lattice index     =            0
     lattice parameter (alat)  =       9.9460  a.u.
     unit-cell volume          =    5768.5202 (a.u.)^3
     number of atoms/cell      =           88
     number of atomic types    =            4
     number of electrons       =       336.00
     number of Kohn-Sham states=          201
     kinetic-energy cutoff     =     100.0000  Ry
     charge density cutoff     =     400.0000  Ry
     convergence threshold     =      1.0E-08
     mixing beta               =       0.5000
     number of iterations used =            8  plain     mixing
     Exchange-correlation      =  SLA  PW   PBX  PBC ( 1  4  3  4 0 0)

     celldm(1)=   9.946007  celldm(2)=   0.000000  celldm(3)=   0.000000
     celldm(4)=   0.000000  celldm(5)=   0.000000  celldm(6)=   0.000000

     crystal axes: (cart. coord. in units of alat)
               a(1) = (   1.000000   0.000000   0.000000 )  
               a(2) = (   0.000000   2.351535   0.000000 )  
               a(3) = (   0.000000   0.000000   2.493255 )  

     reciprocal axes: (cart. coord. in units 2 pi/alat)
               b(1) = (  1.000000  0.000000  0.000000 )  
               b(2) = (  0.000000  0.425254  0.000000 )  
               b(3) = (  0.000000  0.000000  0.401082 )  


     PseudoPot. # 1 for  C read from file:
     /scratch/ahofstet/pseudo/C.pbe-n-kjpaw_psl.0.1.UPF
     MD5 check sum: 430fe95172b1e11ef3f8ed03bac87931
     Pseudo is Projector augmented-wave + core cor, Zval =  4.0
     Generated using "atomic" code by A. Dal Corso  v.5.0.99 svn rev. 10869
     Shape of augmentation charge: BESSEL
     Using radial grid of 1073 points,  4 beta functions with: 
                l(1) =   0
                l(2) =   0
                l(3) =   1
                l(4) =   1
     Q(r) pseudized with 0 coefficients 


     PseudoPot. # 2 for  N read from file:
     /scratch/ahofstet/pseudo/N.pbe-n-kjpaw_psl.0.1.UPF
     MD5 check sum: f73187c8b701007e77325f868c9291d7
     Pseudo is Projector augmented-wave + core cor, Zval =  5.0
     Generated using "atomic" code by A. Dal Corso  v.5.0.99 svn rev. 10869
     Shape of augmentation charge: PSQ
     Using radial grid of 1085 points,  4 beta functions with: 
                l(1) =   0
                l(2) =   0
                l(3) =   1
                l(4) =   1
     Q(r) pseudized with 0 coefficients 


     PseudoPot. # 3 for  H read from file:
     /scratch/ahofstet/pseudo/H.pbe-kjpaw_psl.0.1.UPF
     MD5 check sum: 94e484f906d9e9773b2f6e52662335b2
     Pseudo is Projector augmented-wave, Zval =  1.0
     Generated using "atomic" code by A. Dal Corso  v.5.0.99 svn rev. 10869
     Shape of augmentation charge: PSQ
     Using radial grid of  929 points,  2 beta functions with: 
                l(1) =   0
                l(2) =   0
     Q(r) pseudized with 0 coefficients 


     PseudoPot. # 4 for  O read from file:
     /scratch/ahofstet/pseudo/O.pbe-n-kjpaw_psl.0.1.UPF
     MD5 check sum: 3f94a2996a3169367d6eb21d9b593f20
     Pseudo is Projector augmented-wave + core cor, Zval =  6.0
     Generated using "atomic" code by A. Dal Corso  v.5.0.99 svn rev. 10869
     Shape of augmentation charge: BESSEL
     Using radial grid of 1095 points,  4 beta functions with: 
                l(1) =   0
                l(2) =   0
                l(3) =   1
                l(4) =   1
     Q(r) pseudized with 0 coefficients 


     atomic species   valence    mass     pseudopotential
        C              4.00    12.01070      C( 1.00)
        N              5.00    14.00670      N( 1.00)
        H              1.00     1.00794      H( 1.00)
        O              6.00    15.99940      O( 1.00)

      2 Sym. Ops. (no inversion) found ( 1 have fractional translation)



   Cartesian axes

     site n.     atom                  positions (alat units)
         1           O   tau(   1) = (   1.0162410   0.8908847   1.6745927  )
         2           O   tau(   2) = (   0.4837659   1.4606890   0.4279273  )
         3           O   tau(   3) = (   0.5162410   0.2848829   0.8186624  )
         4           O   tau(   4) = (  -0.0162341   2.0666138   2.0653278  )
         5           O   tau(   5) = (   0.1166123   0.7416993   1.3002674  )
         6           O   tau(   6) = (   0.3833177   1.6097563   0.0535719  )
         7           O   tau(   7) = (   0.6166123   0.4340683   1.1929877  )
         8           O   tau(   8) = (   0.8833177   1.9175464   2.4396831  )
         9           O   tau(   9) = (   0.5891015   1.1390819   1.6661746  )
        10           O   tau(  10) = (   0.9109139   1.2125004   0.4195184  )
        11           O   tau(  11) = (   0.0891015   0.0366857   0.8270805  )
        12           O   tau(  12) = (   0.4109139   2.3148023   2.0737367  )
        13           O   tau(  13) = (   0.5430387   1.3420102   1.3060601  )
        14           O   tau(  14) = (   0.9568894   1.0094504   0.0594620  )
        15           O   tau(  15) = (   0.0430387   2.1852926   1.1871949  )
        16           O   tau(  16) = (   0.4568894   0.1663172   2.4337930  )
        17           N   tau(  17) = (   0.6580281   0.6243057   2.1132586  )
        18           N   tau(  18) = (   0.8420131   1.7271543   0.8666315  )
        19           N   tau(  19) = (   0.1580281   0.5514619   0.3799965  )
        20           N   tau(  20) = (   0.3420131   1.8001485   1.6266235  )
        21           N   tau(  21) = (   0.8603756   0.5261538   2.2439326  )
        22           N   tau(  22) = (   0.6397012   1.8252851   0.9973752  )
        23           N   tau(  23) = (   0.3603756   0.6496138   0.2493224  )
        24           N   tau(  24) = (   0.1397012   1.7020176   1.4958799  )
        25           N   tau(  25) = (   0.9709875   0.3643861   2.1015897  )
        26           N   tau(  26) = (   0.5290609   1.9871016   0.8550660  )
        27           N   tau(  27) = (   0.4709875   0.8113815   0.3916653  )
        28           N   tau(  28) = (   0.0290609   1.5402012   1.6381890  )
        29           N   tau(  29) = (   0.8451970   0.3543300   1.8747094  )
        30           N   tau(  30) = (   0.6548118   1.9971808   0.6281591  )
        31           N   tau(  31) = (   0.3451970   0.8214376   0.6185456  )
        32           N   tau(  32) = (   0.1548118   1.5301220   1.8650959  )
        33           N   tau(  33) = (   0.4961585   0.8094483   2.2036269  )
        34           N   tau(  34) = (   0.0038835   1.5419933   0.9569767  )
        35           N   tau(  35) = (   0.9961585   0.3663193   0.2896281  )
        36           N   tau(  36) = (   0.5038835   1.9853095   1.5362783  )
        37           N   tau(  37) = (   0.4695967   0.5501598   1.7044176  )
        38           N   tau(  38) = (   0.0304004   1.8013789   0.4577834  )
        39           N   tau(  39) = (   0.9695967   0.6256078   0.7888375  )
        40           N   tau(  40) = (   0.5304004   1.7259238   2.0354717  )
        41           N   tau(  41) = (   0.9870438   0.8869593   1.4400176  )
        42           N   tau(  42) = (   0.5129305   1.4645573   0.1933412  )
        43           N   tau(  43) = (   0.4870438   0.2888083   1.0532375  )
        44           N   tau(  44) = (   0.0129305   2.0627455   2.2999139  )
        45           N   tau(  45) = (   0.8268480   1.0392186   1.3035598  )
        46           N   tau(  46) = (   0.6731321   1.3122875   0.0569045  )
        47           N   tau(  47) = (   0.3268480   0.1365490   1.1896953  )
        48           N   tau(  48) = (   0.1731321   2.2150153   2.4363506  )
        49           N   tau(  49) = (   0.6468903   1.1788764   1.4427968  )
        50           N   tau(  50) = (   0.8530884   1.1726380   0.1961495  )
        51           N   tau(  51) = (   0.1468903   2.3484264   1.0504582  )
        52           N   tau(  52) = (   0.3530884   0.0031296   2.2971056  )
        53           C   tau(  53) = (   0.6435694   0.5132489   1.8805797  )
        54           C   tau(  54) = (   0.8564330   1.8382523   0.6339710  )
        55           C   tau(  55) = (   0.1435694   0.6625187   0.6126754  )
        56           C   tau(  56) = (   0.3564330   1.6890505   1.8592841  )
        57           C   tau(  57) = (   0.9100702   0.1707159   1.6780101  )
        58           C   tau(  58) = (   0.5899139   2.1808939   0.4315554  )
        59           C   tau(  59) = (   0.4100702   1.0050517   0.8152450  )
        60           C   tau(  60) = (   0.0899139   1.3464089   2.0616996  )
        61           H   tau(  61) = (   0.6049486   0.9571850   2.2711791  )
        62           H   tau(  62) = (   0.8950958   1.3942458   1.0245066  )
        63           H   tau(  63) = (   0.1049486   0.2185826   0.2220760  )
        64           H   tau(  64) = (   0.3950958   2.1330570   1.4687484  )
        65           H   tau(  65) = (   0.3965513   0.7346144   2.3545183  )
        66           H   tau(  66) = (   0.1034926   1.6168022   1.1078795  )
        67           H   tau(  67) = (   0.8965513   0.4411532   0.1387368  )
        68           H   tau(  68) = (   0.6034926   1.9105006   1.3853756  )
        69           H   tau(  69) = (   0.4974393   0.4827332   1.5222980  )
        70           H   tau(  70) = (   0.0025324   1.8688549   0.2756859  )
        71           H   tau(  71) = (   0.9974393   0.6930344   0.9709570  )
        72           H   tau(  72) = (   0.5025324   1.6584478   2.2175691  )
        73           H   tau(  73) = (   0.3359146   0.6899983   1.7304565  )
        74           H   tau(  74) = (   0.1640756   1.6615316   0.4837774  )
        75           H   tau(  75) = (   0.8359146   0.4857693   0.7627985  )
        76           H   tau(  76) = (   0.6640756   1.8657712   2.0094776  )
        77           H   tau(  77) = (   0.9476679   0.2698922   1.4994568  )
        78           H   tau(  78) = (   0.5523185   2.0818142   0.2529490  )
        79           H   tau(  79) = (   0.4476679   0.9058754   0.9937982  )
        80           H   tau(  80) = (   0.0523185   1.4454886   2.2403061  )
        81           H   tau(  81) = (   0.0800956   0.0718477   1.7435296  )
        82           H   tau(  82) = (   0.4198872   2.2797014   0.4971594  )
        83           H   tau(  83) = (   0.5800956   1.1039199   0.7497254  )
        84           H   tau(  84) = (   0.9198872   1.2476014   1.9960956  )
        85           H   tau(  85) = (   0.7535357   0.0349736   1.6566982  )
        86           H   tau(  86) = (   0.7464306   2.3166744   0.4103338  )
        87           H   tau(  87) = (   0.2535357   1.1407940   0.8365568  )
        88           H   tau(  88) = (   0.2464306   1.2106284   2.0829213  )

     number of k points=    12
                       cart. coord. in units 2pi/alat
        k(    1) = (   0.0000000   0.0000000   0.0000000), wk =   0.1250000
        k(    2) = (   0.0000000   0.0000000  -0.2005411), wk =   0.1250000
        k(    3) = (   0.0000000  -0.2126271   0.0000000), wk =   0.1250000
        k(    4) = (   0.0000000  -0.2126271  -0.2005411), wk =   0.1250000
        k(    5) = (   0.2500000   0.0000000   0.0000000), wk =   0.2500000
        k(    6) = (   0.2500000   0.0000000  -0.2005411), wk =   0.2500000
        k(    7) = (   0.2500000  -0.2126271   0.0000000), wk =   0.2500000
        k(    8) = (   0.2500000  -0.2126271  -0.2005411), wk =   0.2500000
        k(    9) = (  -0.5000000   0.0000000   0.0000000), wk =   0.1250000
        k(   10) = (  -0.5000000   0.0000000  -0.2005411), wk =   0.1250000
        k(   11) = (  -0.5000000  -0.2126271   0.0000000), wk =   0.1250000
        k(   12) = (  -0.5000000  -0.2126271  -0.2005411), wk =   0.1250000

     Dense  grid:   779335 G-vectors     FFT dimensions: (  64, 150, 160)

     Estimated max dynamical RAM per process >     961.84MB

     Estimated total allocated dynamical RAM >    7694.74MB

     Check: negative/imaginary core charge=   -0.000002    0.000000

     Initial potential from superposition of free atoms

     starting charge  335.99911, renormalised to  336.00000
     Starting wfc are  268 randomized atomic wfcs
     Checking if some PAW data can be deallocated... 

     total cpu time spent up to now is       58.3 secs

     per-process dynamical memory:   697.7 Mb

     Self-consistent Calculation

     iteration #  1     ecut=   100.00 Ry     beta=0.50
     Davidson diagonalization with overlap
     ethr =  1.00E-02,  avg # of iterations =  3.2

     total cpu time spent up to now is      241.0 secs

     total energy              =   -1858.78572799 Ry
     Harris-Foulkes estimate   =   -1863.70918422 Ry
     estimated scf accuracy    <       8.96592183 Ry

     iteration #  2     ecut=   100.00 Ry     beta=0.50
     Davidson diagonalization with overlap
     ethr =  2.67E-03,  avg # of iterations =  4.2

     total cpu time spent up to now is      392.1 secs

     total energy              =   -1860.47225003 Ry
     Harris-Foulkes estimate   =   -1861.78092163 Ry
     estimated scf accuracy    <       2.85047766 Ry

     iteration #  3     ecut=   100.00 Ry     beta=0.50
     Davidson diagonalization with overlap
     ethr =  8.48E-04,  avg # of iterations =  5.8

     total cpu time spent up to now is      538.6 secs

     total energy              =   -1861.03408241 Ry
     Harris-Foulkes estimate   =   -1861.17678341 Ry
     estimated scf accuracy    <       0.37268001 Ry

     iteration #  4     ecut=   100.00 Ry     beta=0.50
     Davidson diagonalization with overlap
     ethr =  1.11E-04,  avg # of iterations =  8.6

     total cpu time spent up to now is      707.3 secs

     total energy              =   -1861.09553761 Ry
     Harris-Foulkes estimate   =   -1861.13493057 Ry
     estimated scf accuracy    <       0.10726997 Ry

     iteration #  5     ecut=   100.00 Ry     beta=0.50
     Davidson diagonalization with overlap
     ethr =  3.19E-05,  avg # of iterations =  5.3

     total cpu time spent up to now is      837.4 secs

     total energy              =   -1861.11407643 Ry
     Harris-Foulkes estimate   =   -1861.11691850 Ry
     estimated scf accuracy    <       0.01012468 Ry

     iteration #  6     ecut=   100.00 Ry     beta=0.50
     Davidson diagonalization with overlap
     ethr =  3.01E-06,  avg # of iterations =  7.8

     total cpu time spent up to now is     1027.0 secs

     total energy              =   -1861.11626358 Ry
     Harris-Foulkes estimate   =   -1861.11722264 Ry
     estimated scf accuracy    <       0.00238055 Ry

     iteration #  7     ecut=   100.00 Ry     beta=0.50
     Davidson diagonalization with overlap
     ethr =  7.08E-07,  avg # of iterations =  3.0

     total cpu time spent up to now is     1146.3 secs

     total energy              =   -1861.11660474 Ry
     Harris-Foulkes estimate   =   -1861.11696614 Ry
     estimated scf accuracy    <       0.00100728 Ry

     iteration #  8     ecut=   100.00 Ry     beta=0.50
     Davidson diagonalization with overlap
     ethr =  3.00E-07,  avg # of iterations =  2.4

     total cpu time spent up to now is     1261.5 secs

     total energy              =   -1861.11680809 Ry
     Harris-Foulkes estimate   =   -1861.11685712 Ry
     estimated scf accuracy    <       0.00017468 Ry

     iteration #  9     ecut=   100.00 Ry     beta=0.50
     Davidson diagonalization with overlap
     ethr =  5.20E-08,  avg # of iterations =  2.5

     total cpu time spent up to now is     1385.6 secs

     total energy              =   -1861.11683789 Ry
     Harris-Foulkes estimate   =   -1861.11685767 Ry
     estimated scf accuracy    <       0.00005754 Ry

     iteration # 10     ecut=   100.00 Ry     beta=0.50
     Davidson diagonalization with overlap
     ethr =  1.71E-08,  avg # of iterations =  2.2

     total cpu time spent up to now is     1497.5 secs

     total energy              =   -1861.11684806 Ry
     Harris-Foulkes estimate   =   -1861.11685148 Ry
     estimated scf accuracy    <       0.00001052 Ry

     iteration # 11     ecut=   100.00 Ry     beta=0.50
     Davidson diagonalization with overlap
     ethr =  3.13E-09,  avg # of iterations =  3.0

     total cpu time spent up to now is     1631.5 secs

     total energy              =   -1861.11685040 Ry
     Harris-Foulkes estimate   =   -1861.11685069 Ry
     estimated scf accuracy    <       0.00000117 Ry

     iteration # 12     ecut=   100.00 Ry     beta=0.50
     Davidson diagonalization with overlap
     ethr =  3.49E-10,  avg # of iterations =  3.0

     total cpu time spent up to now is     1774.0 secs

     total energy              =   -1861.11685066 Ry
     Harris-Foulkes estimate   =   -1861.11685082 Ry
     estimated scf accuracy    <       0.00000045 Ry

     iteration # 13     ecut=   100.00 Ry     beta=0.50
     Davidson diagonalization with overlap
     ethr =  1.35E-10,  avg # of iterations =  2.7

     total cpu time spent up to now is     1890.4 secs

     total energy              =   -1861.11685073 Ry
     Harris-Foulkes estimate   =   -1861.11685077 Ry
     estimated scf accuracy    <       0.00000010 Ry

     iteration # 14     ecut=   100.00 Ry     beta=0.50
     Davidson diagonalization with overlap
     ethr =  3.00E-11,  avg # of iterations =  3.0

     total cpu time spent up to now is     2022.3 secs

     total energy              =   -1861.11685076 Ry
     Harris-Foulkes estimate   =   -1861.11685076 Ry
     estimated scf accuracy    <       0.00000002 Ry

     iteration # 15     ecut=   100.00 Ry     beta=0.50
     Davidson diagonalization with overlap
     ethr =  7.29E-12,  avg # of iterations =  2.0

     total cpu time spent up to now is     2134.3 secs

     End of self-consistent calculation

          k = 0.0000 0.0000 0.0000 ( 97467 PWs)   bands (ev):

   -23.9933 -23.9923 -23.9842 -23.9836 -23.3252 -23.3240 -23.3168 -23.3161
   -22.4688 -22.4676 -22.4568 -22.4556 -19.0681 -19.0639 -19.0538 -19.0514
   -18.8525 -18.8517 -18.8304 -18.8291 -18.6923 -18.6883 -18.6825 -18.6813
   -17.5504 -17.5492 -17.5441 -17.5431 -16.5050 -16.5029 -16.4990 -16.4978
   -15.7692 -15.7593 -15.7145 -15.7085 -14.0666 -14.0577 -13.9921 -13.9883
   -11.7245 -11.7166 -11.6990 -11.6896 -11.2551 -11.2494 -11.2477 -11.2413
   -10.2255 -10.1896 -10.1447 -10.1162  -9.3470  -9.3314  -9.3297  -9.3230
    -7.6251  -7.5774  -7.4534  -7.4254  -7.3480  -7.3102  -7.1122  -7.0718
    -6.8242  -6.8186  -6.7731  -6.6461  -6.6437  -6.6162  -6.5933  -6.5316
    -6.4534  -6.4094  -6.3917  -6.3788  -6.3698  -6.2794  -6.2679  -6.1630
    -6.1574  -6.1309  -5.8067  -5.7924  -5.7125  -5.6789  -5.6388  -5.6142
    -5.5170  -5.5087  -5.4072  -5.3253  -5.2440  -5.2275  -5.1781  -5.1061
    -5.1001  -5.0892  -5.0515  -5.0293  -4.7333  -4.6389  -4.6154  -4.5661
    -3.4719  -3.4089  -3.4081  -3.3616  -2.9578  -2.9392  -2.9328  -2.9148
    -2.5932  -2.5284  -2.4672  -2.4596  -2.4249  -2.3285  -2.2932  -2.2708
    -2.2641  -2.0558  -2.0406  -2.0124  -1.1797  -1.1761  -1.1165  -1.0193
    -1.0073  -0.9463  -0.7807  -0.7742  -0.7368  -0.6742  -0.6596  -0.6427
    -0.4536  -0.4108  -0.3965  -0.3263  -0.3186  -0.2991  -0.2906  -0.2848
     0.0732   0.1064   0.1080   0.1476   0.1719   0.2715   0.2723   0.2757
     0.3765   0.4070   0.4082   0.4089   0.5853   0.5856   0.5990   0.6096
     0.7093   0.8569   0.8617   0.8798   0.9437   0.9495   0.9527   1.0221
     3.9303   3.9593   4.0290   4.0561   5.1099   5.1409   5.1780   5.2382
     5.6976   5.7120   5.7656   5.7961   6.5514   6.5713   6.5767   6.6052
     7.2625   7.9181   8.0510   8.0886   8.2381   8.2620   8.4668   8.5785
     8.6206   8.7424   8.7498   8.7898   9.2470   9.2991   9.3961   9.4761
     9.5268

          k = 0.0000 0.0000-0.2005 ( 97326 PWs)   bands (ev):

   -23.9931 -23.9925 -23.9842 -23.9836 -23.3248 -23.3244 -23.3167 -23.3162
   -22.4689 -22.4679 -22.4565 -22.4554 -19.0662 -19.0658 -19.0527 -19.0524
   -18.8524 -18.8518 -18.8300 -18.8295 -18.6904 -18.6900 -18.6822 -18.6818
   -17.5496 -17.5487 -17.5447 -17.5437 -16.5044 -16.5040 -16.4985 -16.4982
   -15.7632 -15.7626 -15.7131 -15.7125 -14.0626 -14.0623 -13.9901 -13.9897
   -11.7231 -11.7229 -11.6922 -11.6920 -11.2491 -11.2490 -11.2474 -11.2473
   -10.2097 -10.2096 -10.1286 -10.1284  -9.3386  -9.3385  -9.3271  -9.3270
    -7.6245  -7.6239  -7.4038  -7.4034  -7.2461  -7.2460  -7.2094  -7.2094
    -6.8637  -6.8634  -6.6765  -6.6764  -6.6021  -6.6018  -6.5292  -6.5291
    -6.4546  -6.4544  -6.3921  -6.3917  -6.3509  -6.3506  -6.2231  -6.2229
    -6.1145  -6.1141  -5.7924  -5.7917  -5.6667  -5.6666  -5.6261  -5.6261
    -5.5560  -5.5558  -5.3562  -5.3559  -5.2272  -5.2271  -5.1615  -5.1612
    -5.1001  -5.1000  -5.0185  -5.0181  -4.7110  -4.7109  -4.5738  -4.5736
    -3.4449  -3.4446  -3.3831  -3.3828  -2.9390  -2.9390  -2.9287  -2.9286
    -2.5562  -2.5558  -2.5011  -2.5006  -2.3597  -2.3597  -2.2878  -2.2873
    -2.1493  -2.1493  -2.0170  -2.0163  -1.1676  -1.1675  -1.0967  -1.0965
    -0.9574  -0.9574  -0.7580  -0.7576  -0.7231  -0.7228  -0.6668  -0.6665
    -0.4357  -0.4351  -0.3550  -0.3550  -0.3157  -0.3153  -0.2831  -0.2830
     0.0961   0.0961   0.1204   0.1204   0.2078   0.2078   0.3137   0.3139
     0.3949   0.3949   0.4209   0.4213   0.5282   0.5285   0.6045   0.6046
     0.8036   0.8037   0.8732   0.8736   0.9618   0.9619   0.9764   0.9766
     3.9418   3.9422   4.0440   4.0444   5.1185   5.1191   5.2141   5.2146
     5.7065   5.7068   5.7815   5.7818   6.5629   6.5629   6.5865   6.5865
     7.4605   7.4607   8.1230   8.1233   8.3645   8.3648   8.4871   8.4876
     8.5819   8.5820   8.9397   8.9400   9.3393   9.3396   9.3403   9.3405
     9.5511

          k = 0.0000-0.2126 0.0000 ( 97446 PWs)   bands (ev):

   -23.9929 -23.9923 -23.9844 -23.9838 -23.3245 -23.3240 -23.3170 -23.3166
   -22.4687 -22.4677 -22.4567 -22.4556 -19.0631 -19.0627 -19.0561 -19.0558
   -18.8507 -18.8502 -18.8314 -18.8308 -18.6906 -18.6902 -18.6820 -18.6816
   -17.5503 -17.5494 -17.5441 -17.5431 -16.5042 -16.5039 -16.4985 -16.4981
   -15.7646 -15.7640 -15.7118 -15.7112 -14.0624 -14.0620 -13.9904 -13.9900
   -11.7120 -11.7117 -11.7032 -11.7029 -11.2515 -11.2515 -11.2451 -11.2451
   -10.2081 -10.2080 -10.1309 -10.1307  -9.3401  -9.3392  -9.3259  -9.3251
    -7.5930  -7.5925  -7.4257  -7.4253  -7.3679  -7.3677  -7.0742  -7.0741
    -6.8231  -6.8227  -6.7286  -6.7285  -6.6259  -6.6255  -6.5246  -6.5245
    -6.4598  -6.4594  -6.3911  -6.3907  -6.3075  -6.3074  -6.2572  -6.2571
    -6.1100  -6.1096  -5.7964  -5.7958  -5.7120  -5.7120  -5.6004  -5.6004
    -5.5130  -5.5127  -5.3672  -5.3668  -5.2576  -5.2574  -5.1384  -5.1384
    -5.1004  -5.1000  -5.0391  -5.0391  -4.6769  -4.6768  -4.5894  -4.5892
    -3.4477  -3.4475  -3.3792  -3.3791  -2.9507  -2.9506  -2.9197  -2.9195
    -2.5472  -2.5465  -2.4720  -2.4715  -2.4133  -2.4131  -2.2915  -2.2912
    -2.1208  -2.1206  -2.0254  -2.0246  -1.1529  -1.1529  -1.0525  -1.0524
    -1.0396  -1.0395  -0.7764  -0.7760  -0.7344  -0.7341  -0.5927  -0.5927
    -0.4229  -0.4223  -0.3591  -0.3588  -0.3148  -0.3146  -0.2904  -0.2901
     0.0474   0.0474   0.1349   0.1350   0.2399   0.2399   0.2568   0.2569
     0.3855   0.3858   0.4148   0.4155   0.5887   0.5889   0.6205   0.6208
     0.7790   0.7790   0.8876   0.8876   0.9291   0.9291   0.9932   0.9934
     3.9462   3.9466   4.0410   4.0414   5.1248   5.1254   5.2067   5.2073
     5.7170   5.7174   5.7676   5.7679   6.5614   6.5614   6.5866   6.5867
     7.5330   7.5332   8.0556   8.0558   8.1915   8.1918   8.5386   8.5390
     8.6838   8.6841   9.0346   9.0346   9.1707   9.1709   9.4172   9.4173
     9.5741

          k = 0.0000-0.2126-0.2005 ( 97364 PWs)   bands (ev):

   -23.9929 -23.9923 -23.9844 -23.9838 -23.3245 -23.3240 -23.3170 -23.3166
   -22.4689 -22.4679 -22.4565 -22.4554 -19.0627 -19.0623 -19.0565 -19.0562
   -18.8507 -18.8502 -18.8314 -18.8308 -18.6904 -18.6900 -18.6822 -18.6818
   -17.5496 -17.5487 -17.5447 -17.5437 -16.5042 -16.5038 -16.4987 -16.4983
   -15.7629 -15.7623 -15.7135 -15.7128 -14.0625 -14.0622 -13.9903 -13.9898
   -11.7158 -11.7155 -11.6997 -11.6993 -11.2487 -11.2486 -11.2477 -11.2475
   -10.2069 -10.2067 -10.1322 -10.1320  -9.3335  -9.3326  -9.3326  -9.3316
    -7.6087  -7.6081  -7.4386  -7.4382  -7.2286  -7.2283  -7.2069  -7.2066
    -6.8139  -6.8134  -6.7653  -6.7650  -6.5905  -6.5901  -6.4973  -6.4972
    -6.4546  -6.4542  -6.3867  -6.3864  -6.3369  -6.3366  -6.2743  -6.2739
    -6.0795  -6.0791  -5.8084  -5.8079  -5.6747  -5.6742  -5.6344  -5.6339
    -5.5075  -5.5073  -5.3634  -5.3630  -5.2596  -5.2594  -5.1641  -5.1639
    -5.0856  -5.0851  -5.0239  -5.0236  -4.6986  -4.6984  -4.5795  -4.5792
    -3.4437  -3.4434  -3.3849  -3.3846  -2.9400  -2.9400  -2.9271  -2.9268
    -2.5278  -2.5271  -2.5133  -2.5127  -2.4131  -2.4129  -2.2299  -2.2293
    -2.1701  -2.1699  -2.0175  -2.0168  -1.1501  -1.1499  -1.0787  -1.0786
    -0.9935  -0.9935  -0.7840  -0.7836  -0.7562  -0.7558  -0.5987  -0.5984
    -0.4304  -0.4298  -0.3310  -0.3306  -0.3293  -0.3293  -0.2935  -0.2932
     0.0484   0.0484   0.1413   0.1415   0.2138   0.2139   0.3047   0.3049
     0.3779   0.3783   0.4340   0.4346   0.5590   0.5594   0.5962   0.5963
     0.8247   0.8248   0.8528   0.8530   0.9459   0.9459   0.9895   0.9898
     3.9454   3.9458   4.0407   4.0411   5.1252   5.1259   5.2056   5.2062
     5.7197   5.7201   5.7685   5.7689   6.5623   6.5623   6.5826   6.5826
     7.5850   7.5854   7.8423   7.8423   8.4247   8.4249   8.4499   8.4504
     8.6527   8.6532   9.1500   9.1501   9.2173   9.2175   9.3407   9.3409
     9.6384

          k = 0.2500 0.0000 0.0000 ( 97466 PWs)   bands (ev):

   -23.9844 -23.9835 -23.9779 -23.9773 -23.3318 -23.3309 -23.3259 -23.3254
   -22.4641 -22.4630 -22.4556 -22.4544 -19.0596 -19.0565 -19.0499 -19.0479
   -18.8556 -18.8531 -18.8386 -18.8379 -18.6978 -18.6944 -18.6912 -18.6885
   -17.5473 -17.5463 -17.5420 -17.5406 -16.5057 -16.5033 -16.5001 -16.4995
   -15.7797 -15.7714 -15.7410 -15.7360 -14.0405 -14.0327 -13.9870 -13.9838
   -11.7139 -11.7086 -11.6916 -11.6822 -11.2549 -11.2499 -11.2477 -11.2438
   -10.1931 -10.1696 -10.1398 -10.1176  -9.3446  -9.3388  -9.3294  -9.3234
    -7.5614  -7.5251  -7.5090  -7.3611  -7.3091  -7.2859  -7.1863  -7.1799
    -6.8493  -6.8408  -6.8165  -6.7068  -6.6814  -6.6550  -6.6093  -6.5901
    -6.5451  -6.4995  -6.4366  -6.4362  -6.3802  -6.3408  -6.3079  -6.2117
    -6.0901  -6.0543  -5.8065  -5.7286  -5.6750  -5.6439  -5.6120  -5.5226
    -5.4617  -5.4471  -5.3789  -5.3571  -5.2759  -5.2725  -5.1682  -5.1286
    -5.1084  -5.0158  -5.0082  -4.9752  -4.7194  -4.6745  -4.6299  -4.6150
    -3.4309  -3.4114  -3.3721  -3.3175  -2.9959  -2.9755  -2.9449  -2.9255
    -2.4916  -2.4730  -2.4116  -2.3805  -2.3562  -2.2743  -2.2655  -2.2435
    -2.2185  -2.0757  -2.0634  -2.0569  -1.1847  -1.1274  -1.0655  -1.0246
    -0.9660  -0.9250  -0.8753  -0.7820  -0.7579  -0.6761  -0.6402  -0.5779
    -0.4598  -0.4100  -0.3955  -0.3697  -0.3099  -0.2796  -0.2638  -0.2500
     0.0704   0.0905   0.1121   0.1457   0.1724   0.2454   0.2764   0.2865
     0.3723   0.3968   0.4042   0.4076   0.5562   0.5647   0.5995   0.6057
     0.7465   0.8205   0.8674   0.9140   0.9287   0.9446   0.9621   1.0168
     3.9897   4.0054   4.0521   4.0819   5.0484   5.0791   5.1033   5.1475
     5.5874   5.6442   5.6615   5.6766   6.4527   6.4576   6.4591   6.5069
     7.6551   8.1313   8.2061   8.2248   8.4253   8.4282   8.5928   8.6136
     8.7816   8.8162   8.8638   8.9505   9.0990   9.2346   9.2555   9.3454
     9.3672

          k = 0.2500 0.0000-0.2005 ( 97394 PWs)   bands (ev):

   -23.9843 -23.9837 -23.9779 -23.9774 -23.3316 -23.3311 -23.3259 -23.3254
   -22.4642 -22.4632 -22.4554 -22.4543 -19.0582 -19.0579 -19.0491 -19.0487
   -18.8547 -18.8541 -18.8385 -18.8379 -18.6962 -18.6958 -18.6902 -18.6898
   -17.5459 -17.5449 -17.5431 -17.5421 -16.5047 -16.5043 -16.5000 -16.4997
   -15.7757 -15.7751 -15.7390 -15.7383 -14.0371 -14.0368 -13.9852 -13.9848
   -11.7124 -11.7123 -11.6861 -11.6860 -11.2501 -11.2501 -11.2476 -11.2476
   -10.1835 -10.1834 -10.1269 -10.1267  -9.3415  -9.3414  -9.3265  -9.3264
    -7.5734  -7.5730  -7.4118  -7.4115  -7.2497  -7.2496  -7.2163  -7.2162
    -6.8781  -6.8777  -6.7559  -6.7557  -6.6634  -6.6631  -6.5820  -6.5816
    -6.5030  -6.5028  -6.4695  -6.4694  -6.3584  -6.3581  -6.2627  -6.2624
    -6.0726  -6.0721  -5.7532  -5.7526  -5.6710  -5.6705  -5.5687  -5.5684
    -5.4446  -5.4445  -5.3770  -5.3769  -5.2461  -5.2461  -5.1781  -5.1780
    -5.0622  -5.0620  -4.9753  -4.9752  -4.7051  -4.7050  -4.6217  -4.6215
    -3.4264  -3.4262  -3.3451  -3.3450  -2.9663  -2.9661  -2.9520  -2.9519
    -2.4680  -2.4676  -2.4235  -2.4230  -2.3097  -2.3096  -2.2660  -2.2659
    -2.1393  -2.1391  -2.0418  -2.0412  -1.1487  -1.1486  -1.0697  -1.0696
    -0.9585  -0.9584  -0.8190  -0.8189  -0.6919  -0.6918  -0.6232  -0.6229
    -0.4392  -0.4388  -0.3807  -0.3804  -0.2782  -0.2781  -0.2713  -0.2710
     0.0826   0.0827   0.1139   0.1140   0.2124   0.2125   0.2980   0.2982
     0.3817   0.3817   0.4196   0.4199   0.5343   0.5346   0.5975   0.5977
     0.7985   0.7986   0.8978   0.8980   0.9266   0.9266   0.9943   0.9944
     3.9946   3.9950   4.0683   4.0687   5.0578   5.0584   5.1315   5.1320
     5.6143   5.6146   5.6708   5.6711   6.4546   6.4546   6.4825   6.4826
     7.8103   7.8104   8.1922   8.1925   8.4959   8.4960   8.6158   8.6160
     8.7883   8.7888   9.0282   9.0286   9.1763   9.1763   9.2855   9.2857
     9.5076

          k = 0.2500-0.2126 0.0000 ( 97410 PWs)   bands (ev):

   -23.9842 -23.9836 -23.9780 -23.9775 -23.3313 -23.3308 -23.3261 -23.3256
   -22.4641 -22.4630 -22.4555 -22.4545 -19.0561 -19.0558 -19.0513 -19.0510
   -18.8535 -18.8529 -18.8395 -18.8389 -18.6966 -18.6962 -18.6897 -18.6894
   -17.5473 -17.5463 -17.5417 -17.5408 -16.5048 -16.5045 -16.4998 -16.4995
   -15.7759 -15.7753 -15.7388 -15.7382 -14.0368 -14.0365 -13.9856 -13.9852
   -11.7033 -11.7030 -11.6952 -11.6949 -11.2517 -11.2516 -11.2464 -11.2463
   -10.1816 -10.1815 -10.1290 -10.1289  -9.3376  -9.3368  -9.3310  -9.3303
    -7.5474  -7.5469  -7.4188  -7.4185  -7.3282  -7.3280  -7.1673  -7.1672
    -6.8585  -6.8583  -6.7462  -6.7462  -6.6863  -6.6861  -6.5816  -6.5814
    -6.4941  -6.4940  -6.4699  -6.4697  -6.3316  -6.3315  -6.2962  -6.2962
    -6.0653  -6.0648  -5.7657  -5.7651  -5.6701  -5.6697  -5.5546  -5.5542
    -5.4246  -5.4242  -5.4030  -5.4027  -5.2529  -5.2527  -5.1661  -5.1660
    -5.0553  -5.0550  -5.0058  -5.0057  -4.6709  -4.6708  -4.6396  -4.6393
    -3.4093  -3.4090  -3.3598  -3.3596  -2.9864  -2.9864  -2.9329  -2.9328
    -2.4631  -2.4626  -2.4248  -2.4246  -2.3242  -2.3239  -2.2588  -2.2586
    -2.1281  -2.1279  -2.0552  -2.0545  -1.1445  -1.1445  -1.0304  -1.0303
    -0.9872  -0.9871  -0.8386  -0.8384  -0.7148  -0.7144  -0.5830  -0.5829
    -0.4122  -0.4119  -0.4076  -0.4074  -0.2947  -0.2945  -0.2543  -0.2540
     0.0660   0.0660   0.1295   0.1296   0.2133   0.2134   0.2767   0.2768
     0.3681   0.3684   0.4221   0.4226   0.5711   0.5713   0.6019   0.6022
     0.7917   0.7918   0.8774   0.8775   0.9349   0.9350   0.9950   0.9951
     3.9958   3.9962   4.0684   4.0688   5.0635   5.0642   5.1240   5.1247
     5.6160   5.6163   5.6681   5.6684   6.4550   6.4550   6.4829   6.4830
     7.8626   7.8628   8.2369   8.2370   8.4070   8.4070   8.5970   8.5971
     8.6872   8.6872   9.0470   9.0472   9.1257   9.1258   9.3891   9.3894
     9.5388

          k = 0.2500-0.2126-0.2005 ( 97388 PWs)   bands (ev):

   -23.9842 -23.9836 -23.9780 -23.9775 -23.3313 -23.3308 -23.3261 -23.3256
   -22.4642 -22.4632 -22.4554 -22.4543 -19.0558 -19.0554 -19.0516 -19.0513
   -18.8535 -18.8529 -18.8395 -18.8389 -18.6963 -18.6959 -18.6902 -18.6898
   -17.5458 -17.5449 -17.5431 -17.5422 -16.5046 -16.5043 -16.5000 -16.4997
   -15.7755 -15.7748 -15.7392 -15.7386 -14.0370 -14.0366 -13.9854 -13.9850
   -11.7047 -11.7044 -11.6941 -11.6938 -11.2496 -11.2494 -11.2482 -11.2480
   -10.1812 -10.1810 -10.1297 -10.1295  -9.3349  -9.3341  -9.3337  -9.3327
    -7.5566  -7.5560  -7.4330  -7.4325  -7.2524  -7.2522  -7.2118  -7.2116
    -6.8649  -6.8644  -6.7907  -6.7905  -6.6356  -6.6352  -6.5606  -6.5604
    -6.5252  -6.5248  -6.4716  -6.4714  -6.3384  -6.3381  -6.2929  -6.2926
    -6.0653  -6.0648  -5.7623  -5.7618  -5.6628  -5.6624  -5.5579  -5.5575
    -5.4368  -5.4365  -5.3919  -5.3915  -5.2275  -5.2274  -5.1964  -5.1963
    -5.0439  -5.0436  -5.0037  -5.0035  -4.6850  -4.6849  -4.6337  -4.6334
    -3.4062  -3.4058  -3.3679  -3.3676  -2.9614  -2.9613  -2.9554  -2.9552
    -2.4439  -2.4435  -2.4382  -2.4376  -2.3440  -2.3437  -2.2373  -2.2366
    -2.1417  -2.1414  -2.0427  -2.0420  -1.1360  -1.1359  -1.0658  -1.0657
    -0.9583  -0.9582  -0.8508  -0.8507  -0.7123  -0.7121  -0.5791  -0.5787
    -0.4237  -0.4232  -0.4044  -0.4040  -0.2875  -0.2872  -0.2574  -0.2571
     0.0651   0.0652   0.1251   0.1253   0.2180   0.2181   0.2843   0.2844
     0.3693   0.3696   0.4289   0.4293   0.5555   0.5559   0.5916   0.5919
     0.8332   0.8334   0.8393   0.8395   0.9567   0.9570   0.9844   0.9847
     3.9955   3.9959   4.0676   4.0679   5.0644   5.0651   5.1239   5.1246
     5.6230   5.6233   5.6618   5.6621   6.4629   6.4629   6.4741   6.4742
     7.9314   7.9318   8.0359   8.0360   8.4695   8.4700   8.6120   8.6125
     8.7909   8.7914   9.0167   9.0169   9.2061   9.2064   9.3886   9.3888
     9.4347

          k =-0.5000 0.0000 0.0000 ( 97384 PWs)   bands (ev):

   -23.9734 -23.9734 -23.9728 -23.9728 -23.3369 -23.3369 -23.3364 -23.3364
   -22.4569 -22.4569 -22.4558 -22.4558 -19.0482 -19.0482 -19.0464 -19.0464
   -18.8534 -18.8534 -18.8507 -18.8507 -18.7016 -18.7016 -18.6983 -18.6983
   -17.5416 -17.5416 -17.5405 -17.5405 -16.5045 -16.5045 -16.5017 -16.5017
   -15.7787 -15.7787 -15.7737 -15.7737 -13.9981 -13.9981 -13.9935 -13.9935
   -11.7020 -11.7020 -11.6797 -11.6797 -11.2520 -11.2520 -11.2474 -11.2474
   -10.1452 -10.1452 -10.1369 -10.1369  -9.3437  -9.3437  -9.3267  -9.3267
    -7.4561  -7.4561  -7.4185  -7.4185  -7.3392  -7.3392  -7.2532  -7.2532
    -6.8954  -6.8954  -6.7766  -6.7766  -6.7084  -6.7084  -6.6033  -6.6033
    -6.5558  -6.5558  -6.5202  -6.5202  -6.3814  -6.3814  -6.3282  -6.3282
    -5.9529  -5.9529  -5.8800  -5.8800  -5.5549  -5.5549  -5.5383  -5.5383
    -5.4005  -5.4005  -5.3549  -5.3549  -5.2888  -5.2888  -5.1248  -5.1248
    -5.0519  -5.0519  -4.9852  -4.9852  -4.7027  -4.7027  -4.6476  -4.6476
    -3.3974  -3.3974  -3.3016  -3.3016  -3.0084  -3.0084  -2.9520  -2.9520
    -2.4093  -2.4093  -2.3951  -2.3951  -2.2251  -2.2251  -2.1891  -2.1891
    -2.1235  -2.1235  -2.0988  -2.0988  -1.1407  -1.1407  -1.0876  -1.0876
    -0.9176  -0.9176  -0.8514  -0.8514  -0.6625  -0.6625  -0.5897  -0.5897
    -0.4601  -0.4601  -0.4070  -0.4070  -0.2551  -0.2551  -0.2251  -0.2251
     0.0926   0.0926   0.1032   0.1032   0.2131   0.2131   0.3022   0.3022
     0.3628   0.3628   0.4012   0.4012   0.5282   0.5282   0.5931   0.5931
     0.7798   0.7798   0.8992   0.8992   0.9473   0.9473   0.9814   0.9814
     4.0625   4.0625   4.0859   4.0859   5.0144   5.0144   5.0342   5.0342
     5.5212   5.5212   5.5679   5.5679   6.3442   6.3442   6.3907   6.3907
     8.2691   8.2691   8.4344   8.4344   8.5897   8.5897   8.6743   8.6743
     8.8673   8.8673   8.9570   8.9571   9.1808   9.1808   9.3313   9.3314
     9.3890

          k =-0.5000 0.0000-0.2005 ( 97400 PWs)   bands (ev):

   -23.9734 -23.9734 -23.9728 -23.9728 -23.3369 -23.3369 -23.3364 -23.3364
   -22.4569 -22.4569 -22.4558 -22.4558 -19.0476 -19.0476 -19.0470 -19.0470
   -18.8529 -18.8529 -18.8512 -18.8512 -18.7003 -18.7003 -18.6998 -18.6998
   -17.5415 -17.5415 -17.5405 -17.5405 -16.5038 -16.5038 -16.5025 -16.5025
   -15.7785 -15.7785 -15.7739 -15.7739 -13.9979 -13.9979 -13.9938 -13.9938
   -11.7021 -11.7021 -11.6800 -11.6800 -11.2502 -11.2502 -11.2487 -11.2487
   -10.1457 -10.1457 -10.1368 -10.1368  -9.3437  -9.3437  -9.3266  -9.3266
    -7.4726  -7.4726  -7.4499  -7.4499  -7.2636  -7.2636  -7.2541  -7.2541
    -6.9027  -6.9027  -6.7795  -6.7795  -6.7240  -6.7240  -6.5941  -6.5941
    -6.5932  -6.5932  -6.5183  -6.5183  -6.3688  -6.3688  -6.3104  -6.3104
    -5.9497  -5.9497  -5.8942  -5.8942  -5.5919  -5.5919  -5.5418  -5.5418
    -5.3751  -5.3751  -5.3608  -5.3608  -5.2146  -5.2146  -5.1708  -5.1708
    -5.0231  -5.0231  -5.0030  -5.0030  -4.7030  -4.7030  -4.6572  -4.6572
    -3.4079  -3.4079  -3.3032  -3.3032  -2.9787  -2.9787  -2.9759  -2.9759
    -2.3917  -2.3917  -2.3716  -2.3716  -2.2540  -2.2540  -2.2212  -2.2212
    -2.1074  -2.1074  -2.0950  -2.0950  -1.1154  -1.1154  -1.0690  -1.0690
    -0.9289  -0.9289  -0.8791  -0.8791  -0.6634  -0.6634  -0.5938  -0.5938
    -0.4441  -0.4441  -0.4265  -0.4265  -0.2556  -0.2556  -0.2187  -0.2187
     0.0840   0.0840   0.1000   0.1000   0.2263   0.2263   0.2876   0.2876
     0.3685   0.3685   0.3968   0.3968   0.5445   0.5445   0.5857   0.5857
     0.8011   0.8011   0.8783   0.8783   0.9517   0.9517   0.9820   0.9820
     4.0596   4.0596   4.0878   4.0878   5.0136   5.0136   5.0363   5.0363
     5.5424   5.5424   5.5458   5.5458   6.3437   6.3437   6.3895   6.3895
     8.2911   8.2911   8.3822   8.3822   8.6523   8.6523   8.7359   8.7359
     8.7537   8.7537   9.0446   9.0446   9.0966   9.0966   9.2656   9.2656
     9.3983

          k =-0.5000-0.2126 0.0000 ( 97452 PWs)   bands (ev):

   -23.9734 -23.9734 -23.9728 -23.9728 -23.3369 -23.3369 -23.3364 -23.3364
   -22.4569 -22.4569 -22.4558 -22.4558 -19.0482 -19.0482 -19.0465 -19.0465
   -18.8526 -18.8526 -18.8515 -18.8515 -18.7015 -18.7015 -18.6985 -18.6985
   -17.5417 -17.5417 -17.5404 -17.5404 -16.5041 -16.5041 -16.5021 -16.5021
   -15.7780 -15.7780 -15.7744 -15.7744 -13.9973 -13.9973 -13.9944 -13.9944
   -11.6926 -11.6926 -11.6892 -11.6892 -11.2516 -11.2516 -11.2477 -11.2477
   -10.1418 -10.1418 -10.1406 -10.1406  -9.3361  -9.3361  -9.3340  -9.3340
    -7.4388  -7.4388  -7.4283  -7.4283  -7.3313  -7.3313  -7.2707  -7.2707
    -6.8970  -6.8970  -6.7532  -6.7532  -6.7348  -6.7348  -6.5934  -6.5934
    -6.5891  -6.5891  -6.4948  -6.4948  -6.3746  -6.3746  -6.3275  -6.3275
    -5.9470  -5.9470  -5.8898  -5.8898  -5.5589  -5.5589  -5.5556  -5.5556
    -5.3754  -5.3754  -5.3655  -5.3655  -5.2399  -5.2399  -5.1947  -5.1947
    -5.0055  -5.0055  -4.9876  -4.9876  -4.6935  -4.6935  -4.6726  -4.6726
    -3.3607  -3.3607  -3.3429  -3.3429  -3.0051  -3.0051  -2.9526  -2.9526
    -2.4090  -2.4090  -2.3888  -2.3888  -2.2463  -2.2463  -2.1911  -2.1911
    -2.1029  -2.1029  -2.0995  -2.0995  -1.1374  -1.1374  -1.0684  -1.0684
    -0.9101  -0.9101  -0.8924  -0.8924  -0.6476  -0.6476  -0.5960  -0.5960
    -0.4659  -0.4659  -0.3955  -0.3955  -0.2510  -0.2510  -0.2343  -0.2343
     0.0871   0.0871   0.0968   0.0968   0.2193   0.2193   0.3099   0.3099
     0.3597   0.3597   0.3946   0.3946   0.5607   0.5607   0.5742   0.5742
     0.8042   0.8042   0.8549   0.8549   0.9558   0.9558   0.9879   0.9879
     4.0735   4.0735   4.0755   4.0755   5.0236   5.0236   5.0243   5.0243
     5.5214   5.5214   5.5660   5.5660   6.3589   6.3589   6.3790   6.3790
     8.3222   8.3222   8.3784   8.3784   8.6720   8.6720   8.6776   8.6776
     8.7990   8.7990   8.9929   8.9929   9.1195   9.1195   9.2310   9.2310
     9.4777

          k =-0.5000-0.2126-0.2005 ( 97496 PWs)   bands (ev):

   -23.9734 -23.9734 -23.9728 -23.9728 -23.3369 -23.3369 -23.3364 -23.3364
   -22.4569 -22.4569 -22.4558 -22.4558 -19.0475 -19.0475 -19.0472 -19.0472
   -18.8523 -18.8523 -18.8517 -18.8517 -18.7002 -18.7002 -18.6998 -18.6998
   -17.5415 -17.5415 -17.5405 -17.5405 -16.5033 -16.5033 -16.5030 -16.5030
   -15.7765 -15.7765 -15.7758 -15.7758 -13.9960 -13.9960 -13.9957 -13.9957
   -11.6912 -11.6912 -11.6909 -11.6909 -11.2496 -11.2496 -11.2494 -11.2494
   -10.1415 -10.1415 -10.1413 -10.1413  -9.3355  -9.3355  -9.3346  -9.3346
    -7.4565  -7.4565  -7.4560  -7.4560  -7.2641  -7.2641  -7.2638  -7.2638
    -6.8667  -6.8667  -6.8663  -6.8663  -6.6306  -6.6306  -6.6303  -6.6303
    -6.5663  -6.5663  -6.5659  -6.5659  -6.3321  -6.3321  -6.3318  -6.3318
    -5.9235  -5.9235  -5.9230  -5.9230  -5.5714  -5.5714  -5.5709  -5.5709
    -5.3645  -5.3645  -5.3641  -5.3641  -5.1949  -5.1949  -5.1948  -5.1948
    -5.0013  -5.0013  -5.0013  -5.0013  -4.6888  -4.6888  -4.6885  -4.6885
    -3.3582  -3.3582  -3.3579  -3.3579  -2.9763  -2.9763  -2.9761  -2.9761
    -2.3824  -2.3824  -2.3819  -2.3819  -2.2361  -2.2361  -2.2356  -2.2356
    -2.1003  -2.1003  -2.0998  -2.0998  -1.0930  -1.0930  -1.0928  -1.0928
    -0.9031  -0.9031  -0.9030  -0.9030  -0.6332  -0.6332  -0.6329  -0.6329
    -0.4284  -0.4284  -0.4279  -0.4279  -0.2425  -0.2425  -0.2422  -0.2422
     0.0872   0.0872   0.0873   0.0873   0.2620   0.2620   0.2621   0.2621
     0.3781   0.3781   0.3784   0.3784   0.5765   0.5765   0.5768   0.5768
     0.8273   0.8273   0.8275   0.8275   0.9731   0.9731   0.9735   0.9735
     4.0739   4.0739   4.0743   4.0743   5.0243   5.0243   5.0249   5.0249
     5.5430   5.5430   5.5433   5.5433   6.3684   6.3684   6.3685   6.3685
     8.3528   8.3528   8.3531   8.3531   8.6410   8.6410   8.6413   8.6413
     8.9352   8.9352   8.9355   8.9356   9.1674   9.1674   9.1676   9.1676
     9.4936

     highest occupied, lowest unoccupied level (ev):     1.0221    3.9303

!    total energy              =   -1861.11685076 Ry
     Harris-Foulkes estimate   =   -1861.11685076 Ry
     estimated scf accuracy    <          2.8E-09 Ry

     total all-electron energy =     -6991.536660 Ry

     The total energy is the sum of the following terms:

     one-electron contribution =    -956.49139966 Ry
     hartree contribution      =     615.22499000 Ry
     xc contribution           =    -365.78100766 Ry
     ewald contribution        =    -650.07536479 Ry
     Dispersion Correction     =      -0.40631922 Ry
     one-center paw contrib.   =    -503.58774943 Ry

     convergence has been achieved in  15 iterations

     Forces acting on atoms (cartesian axes, Ry/au):

     atom    1 type  4   force =     0.00151030    0.00155821    0.00031094
     atom    2 type  4   force =    -0.00150749   -0.00156748    0.00025667
     atom    3 type  4   force =     0.00151030   -0.00155821   -0.00031094
     atom    4 type  4   force =    -0.00150749    0.00156748   -0.00025667
     atom    5 type  4   force =    -0.00015527    0.00161477    0.00001326
     atom    6 type  4   force =     0.00015783   -0.00161230    0.00001718
     atom    7 type  4   force =    -0.00015527   -0.00161477   -0.00001326
     atom    8 type  4   force =     0.00015783    0.00161230   -0.00001718
     atom    9 type  4   force =    -0.00145473   -0.00242967   -0.00047349
     atom   10 type  4   force =     0.00143049    0.00239649   -0.00059410
     atom   11 type  4   force =    -0.00145473    0.00242967    0.00047349
     atom   12 type  4   force =     0.00143049   -0.00239649    0.00059410
     atom   13 type  4   force =     0.00011851   -0.00116054    0.00003762
     atom   14 type  4   force =    -0.00005490    0.00106848   -0.00005125
     atom   15 type  4   force =     0.00011851    0.00116054   -0.00003762
     atom   16 type  4   force =    -0.00005490   -0.00106848    0.00005125
     atom   17 type  2   force =     0.00189554   -0.00054458   -0.00420048
     atom   18 type  2   force =    -0.00192534    0.00051159   -0.00407792
     atom   19 type  2   force =     0.00189554    0.00054458    0.00420048
     atom   20 type  2   force =    -0.00192534   -0.00051159    0.00407792
     atom   21 type  2   force =    -0.00017161    0.00130030   -0.00025093
     atom   22 type  2   force =     0.00005576   -0.00109947   -0.00047219
     atom   23 type  2   force =    -0.00017161   -0.00130030    0.00025093
     atom   24 type  2   force =     0.00005576    0.00109947    0.00047219
     atom   25 type  2   force =    -0.00007679    0.00226736   -0.00509281
     atom   26 type  2   force =     0.00020584   -0.00245024   -0.00496329
     atom   27 type  2   force =    -0.00007679   -0.00226736    0.00509281
     atom   28 type  2   force =     0.00020584    0.00245024    0.00496329
     atom   29 type  2   force =    -0.00705553   -0.00755638    0.00337777
     atom   30 type  2   force =     0.00701017    0.00756124    0.00345360
     atom   31 type  2   force =    -0.00705553    0.00755638   -0.00337777
     atom   32 type  2   force =     0.00701017   -0.00756124   -0.00345360
     atom   33 type  2   force =    -0.00096993   -0.00197971   -0.00019271
     atom   34 type  2   force =     0.00097546    0.00199567   -0.00023504
     atom   35 type  2   force =    -0.00096993    0.00197971    0.00019271
     atom   36 type  2   force =     0.00097546   -0.00199567    0.00023504
     atom   37 type  2   force =     0.00150540    0.00039031    0.00221534
     atom   38 type  2   force =    -0.00161127   -0.00033457    0.00228116
     atom   39 type  2   force =     0.00150540   -0.00039031   -0.00221534
     atom   40 type  2   force =    -0.00161127    0.00033457   -0.00228116
     atom   41 type  2   force =    -0.00483713    0.00162781   -0.00274934
     atom   42 type  2   force =     0.00483765   -0.00163954   -0.00266731
     atom   43 type  2   force =    -0.00483713   -0.00162781    0.00274934
     atom   44 type  2   force =     0.00483765    0.00163954    0.00266731
     atom   45 type  2   force =     0.00072661   -0.00038598    0.00449358
     atom   46 type  2   force =    -0.00073154    0.00037746    0.00445932
     atom   47 type  2   force =     0.00072661    0.00038598   -0.00449358
     atom   48 type  2   force =    -0.00073154   -0.00037746   -0.00445932
     atom   49 type  2   force =     0.00338762   -0.00101197   -0.00205347
     atom   50 type  2   force =    -0.00342102    0.00114671   -0.00182225
     atom   51 type  2   force =     0.00338762    0.00101197    0.00205347
     atom   52 type  2   force =    -0.00342102   -0.00114671    0.00182225
     atom   53 type  1   force =    -0.00020926    0.00411999    0.00136840
     atom   54 type  1   force =     0.00032380   -0.00413304    0.00128925
     atom   55 type  1   force =    -0.00020926   -0.00411999   -0.00136840
     atom   56 type  1   force =     0.00032380    0.00413304   -0.00128925
     atom   57 type  1   force =     0.00048698    0.00483622    0.00427246
     atom   58 type  1   force =    -0.00044995   -0.00485500    0.00428225
     atom   59 type  1   force =     0.00048698   -0.00483622   -0.00427246
     atom   60 type  1   force =    -0.00044995    0.00485500   -0.00428225
     atom   61 type  3   force =    -0.00036428   -0.00062873   -0.00057526
     atom   62 type  3   force =     0.00034901    0.00063676   -0.00057709
     atom   63 type  3   force =    -0.00036428    0.00062873    0.00057526
     atom   64 type  3   force =     0.00034901   -0.00063676    0.00057709
     atom   65 type  3   force =     0.00079676    0.00055040    0.00021401
     atom   66 type  3   force =    -0.00079554   -0.00053354    0.00020479
     atom   67 type  3   force =     0.00079676   -0.00055040   -0.00021401
     atom   68 type  3   force =    -0.00079554    0.00053354   -0.00020479
     atom   69 type  3   force =     0.00008175    0.00011900    0.00004920
     atom   70 type  3   force =    -0.00007955   -0.00013182    0.00004233
     atom   71 type  3   force =     0.00008175   -0.00011900   -0.00004920
     atom   72 type  3   force =    -0.00007955    0.00013182   -0.00004233
     atom   73 type  3   force =     0.00104245   -0.00118673   -0.00021623
     atom   74 type  3   force =    -0.00101694    0.00115886   -0.00021385
     atom   75 type  3   force =     0.00104245    0.00118673    0.00021623
     atom   76 type  3   force =    -0.00101694   -0.00115886    0.00021385
     atom   77 type  3   force =     0.00087749    0.00182211   -0.00200559
     atom   78 type  3   force =    -0.00086926   -0.00182046   -0.00201219
     atom   79 type  3   force =     0.00087749   -0.00182211    0.00200559
     atom   80 type  3   force =    -0.00086926    0.00182046    0.00201219
     atom   81 type  3   force =     0.00178936   -0.00153156    0.00029078
     atom   82 type  3   force =    -0.00180479    0.00153426    0.00026694
     atom   83 type  3   force =     0.00178936    0.00153156   -0.00029078
     atom   84 type  3   force =    -0.00180479   -0.00153426   -0.00026694
     atom   85 type  3   force =    -0.00057907   -0.00110307    0.00059499
     atom   86 type  3   force =     0.00057640    0.00108954    0.00057082
     atom   87 type  3   force =    -0.00057907    0.00110307   -0.00059499
     atom   88 type  3   force =     0.00057640   -0.00108954   -0.00057082

     Total force =     0.037564     Total SCF correction =     0.000097


     Computing stress (Cartesian axis) and pressure

          total   stress  (Ry/bohr**3)                   (kbar)     P=   -4.64
  -0.00002685   0.00000000   0.00000000         -3.95      0.00      0.00
   0.00000000  -0.00002849   0.00000015          0.00     -4.19      0.02
   0.00000000   0.00000015  -0.00003919          0.00      0.02     -5.77


     Writing output data file scf.save
 
     init_run     :     55.31s CPU     57.61s WALL (       1 calls)
     electrons    :   2000.76s CPU   2076.20s WALL (       1 calls)
     forces       :     28.16s CPU     28.35s WALL (       1 calls)
     stress       :    145.92s CPU    146.33s WALL (       1 calls)

     Called by init_run:
     wfcinit      :     50.19s CPU     52.39s WALL (       1 calls)
     potinit      :      1.87s CPU      1.88s WALL (       1 calls)

     Called by electrons:
     c_bands      :   1804.51s CPU   1870.19s WALL (      15 calls)
     sum_band     :    185.07s CPU    193.85s WALL (      15 calls)
     v_of_rho     :      1.62s CPU      1.76s WALL (      16 calls)
     newd         :      3.62s CPU      4.45s WALL (      16 calls)
     PAW_pot      :      5.49s CPU      5.49s WALL (      16 calls)
     mix_rho      :      0.38s CPU      0.40s WALL (      15 calls)

     Called by c_bands:
     init_us_2    :      8.94s CPU      8.96s WALL (     396 calls)
     cegterg      :   1760.83s CPU   1826.44s WALL (     180 calls)

     Called by sum_band:
     sum_band:bec :      0.13s CPU      0.13s WALL (     180 calls)
     addusdens    :      3.60s CPU      4.45s WALL (      15 calls)

     Called by *egterg:
     h_psi        :    895.06s CPU    945.22s WALL (     897 calls)
     s_psi        :    218.39s CPU    218.38s WALL (     897 calls)
     g_psi        :      4.30s CPU      4.30s WALL (     705 calls)
     cdiaghg      :    115.35s CPU    115.32s WALL (     885 calls)

     Called by h_psi:
     h_psi:pot    :    889.06s CPU    939.09s WALL (     897 calls)
     h_psi:calbec :    223.49s CPU    223.98s WALL (     897 calls)
     vloc_psi     :    447.45s CPU    497.03s WALL (     897 calls)
     add_vuspsi   :    218.11s CPU    218.08s WALL (     897 calls)

     General routines
     calbec       :    352.44s CPU    353.17s WALL (    1137 calls)
     fft          :      2.65s CPU      2.90s WALL (     232 calls)
     fftw         :    489.15s CPU    546.03s WALL (  226724 calls)
 
     Parallel routines
     fft_scatter  :    161.71s CPU    212.49s WALL (  226956 calls)
 
     PWSCF        : 37m25.18s CPU    40m 2.47s WALL

 
   This run was terminated on:   7:41:20  22Dec2017            

=------------------------------------------------------------------------------=
   JOB DONE.
=------------------------------------------------------------------------------=
