
     Program PWSCF v.6.1 (svn rev. 13369) starts on  4Nov2017 at  5: 6:17 

     This program is part of the open-source Quantum ESPRESSO suite
     for quantum simulation of materials; please cite
         "P. Giannozzi et al., J. Phys.:Condens. Matter 21 395502 (2009);
          URL http://www.quantum-espresso.org", 
     in publications or presentations arising from this work. More details at
     http://www.quantum-espresso.org/quote

     Parallel version (MPI), running on     8 processors
     R & G space division:  proc/nbgrp/npool/nimage =       8
     Waiting for input...
     Reading input from standard input

     Current dimensions of program PWSCF are:
     Max number of different atomic species (ntypx) = 10
     Max number of k-points (npk) =  40000
     Max angular momentum in pseudopotentials (lmaxx) =  3
               file C.pbe-n-kjpaw_psl.0.1.UPF: wavefunction(s)  2P renormalized
               file N.pbe-n-kjpaw_psl.0.1.UPF: wavefunction(s)  2P renormalized
               file H.pbe-kjpaw_psl.0.1.UPF: wavefunction(s)  1S renormalized
               file O.pbe-n-kjpaw_psl.0.1.UPF: wavefunction(s)  2P renormalized

     -------------------------------------
     Parameters for Dispersion Correction:
     -------------------------------------
       atom      VdW radius       C_6     

        C          2.744         60.710
        N          2.640         42.670
        H          1.892          4.857
        O          2.536         24.284

     Subspace diagonalization in iterative solution of the eigenvalue problem:
     a serial algorithm will be used

 
     Parallelization info
     --------------------
     sticks:   dense  smooth     PW     G-vecs:    dense   smooth      PW
     Min        1208    1208    316               160486   160486   21494
     Max        1209    1209    317               160491   160491   21497
     Sum        9667    9667   2533              1283909  1283909  171961
 


     bravais-lattice index     =            0
     lattice parameter (alat)  =      13.2209  a.u.
     unit-cell volume          =    9504.7026 (a.u.)^3
     number of atoms/cell      =          160
     number of atomic types    =            4
     number of electrons       =       456.00
     number of Kohn-Sham states=          273
     kinetic-energy cutoff     =     100.0000  Ry
     charge density cutoff     =     400.0000  Ry
     convergence threshold     =      1.0E-08
     mixing beta               =       0.5000
     number of iterations used =            8  plain     mixing
     Exchange-correlation      =  SLA  PW   PBX  PBC ( 1  4  3  4 0 0)

     celldm(1)=  13.220902  celldm(2)=   0.000000  celldm(3)=   0.000000
     celldm(4)=   0.000000  celldm(5)=   0.000000  celldm(6)=   0.000000

     crystal axes: (cart. coord. in units of alat)
               a(1) = (   1.000000   0.000000   0.000000 )  
               a(2) = (   0.000000   1.736371   0.000000 )  
               a(3) = (   0.000000   0.000000   2.368714 )  

     reciprocal axes: (cart. coord. in units 2 pi/alat)
               b(1) = (  1.000000  0.000000  0.000000 )  
               b(2) = (  0.000000  0.575914  0.000000 )  
               b(3) = (  0.000000  0.000000  0.422170 )  


     PseudoPot. # 1 for  C read from file:
     /scratch/ahofstet/pseudo/C.pbe-n-kjpaw_psl.0.1.UPF
     MD5 check sum: 430fe95172b1e11ef3f8ed03bac87931
     Pseudo is Projector augmented-wave + core cor, Zval =  4.0
     Generated using "atomic" code by A. Dal Corso  v.5.0.99 svn rev. 10869
     Shape of augmentation charge: BESSEL
     Using radial grid of 1073 points,  4 beta functions with: 
                l(1) =   0
                l(2) =   0
                l(3) =   1
                l(4) =   1
     Q(r) pseudized with 0 coefficients 


     PseudoPot. # 2 for  N read from file:
     /scratch/ahofstet/pseudo/N.pbe-n-kjpaw_psl.0.1.UPF
     MD5 check sum: f73187c8b701007e77325f868c9291d7
     Pseudo is Projector augmented-wave + core cor, Zval =  5.0
     Generated using "atomic" code by A. Dal Corso  v.5.0.99 svn rev. 10869
     Shape of augmentation charge: PSQ
     Using radial grid of 1085 points,  4 beta functions with: 
                l(1) =   0
                l(2) =   0
                l(3) =   1
                l(4) =   1
     Q(r) pseudized with 0 coefficients 


     PseudoPot. # 3 for  H read from file:
     /scratch/ahofstet/pseudo/H.pbe-kjpaw_psl.0.1.UPF
     MD5 check sum: 94e484f906d9e9773b2f6e52662335b2
     Pseudo is Projector augmented-wave, Zval =  1.0
     Generated using "atomic" code by A. Dal Corso  v.5.0.99 svn rev. 10869
     Shape of augmentation charge: PSQ
     Using radial grid of  929 points,  2 beta functions with: 
                l(1) =   0
                l(2) =   0
     Q(r) pseudized with 0 coefficients 


     PseudoPot. # 4 for  O read from file:
     /scratch/ahofstet/pseudo/O.pbe-n-kjpaw_psl.0.1.UPF
     MD5 check sum: 3f94a2996a3169367d6eb21d9b593f20
     Pseudo is Projector augmented-wave + core cor, Zval =  6.0
     Generated using "atomic" code by A. Dal Corso  v.5.0.99 svn rev. 10869
     Shape of augmentation charge: BESSEL
     Using radial grid of 1095 points,  4 beta functions with: 
                l(1) =   0
                l(2) =   0
                l(3) =   1
                l(4) =   1
     Q(r) pseudized with 0 coefficients 


     atomic species   valence    mass     pseudopotential
        C              4.00    12.01070      C( 1.00)
        N              5.00    14.00670      N( 1.00)
        H              1.00     1.00794      H( 1.00)
        O              6.00    15.99940      O( 1.00)

      4 Sym. Ops. (no inversion) found ( 3 have fractional translation)



   Cartesian axes

     site n.     atom                  positions (alat units)
         1           N   tau(   1) = (   0.2779983   0.9532918   1.7246292  )
         2           N   tau(   2) = (   0.2220017   0.7830794   0.5402720  )
         3           N   tau(   3) = (   0.7220017   0.0851062   1.8284425  )
         4           N   tau(   4) = (   0.7779983   1.6512650   0.6440852  )
         5           N   tau(   5) = (   0.2025954   0.9833266   2.0406108  )
         6           N   tau(   6) = (   0.2974046   0.7530446   0.8562536  )
         7           N   tau(   7) = (   0.7974046   0.1151410   1.5124608  )
         8           N   tau(   8) = (   0.7025954   1.6212302   0.3281036  )
         9           N   tau(   9) = (   0.2523236   1.1577242   1.9783191  )
        10           N   tau(  10) = (   0.2476764   0.5786470   0.7939619  )
        11           N   tau(  11) = (   0.7476764   0.2895386   1.5747526  )
        12           N   tau(  12) = (   0.7523236   1.4468326   0.3903954  )
        13           N   tau(  13) = (   0.3571779   1.2881255   1.6704179  )
        14           N   tau(  14) = (   0.1428221   0.4482457   0.4860606  )
        15           N   tau(  15) = (   0.6428221   0.4199399   1.8826538  )
        16           N   tau(  16) = (   0.8571779   1.3164313   0.6982966  )
        17           N   tau(  17) = (   0.1701266   0.6668038   1.8930866  )
        18           N   tau(  18) = (   0.3298734   1.0695673   0.7087294  )
        19           N   tau(  19) = (   0.8298734   1.5349894   1.6599851  )
        20           N   tau(  20) = (   0.6701266   0.2013817   0.4756279  )
        21           O   tau(  21) = (   0.3549323   1.4515044   1.7383017  )
        22           O   tau(  22) = (   0.1450677   0.2848668   0.5539445  )
        23           O   tau(  23) = (   0.6450677   0.5833188   1.8147699  )
        24           O   tau(  24) = (   0.8549323   1.1530524   0.6304127  )
        25           O   tau(  25) = (   0.4091144   1.2498740   1.5054151  )
        26           O   tau(  26) = (   0.0908856   0.4864972   0.3210579  )
        27           O   tau(  27) = (   0.5908856   0.3816884   2.0476565  )
        28           O   tau(  28) = (   0.9091144   1.3546828   0.8632993  )
        29           O   tau(  29) = (   0.1952653   0.5698112   1.7476301  )
        30           O   tau(  30) = (   0.3047347   1.1665600   0.5632729  )
        31           O   tau(  31) = (   0.8047347   1.4379967   1.8054416  )
        32           O   tau(  32) = (   0.6952653   0.2983744   0.6210843  )
        33           O   tau(  33) = (   0.1033473   0.6046473   2.0454646  )
        34           O   tau(  34) = (   0.3966527   1.1317239   0.8611074  )
        35           O   tau(  35) = (   0.8966527   1.4728329   1.5076070  )
        36           O   tau(  36) = (   0.6033473   0.2635383   0.3232498  )
        37           C   tau(  37) = (   0.2955659   1.1319350   1.7911667  )
        38           C   tau(  38) = (   0.2044341   0.6044362   0.6068094  )
        39           C   tau(  39) = (   0.7044341   0.2637494   1.7619050  )
        40           C   tau(  40) = (   0.7955659   1.4726218   0.5775478  )
        41           C   tau(  41) = (   0.2194904   0.8681707   1.8854819  )
        42           C   tau(  42) = (   0.2805096   0.8682005   0.7011247  )
        43           C   tau(  43) = (   0.7805096  -0.0000149   1.6675897  )
        44           C   tau(  44) = (   0.7194904   1.7363861   0.4832325  )
        45           N   tau(  45) = (   0.7812836   0.8506590   1.2788983  )
        46           N   tau(  46) = (   0.7187164   0.8857122   0.0945411  )
        47           N   tau(  47) = (   0.2187164   1.7188446   2.2741734  )
        48           N   tau(  48) = (   0.2812836   0.0175266   1.0898161  )
        49           C   tau(  49) = (   0.8458205   1.0482061   1.2158709  )
        50           C   tau(  50) = (   0.6541795   0.6881651   0.0315137  )
        51           C   tau(  51) = (   0.1541795   0.1800205   2.3372007  )
        52           C   tau(  52) = (   0.3458205   1.5563506   1.1528435  )
        53           H   tau(  53) = (   0.7867963   1.0700539   1.0724561  )
        54           H   tau(  54) = (   0.7132037   0.6663172   2.2568134  )
        55           H   tau(  55) = (   0.2132037   0.2018683   0.1119011  )
        56           H   tau(  56) = (   0.2867963   1.5345028   1.2962583  )
        57           H   tau(  57) = (   0.7752782   1.1487861   1.3132709  )
        58           H   tau(  58) = (   0.7247218   0.5875851   0.1289136  )
        59           H   tau(  59) = (   0.2247218   0.2806005   2.2398008  )
        60           H   tau(  60) = (   0.2752782   1.4557706   1.0554436  )
        61           C   tau(  61) = (   0.0602868   1.0784888   1.2171736  )
        62           C   tau(  62) = (   0.4397132   0.6578824   0.0328164  )
        63           C   tau(  63) = (   0.9397132   0.2103032   2.3358980  )
        64           C   tau(  64) = (   0.5602868   1.5260680   1.1515408  )
        65           H   tau(  65) = (   0.1360901   0.9859605   1.1154163  )
        66           H   tau(  66) = (   0.3639099   0.7504106   2.2997735  )
        67           H   tau(  67) = (   0.8639099   0.1177750   0.0689410  )
        68           H   tau(  68) = (   0.6360901   1.6185962   1.2532982  )
        69           H   tau(  69) = (   0.1230319   1.0610018   1.3598296  )
        70           H   tau(  70) = (   0.3769681   0.6753694   0.1754724  )
        71           H   tau(  71) = (   0.8769681   0.1928162   2.1932420  )
        72           H   tau(  72) = (   0.6230319   1.5435550   1.0088848  )
        73           H   tau(  73) = (   0.0854864   1.2264755   1.1725968  )
        74           H   tau(  74) = (   0.4145136   0.5098957   2.3569541  )
        75           H   tau(  75) = (   0.9145136   0.3582899   0.0117604  )
        76           H   tau(  76) = (   0.5854864   1.3780813   1.1961176  )
        77           C   tau(  77) = (   0.8610013   0.6975762   1.1480972  )
        78           C   tau(  78) = (   0.6389987   1.0387950   2.3324545  )
        79           C   tau(  79) = (   0.1389987   1.5657617   0.0362600  )
        80           C   tau(  80) = (   0.3610013   0.1706094   1.2206172  )
        81           H   tau(  81) = (   1.0171859   0.7083408   1.1588568  )
        82           H   tau(  82) = (   0.4828141   1.0280304   2.3432140  )
        83           H   tau(  83) = (  -0.0171859   1.5765264   0.0255005  )
        84           H   tau(  84) = (   0.5171859   0.1598448   1.2098577  )
        85           H   tau(  85) = (   0.8167406   0.5615143   1.2122728  )
        86           H   tau(  86) = (   0.6832594   1.1748568   0.0279156  )
        87           H   tau(  87) = (   0.1832594   1.4296999   2.3407989  )
        88           H   tau(  88) = (   0.3167406   0.3066713   1.1564416  )
        89           C   tau(  89) = (   0.7963598   0.7118435   0.9420352  )
        90           C   tau(  90) = (   0.7036402   1.0245276   2.1263924  )
        91           C   tau(  91) = (   0.2036402   1.5800291   0.2423220  )
        92           C   tau(  92) = (   0.2963598   0.1563421   1.4266792  )
        93           H   tau(  93) = (   0.8470593   0.8432848   0.8727700  )
        94           H   tau(  94) = (   0.6529407   0.8930863   2.0571273  )
        95           H   tau(  95) = (   0.1529407   1.7114704   0.3115872  )
        96           H   tau(  96) = (   0.3470593   0.0249007   1.4959444  )
        97           H   tau(  97) = (   0.8580658   0.5904311   0.8642483  )
        98           H   tau(  98) = (   0.6419342   1.1459401   2.0486055  )
        99           H   tau(  99) = (   0.1419342   1.4586167   0.3201090  )
       100           H   tau( 100) = (   0.3580658   0.2777545   1.5044662  )
       101           H   tau( 101) = (   0.6406082   0.7030933   0.9289907  )
       102           H   tau( 102) = (   0.8593918   1.0332779   2.1133479  )
       103           H   tau( 103) = (   0.3593918   1.5712789   0.2553665  )
       104           H   tau( 104) = (   0.1406082   0.1650923   1.4397238  )
       105           C   tau( 105) = (   0.5621248   0.8527196   1.2743805  )
       106           C   tau( 106) = (   0.9378752   0.8836516   0.0900233  )
       107           C   tau( 107) = (   0.4378752   1.7209051   2.2786911  )
       108           C   tau( 108) = (   0.0621248   0.0154660   1.0943339  )
       109           H   tau( 109) = (   0.5223252   0.8984975   1.1298701  )
       110           H   tau( 110) = (   0.9776748   0.8378737   2.3142273  )
       111           H   tau( 111) = (   0.4776748   0.0303119   0.0544871  )
       112           H   tau( 112) = (   0.0223252   1.7060593   1.2388444  )
       113           H   tau( 113) = (   0.5188581   0.9645843   1.3747330  )
       114           H   tau( 114) = (   0.9811419   0.7717869   0.1903758  )
       115           H   tau( 115) = (   0.4811419   0.0963987   2.1783386  )
       116           H   tau( 116) = (   0.0188581   1.6399725   0.9939814  )
       117           C   tau( 117) = (   0.4685211   0.6646659   1.3236859  )
       118           C   tau( 118) = (   0.0314789   1.0717052   0.1393287  )
       119           C   tau( 119) = (   0.5314789   1.5328515   2.2293857  )
       120           C   tau( 120) = (   0.9685211   0.2035196   1.0450285  )
       121           H   tau( 121) = (   0.3131387   0.6883731   1.3225024  )
       122           H   tau( 122) = (   0.1868613   1.0479981   0.1381452  )
       123           H   tau( 123) = (   0.6868613   1.5565587   2.2305693  )
       124           H   tau( 124) = (   0.8131387   0.1798125   1.0462120  )
       125           H   tau( 125) = (   0.5006886   0.5541002   1.2172684  )
       126           H   tau( 126) = (  -0.0006886   1.1822709   0.0329111  )
       127           H   tau( 127) = (   0.4993114   1.4222858   2.3358033  )
       128           H   tau( 128) = (   1.0006886   0.3140854   1.1514461  )
       129           H   tau( 129) = (   0.5071135   0.6133049   1.4666506  )
       130           H   tau( 130) = (   0.9928865   1.1230663   0.2822934  )
       131           H   tau( 131) = (   0.4928865   1.4814905   2.0864210  )
       132           H   tau( 132) = (   0.0071135   0.2548807   0.9020638  )
       133           C   tau( 133) = (   0.8559101   0.8058148   1.4778122  )
       134           C   tau( 134) = (   0.6440899   0.9305563   0.2934550  )
       135           C   tau( 135) = (   0.1440899   1.6740004   2.0752595  )
       136           C   tau( 136) = (   0.3559101   0.0623707   0.8909022  )
       137           H   tau( 137) = (   0.8047910   0.6617664   1.5122317  )
       138           H   tau( 138) = (   0.6952090   1.0746048   0.3278745  )
       139           H   tau( 139) = (   0.1952090   1.5299520   2.0408400  )
       140           H   tau( 140) = (   0.3047910   0.2064192   0.8564828  )
       141           H   tau( 141) = (   1.0121579   0.8002236   1.4650409  )
       142           H   tau( 142) = (   0.4878421   0.9361476   0.2806837  )
       143           H   tau( 143) = (  -0.0121579   1.6684092   2.0880308  )
       144           H   tau( 144) = (   0.5121579   0.0679620   0.9036735  )
       145           C   tau( 145) = (   0.7958443   0.9480396   1.6294273  )
       146           C   tau( 146) = (   0.7041557   0.7883316   0.4450700  )
       147           C   tau( 147) = (   0.2041557   0.0798540   1.9236444  )
       148           C   tau( 148) = (   0.2958443   1.6565172   0.7392872  )
       149           H   tau( 149) = (   0.8537204   0.8988614   1.7663743  )
       150           H   tau( 150) = (   0.6462796   0.8375098   0.5820171  )
       151           H   tau( 151) = (   0.1462796   0.0306758   1.7866974  )
       152           H   tau( 152) = (   0.3537204   1.7056954   0.6023401  )
       153           H   tau( 153) = (   0.8511389   1.0924928   1.6037556  )
       154           H   tau( 154) = (   0.6488611   0.6438783   0.4193984  )
       155           H   tau( 155) = (   0.1488611   0.2243072   1.9493161  )
       156           H   tau( 156) = (   0.3511389   1.5120639   0.7649589  )
       157           H   tau( 157) = (   0.6403715   0.9533074   1.6451607  )
       158           H   tau( 158) = (   0.8596285   0.7830638   0.4608035  )
       159           H   tau( 159) = (   0.3596285   0.0851218   1.9079110  )
       160           H   tau( 160) = (   0.1403715   1.6512494   0.7235538  )

     number of k points=     8
                       cart. coord. in units 2pi/alat
        k(    1) = (   0.0000000   0.0000000   0.0000000), wk =   0.1666667
        k(    2) = (   0.0000000   0.0000000  -0.2110850), wk =   0.1666667
        k(    3) = (   0.0000000  -0.2879569   0.0000000), wk =   0.1666667
        k(    4) = (   0.0000000  -0.2879569  -0.2110850), wk =   0.1666667
        k(    5) = (   0.3333333   0.0000000   0.0000000), wk =   0.3333333
        k(    6) = (   0.3333333   0.0000000  -0.2110850), wk =   0.3333333
        k(    7) = (   0.3333333  -0.2879569   0.0000000), wk =   0.3333333
        k(    8) = (   0.3333333  -0.2879569  -0.2110850), wk =   0.3333333

     Dense  grid:  1283909 G-vectors     FFT dimensions: (  90, 150, 200)

     Estimated max dynamical RAM per process >    1800.22MB

     Estimated total allocated dynamical RAM >   14401.75MB

     Check: negative/imaginary core charge=   -0.000002    0.000000

     Initial potential from superposition of free atoms

     starting charge  455.99737, renormalised to  456.00000
     Starting wfc are  400 randomized atomic wfcs
     Checking if some PAW data can be deallocated... 

     total cpu time spent up to now is      120.1 secs

     per-process dynamical memory:  1150.7 Mb

     Self-consistent Calculation

     iteration #  1     ecut=   100.00 Ry     beta=0.50
     Davidson diagonalization with overlap
     ethr =  1.00E-02,  avg # of iterations =  3.2

     total cpu time spent up to now is      512.3 secs

     total energy              =   -2171.73911646 Ry
     Harris-Foulkes estimate   =   -2180.35036772 Ry
     estimated scf accuracy    <      16.32318580 Ry

     iteration #  2     ecut=   100.00 Ry     beta=0.50
     Davidson diagonalization with overlap
     ethr =  3.58E-03,  avg # of iterations =  3.0

     total cpu time spent up to now is      743.0 secs

     total energy              =   -2173.52671177 Ry
     Harris-Foulkes estimate   =   -2174.85317864 Ry
     estimated scf accuracy    <       2.78480343 Ry

     iteration #  3     ecut=   100.00 Ry     beta=0.50
     Davidson diagonalization with overlap
     ethr =  6.11E-04,  avg # of iterations =  6.8

     total cpu time spent up to now is     1172.2 secs

     total energy              =   -2174.90688591 Ry
     Harris-Foulkes estimate   =   -2175.47521917 Ry
     estimated scf accuracy    <       1.46514817 Ry

     iteration #  4     ecut=   100.00 Ry     beta=0.50
     Davidson diagonalization with overlap
     ethr =  3.21E-04,  avg # of iterations =  1.0

     total cpu time spent up to now is     1362.0 secs

     total energy              =   -2174.77046509 Ry
     Harris-Foulkes estimate   =   -2175.00577352 Ry
     estimated scf accuracy    <       0.37657325 Ry

     iteration #  5     ecut=   100.00 Ry     beta=0.50
     Davidson diagonalization with overlap
     ethr =  8.26E-05,  avg # of iterations =  6.6

     total cpu time spent up to now is     1807.5 secs

     total energy              =   -2175.05463802 Ry
     Harris-Foulkes estimate   =   -2175.31001449 Ry
     estimated scf accuracy    <       0.83113601 Ry

     iteration #  6     ecut=   100.00 Ry     beta=0.50
     Davidson diagonalization with overlap
     ethr =  8.26E-05,  avg # of iterations =  2.0

     total cpu time spent up to now is     2003.4 secs

     total energy              =   -2174.99578635 Ry
     Harris-Foulkes estimate   =   -2175.08109868 Ry
     estimated scf accuracy    <       0.36277505 Ry

     iteration #  7     ecut=   100.00 Ry     beta=0.50
     Davidson diagonalization with overlap
     ethr =  7.96E-05,  avg # of iterations =  3.0

     total cpu time spent up to now is     2230.1 secs

     total energy              =   -2175.02507556 Ry
     Harris-Foulkes estimate   =   -2175.05386873 Ry
     estimated scf accuracy    <       0.05295911 Ry

     iteration #  8     ecut=   100.00 Ry     beta=0.50
     Davidson diagonalization with overlap
     ethr =  1.16E-05,  avg # of iterations =  8.2

     total cpu time spent up to now is     2610.5 secs

     total energy              =   -2175.04974901 Ry
     Harris-Foulkes estimate   =   -2175.05125988 Ry
     estimated scf accuracy    <       0.00637716 Ry

     iteration #  9     ecut=   100.00 Ry     beta=0.50
     Davidson diagonalization with overlap
     ethr =  1.40E-06,  avg # of iterations =  3.0

     total cpu time spent up to now is     2819.3 secs

     total energy              =   -2175.04872940 Ry
     Harris-Foulkes estimate   =   -2175.05019198 Ry
     estimated scf accuracy    <       0.00317424 Ry

     iteration # 10     ecut=   100.00 Ry     beta=0.50
     Davidson diagonalization with overlap
     ethr =  6.96E-07,  avg # of iterations =  4.2

     total cpu time spent up to now is     3106.0 secs

     total energy              =   -2175.04972050 Ry
     Harris-Foulkes estimate   =   -2175.04983173 Ry
     estimated scf accuracy    <       0.00032063 Ry

     iteration # 11     ecut=   100.00 Ry     beta=0.50
     Davidson diagonalization with overlap
     ethr =  7.03E-08,  avg # of iterations =  3.8

     total cpu time spent up to now is     3336.4 secs

     total energy              =   -2175.04974952 Ry
     Harris-Foulkes estimate   =   -2175.04977794 Ry
     estimated scf accuracy    <       0.00007129 Ry

     iteration # 12     ecut=   100.00 Ry     beta=0.50
     Davidson diagonalization with overlap
     ethr =  1.56E-08,  avg # of iterations =  4.0

     total cpu time spent up to now is     3701.8 secs

     total energy              =   -2175.04978147 Ry
     Harris-Foulkes estimate   =   -2175.04981900 Ry
     estimated scf accuracy    <       0.00014255 Ry

     iteration # 13     ecut=   100.00 Ry     beta=0.50
     Davidson diagonalization with overlap
     ethr =  1.56E-08,  avg # of iterations =  1.0

     total cpu time spent up to now is     3891.3 secs

     total energy              =   -2175.04976090 Ry
     Harris-Foulkes estimate   =   -2175.04978476 Ry
     estimated scf accuracy    <       0.00007485 Ry

     iteration # 14     ecut=   100.00 Ry     beta=0.50
     Davidson diagonalization with overlap
     ethr =  1.56E-08,  avg # of iterations =  4.0

     total cpu time spent up to now is     4158.9 secs

     total energy              =   -2175.04977602 Ry
     Harris-Foulkes estimate   =   -2175.04977717 Ry
     estimated scf accuracy    <       0.00000247 Ry

     iteration # 15     ecut=   100.00 Ry     beta=0.50
     Davidson diagonalization with overlap
     ethr =  5.41E-10,  avg # of iterations =  4.1

     total cpu time spent up to now is     4523.1 secs

     total energy              =   -2175.04977727 Ry
     Harris-Foulkes estimate   =   -2175.04977730 Ry
     estimated scf accuracy    <       0.00000048 Ry

     iteration # 16     ecut=   100.00 Ry     beta=0.50
     Davidson diagonalization with overlap
     ethr =  1.06E-10,  avg # of iterations =  2.5

     total cpu time spent up to now is     4720.3 secs

     total energy              =   -2175.04977722 Ry
     Harris-Foulkes estimate   =   -2175.04977732 Ry
     estimated scf accuracy    <       0.00000037 Ry

     iteration # 17     ecut=   100.00 Ry     beta=0.50
     Davidson diagonalization with overlap
     ethr =  8.09E-11,  avg # of iterations =  1.8

     total cpu time spent up to now is     4911.8 secs

     total energy              =   -2175.04977715 Ry
     Harris-Foulkes estimate   =   -2175.04977723 Ry
     estimated scf accuracy    <       0.00000018 Ry

     iteration # 18     ecut=   100.00 Ry     beta=0.50
     Davidson diagonalization with overlap
     ethr =  3.86E-11,  avg # of iterations =  4.0

     total cpu time spent up to now is     5185.8 secs

     total energy              =   -2175.04977720 Ry
     Harris-Foulkes estimate   =   -2175.04977721 Ry
     estimated scf accuracy    <       0.00000002 Ry

     iteration # 19     ecut=   100.00 Ry     beta=0.50
     Davidson diagonalization with overlap
     ethr =  4.36E-12,  avg # of iterations =  4.0

     total cpu time spent up to now is     5427.4 secs

     End of self-consistent calculation

          k = 0.0000 0.0000 0.0000 (160417 PWs)   bands (ev):

   -24.6804 -24.6803 -24.6751 -24.6750 -24.5750 -24.5750 -24.5698 -24.5698
   -20.6751 -20.6751 -20.6742 -20.6741 -20.1950 -20.1947 -20.1923 -20.1921
   -20.1116 -20.1116 -20.1098 -20.1097 -18.7945 -18.7941 -18.7924 -18.7924
   -16.4457 -16.4457 -16.4456 -16.4455 -14.8642 -14.8639 -14.8510 -14.8507
   -13.2413 -13.2190 -13.2137 -13.1780 -13.1061 -13.0971 -13.0967 -13.0924
   -12.8569 -12.8534 -12.8451 -12.8418 -12.8171 -12.8082 -12.8022 -12.7962
   -11.8432 -11.7943 -11.7645 -11.7119 -11.1927 -11.1913 -11.1909 -11.1878
   -10.5758 -10.5575 -10.5173 -10.4895  -9.2050  -9.2031  -9.1157  -9.1144
    -9.0592  -9.0549  -8.9987  -8.9952  -8.2723  -8.2610  -8.2421  -8.2340
    -8.1950  -8.1820  -8.1773  -8.1706  -7.7679  -7.7136  -7.6521  -7.5629
    -7.5090  -7.5061  -7.4765  -7.4650  -7.3978  -7.3872  -7.1730  -7.1673
    -7.1102  -7.0862  -6.9418  -6.8752  -6.8633  -6.8557  -6.8528  -6.8276
    -6.8071  -6.7697  -6.7362  -6.7328  -6.6923  -6.6890  -6.6712  -6.6352
    -6.3200  -6.3010  -6.2588  -6.2259  -6.0588  -6.0347  -6.0267  -6.0255
    -5.5995  -5.5519  -5.5234  -5.5033  -5.3261  -5.2921  -5.2632  -5.1913
    -4.9592  -4.9100  -4.8018  -4.7981  -4.3968  -4.3738  -4.2463  -4.2401
    -4.1722  -4.1606  -4.1482  -4.1090  -4.0524  -3.9630  -3.9421  -3.8781
    -3.8587  -3.8501  -3.8096  -3.8016  -3.7662  -3.7600  -3.6800  -3.6650
    -3.4015  -3.3960  -3.3642  -3.3272  -3.1834  -3.1581  -3.1242  -3.0562
    -2.8991  -2.8948  -2.8699  -2.8359  -2.8221  -2.7915  -2.7741  -2.7393
    -2.7309  -2.6714  -2.6152  -2.5977  -2.5941  -2.5415  -2.5058  -2.4993
    -2.4779  -2.4613  -2.4331  -2.4251  -2.3660  -2.3215  -2.3209  -2.2968
    -2.2721  -2.2524  -2.2487  -2.2444  -2.1320  -2.0654  -2.0640  -1.9825
    -1.9275  -1.8948  -1.8816  -1.8755  -1.5745  -1.5737  -1.4741  -1.4714
    -1.4273  -1.4242  -1.3739  -1.3589  -1.3133  -1.2904  -1.2608  -1.2485
    -1.1610  -1.1577  -1.1488  -1.1433  -1.1229  -1.1196  -1.1084  -1.0736
    -1.0582  -1.0007  -0.9991  -0.9538  -0.6058  -0.5971  -0.5968  -0.5785
    -0.4471  -0.4317  -0.4097  -0.3982  -0.3055  -0.3004  -0.3001  -0.2970
    -0.0885  -0.0719  -0.0563  -0.0557   2.5515   2.5718   2.6326   2.6406
     2.9743   3.0215   3.1242   3.1319   6.1851   6.1960   6.2159   6.2264
     6.2656   6.4926   6.6345   6.6391   6.6510   6.6712   6.7742   6.8515
     6.9036   7.0186   7.0539   7.1034   7.2321   7.2889   7.3853   7.4381
     7.4532   7.6037   7.7044   7.7375   7.8253   7.9489   7.9835   8.0245
     8.0508   8.0623   8.2165   8.2619   8.2953   8.3221   8.4312   8.4852
     8.4950

          k = 0.0000 0.0000-0.2111 (160448 PWs)   bands (ev):

   -24.6803 -24.6803 -24.6751 -24.6751 -24.5750 -24.5750 -24.5698 -24.5698
   -20.6751 -20.6751 -20.6742 -20.6742 -20.1948 -20.1948 -20.1922 -20.1922
   -20.1116 -20.1116 -20.1097 -20.1097 -18.7943 -18.7943 -18.7924 -18.7924
   -16.4457 -16.4457 -16.4456 -16.4456 -14.8641 -14.8641 -14.8509 -14.8509
   -13.2298 -13.2298 -13.1963 -13.1963 -13.1008 -13.1008 -13.0964 -13.0964
   -12.8581 -12.8581 -12.8393 -12.8393 -12.8140 -12.8140 -12.7981 -12.7981
   -11.8186 -11.8186 -11.7381 -11.7381 -11.1928 -11.1928 -11.1884 -11.1884
   -10.5488 -10.5488 -10.5258 -10.5258  -9.1217  -9.1217  -9.1082  -9.1082
    -9.0929  -9.0929  -9.0507  -9.0507  -8.2693  -8.2693  -8.2351  -8.2351
    -8.1886  -8.1886  -8.1740  -8.1740  -7.7387  -7.7387  -7.6117  -7.6117
    -7.5060  -7.5060  -7.4683  -7.4683  -7.3894  -7.3894  -7.1696  -7.1696
    -7.0988  -7.0988  -6.9088  -6.9088  -6.8713  -6.8713  -6.8391  -6.8391
    -6.7845  -6.7845  -6.7322  -6.7322  -6.6803  -6.6803  -6.6595  -6.6595
    -6.3115  -6.3115  -6.2412  -6.2412  -6.0463  -6.0463  -6.0265  -6.0265
    -5.5639  -5.5639  -5.5287  -5.5287  -5.3072  -5.3072  -5.2254  -5.2254
    -4.8840  -4.8840  -4.8557  -4.8557  -4.3865  -4.3865  -4.2458  -4.2458
    -4.1544  -4.1544  -4.1301  -4.1301  -3.9884  -3.9884  -3.8761  -3.8761
    -3.8500  -3.8500  -3.8127  -3.8127  -3.7771  -3.7771  -3.7460  -3.7460
    -3.3825  -3.3825  -3.3505  -3.3505  -3.1772  -3.1772  -3.0977  -3.0977
    -2.8807  -2.8807  -2.8694  -2.8694  -2.7736  -2.7736  -2.7506  -2.7506
    -2.6294  -2.6294  -2.6185  -2.6185  -2.5570  -2.5570  -2.5094  -2.5094
    -2.4941  -2.4941  -2.4422  -2.4422  -2.3751  -2.3751  -2.2890  -2.2890
    -2.2793  -2.2793  -2.2518  -2.2518  -2.0956  -2.0956  -2.0273  -2.0273
    -1.9085  -1.9085  -1.8762  -1.8762  -1.5717  -1.5717  -1.4662  -1.4662
    -1.4358  -1.4358  -1.3637  -1.3637  -1.3012  -1.3012  -1.2580  -1.2580
    -1.1552  -1.1552  -1.1474  -1.1474  -1.1231  -1.1231  -1.0877  -1.0877
    -1.0290  -1.0290  -0.9788  -0.9788  -0.6026  -0.6026  -0.5852  -0.5852
    -0.4394  -0.4394  -0.4036  -0.4036  -0.3030  -0.3030  -0.2987  -0.2987
    -0.0808  -0.0808  -0.0558  -0.0558   2.5611   2.5611   2.6367   2.6367
     2.9982   2.9982   3.1283   3.1283   6.2026   6.2026   6.2361   6.2361
     6.3266   6.3266   6.6359   6.6359   6.6641   6.6641   6.8278   6.8278
     7.0046   7.0046   7.1152   7.1152   7.1846   7.1846   7.3423   7.3423
     7.5547   7.5547   7.7529   7.7529   7.9357   7.9357   7.9614   7.9614
     8.0436   8.0437   8.2716   8.2716   8.3710   8.3710   8.4507   8.4510
     8.4613

          k = 0.0000-0.2880 0.0000 (160342 PWs)   bands (ev):

   -24.6778 -24.6778 -24.6777 -24.6777 -24.5724 -24.5724 -24.5723 -24.5723
   -20.6747 -20.6747 -20.6746 -20.6746 -20.1936 -20.1936 -20.1934 -20.1934
   -20.1107 -20.1107 -20.1107 -20.1107 -18.7937 -18.7937 -18.7930 -18.7930
   -16.4457 -16.4457 -16.4456 -16.4456 -14.8578 -14.8578 -14.8575 -14.8575
   -13.2265 -13.2265 -13.1916 -13.1916 -13.1195 -13.1195 -13.0805 -13.0805
   -12.8781 -12.8781 -12.8254 -12.8254 -12.8150 -12.8150 -12.7952 -12.7952
   -11.8137 -11.8137 -11.7497 -11.7497 -11.1912 -11.1912 -11.1822 -11.1822
   -10.5717 -10.5717 -10.4980 -10.4980  -9.2060  -9.2060  -9.1128  -9.1128
    -9.0684  -9.0684  -8.9978  -8.9978  -8.2598  -8.2598  -8.2402  -8.2402
    -8.1853  -8.1853  -8.1751  -8.1751  -7.7009  -7.7009  -7.6244  -7.6244
    -7.5057  -7.5057  -7.4851  -7.4851  -7.3301  -7.3301  -7.3120  -7.3120
    -6.9439  -6.9439  -6.9329  -6.9329  -6.8940  -6.8940  -6.8320  -6.8320
    -6.8058  -6.8058  -6.7696  -6.7696  -6.6936  -6.6936  -6.6428  -6.6428
    -6.3015  -6.3015  -6.2615  -6.2615  -6.0277  -6.0277  -6.0132  -6.0132
    -5.5774  -5.5774  -5.5216  -5.5216  -5.3325  -5.3325  -5.2060  -5.2060
    -4.9324  -4.9324  -4.7961  -4.7961  -4.3688  -4.3688  -4.2899  -4.2899
    -4.2126  -4.2126  -4.0978  -4.0978  -4.0028  -4.0028  -3.9364  -3.9364
    -3.8308  -3.8308  -3.7880  -3.7880  -3.7291  -3.7291  -3.6700  -3.6700
    -3.4017  -3.4017  -3.3283  -3.3283  -3.1289  -3.1289  -3.1140  -3.1140
    -2.8929  -2.8929  -2.8912  -2.8912  -2.8005  -2.8005  -2.7516  -2.7516
    -2.7238  -2.7238  -2.6139  -2.6139  -2.5562  -2.5562  -2.4834  -2.4834
    -2.4681  -2.4681  -2.4128  -2.4128  -2.3889  -2.3889  -2.3069  -2.3069
    -2.2648  -2.2648  -2.1638  -2.1638  -2.1325  -2.1325  -2.0991  -2.0991
    -1.9151  -1.9151  -1.8495  -1.8495  -1.5835  -1.5835  -1.4609  -1.4609
    -1.4193  -1.4193  -1.3808  -1.3808  -1.2682  -1.2682  -1.2529  -1.2529
    -1.1720  -1.1720  -1.1558  -1.1558  -1.1311  -1.1311  -1.1238  -1.1238
    -1.0236  -1.0236  -0.9614  -0.9614  -0.6086  -0.6086  -0.5918  -0.5918
    -0.4221  -0.4221  -0.4140  -0.4140  -0.3011  -0.3011  -0.2959  -0.2959
    -0.0622  -0.0622  -0.0505  -0.0505   2.5818   2.5818   2.6006   2.6006
     3.0585   3.0585   3.0799   3.0799   6.2118   6.2118   6.2347   6.2347
     6.3557   6.3557   6.6393   6.6393   6.6640   6.6640   6.7419   6.7419
     6.9099   6.9099   7.1307   7.1307   7.3053   7.3053   7.5506   7.5506
     7.5701   7.5701   7.7452   7.7452   7.7939   7.7939   7.9561   7.9561
     8.1571   8.1571   8.1692   8.1692   8.2452   8.2452   8.3388   8.3388
     8.5511

          k = 0.0000-0.2880-0.2111 (160412 PWs)   bands (ev):

   -24.6778 -24.6778 -24.6777 -24.6777 -24.5724 -24.5724 -24.5723 -24.5723
   -20.6746 -20.6746 -20.6746 -20.6746 -20.1936 -20.1936 -20.1934 -20.1934
   -20.1107 -20.1107 -20.1107 -20.1107 -18.7937 -18.7937 -18.7930 -18.7930
   -16.4457 -16.4457 -16.4457 -16.4457 -14.8577 -14.8577 -14.8576 -14.8576
   -13.2188 -13.2188 -13.1995 -13.1995 -13.1193 -13.1193 -13.0815 -13.0815
   -12.8790 -12.8790 -12.8257 -12.8257 -12.8060 -12.8060 -12.8023 -12.8023
   -11.7954 -11.7954 -11.7677 -11.7677 -11.1911 -11.1911 -11.1820 -11.1820
   -10.5553 -10.5553 -10.5190 -10.5190  -9.1275  -9.1275  -9.1015  -9.1015
    -9.0906  -9.0906  -9.0660  -9.0660  -8.2586  -8.2586  -8.2414  -8.2414
    -8.1807  -8.1807  -8.1792  -8.1792  -7.6773  -7.6773  -7.6476  -7.6476
    -7.4958  -7.4958  -7.4925  -7.4925  -7.3268  -7.3268  -7.3133  -7.3133
    -6.9392  -6.9392  -6.9350  -6.9350  -6.8936  -6.8936  -6.8452  -6.8452
    -6.7953  -6.7953  -6.7717  -6.7717  -6.6818  -6.6818  -6.6559  -6.6559
    -6.2925  -6.2925  -6.2678  -6.2678  -6.0221  -6.0221  -6.0195  -6.0195
    -5.5640  -5.5640  -5.5371  -5.5371  -5.3271  -5.3271  -5.2070  -5.2070
    -4.8855  -4.8855  -4.8504  -4.8504  -4.3676  -4.3676  -4.2881  -4.2881
    -4.2152  -4.2152  -4.0951  -4.0951  -3.9446  -3.9446  -3.9164  -3.9164
    -3.8630  -3.8630  -3.8004  -3.8004  -3.7596  -3.7596  -3.7042  -3.7042
    -3.3723  -3.3723  -3.3598  -3.3598  -3.1340  -3.1340  -3.1014  -3.1014
    -2.8996  -2.8996  -2.8558  -2.8558  -2.8304  -2.8304  -2.7480  -2.7480
    -2.6473  -2.6473  -2.5636  -2.5636  -2.5463  -2.5463  -2.5194  -2.5194
    -2.4941  -2.4941  -2.4774  -2.4774  -2.3488  -2.3488  -2.3281  -2.3281
    -2.2610  -2.2610  -2.1755  -2.1755  -2.1302  -2.1302  -2.1009  -2.1009
    -1.9067  -1.9067  -1.8592  -1.8592  -1.5693  -1.5693  -1.4774  -1.4774
    -1.4071  -1.4071  -1.3872  -1.3872  -1.2622  -1.2622  -1.2559  -1.2559
    -1.1702  -1.1702  -1.1633  -1.1633  -1.1316  -1.1316  -1.1170  -1.1170
    -0.9994  -0.9994  -0.9890  -0.9890  -0.6038  -0.6038  -0.5958  -0.5958
    -0.4180  -0.4180  -0.4177  -0.4177  -0.2989  -0.2989  -0.2984  -0.2984
    -0.0619  -0.0619  -0.0505  -0.0505   2.5838   2.5838   2.5985   2.5985
     3.0693   3.0693   3.0694   3.0694   6.2233   6.2233   6.2241   6.2241
     6.4071   6.4071   6.5846   6.5846   6.6616   6.6616   6.6730   6.6730
     7.0560   7.0560   7.0700   7.0700   7.3494   7.3494   7.4569   7.4569
     7.5604   7.5604   7.7277   7.7277   7.8375   7.8375   7.9428   7.9428
     8.1553   8.1553   8.2066   8.2066   8.3296   8.3296   8.3581   8.3581
     8.4799

          k = 0.3333 0.0000 0.0000 (160554 PWs)   bands (ev):

   -24.6781 -24.6781 -24.6746 -24.6746 -24.5756 -24.5756 -24.5721 -24.5720
   -20.6749 -20.6749 -20.6743 -20.6742 -20.1952 -20.1951 -20.1923 -20.1923
   -20.1114 -20.1114 -20.1095 -20.1095 -18.7932 -18.7928 -18.7921 -18.7919
   -16.4457 -16.4456 -16.4452 -16.4452 -14.8613 -14.8611 -14.8543 -14.8541
   -13.2372 -13.2219 -13.2144 -13.1915 -13.1299 -13.1298 -13.1236 -13.1168
   -12.8584 -12.8514 -12.8469 -12.8446 -12.8197 -12.8154 -12.7996 -12.7982
   -11.7930 -11.7549 -11.7397 -11.6993 -11.1944 -11.1936 -11.1910 -11.1909
   -10.5482 -10.5387 -10.4924 -10.4778  -9.2115  -9.2102  -9.0839  -9.0828
    -9.0607  -9.0568  -8.9993  -8.9984  -8.2793  -8.2699  -8.2429  -8.2417
    -8.2000  -8.1947  -8.1925  -8.1839  -7.7731  -7.7309  -7.7067  -7.6520
    -7.5214  -7.5162  -7.4999  -7.4866  -7.2942  -7.2916  -7.1479  -7.1465
    -7.1003  -7.0894  -6.9540  -6.9281  -6.8559  -6.8086  -6.8064  -6.7965
    -6.7598  -6.7384  -6.7342  -6.7109  -6.6978  -6.6779  -6.6734  -6.6272
    -6.3124  -6.3113  -6.2403  -6.2265  -6.0560  -6.0528  -6.0372  -6.0180
    -5.5748  -5.5525  -5.5401  -5.5316  -5.3630  -5.3315  -5.3111  -5.2590
    -4.8864  -4.8667  -4.8205  -4.8177  -4.3426  -4.3324  -4.2975  -4.2740
    -4.1897  -4.1633  -4.1630  -4.1475  -4.0136  -3.9733  -3.9274  -3.9232
    -3.8596  -3.8476  -3.7992  -3.7822  -3.7793  -3.7757  -3.7334  -3.7132
    -3.5420  -3.5346  -3.4305  -3.4155  -3.1591  -3.1338  -3.1141  -3.0915
    -2.9083  -2.9035  -2.8463  -2.8326  -2.8062  -2.7918  -2.7585  -2.7183
    -2.7066  -2.6941  -2.6226  -2.5963  -2.5913  -2.5611  -2.5400  -2.5356
    -2.4704  -2.4650  -2.4374  -2.4117  -2.3905  -2.3444  -2.2955  -2.2908
    -2.2100  -2.1866  -2.1657  -2.1161  -2.0500  -2.0071  -2.0032  -1.9653
    -1.8764  -1.8654  -1.8285  -1.8129  -1.6154  -1.5860  -1.5570  -1.4980
    -1.4218  -1.4082  -1.3719  -1.3367  -1.3133  -1.3100  -1.2827  -1.2807
    -1.1865  -1.1829  -1.1788  -1.1700  -1.1451  -1.1352  -1.1192  -1.0944
    -1.0410  -1.0128  -1.0037  -0.9885  -0.6079  -0.6026  -0.5752  -0.5675
    -0.4361  -0.4261  -0.4110  -0.4040  -0.2982  -0.2978  -0.2975  -0.2931
    -0.0889  -0.0792  -0.0700  -0.0690   2.5690   2.5785   2.6153   2.6187
     3.0119   3.0365   3.0909   3.0959   6.2021   6.2138   6.2588   6.2745
     6.4679   6.5994   6.6145   6.6368   6.6380   6.7019   6.9508   7.0462
     7.1167   7.1939   7.2079   7.2809   7.3807   7.4294   7.4702   7.5503
     7.6024   7.6172   7.6497   7.7498   7.7613   7.8636   7.8749   7.9712
     8.0277   8.0422   8.0959   8.1398   8.2115   8.2394   8.3464   8.3748
     8.4172

          k = 0.3333 0.0000-0.2111 (160506 PWs)   bands (ev):

   -24.6781 -24.6781 -24.6746 -24.6746 -24.5756 -24.5756 -24.5720 -24.5720
   -20.6749 -20.6749 -20.6742 -20.6742 -20.1951 -20.1951 -20.1923 -20.1923
   -20.1114 -20.1114 -20.1095 -20.1095 -18.7930 -18.7930 -18.7920 -18.7920
   -16.4457 -16.4457 -16.4452 -16.4452 -14.8612 -14.8612 -14.8542 -14.8542
   -13.2254 -13.2254 -13.2065 -13.2065 -13.1281 -13.1281 -13.1238 -13.1238
   -12.8578 -12.8578 -12.8437 -12.8437 -12.8129 -12.8129 -12.8017 -12.8017
   -11.7663 -11.7663 -11.7270 -11.7270 -11.1942 -11.1942 -11.1906 -11.1906
   -10.5227 -10.5227 -10.5104 -10.5104  -9.1121  -9.1121  -9.1100  -9.1100
    -9.0781  -9.0781  -9.0525  -9.0525  -8.2746  -8.2746  -8.2423  -8.2423
    -8.1968  -8.1968  -8.1885  -8.1885  -7.7500  -7.7500  -7.6764  -7.6764
    -7.5133  -7.5133  -7.4990  -7.4990  -7.2933  -7.2933  -7.1469  -7.1469
    -7.0958  -7.0958  -6.9431  -6.9431  -6.8305  -6.8305  -6.8033  -6.8033
    -6.7405  -6.7405  -6.7119  -6.7119  -6.7002  -6.7002  -6.6578  -6.6578
    -6.3052  -6.3052  -6.2354  -6.2354  -6.0558  -6.0558  -6.0271  -6.0271
    -5.5586  -5.5586  -5.5416  -5.5416  -5.3352  -5.3352  -5.2931  -5.2931
    -4.8675  -4.8675  -4.8312  -4.8312  -4.3366  -4.3366  -4.2826  -4.2826
    -4.1778  -4.1778  -4.1522  -4.1522  -3.9727  -3.9727  -3.9396  -3.9396
    -3.8436  -3.8436  -3.8056  -3.8056  -3.7753  -3.7753  -3.7580  -3.7580
    -3.4962  -3.4962  -3.4690  -3.4690  -3.1399  -3.1399  -3.1119  -3.1119
    -2.8597  -2.8597  -2.8387  -2.8387  -2.7942  -2.7942  -2.7699  -2.7699
    -2.6302  -2.6302  -2.6174  -2.6174  -2.5651  -2.5651  -2.5434  -2.5434
    -2.4781  -2.4781  -2.4719  -2.4719  -2.3668  -2.3668  -2.2946  -2.2946
    -2.1919  -2.1919  -2.1469  -2.1469  -2.0292  -2.0292  -1.9847  -1.9847
    -1.8768  -1.8768  -1.8158  -1.8158  -1.6000  -1.6000  -1.5241  -1.5241
    -1.4146  -1.4146  -1.3542  -1.3542  -1.3116  -1.3116  -1.2837  -1.2837
    -1.1836  -1.1836  -1.1728  -1.1728  -1.1323  -1.1323  -1.1183  -1.1183
    -1.0268  -1.0268  -0.9956  -0.9956  -0.5990  -0.5990  -0.5763  -0.5763
    -0.4300  -0.4300  -0.4084  -0.4084  -0.2981  -0.2981  -0.2952  -0.2952
    -0.0845  -0.0845  -0.0696  -0.0696   2.5738   2.5738   2.6168   2.6168
     3.0244   3.0244   3.0934   3.0934   6.2086   6.2086   6.2656   6.2656
     6.5535   6.5535   6.6140   6.6140   6.6484   6.6484   7.0148   7.0148
     7.1542   7.1542   7.2645   7.2645   7.3912   7.3912   7.4850   7.4850
     7.6057   7.6057   7.6438   7.6438   7.8686   7.8686   7.9337   7.9337
     8.0653   8.0653   8.1437   8.1437   8.2275   8.2275   8.3437   8.3440
     8.4196

          k = 0.3333-0.2880 0.0000 (160518 PWs)   bands (ev):

   -24.6764 -24.6764 -24.6764 -24.6764 -24.5738 -24.5738 -24.5738 -24.5738
   -20.6746 -20.6746 -20.6746 -20.6746 -20.1938 -20.1938 -20.1937 -20.1937
   -20.1105 -20.1105 -20.1104 -20.1104 -18.7927 -18.7927 -18.7923 -18.7923
   -16.4455 -16.4455 -16.4454 -16.4454 -14.8580 -14.8580 -14.8578 -14.8578
   -13.2292 -13.2292 -13.2018 -13.2018 -13.1362 -13.1362 -13.1134 -13.1134
   -12.8656 -12.8656 -12.8369 -12.8369 -12.8192 -12.8192 -12.7945 -12.7945
   -11.7831 -11.7831 -11.7202 -11.7202 -11.1908 -11.1908 -11.1855 -11.1855
   -10.5464 -10.5464 -10.4836 -10.4836  -9.2124  -9.2124  -9.0810  -9.0810
    -9.0585  -9.0585  -8.9994  -8.9994  -8.2602  -8.2602  -8.2550  -8.2550
    -8.1961  -8.1961  -8.1835  -8.1835  -7.7412  -7.7412  -7.6903  -7.6903
    -7.5280  -7.5280  -7.4906  -7.4906  -7.2508  -7.2508  -7.2431  -7.2431
    -7.0030  -7.0030  -6.9795  -6.9795  -6.8414  -6.8414  -6.7929  -6.7929
    -6.7426  -6.7426  -6.7326  -6.7326  -6.6988  -6.6988  -6.6501  -6.6501
    -6.2955  -6.2955  -6.2718  -6.2718  -6.0348  -6.0348  -6.0061  -6.0061
    -5.5687  -5.5687  -5.5412  -5.5412  -5.3548  -5.3548  -5.2732  -5.2732
    -4.8734  -4.8734  -4.8225  -4.8225  -4.3179  -4.3179  -4.2912  -4.2912
    -4.1733  -4.1733  -4.1615  -4.1615  -4.0035  -4.0035  -3.9403  -3.9403
    -3.8312  -3.8312  -3.7987  -3.7987  -3.7851  -3.7851  -3.6907  -3.6907
    -3.5413  -3.5413  -3.4376  -3.4376  -3.1431  -3.1431  -3.0953  -3.0953
    -2.9101  -2.9101  -2.8011  -2.8011  -2.7941  -2.7941  -2.7669  -2.7669
    -2.7058  -2.7058  -2.6412  -2.6412  -2.6013  -2.6013  -2.5452  -2.5452
    -2.4661  -2.4661  -2.4265  -2.4265  -2.3094  -2.3094  -2.2719  -2.2719
    -2.2144  -2.2144  -2.1499  -2.1499  -2.0353  -2.0353  -2.0081  -2.0081
    -1.8625  -1.8625  -1.8207  -1.8207  -1.5912  -1.5912  -1.5470  -1.5470
    -1.3924  -1.3924  -1.3623  -1.3623  -1.2801  -1.2801  -1.2653  -1.2653
    -1.1907  -1.1907  -1.1874  -1.1874  -1.1664  -1.1664  -1.1506  -1.1506
    -1.0154  -1.0154  -0.9808  -0.9808  -0.6090  -0.6090  -0.5848  -0.5848
    -0.4145  -0.4145  -0.4036  -0.4036  -0.2992  -0.2992  -0.2961  -0.2961
    -0.0684  -0.0684  -0.0619  -0.0619   2.5836   2.5836   2.5960   2.5960
     3.0570   3.0570   3.0678   3.0678   6.2317   6.2317   6.2475   6.2475
     6.5824   6.5824   6.6072   6.6072   6.6434   6.6434   6.9371   6.9371
     7.0608   7.0608   7.3318   7.3318   7.4457   7.4457   7.5180   7.5180
     7.5847   7.5847   7.7251   7.7251   7.8604   7.8605   7.9293   7.9294
     8.1132   8.1132   8.1646   8.1646   8.2279   8.2279   8.3089   8.3093
     8.4042

          k = 0.3333-0.2880-0.2111 (160476 PWs)   bands (ev):

   -24.6764 -24.6764 -24.6764 -24.6764 -24.5738 -24.5738 -24.5738 -24.5738
   -20.6746 -20.6746 -20.6746 -20.6746 -20.1938 -20.1938 -20.1937 -20.1937
   -20.1104 -20.1104 -20.1104 -20.1104 -18.7927 -18.7927 -18.7923 -18.7923
   -16.4454 -16.4454 -16.4454 -16.4454 -14.8579 -14.8579 -14.8578 -14.8578
   -13.2200 -13.2200 -13.2105 -13.2105 -13.1349 -13.1349 -13.1161 -13.1161
   -12.8658 -12.8658 -12.8400 -12.8400 -12.8062 -12.8062 -12.8035 -12.8035
   -11.7570 -11.7570 -11.7463 -11.7463 -11.1906 -11.1906 -11.1854 -11.1854
   -10.5274 -10.5274 -10.5072 -10.5072  -9.1159  -9.1159  -9.1075  -9.1075
    -9.0728  -9.0728  -9.0561  -9.0561  -8.2606  -8.2606  -8.2549  -8.2549
    -8.1902  -8.1902  -8.1883  -8.1883  -7.7205  -7.7205  -7.7066  -7.7066
    -7.5110  -7.5110  -7.5082  -7.5082  -7.2499  -7.2499  -7.2440  -7.2440
    -6.9947  -6.9947  -6.9893  -6.9893  -6.8251  -6.8251  -6.8051  -6.8051
    -6.7412  -6.7412  -6.7410  -6.7410  -6.6866  -6.6866  -6.6593  -6.6593
    -6.2884  -6.2884  -6.2766  -6.2766  -6.0209  -6.0209  -6.0202  -6.0202
    -5.5615  -5.5615  -5.5486  -5.5486  -5.3392  -5.3392  -5.2852  -5.2852
    -4.8612  -4.8612  -4.8376  -4.8376  -4.3121  -4.3121  -4.2957  -4.2957
    -4.1666  -4.1666  -4.1626  -4.1626  -3.9768  -3.9768  -3.9593  -3.9593
    -3.8283  -3.8283  -3.8072  -3.8072  -3.7729  -3.7729  -3.7391  -3.7391
    -3.5039  -3.5039  -3.4797  -3.4797  -3.1189  -3.1189  -3.1173  -3.1173
    -2.8454  -2.8454  -2.8352  -2.8352  -2.7863  -2.7863  -2.7769  -2.7769
    -2.6776  -2.6776  -2.6360  -2.6360  -2.5501  -2.5501  -2.5499  -2.5499
    -2.5038  -2.5038  -2.4698  -2.4698  -2.3167  -2.3167  -2.2578  -2.2578
    -2.1895  -2.1895  -2.1840  -2.1840  -2.0281  -2.0281  -2.0115  -2.0115
    -1.8607  -1.8607  -1.8270  -1.8270  -1.5782  -1.5782  -1.5528  -1.5528
    -1.3863  -1.3863  -1.3702  -1.3702  -1.2730  -1.2730  -1.2726  -1.2726
    -1.1940  -1.1940  -1.1806  -1.1806  -1.1669  -1.1669  -1.1525  -1.1525
    -0.9993  -0.9993  -0.9989  -0.9989  -0.5978  -0.5978  -0.5952  -0.5952
    -0.4097  -0.4097  -0.4082  -0.4082  -0.2979  -0.2979  -0.2977  -0.2977
    -0.0682  -0.0682  -0.0620  -0.0620   2.5864   2.5864   2.5932   2.5932
     3.0619   3.0619   3.0631   3.0631   6.2381   6.2381   6.2407   6.2407
     6.6010   6.6010   6.6146   6.6146   6.6499   6.6499   6.8584   6.8584
     7.1063   7.1063   7.3313   7.3313   7.4727   7.4727   7.4789   7.4789
     7.6478   7.6478   7.6512   7.6512   7.8870   7.8870   7.9113   7.9113
     8.1252   8.1252   8.1636   8.1636   8.2985   8.2985   8.2990   8.2992
     8.4202

     highest occupied, lowest unoccupied level (ev):    -0.0505    2.5515

!    total energy              =   -2175.04977720 Ry
     Harris-Foulkes estimate   =   -2175.04977720 Ry
     estimated scf accuracy    <          6.8E-09 Ry

     total all-electron energy =     -8178.334993 Ry

     The total energy is the sum of the following terms:

     one-electron contribution =   -1221.81620435 Ry
     hartree contribution      =     779.07746852 Ry
     xc contribution           =    -470.85920336 Ry
     ewald contribution        =    -643.54353257 Ry
     Dispersion Correction     =      -0.76116250 Ry
     one-center paw contrib.   =    -617.14714293 Ry

     convergence has been achieved in  19 iterations

     Forces acting on atoms (cartesian axes, Ry/au):

     atom    1 type  2   force =     0.00066966   -0.00029490   -0.00261781
     atom    2 type  2   force =    -0.00066966    0.00029490   -0.00261781
     atom    3 type  2   force =    -0.00066966   -0.00029490    0.00261781
     atom    4 type  2   force =     0.00066966    0.00029490    0.00261781
     atom    5 type  2   force =    -0.00042500   -0.00057808    0.00259050
     atom    6 type  2   force =     0.00042500    0.00057808    0.00259050
     atom    7 type  2   force =     0.00042500   -0.00057808   -0.00259050
     atom    8 type  2   force =    -0.00042500    0.00057808   -0.00259050
     atom    9 type  2   force =     0.00155615    0.00066384   -0.00013316
     atom   10 type  2   force =    -0.00155615   -0.00066384   -0.00013316
     atom   11 type  2   force =    -0.00155615    0.00066384    0.00013316
     atom   12 type  2   force =     0.00155615   -0.00066384    0.00013316
     atom   13 type  2   force =    -0.00013055    0.00031012    0.00074245
     atom   14 type  2   force =     0.00013055   -0.00031012    0.00074245
     atom   15 type  2   force =     0.00013055    0.00031012   -0.00074245
     atom   16 type  2   force =    -0.00013055   -0.00031012   -0.00074245
     atom   17 type  2   force =    -0.00022634    0.00007363    0.00030803
     atom   18 type  2   force =     0.00022634   -0.00007363    0.00030803
     atom   19 type  2   force =     0.00022634    0.00007363   -0.00030803
     atom   20 type  2   force =    -0.00022634   -0.00007363   -0.00030803
     atom   21 type  4   force =     0.00050180    0.00024446   -0.00000922
     atom   22 type  4   force =    -0.00050180   -0.00024446   -0.00000922
     atom   23 type  4   force =    -0.00050180    0.00024446    0.00000922
     atom   24 type  4   force =     0.00050180   -0.00024446    0.00000922
     atom   25 type  4   force =    -0.00003820   -0.00020818   -0.00006562
     atom   26 type  4   force =     0.00003820    0.00020818   -0.00006562
     atom   27 type  4   force =     0.00003820   -0.00020818    0.00006562
     atom   28 type  4   force =    -0.00003820    0.00020818    0.00006562
     atom   29 type  4   force =    -0.00035763    0.00018105    0.00011811
     atom   30 type  4   force =     0.00035763   -0.00018105    0.00011811
     atom   31 type  4   force =     0.00035763    0.00018105   -0.00011811
     atom   32 type  4   force =    -0.00035763   -0.00018105   -0.00011811
     atom   33 type  4   force =     0.00034110    0.00031808    0.00028297
     atom   34 type  4   force =    -0.00034110   -0.00031808    0.00028297
     atom   35 type  4   force =    -0.00034110    0.00031808   -0.00028297
     atom   36 type  4   force =     0.00034110   -0.00031808   -0.00028297
     atom   37 type  1   force =    -0.00071591    0.00089494   -0.00094237
     atom   38 type  1   force =     0.00071591   -0.00089494   -0.00094237
     atom   39 type  1   force =     0.00071591    0.00089494    0.00094237
     atom   40 type  1   force =    -0.00071591   -0.00089494    0.00094237
     atom   41 type  1   force =    -0.00032786   -0.00109279   -0.00018565
     atom   42 type  1   force =     0.00032786    0.00109279   -0.00018565
     atom   43 type  1   force =     0.00032786   -0.00109279    0.00018565
     atom   44 type  1   force =    -0.00032786    0.00109279    0.00018565
     atom   45 type  2   force =    -0.00520319    0.00274166   -0.00016078
     atom   46 type  2   force =     0.00520319   -0.00274166   -0.00016078
     atom   47 type  2   force =     0.00520319    0.00274166    0.00016078
     atom   48 type  2   force =    -0.00520319   -0.00274166    0.00016078
     atom   49 type  1   force =     0.00043301    0.00009521   -0.00001712
     atom   50 type  1   force =    -0.00043301   -0.00009521   -0.00001712
     atom   51 type  1   force =    -0.00043301    0.00009521    0.00001712
     atom   52 type  1   force =     0.00043301   -0.00009521    0.00001712
     atom   53 type  3   force =    -0.00022539    0.00031239    0.00022559
     atom   54 type  3   force =     0.00022539   -0.00031239    0.00022559
     atom   55 type  3   force =     0.00022539    0.00031239   -0.00022559
     atom   56 type  3   force =    -0.00022539   -0.00031239   -0.00022559
     atom   57 type  3   force =     0.00000992   -0.00040093   -0.00068530
     atom   58 type  3   force =    -0.00000992    0.00040093   -0.00068530
     atom   59 type  3   force =    -0.00000992   -0.00040093    0.00068530
     atom   60 type  3   force =     0.00000992    0.00040093    0.00068530
     atom   61 type  1   force =     0.00036783    0.00014171    0.00010822
     atom   62 type  1   force =    -0.00036783   -0.00014171    0.00010822
     atom   63 type  1   force =    -0.00036783    0.00014171   -0.00010822
     atom   64 type  1   force =     0.00036783   -0.00014171   -0.00010822
     atom   65 type  3   force =    -0.00059686   -0.00018683    0.00013044
     atom   66 type  3   force =     0.00059686    0.00018683    0.00013044
     atom   67 type  3   force =     0.00059686   -0.00018683   -0.00013044
     atom   68 type  3   force =    -0.00059686    0.00018683   -0.00013044
     atom   69 type  3   force =     0.00012190   -0.00002684    0.00029125
     atom   70 type  3   force =    -0.00012190    0.00002684    0.00029125
     atom   71 type  3   force =    -0.00012190   -0.00002684   -0.00029125
     atom   72 type  3   force =     0.00012190    0.00002684   -0.00029125
     atom   73 type  3   force =     0.00008752   -0.00003676   -0.00039128
     atom   74 type  3   force =    -0.00008752    0.00003676   -0.00039128
     atom   75 type  3   force =    -0.00008752   -0.00003676    0.00039128
     atom   76 type  3   force =     0.00008752    0.00003676    0.00039128
     atom   77 type  1   force =    -0.00116189   -0.00151930   -0.00045300
     atom   78 type  1   force =     0.00116189    0.00151930   -0.00045300
     atom   79 type  1   force =     0.00116189   -0.00151930    0.00045300
     atom   80 type  1   force =    -0.00116189    0.00151930    0.00045300
     atom   81 type  3   force =    -0.00120452   -0.00124947   -0.00035889
     atom   82 type  3   force =     0.00120452    0.00124947   -0.00035889
     atom   83 type  3   force =     0.00120452   -0.00124947    0.00035889
     atom   84 type  3   force =    -0.00120452    0.00124947    0.00035889
     atom   85 type  3   force =     0.00077894    0.00048237    0.00013185
     atom   86 type  3   force =    -0.00077894   -0.00048237    0.00013185
     atom   87 type  3   force =    -0.00077894    0.00048237   -0.00013185
     atom   88 type  3   force =     0.00077894   -0.00048237   -0.00013185
     atom   89 type  1   force =     0.00337436    0.00006423   -0.00053233
     atom   90 type  1   force =    -0.00337436   -0.00006423   -0.00053233
     atom   91 type  1   force =    -0.00337436    0.00006423    0.00053233
     atom   92 type  1   force =     0.00337436   -0.00006423    0.00053233
     atom   93 type  3   force =    -0.00049694    0.00002653    0.00006358
     atom   94 type  3   force =     0.00049694   -0.00002653    0.00006358
     atom   95 type  3   force =     0.00049694    0.00002653   -0.00006358
     atom   96 type  3   force =    -0.00049694   -0.00002653   -0.00006358
     atom   97 type  3   force =    -0.00010618   -0.00035464   -0.00005564
     atom   98 type  3   force =     0.00010618    0.00035464   -0.00005564
     atom   99 type  3   force =     0.00010618   -0.00035464    0.00005564
     atom  100 type  3   force =    -0.00010618    0.00035464    0.00005564
     atom  101 type  3   force =    -0.00237523   -0.00002749   -0.00142843
     atom  102 type  3   force =     0.00237523    0.00002749   -0.00142843
     atom  103 type  3   force =     0.00237523   -0.00002749    0.00142843
     atom  104 type  3   force =    -0.00237523    0.00002749    0.00142843
     atom  105 type  1   force =     0.00820336    0.00399320   -0.00105850
     atom  106 type  1   force =    -0.00820336   -0.00399320   -0.00105850
     atom  107 type  1   force =    -0.00820336    0.00399320    0.00105850
     atom  108 type  1   force =     0.00820336   -0.00399320    0.00105850
     atom  109 type  3   force =    -0.00031742    0.00025985   -0.00037439
     atom  110 type  3   force =     0.00031742   -0.00025985   -0.00037439
     atom  111 type  3   force =     0.00031742    0.00025985    0.00037439
     atom  112 type  3   force =    -0.00031742   -0.00025985    0.00037439
     atom  113 type  3   force =    -0.00022016    0.00038086    0.00002874
     atom  114 type  3   force =     0.00022016   -0.00038086    0.00002874
     atom  115 type  3   force =     0.00022016    0.00038086   -0.00002874
     atom  116 type  3   force =    -0.00022016   -0.00038086   -0.00002874
     atom  117 type  1   force =    -0.00092905   -0.00362987    0.00079042
     atom  118 type  1   force =     0.00092905    0.00362987    0.00079042
     atom  119 type  1   force =     0.00092905   -0.00362987   -0.00079042
     atom  120 type  1   force =    -0.00092905    0.00362987   -0.00079042
     atom  121 type  3   force =     0.00247404   -0.00015688    0.00014509
     atom  122 type  3   force =    -0.00247404    0.00015688    0.00014509
     atom  123 type  3   force =    -0.00247404   -0.00015688   -0.00014509
     atom  124 type  3   force =     0.00247404    0.00015688   -0.00014509
     atom  125 type  3   force =     0.00014064   -0.00001455   -0.00007190
     atom  126 type  3   force =    -0.00014064    0.00001455   -0.00007190
     atom  127 type  3   force =    -0.00014064   -0.00001455    0.00007190
     atom  128 type  3   force =     0.00014064    0.00001455    0.00007190
     atom  129 type  3   force =     0.00004639   -0.00032749    0.00019852
     atom  130 type  3   force =    -0.00004639    0.00032749    0.00019852
     atom  131 type  3   force =    -0.00004639   -0.00032749   -0.00019852
     atom  132 type  3   force =     0.00004639    0.00032749   -0.00019852
     atom  133 type  1   force =    -0.00048511   -0.00088136    0.00149565
     atom  134 type  1   force =     0.00048511    0.00088136    0.00149565
     atom  135 type  1   force =     0.00048511   -0.00088136   -0.00149565
     atom  136 type  1   force =    -0.00048511    0.00088136   -0.00149565
     atom  137 type  3   force =     0.00036521   -0.00053300   -0.00034994
     atom  138 type  3   force =    -0.00036521    0.00053300   -0.00034994
     atom  139 type  3   force =    -0.00036521   -0.00053300    0.00034994
     atom  140 type  3   force =     0.00036521    0.00053300    0.00034994
     atom  141 type  3   force =    -0.00082908   -0.00064791    0.00116820
     atom  142 type  3   force =     0.00082908    0.00064791    0.00116820
     atom  143 type  3   force =     0.00082908   -0.00064791   -0.00116820
     atom  144 type  3   force =    -0.00082908    0.00064791   -0.00116820
     atom  145 type  1   force =     0.00307828    0.00074624    0.00021816
     atom  146 type  1   force =    -0.00307828   -0.00074624    0.00021816
     atom  147 type  1   force =    -0.00307828    0.00074624   -0.00021816
     atom  148 type  1   force =     0.00307828   -0.00074624   -0.00021816
     atom  149 type  3   force =    -0.00011938   -0.00044535    0.00032613
     atom  150 type  3   force =     0.00011938    0.00044535    0.00032613
     atom  151 type  3   force =     0.00011938   -0.00044535   -0.00032613
     atom  152 type  3   force =    -0.00011938    0.00044535   -0.00032613
     atom  153 type  3   force =     0.00005546    0.00058734   -0.00021671
     atom  154 type  3   force =    -0.00005546   -0.00058734   -0.00021671
     atom  155 type  3   force =    -0.00005546    0.00058734    0.00021671
     atom  156 type  3   force =     0.00005546   -0.00058734    0.00021671
     atom  157 type  3   force =    -0.00313927    0.00048131    0.00127759
     atom  158 type  3   force =     0.00313927   -0.00048131    0.00127759
     atom  159 type  3   force =     0.00313927    0.00048131   -0.00127759
     atom  160 type  3   force =    -0.00313927   -0.00048131   -0.00127759

     Total force =     0.029760     Total SCF correction =     0.000133


     Computing stress (Cartesian axis) and pressure

          total   stress  (Ry/bohr**3)                   (kbar)     P=   -4.78
  -0.00005290   0.00000000   0.00000000         -7.78      0.00      0.00
   0.00000000  -0.00002114   0.00000000          0.00     -3.11      0.00
   0.00000000   0.00000000  -0.00002335          0.00      0.00     -3.43


     Writing output data file scf.save
 
     init_run     :    115.50s CPU    119.48s WALL (       1 calls)
     electrons    :   5144.67s CPU   5307.49s WALL (       1 calls)
     forces       :     57.80s CPU     58.23s WALL (       1 calls)
     stress       :    294.08s CPU    294.77s WALL (       1 calls)

     Called by init_run:
     wfcinit      :    106.85s CPU    110.59s WALL (       1 calls)
     potinit      :      3.10s CPU      3.15s WALL (       1 calls)

     Called by electrons:
     c_bands      :   4683.77s CPU   4821.90s WALL (      19 calls)
     sum_band     :    434.78s CPU    456.36s WALL (      19 calls)
     v_of_rho     :      3.42s CPU      3.76s WALL (      20 calls)
     newd         :      9.60s CPU     12.32s WALL (      20 calls)
     PAW_pot      :     12.16s CPU     12.17s WALL (      20 calls)
     mix_rho      :      0.83s CPU      0.88s WALL (      19 calls)

     Called by c_bands:
     init_us_2    :     18.99s CPU     19.06s WALL (     328 calls)
     cegterg      :   4607.92s CPU   4745.97s WALL (     152 calls)

     Called by sum_band:
     sum_band:bec :      0.24s CPU      0.24s WALL (     152 calls)
     addusdens    :      9.55s CPU     12.12s WALL (      19 calls)

     Called by *egterg:
     h_psi        :   2282.83s CPU   2390.24s WALL (     722 calls)
     s_psi        :    647.64s CPU    647.66s WALL (     722 calls)
     g_psi        :      9.30s CPU      9.30s WALL (     562 calls)
     cdiaghg      :    266.01s CPU    266.02s WALL (     714 calls)

     Called by h_psi:
     h_psi:pot    :   2269.80s CPU   2377.02s WALL (     722 calls)
     h_psi:calbec :    624.86s CPU    625.56s WALL (     722 calls)
     vloc_psi     :    997.71s CPU   1104.21s WALL (     722 calls)
     add_vuspsi   :    647.23s CPU    647.25s WALL (     722 calls)

     General routines
     calbec       :    906.47s CPU    907.44s WALL (     914 calls)
     fft          :      2.08s CPU      2.65s WALL (     284 calls)
     fftw         :   1063.19s CPU   1187.99s WALL (  271830 calls)
 
     Parallel routines
     fft_scatter  :    175.70s CPU    294.67s WALL (  272114 calls)
 
     PWSCF        :     1h33m CPU        1h37m WALL

 
   This run was terminated on:   6:43:59   4Nov2017            

=------------------------------------------------------------------------------=
   JOB DONE.
=------------------------------------------------------------------------------=
