
     Program PWSCF v.6.1 (svn rev. 13369) starts on  8Dec2017 at 17:59:34 

     This program is part of the open-source Quantum ESPRESSO suite
     for quantum simulation of materials; please cite
         "P. Giannozzi et al., J. Phys.:Condens. Matter 21 395502 (2009);
          URL http://www.quantum-espresso.org", 
     in publications or presentations arising from this work. More details at
     http://www.quantum-espresso.org/quote

     Parallel version (MPI), running on     8 processors
     R & G space division:  proc/nbgrp/npool/nimage =       8
     Waiting for input...
     Reading input from standard input

     Current dimensions of program PWSCF are:
     Max number of different atomic species (ntypx) = 10
     Max number of k-points (npk) =  40000
     Max angular momentum in pseudopotentials (lmaxx) =  3
               file C.pbe-n-kjpaw_psl.0.1.UPF: wavefunction(s)  2P renormalized
               file N.pbe-n-kjpaw_psl.0.1.UPF: wavefunction(s)  2P renormalized
               file H.pbe-kjpaw_psl.0.1.UPF: wavefunction(s)  1S renormalized
               file O.pbe-n-kjpaw_psl.0.1.UPF: wavefunction(s)  2P renormalized

     -------------------------------------
     Parameters for Dispersion Correction:
     -------------------------------------
       atom      VdW radius       C_6     

        C          2.744         60.710
        N          2.640         42.670
        H          1.892          4.857
        O          2.536         24.284

     Subspace diagonalization in iterative solution of the eigenvalue problem:
     a serial algorithm will be used

 
     Parallelization info
     --------------------
     sticks:   dense  smooth     PW     G-vecs:    dense   smooth      PW
     Min        1438    1438    377               139064   139064   18716
     Max        1439    1439    378               139066   139066   18719
     Sum       11509   11509   3019              1112519  1112519  149741
 


     bravais-lattice index     =            0
     lattice parameter (alat)  =      20.0292  a.u.
     unit-cell volume          =    8234.2795 (a.u.)^3
     number of atoms/cell      =          136
     number of atomic types    =            4
     number of electrons       =       368.00
     number of Kohn-Sham states=          220
     kinetic-energy cutoff     =     100.0000  Ry
     charge density cutoff     =     400.0000  Ry
     convergence threshold     =      1.0E-08
     mixing beta               =       0.5000
     number of iterations used =            8  plain     mixing
     Exchange-correlation      =  SLA  PW   PBX  PBC ( 1  4  3  4 0 0)

     celldm(1)=  20.029207  celldm(2)=   0.000000  celldm(3)=   0.000000
     celldm(4)=   0.000000  celldm(5)=   0.000000  celldm(6)=   0.000000

     crystal axes: (cart. coord. in units of alat)
               a(1) = (   1.000000   0.000000   0.000000 )  
               a(2) = (   0.000000   0.901406   0.000000 )  
               a(3) = (   0.369614   0.000000   1.136878 )  

     reciprocal axes: (cart. coord. in units 2 pi/alat)
               b(1) = (  1.000000  0.000000 -0.325113 )  
               b(2) = (  0.000000  1.109378  0.000000 )  
               b(3) = (  0.000000  0.000000  0.879602 )  


     PseudoPot. # 1 for  C read from file:
     /scratch/ahofstet/pseudo/C.pbe-n-kjpaw_psl.0.1.UPF
     MD5 check sum: 430fe95172b1e11ef3f8ed03bac87931
     Pseudo is Projector augmented-wave + core cor, Zval =  4.0
     Generated using "atomic" code by A. Dal Corso  v.5.0.99 svn rev. 10869
     Shape of augmentation charge: BESSEL
     Using radial grid of 1073 points,  4 beta functions with: 
                l(1) =   0
                l(2) =   0
                l(3) =   1
                l(4) =   1
     Q(r) pseudized with 0 coefficients 


     PseudoPot. # 2 for  N read from file:
     /scratch/ahofstet/pseudo/N.pbe-n-kjpaw_psl.0.1.UPF
     MD5 check sum: f73187c8b701007e77325f868c9291d7
     Pseudo is Projector augmented-wave + core cor, Zval =  5.0
     Generated using "atomic" code by A. Dal Corso  v.5.0.99 svn rev. 10869
     Shape of augmentation charge: PSQ
     Using radial grid of 1085 points,  4 beta functions with: 
                l(1) =   0
                l(2) =   0
                l(3) =   1
                l(4) =   1
     Q(r) pseudized with 0 coefficients 


     PseudoPot. # 3 for  H read from file:
     /scratch/ahofstet/pseudo/H.pbe-kjpaw_psl.0.1.UPF
     MD5 check sum: 94e484f906d9e9773b2f6e52662335b2
     Pseudo is Projector augmented-wave, Zval =  1.0
     Generated using "atomic" code by A. Dal Corso  v.5.0.99 svn rev. 10869
     Shape of augmentation charge: PSQ
     Using radial grid of  929 points,  2 beta functions with: 
                l(1) =   0
                l(2) =   0
     Q(r) pseudized with 0 coefficients 


     PseudoPot. # 4 for  O read from file:
     /scratch/ahofstet/pseudo/O.pbe-n-kjpaw_psl.0.1.UPF
     MD5 check sum: 3f94a2996a3169367d6eb21d9b593f20
     Pseudo is Projector augmented-wave + core cor, Zval =  6.0
     Generated using "atomic" code by A. Dal Corso  v.5.0.99 svn rev. 10869
     Shape of augmentation charge: BESSEL
     Using radial grid of 1095 points,  4 beta functions with: 
                l(1) =   0
                l(2) =   0
                l(3) =   1
                l(4) =   1
     Q(r) pseudized with 0 coefficients 


     atomic species   valence    mass     pseudopotential
        C              4.00    12.01070      C( 1.00)
        N              5.00    14.00670      N( 1.00)
        H              1.00     1.00794      H( 1.00)
        O              6.00    15.99940      O( 1.00)

      4 Sym. Ops., with inversion, found ( 2 have fractional translation)



   Cartesian axes

     site n.     atom                  positions (alat units)
         1           C   tau(   1) = (   0.4791029   0.7017035   1.0449631  )
         2           C   tau(   2) = (   1.0753174   0.2510006   0.6603543  )
         3           C   tau(   3) = (   0.8905107   0.1997023   0.0919152  )
         4           C   tau(   4) = (   0.2942961   0.6504052   0.4765240  )
         5           C   tau(   5) = (   0.5757909   0.6263114   0.9622501  )
         6           C   tau(   6) = (   0.9786294   0.1756085   0.7430674  )
         7           C   tau(   7) = (   0.7938226   0.2750944   0.1746282  )
         8           C   tau(   8) = (   0.3909841   0.7257973   0.3938109  )
         9           C   tau(   9) = (   0.7040162   0.6907858   0.9666802  )
        10           C   tau(  10) = (   0.8504041   0.2400829   0.7386372  )
        11           C   tau(  11) = (   0.6655973   0.2106200   0.1701981  )
        12           C   tau(  12) = (   0.5192094   0.6613229   0.3982411  )
        13           C   tau(  13) = (   0.7376192   0.8067326   0.8876723  )
        14           C   tau(  14) = (   0.8168011   0.3560297   0.8176452  )
        15           C   tau(  15) = (   0.6319943   0.0946732   0.2492061  )
        16           C   tau(  16) = (   0.5528124   0.5453760   0.3192331  )
        17           C   tau(  17) = (   0.6755225   0.0201116   0.9473285  )
        18           C   tau(  18) = (   0.8788978   0.4708145   0.7579890  )
        19           C   tau(  19) = (   0.6940910   0.8812942   0.1895498  )
        20           C   tau(  20) = (   0.4907158   0.4305913   0.3788893  )
        21           C   tau(  21) = (   0.5816584   0.0697298   0.8687312  )
        22           C   tau(  22) = (   0.9727619   0.5204327   0.8365863  )
        23           C   tau(  23) = (   0.7879551   0.8316760   0.2681471  )
        24           C   tau(  24) = (   0.3968516   0.3809731   0.3002920  )
        25           C   tau(  25) = (   0.5707736   0.8960135   0.7474393  )
        26           C   tau(  26) = (   0.9836467   0.4453106   0.9578782  )
        27           C   tau(  27) = (   0.7988399   0.0053922   0.3894390  )
        28           C   tau(  28) = (   0.3859668   0.4560951   0.1790001  )
        29           C   tau(  29) = (   0.4417789   0.8316601   0.7437108  )
        30           C   tau(  30) = (   1.1126414   0.3809572   0.9616067  )
        31           C   tau(  31) = (   0.9278346   0.0697457   0.3931676  )
        32           C   tau(  32) = (   0.2569722   0.5204486   0.1752716  )
        33           C   tau(  33) = (   0.4094907   0.7132164   0.8185231  )
        34           C   tau(  34) = (   1.1449296   0.2625135   0.8867944  )
        35           C   tau(  35) = (   0.9601228   0.1881894   0.3183552  )
        36           C   tau(  36) = (   0.2246839   0.6388923   0.2500839  )
        37           C   tau(  37) = (   0.3728976   0.7488121   0.9569338  )
        38           C   tau(  38) = (   1.1815227   0.2981092   0.7483837  )
        39           C   tau(  39) = (   0.9967159   0.1525937   0.1799445  )
        40           C   tau(  40) = (   0.1880909   0.6032966   0.3884946  )
        41           C   tau(  41) = (   0.5073355   0.6067901   0.8351316  )
        42           C   tau(  42) = (   1.0470848   0.1560872   0.8701858  )
        43           C   tau(  43) = (   0.8622781   0.2946157   0.3017467  )
        44           C   tau(  44) = (   0.3225287   0.7453186   0.2666925  )
        45           C   tau(  45) = (   0.6922899   0.8155804   0.7492968  )
        46           C   tau(  46) = (   0.8621304   0.3648775   0.9560207  )
        47           C   tau(  47) = (   0.6773237   0.0858254   0.3875815  )
        48           C   tau(  48) = (   0.5074831   0.5365283   0.1808576  )
        49           C   tau(  49) = (   0.7012978   0.0757842   1.0637967  )
        50           C   tau(  50) = (   0.8531225   0.5264871   0.6415208  )
        51           C   tau(  51) = (   0.6683157   0.8256216   0.0730816  )
        52           C   tau(  52) = (   0.5164910   0.3749187   0.4953575  )
        53           C   tau(  53) = (   0.6328269   0.1823884   1.0999960  )
        54           C   tau(  54) = (   0.9215934   0.6330913   0.6053214  )
        55           C   tau(  55) = (   0.7367866   0.7190174   0.0368823  )
        56           C   tau(  56) = (   0.4480202   0.2683145   0.5315569  )
        57           C   tau(  57) = (   0.5391770   0.2324279   1.0214064  )
        58           C   tau(  58) = (   1.0152433   0.6831308   0.6839110  )
        59           C   tau(  59) = (   0.8304365   0.6689778   0.1154719  )
        60           C   tau(  60) = (   0.3543702   0.2182750   0.4529673  )
        61           C   tau(  61) = (   0.5127195   0.1757865   0.9052872  )
        62           C   tau(  62) = (   1.0417008   0.6264894   0.8000302  )
        63           C   tau(  63) = (   0.8568940   0.7256193   0.2315911  )
        64           C   tau(  64) = (   0.3279127   0.2749164   0.3368481  )
        65           O   tau(  65) = (   0.7807910   0.6550576   1.0459681  )
        66           O   tau(  66) = (   0.7736293   0.2043547   0.6593494  )
        67           O   tau(  67) = (   0.5888225   0.2463482   0.0909102  )
        68           O   tau(  68) = (   0.5959843   0.6970511   0.4775290  )
        69           O   tau(  69) = (   0.3563631   0.8845797   0.6856506  )
        70           O   tau(  70) = (   1.1980573   0.4338768   1.0196668  )
        71           O   tau(  71) = (   1.0132505   0.0168261   0.4512277  )
        72           O   tau(  72) = (   0.1715563   0.4675290   0.1172115  )
        73           H   tau(  73) = (   0.5248344   0.7803311   1.0943895  )
        74           H   tau(  74) = (   1.0295859   0.3296282   0.6109280  )
        75           H   tau(  75) = (   0.8447792   0.1210747   0.0424888  )
        76           H   tau(  76) = (   0.3400276   0.5717776   0.5259503  )
        77           H   tau(  77) = (   0.4417473   0.6378244   1.1172878  )
        78           H   tau(  78) = (   1.1126730   0.1871215   0.5880297  )
        79           H   tau(  79) = (   0.9278663   0.2635814   0.0195905  )
        80           H   tau(  80) = (   0.2569405   0.7142843   0.5488486  )
        81           H   tau(  81) = (   0.6847810   0.7256693   0.7000200  )
        82           H   tau(  82) = (   0.8696393   0.2749664   1.0052975  )
        83           H   tau(  83) = (   0.6848326   0.1757365   0.4368584  )
        84           H   tau(  84) = (   0.4999742   0.6264394   0.1315808  )
        85           H   tau(  85) = (   0.2837830   0.2284494   0.0525968  )
        86           H   tau(  86) = (   0.9010238   0.6791523   0.5158424  )
        87           H   tau(  87) = (   1.0858305   0.6729564   1.0842815  )
        88           H   tau(  88) = (   0.4685898   0.2222535   0.6210359  )
        89           H   tau(  89) = (   0.5930045   0.5344015   1.0070121  )
        90           H   tau(  90) = (   0.9614158   0.0836986   0.6983054  )
        91           H   tau(  91) = (   0.7766090   0.3670043   0.1298662  )
        92           H   tau(  92) = (   0.4081977   0.8177072   0.4385729  )
        93           H   tau(  93) = (   0.5698897   0.5934526   0.7539120  )
        94           H   tau(  94) = (   0.9845306   0.1427497   0.9514055  )
        95           H   tau(  95) = (   0.7997239   0.3079532   0.3829663  )
        96           H   tau(  96) = (   0.3850829   0.7586561   0.1854728  )
        97           H   tau(  97) = (   1.2843321   0.7008179   0.9809094  )
        98           H   tau(  98) = (   0.2700882   0.2501151   0.7244081  )
        99           H   tau(  99) = (   0.0852815   0.2005878   0.1559689  )
       100           H   tau( 100) = (   1.0995253   0.6512907   0.4124702  )
       101           H   tau( 101) = (   0.3566111   0.8505474   0.9675663  )
       102           H   tau( 102) = (   1.1978093   0.3998445   0.7377512  )
       103           H   tau( 103) = (   1.0130025   0.0508584   0.1693120  )
       104           H   tau( 104) = (   0.1718043   0.5015613   0.3991271  )
       105           H   tau( 105) = (   0.3255826   0.6762554   0.7700601  )
       106           H   tau( 106) = (   1.2288377   0.2255525   0.9352574  )
       107           H   tau( 107) = (   1.0440310   0.2251504   0.3668182  )
       108           H   tau( 108) = (   0.1407758   0.6758533   0.2016209  )
       109           H   tau( 109) = (   0.4529633   0.5188449   0.8447864  )
       110           H   tau( 110) = (   1.1014570   0.0681420   0.8605311  )
       111           H   tau( 111) = (   0.9166502   0.3825609   0.2920919  )
       112           H   tau( 112) = (   0.2681565   0.8332638   0.2763472  )
       113           H   tau( 113) = (   0.4394886   0.2140818   0.8437688  )
       114           H   tau( 114) = (   1.1149317   0.6647847   0.8615487  )
       115           H   tau( 115) = (   0.9301249   0.6873240   0.2931095  )
       116           H   tau( 116) = (   0.2546819   0.2366211   0.2753296  )
       117           H   tau( 117) = (   0.7634519   0.8707939   0.6980852  )
       118           H   tau( 118) = (   0.7909684   0.4200910   1.0072323  )
       119           H   tau( 119) = (   0.6061616   0.0306118   0.4387931  )
       120           H   tau( 120) = (   0.5786451   0.4813147   0.1296460  )
       121           H   tau( 121) = (   0.5716708   0.0580096   0.6656076  )
       122           H   tau( 122) = (   0.9827495   0.5087125   1.0397099  )
       123           H   tau( 123) = (   0.7979427   0.8433962   0.4712707  )
       124           H   tau( 124) = (   0.3868640   0.3926933   0.0971684  )
       125           H   tau( 125) = (   0.8410745   0.8128837   0.8929756  )
       126           H   tau( 126) = (   0.7133458   0.3621808   0.8123418  )
       127           H   tau( 127) = (   0.5285390   0.0885221   0.2439027  )
       128           H   tau( 128) = (   0.6562677   0.5392250   0.3245365  )
       129           H   tau( 129) = (   0.4876523   0.3161662   1.0517069  )
       130           H   tau( 130) = (   1.0667681   0.7668691   0.6536106  )
       131           H   tau( 131) = (   0.8819613   0.5852396   0.0851714  )
       132           H   tau( 132) = (   0.3028455   0.1345367   0.4832677  )
       133           H   tau( 133) = (   0.7740762   0.0376789   1.1257802  )
       134           H   tau( 134) = (   0.7803441   0.4883818   0.5795373  )
       135           H   tau( 135) = (   0.5955374   0.8637269   0.0110981  )
       136           H   tau( 136) = (   0.5892694   0.4130240   0.5573410  )

     number of k points=     8
                       cart. coord. in units 2pi/alat
        k(    1) = (   0.0000000   0.0000000   0.0000000), wk =   0.2500000
        k(    2) = (   0.0000000   0.0000000  -0.4398008), wk =   0.2500000
        k(    3) = (   0.0000000  -0.5546891   0.0000000), wk =   0.2500000
        k(    4) = (   0.0000000  -0.5546891  -0.4398008), wk =   0.2500000
        k(    5) = (  -0.5000000   0.0000000   0.1625563), wk =   0.2500000
        k(    6) = (  -0.5000000   0.0000000  -0.2772445), wk =   0.2500000
        k(    7) = (  -0.5000000  -0.5546891   0.1625563), wk =   0.2500000
        k(    8) = (  -0.5000000  -0.5546891  -0.2772445), wk =   0.2500000

     Dense  grid:  1112519 G-vectors     FFT dimensions: ( 128, 120, 160)

     Estimated max dynamical RAM per process >    1287.76MB

     Estimated total allocated dynamical RAM >   10302.11MB

     Check: negative/imaginary core charge=   -0.000002    0.000000

     Initial potential from superposition of free atoms

     starting charge  367.99672, renormalised to  368.00000
     Starting wfc are  352 randomized atomic wfcs
     Checking if some PAW data can be deallocated... 

     total cpu time spent up to now is       74.6 secs

     per-process dynamical memory:   875.4 Mb

     Self-consistent Calculation

     iteration #  1     ecut=   100.00 Ry     beta=0.50
     Davidson diagonalization with overlap
     ethr =  1.00E-02,  avg # of iterations =  4.0

     total cpu time spent up to now is      264.1 secs

     total energy              =   -1587.07656888 Ry
     Harris-Foulkes estimate   =   -1594.42473546 Ry
     estimated scf accuracy    <      14.20447717 Ry

     iteration #  2     ecut=   100.00 Ry     beta=0.50
     Davidson diagonalization with overlap
     ethr =  3.86E-03,  avg # of iterations =  2.0

     total cpu time spent up to now is      363.1 secs

     total energy              =   -1586.94019669 Ry
     Harris-Foulkes estimate   =   -1588.14452977 Ry
     estimated scf accuracy    <       2.21269532 Ry

     iteration #  3     ecut=   100.00 Ry     beta=0.50
     Davidson diagonalization with overlap
     ethr =  6.01E-04,  avg # of iterations =  5.0

     total cpu time spent up to now is      590.4 secs

     total energy              =   -1589.19946440 Ry
     Harris-Foulkes estimate   =   -1590.62790514 Ry
     estimated scf accuracy    <       4.75338314 Ry

     iteration #  4     ecut=   100.00 Ry     beta=0.50
     Davidson diagonalization with overlap
     ethr =  6.01E-04,  avg # of iterations =  1.0

     total cpu time spent up to now is      684.7 secs

     total energy              =   -1588.07829038 Ry
     Harris-Foulkes estimate   =   -1589.35833744 Ry
     estimated scf accuracy    <       1.94925114 Ry

     iteration #  5     ecut=   100.00 Ry     beta=0.50
     Davidson diagonalization with overlap
     ethr =  5.30E-04,  avg # of iterations =  5.4

     total cpu time spent up to now is      888.4 secs

     total energy              =   -1588.99270229 Ry
     Harris-Foulkes estimate   =   -1589.79669653 Ry
     estimated scf accuracy    <       1.69638034 Ry

     iteration #  6     ecut=   100.00 Ry     beta=0.50
     Davidson diagonalization with overlap
     ethr =  4.61E-04,  avg # of iterations =  1.0

     total cpu time spent up to now is      982.3 secs

     total energy              =   -1588.90635054 Ry
     Harris-Foulkes estimate   =   -1589.09580720 Ry
     estimated scf accuracy    <       0.32692172 Ry

     iteration #  7     ecut=   100.00 Ry     beta=0.50
     Davidson diagonalization with overlap
     ethr =  8.88E-05,  avg # of iterations =  5.0

     total cpu time spent up to now is     1202.5 secs

     total energy              =   -1589.25646319 Ry
     Harris-Foulkes estimate   =   -1589.39940550 Ry
     estimated scf accuracy    <       0.42110356 Ry

     iteration #  8     ecut=   100.00 Ry     beta=0.50
     Davidson diagonalization with overlap
     ethr =  8.88E-05,  avg # of iterations =  1.0

     total cpu time spent up to now is     1296.7 secs

     total energy              =   -1589.20098094 Ry
     Harris-Foulkes estimate   =   -1589.26784131 Ry
     estimated scf accuracy    <       0.16842458 Ry

     iteration #  9     ecut=   100.00 Ry     beta=0.50
     Davidson diagonalization with overlap
     ethr =  4.58E-05,  avg # of iterations =  6.5

     total cpu time spent up to now is     1473.3 secs

     total energy              =   -1589.27328189 Ry
     Harris-Foulkes estimate   =   -1589.27545140 Ry
     estimated scf accuracy    <       0.00768282 Ry

     iteration # 10     ecut=   100.00 Ry     beta=0.50
     Davidson diagonalization with overlap
     c_bands:  2 eigenvalues not converged
     ethr =  2.09E-06,  avg # of iterations = 10.0

     total cpu time spent up to now is     1610.2 secs

     total energy              =   -1589.27252633 Ry
     Harris-Foulkes estimate   =   -1589.27399934 Ry
     estimated scf accuracy    <       0.00341892 Ry

     iteration # 11     ecut=   100.00 Ry     beta=0.50
     Davidson diagonalization with overlap
     ethr =  9.29E-07,  avg # of iterations =  7.2

     total cpu time spent up to now is     1769.2 secs

     total energy              =   -1589.27360489 Ry
     Harris-Foulkes estimate   =   -1589.27360912 Ry
     estimated scf accuracy    <       0.00003350 Ry

     iteration # 12     ecut=   100.00 Ry     beta=0.50
     Davidson diagonalization with overlap
     ethr =  9.10E-09,  avg # of iterations =  4.2

     total cpu time spent up to now is     1975.4 secs

     total energy              =   -1589.27366459 Ry
     Harris-Foulkes estimate   =   -1589.27365236 Ry
     estimated scf accuracy    <       0.00001971 Ry

     iteration # 13     ecut=   100.00 Ry     beta=0.50
     Davidson diagonalization with overlap
     ethr =  5.36E-09,  avg # of iterations =  6.1

     total cpu time spent up to now is     2132.4 secs

     total energy              =   -1589.27364573 Ry
     Harris-Foulkes estimate   =   -1589.27367507 Ry
     estimated scf accuracy    <       0.00008248 Ry

     iteration # 14     ecut=   100.00 Ry     beta=0.50
     Davidson diagonalization with overlap
     ethr =  5.36E-09,  avg # of iterations =  4.0

     total cpu time spent up to now is     2242.4 secs

     total energy              =   -1589.27364024 Ry
     Harris-Foulkes estimate   =   -1589.27364927 Ry
     estimated scf accuracy    <       0.00002617 Ry

     iteration # 15     ecut=   100.00 Ry     beta=0.50
     Davidson diagonalization with overlap
     ethr =  5.36E-09,  avg # of iterations =  4.1

     total cpu time spent up to now is     2401.4 secs

     total energy              =   -1589.27364887 Ry
     Harris-Foulkes estimate   =   -1589.27364891 Ry
     estimated scf accuracy    <       0.00000020 Ry

     iteration # 16     ecut=   100.00 Ry     beta=0.50
     Davidson diagonalization with overlap
     ethr =  5.36E-11,  avg # of iterations =  4.0

     total cpu time spent up to now is     2616.0 secs

     total energy              =   -1589.27364895 Ry
     Harris-Foulkes estimate   =   -1589.27364919 Ry
     estimated scf accuracy    <       0.00000064 Ry

     iteration # 17     ecut=   100.00 Ry     beta=0.50
     Davidson diagonalization with overlap
     ethr =  5.36E-11,  avg # of iterations =  2.9

     total cpu time spent up to now is     2714.2 secs

     total energy              =   -1589.27364884 Ry
     Harris-Foulkes estimate   =   -1589.27364897 Ry
     estimated scf accuracy    <       0.00000022 Ry

     iteration # 18     ecut=   100.00 Ry     beta=0.50
     Davidson diagonalization with overlap
     ethr =  5.36E-11,  avg # of iterations =  4.0

     total cpu time spent up to now is     2887.7 secs

     total energy              =   -1589.27364897 Ry
     Harris-Foulkes estimate   =   -1589.27364901 Ry
     estimated scf accuracy    <       0.00000010 Ry

     iteration # 19     ecut=   100.00 Ry     beta=0.50
     Davidson diagonalization with overlap
     ethr =  2.81E-11,  avg # of iterations =  1.0

     total cpu time spent up to now is     2979.3 secs

     total energy              =   -1589.27364896 Ry
     Harris-Foulkes estimate   =   -1589.27364897 Ry
     estimated scf accuracy    <       0.00000003 Ry

     iteration # 20     ecut=   100.00 Ry     beta=0.50
     Davidson diagonalization with overlap
     ethr =  8.48E-12,  avg # of iterations =  4.0

     total cpu time spent up to now is     3158.2 secs

     total energy              =   -1589.27364899 Ry
     Harris-Foulkes estimate   =   -1589.27364899 Ry
     estimated scf accuracy    <       0.00000002 Ry

     iteration # 21     ecut=   100.00 Ry     beta=0.50
     Davidson diagonalization with overlap
     ethr =  6.66E-12,  avg # of iterations =  1.0

     total cpu time spent up to now is     3250.0 secs

     total energy              =   -1589.27364898 Ry
     Harris-Foulkes estimate   =   -1589.27364899 Ry
     estimated scf accuracy    <       0.00000002 Ry

     iteration # 22     ecut=   100.00 Ry     beta=0.50
     Davidson diagonalization with overlap
     ethr =  4.81E-12,  avg # of iterations =  2.0

     total cpu time spent up to now is     3343.8 secs

     End of self-consistent calculation

          k = 0.0000 0.0000 0.0000 (139037 PWs)   bands (ev):

   -19.5906 -19.5832 -19.5822 -19.5797 -19.5411 -19.5403 -19.5369 -19.5357
   -15.5821 -15.5740 -15.5605 -15.5532 -14.5861 -14.5686 -14.5660 -14.5586
   -13.9314 -13.8904 -13.8557 -13.8321 -12.7995 -12.7981 -12.7773 -12.7639
   -12.0469 -12.0100 -11.9866 -11.9741 -11.6138 -11.5539 -11.5361 -11.5191
   -11.2485 -11.2314 -11.1743 -11.1520 -11.1480 -11.1412 -11.1040 -11.0952
    -9.5364  -9.5168  -9.5047  -9.4680  -8.7535  -8.6893  -8.6867  -8.6405
    -8.4236  -8.3712  -8.3702  -8.3451  -8.2576  -8.2311  -8.2152  -8.1655
    -7.7759  -7.6967  -7.6586  -7.6355  -6.8943  -6.8836  -6.8437  -6.8272
    -6.4992  -6.3975  -6.3895  -6.3602  -6.1744  -6.1632  -6.1137  -6.0816
    -5.8346  -5.7735  -5.7663  -5.7112  -5.2143  -5.1829  -5.1250  -5.0479
    -5.0228  -4.9568  -4.9093  -4.8555  -4.8495  -4.7760  -4.7491  -4.7059
    -4.4895  -4.4711  -4.4229  -4.3773  -4.3499  -4.3446  -4.3355  -4.3077
    -4.2906  -4.2838  -4.2435  -4.2325  -4.2098  -4.1614  -4.1355  -4.0491
    -4.0368  -4.0095  -3.9813  -3.8658  -3.7612  -3.7444  -3.6263  -3.5890
    -3.3195  -3.2712  -3.1901  -3.1610  -3.1025  -3.0263  -2.9778  -2.9486
    -2.8033  -2.7332  -2.7171  -2.6630  -2.6521  -2.5441  -2.5142  -2.4934
    -2.4831  -2.4073  -2.3359  -2.2721  -2.2087  -2.2072  -2.1331  -2.1297
    -2.1245  -2.1067  -2.0480  -2.0125  -2.0053  -1.9984  -1.9271  -1.8934
    -1.8316  -1.8086  -1.8066  -1.7765  -1.7526  -1.7330  -1.7235  -1.7141
    -1.6312  -1.6012  -1.5507  -1.5445  -1.4931  -1.4625  -1.4610  -1.4467
    -1.4173  -1.3853  -1.3788  -1.3608  -1.2587  -1.1869  -1.1635  -1.1598
    -0.0434  -0.0189  -0.0138   0.0658   0.0685   0.0850   0.1062   0.1149
     0.8025   0.8065   0.8209   0.9311   0.9964   1.0395   1.0570   1.1326
     4.2870   4.3394   4.3502   4.4475   4.5120   4.5135   4.5450   4.5459
     4.9297   4.9981   5.0089   5.0706   5.4460   5.4703   5.4815   5.6616
     6.0131   6.4298   6.6203   6.9091   7.0055   7.0711   7.1320   7.1387
     7.4040   7.4165   7.4995   7.5948   7.6749   7.7589   7.9486   8.0398
     8.0399   8.0666   8.0878   8.1265

          k = 0.0000 0.0000-0.4398 (139046 PWs)   bands (ev):

   -19.5870 -19.5870 -19.5812 -19.5812 -19.5390 -19.5390 -19.5377 -19.5377
   -15.5781 -15.5781 -15.5568 -15.5568 -14.5799 -14.5799 -14.5599 -14.5599
   -13.9116 -13.9116 -13.8434 -13.8434 -12.7982 -12.7982 -12.7705 -12.7705
   -12.0335 -12.0335 -11.9765 -11.9765 -11.5967 -11.5967 -11.5105 -11.5105
   -11.2344 -11.2344 -11.1731 -11.1731 -11.1429 -11.1429 -11.1014 -11.1014
    -9.5244  -9.5244  -9.4906  -9.4906  -8.7032  -8.7032  -8.6827  -8.6827
    -8.3936  -8.3936  -8.3435  -8.3435  -8.2504  -8.2504  -8.1987  -8.1987
    -7.7432  -7.7432  -7.6394  -7.6394  -6.8790  -6.8790  -6.8278  -6.8278
    -6.4629  -6.4629  -6.3767  -6.3767  -6.1805  -6.1805  -6.1002  -6.1002
    -5.8049  -5.8049  -5.7374  -5.7374  -5.2236  -5.2236  -5.0603  -5.0603
    -4.9348  -4.9348  -4.9167  -4.9167  -4.7843  -4.7843  -4.7564  -4.7564
    -4.5544  -4.5544  -4.4025  -4.4025  -4.3363  -4.3363  -4.3040  -4.3040
    -4.2531  -4.2531  -4.2173  -4.2173  -4.1868  -4.1868  -4.0996  -4.0996
    -4.0250  -4.0250  -3.9212  -3.9212  -3.7311  -3.7311  -3.6543  -3.6543
    -3.2608  -3.2608  -3.1710  -3.1710  -3.1084  -3.1084  -2.9755  -2.9755
    -2.7793  -2.7793  -2.7054  -2.7054  -2.5367  -2.5367  -2.4811  -2.4811
    -2.3825  -2.3825  -2.3508  -2.3508  -2.1699  -2.1699  -2.1225  -2.1225
    -2.0989  -2.0989  -2.0412  -2.0412  -2.0005  -2.0005  -1.9411  -1.9411
    -1.8648  -1.8648  -1.7934  -1.7934  -1.7503  -1.7503  -1.7237  -1.7237
    -1.6526  -1.6526  -1.5561  -1.5561  -1.5149  -1.5149  -1.4487  -1.4487
    -1.3736  -1.3736  -1.3545  -1.3545  -1.2049  -1.2049  -1.1519  -1.1519
    -0.0505  -0.0505   0.0406   0.0406   0.0771   0.0771   0.1143   0.1143
     0.7996   0.7996   0.8814   0.8814   1.0240   1.0240   1.0889   1.0889
     4.3392   4.3392   4.3949   4.3949   4.4773   4.4773   4.5666   4.5666
     4.9347   4.9347   5.0583   5.0583   5.4390   5.4390   5.5910   5.5910
     6.1810   6.1810   6.7143   6.7143   7.0363   7.0363   7.3189   7.3189
     7.4019   7.4019   7.5928   7.5928   7.6240   7.6240   7.8660   7.8660
     7.9564   7.9564   8.1507   8.1507

          k = 0.0000-0.5547 0.0000 (138970 PWs)   bands (ev):

   -19.5871 -19.5871 -19.5807 -19.5807 -19.5409 -19.5409 -19.5361 -19.5361
   -15.5734 -15.5734 -15.5605 -15.5605 -14.5810 -14.5810 -14.5673 -14.5673
   -13.8905 -13.8905 -13.8556 -13.8556 -12.8009 -12.8009 -12.7716 -12.7716
   -12.0108 -12.0108 -11.9834 -11.9834 -11.5790 -11.5790 -11.5167 -11.5167
   -11.2550 -11.2550 -11.1681 -11.1681 -11.1500 -11.1500 -11.1108 -11.1108
    -9.5325  -9.5325  -9.4848  -9.4848  -8.7241  -8.7241  -8.6623  -8.6623
    -8.3692  -8.3692  -8.3414  -8.3414  -8.2722  -8.2722  -8.2101  -8.2101
    -7.7328  -7.7328  -7.6126  -7.6126  -6.9256  -6.9256  -6.7572  -6.7572
    -6.4689  -6.4689  -6.4007  -6.4007  -6.1970  -6.1970  -6.1130  -6.1130
    -5.8192  -5.8192  -5.7015  -5.7015  -5.2165  -5.2165  -5.1086  -5.1086
    -4.9221  -4.9221  -4.8796  -4.8796  -4.7949  -4.7949  -4.7049  -4.7049
    -4.5263  -4.5263  -4.4331  -4.4331  -4.3715  -4.3715  -4.3054  -4.3054
    -4.2765  -4.2765  -4.2404  -4.2404  -4.1914  -4.1914  -4.1054  -4.1054
    -4.0778  -4.0778  -3.9046  -3.9046  -3.6912  -3.6912  -3.6270  -3.6270
    -3.2721  -3.2721  -3.2434  -3.2434  -3.1418  -3.1418  -2.9043  -2.9043
    -2.7407  -2.7407  -2.6551  -2.6551  -2.5786  -2.5786  -2.5508  -2.5508
    -2.4390  -2.4390  -2.2872  -2.2872  -2.1466  -2.1466  -2.1443  -2.1443
    -2.0868  -2.0868  -2.0398  -2.0398  -1.9585  -1.9585  -1.9372  -1.9372
    -1.8207  -1.8207  -1.7836  -1.7836  -1.7287  -1.7287  -1.7040  -1.7040
    -1.6436  -1.6436  -1.5737  -1.5737  -1.4529  -1.4529  -1.4430  -1.4430
    -1.4058  -1.4058  -1.3803  -1.3803  -1.2274  -1.2274  -1.1447  -1.1447
    -0.0318  -0.0318  -0.0001  -0.0001   0.0582   0.0582   0.0943   0.0943
     0.7962   0.7962   0.8866   0.8866   0.9765   0.9765   1.1084   1.1084
     4.2672   4.2672   4.3489   4.3489   4.5149   4.5149   4.5444   4.5444
     5.0241   5.0241   5.0441   5.0441   5.4673   5.4673   5.6154   5.6154
     6.2550   6.2550   6.6870   6.6870   7.0212   7.0212   7.1979   7.1979
     7.4625   7.4625   7.5945   7.5945   7.6180   7.6180   7.8439   7.8439
     7.9786   7.9786   8.1907   8.1907

          k = 0.0000-0.5547-0.4398 (139148 PWs)   bands (ev):

   -19.5852 -19.5852 -19.5830 -19.5830 -19.5390 -19.5390 -19.5377 -19.5377
   -15.5672 -15.5672 -15.5668 -15.5668 -14.5809 -14.5809 -14.5673 -14.5673
   -13.8797 -13.8797 -13.8665 -13.8665 -12.7870 -12.7870 -12.7862 -12.7862
   -12.0095 -12.0095 -11.9839 -11.9839 -11.5886 -11.5886 -11.5066 -11.5066
   -11.2458 -11.2458 -11.1700 -11.1700 -11.1469 -11.1469 -11.1218 -11.1218
    -9.5146  -9.5146  -9.5033  -9.5033  -8.7112  -8.7112  -8.6873  -8.6873
    -8.3792  -8.3792  -8.3234  -8.3234  -8.2671  -8.2671  -8.2125  -8.2125
    -7.7201  -7.7201  -7.6211  -7.6211  -6.8731  -6.8731  -6.8233  -6.8233
    -6.4453  -6.4453  -6.4025  -6.4025  -6.1562  -6.1562  -6.1437  -6.1437
    -5.7861  -5.7861  -5.7440  -5.7440  -5.2727  -5.2727  -5.0854  -5.0854
    -4.9931  -4.9931  -4.8344  -4.8344  -4.8035  -4.8035  -4.6545  -4.6545
    -4.4989  -4.4989  -4.4261  -4.4261  -4.3856  -4.3856  -4.3275  -4.3275
    -4.2979  -4.2979  -4.2414  -4.2414  -4.2211  -4.2211  -4.1166  -4.1166
    -4.0172  -4.0172  -3.9549  -3.9549  -3.6534  -3.6534  -3.6182  -3.6182
    -3.2473  -3.2473  -3.2342  -3.2342  -3.0651  -3.0651  -2.9510  -2.9510
    -2.7589  -2.7589  -2.6329  -2.6329  -2.5797  -2.5797  -2.5220  -2.5220
    -2.3854  -2.3854  -2.3827  -2.3827  -2.1600  -2.1600  -2.1451  -2.1451
    -2.0678  -2.0678  -2.0504  -2.0504  -2.0083  -2.0083  -1.9521  -1.9521
    -1.7751  -1.7751  -1.7709  -1.7709  -1.7568  -1.7568  -1.6854  -1.6854
    -1.6441  -1.6441  -1.6005  -1.6005  -1.5268  -1.5268  -1.4187  -1.4187
    -1.4181  -1.4181  -1.3559  -1.3559  -1.1747  -1.1747  -1.1587  -1.1587
    -0.0199  -0.0199  -0.0113  -0.0113   0.0628   0.0628   0.0899   0.0899
     0.8137   0.8137   0.8646   0.8646   1.0365   1.0365   1.0570   1.0570
     4.2963   4.2963   4.3411   4.3411   4.4779   4.4779   4.5709   4.5709
     5.0036   5.0036   5.0632   5.0632   5.4875   5.4875   5.5869   5.5869
     6.3740   6.3740   6.4285   6.4285   7.1133   7.1133   7.3052   7.3052
     7.4218   7.4218   7.5884   7.5884   7.7494   7.7494   7.7522   7.7522
     8.0061   8.0061   8.1983   8.1984

          k =-0.5000 0.0000 0.1626 (139034 PWs)   bands (ev):

   -19.5903 -19.5834 -19.5822 -19.5797 -19.5408 -19.5406 -19.5383 -19.5345
   -15.5780 -15.5762 -15.5583 -15.5575 -14.5815 -14.5754 -14.5625 -14.5600
   -13.9198 -13.9184 -13.8451 -13.8264 -12.7902 -12.7898 -12.7855 -12.7707
   -12.0223 -12.0130 -12.0011 -11.9823 -11.5998 -11.5935 -11.5440 -11.4834
   -11.2504 -11.2259 -11.1736 -11.1565 -11.1445 -11.1237 -11.1221 -11.1036
    -9.5329  -9.5229  -9.4858  -9.4844  -8.7579  -8.6884  -8.6777  -8.6488
    -8.4197  -8.4192  -8.3920  -8.2997  -8.2289  -8.2186  -8.2100  -8.1808
    -7.7800  -7.7179  -7.6536  -7.6069  -6.9453  -6.9185  -6.8182  -6.7862
    -6.4601  -6.3859  -6.3836  -6.3413  -6.2333  -6.1691  -6.1237  -6.1033
    -5.7934  -5.7774  -5.7589  -5.7035  -5.2839  -5.1973  -5.1280  -5.0431
    -4.9991  -4.9497  -4.9299  -4.9237  -4.7952  -4.7526  -4.7052  -4.6934
    -4.5254  -4.4832  -4.4181  -4.4092  -4.3589  -4.3169  -4.3020  -4.2926
    -4.2804  -4.2644  -4.2507  -4.2169  -4.1943  -4.1523  -4.1199  -4.0854
    -4.0432  -4.0240  -3.9394  -3.8977  -3.8043  -3.7252  -3.6817  -3.5308
    -3.3120  -3.2467  -3.2129  -3.1738  -3.0726  -3.0716  -2.9861  -2.9395
    -2.8405  -2.7667  -2.7557  -2.6841  -2.6323  -2.5619  -2.5377  -2.4273
    -2.4116  -2.3790  -2.3585  -2.2991  -2.2566  -2.2348  -2.1263  -2.1240
    -2.1229  -2.0378  -2.0354  -1.9760  -1.9709  -1.9515  -1.9371  -1.8870
    -1.8145  -1.8077  -1.7942  -1.7777  -1.7394  -1.7382  -1.7350  -1.7341
    -1.6433  -1.5497  -1.5418  -1.5359  -1.5017  -1.4863  -1.4807  -1.4572
    -1.4527  -1.4517  -1.3980  -1.3537  -1.2581  -1.1979  -1.1793  -1.1386
    -0.0829  -0.0434   0.0243   0.0274   0.0693   0.0892   0.1277   0.1649
     0.8047   0.8097   0.8478   0.8881   1.0021   1.0545   1.0818   1.0939
     4.2878   4.3286   4.3859   4.4240   4.4524   4.5230   4.5434   4.5928
     4.9078   4.9675   5.0667   5.0882   5.3587   5.5178   5.5832   5.5874
     6.2319   6.5782   6.5861   6.5994   6.7189   7.0500   7.1704   7.2423
     7.4112   7.4238   7.5224   7.5661   7.6483   7.8790   7.9251   8.0065
     8.0160   8.0519   8.1512   8.1546

          k =-0.5000 0.0000-0.2772 (139132 PWs)   bands (ev):

   -19.5868 -19.5868 -19.5813 -19.5813 -19.5400 -19.5400 -19.5369 -19.5369
   -15.5775 -15.5775 -15.5574 -15.5574 -14.5785 -14.5785 -14.5613 -14.5613
   -13.9219 -13.9219 -13.8329 -13.8329 -12.7886 -12.7886 -12.7790 -12.7790
   -12.0184 -12.0184 -11.9922 -11.9922 -11.5892 -11.5892 -11.5196 -11.5196
   -11.2440 -11.2440 -11.1624 -11.1624 -11.1334 -11.1334 -11.1126 -11.1126
    -9.5096  -9.5096  -9.5040  -9.5040  -8.7056  -8.7056  -8.6807  -8.6807
    -8.4113  -8.4113  -8.3365  -8.3365  -8.2365  -8.2365  -8.1981  -8.1981
    -7.7465  -7.7465  -7.6361  -7.6361  -6.9231  -6.9231  -6.7911  -6.7911
    -6.4306  -6.4306  -6.3679  -6.3679  -6.2191  -6.2191  -6.1199  -6.1199
    -5.7995  -5.7995  -5.7267  -5.7267  -5.1882  -5.1882  -5.0741  -5.0741
    -4.9485  -4.9485  -4.8908  -4.8908  -4.8152  -4.8152  -4.7941  -4.7941
    -4.4979  -4.4979  -4.4060  -4.4060  -4.3310  -4.3310  -4.2904  -4.2904
    -4.2652  -4.2652  -4.2132  -4.2132  -4.1663  -4.1663  -4.1470  -4.1470
    -4.0058  -4.0058  -3.9009  -3.9009  -3.7440  -3.7440  -3.6604  -3.6604
    -3.2934  -3.2934  -3.1913  -3.1913  -3.0603  -3.0603  -2.9973  -2.9973
    -2.7933  -2.7933  -2.6998  -2.6998  -2.6105  -2.6105  -2.4694  -2.4694
    -2.3736  -2.3736  -2.3333  -2.3333  -2.2023  -2.2023  -2.1032  -2.1032
    -2.0527  -2.0527  -2.0495  -2.0495  -1.9623  -1.9623  -1.8832  -1.8832
    -1.8669  -1.8669  -1.8193  -1.8193  -1.7413  -1.7413  -1.7080  -1.7080
    -1.6326  -1.6326  -1.5534  -1.5534  -1.5336  -1.5336  -1.4455  -1.4455
    -1.4022  -1.4022  -1.3811  -1.3811  -1.2123  -1.2123  -1.1638  -1.1638
    -0.0692  -0.0692   0.0448   0.0448   0.0619   0.0619   0.1473   0.1473
     0.8153   0.8153   0.8534   0.8534   1.0137   1.0137   1.1060   1.1060
     4.3269   4.3269   4.3528   4.3528   4.5410   4.5410   4.5492   4.5492
     4.9527   4.9527   5.0704   5.0704   5.4246   5.4246   5.5911   5.5911
     6.3271   6.3271   6.7078   6.7078   6.7694   6.7694   7.1515   7.1515
     7.5589   7.5589   7.6671   7.6671   7.6901   7.6901   7.9441   7.9441
     7.9786   7.9786   8.1731   8.1735

          k =-0.5000-0.5547 0.1626 (139084 PWs)   bands (ev):

   -19.5871 -19.5871 -19.5807 -19.5807 -19.5411 -19.5411 -19.5360 -19.5360
   -15.5722 -15.5722 -15.5616 -15.5616 -14.5835 -14.5835 -14.5656 -14.5656
   -13.8786 -13.8786 -13.8667 -13.8667 -12.8007 -12.8007 -12.7701 -12.7701
   -12.0004 -12.0004 -11.9950 -11.9950 -11.5898 -11.5898 -11.5057 -11.5057
   -11.2461 -11.2461 -11.1795 -11.1795 -11.1523 -11.1523 -11.1072 -11.1072
    -9.5342  -9.5342  -9.4838  -9.4838  -8.7282  -8.7282  -8.6621  -8.6621
    -8.3712  -8.3712  -8.3373  -8.3373  -8.2798  -8.2798  -8.1975  -8.1975
    -7.7396  -7.7396  -7.6034  -7.6034  -6.9338  -6.9338  -6.7656  -6.7656
    -6.4396  -6.4396  -6.3799  -6.3799  -6.2168  -6.2168  -6.1391  -6.1391
    -5.8108  -5.8108  -5.6989  -5.6989  -5.2546  -5.2546  -5.0772  -5.0772
    -4.9585  -4.9585  -4.8368  -4.8368  -4.8059  -4.8059  -4.6882  -4.6882
    -4.5248  -4.5248  -4.4467  -4.4467  -4.3439  -4.3439  -4.3218  -4.3218
    -4.2823  -4.2823  -4.2103  -4.2103  -4.1676  -4.1676  -4.1242  -4.1242
    -4.0909  -4.0909  -3.9321  -3.9321  -3.7081  -3.7081  -3.5936  -3.5936
    -3.2922  -3.2922  -3.2601  -3.2601  -3.1108  -3.1108  -2.9284  -2.9284
    -2.7786  -2.7786  -2.6652  -2.6652  -2.5617  -2.5617  -2.5218  -2.5218
    -2.3726  -2.3726  -2.2735  -2.2735  -2.2369  -2.2369  -2.1437  -2.1437
    -2.0581  -2.0581  -1.9868  -1.9868  -1.9614  -1.9614  -1.9506  -1.9506
    -1.8072  -1.8072  -1.7969  -1.7969  -1.7542  -1.7542  -1.6967  -1.6967
    -1.6277  -1.6277  -1.6011  -1.6011  -1.4701  -1.4701  -1.4384  -1.4384
    -1.4319  -1.4319  -1.3580  -1.3580  -1.2245  -1.2245  -1.1458  -1.1458
    -0.0412  -0.0412   0.0046   0.0046   0.0563   0.0563   0.1102   0.1102
     0.8047   0.8047   0.8721   0.8721   0.9918   0.9918   1.0945   1.0945
     4.2503   4.2503   4.3724   4.3724   4.5036   4.5036   4.5462   4.5462
     5.0130   5.0130   5.0383   5.0383   5.5157   5.5157   5.5934   5.5934
     6.3331   6.3331   6.6937   6.6937   6.8796   6.8796   7.1429   7.1429
     7.3266   7.3266   7.6204   7.6204   7.8031   7.8031   7.8641   7.8641
     8.0619   8.0619   8.2209   8.2209

          k =-0.5000-0.5547-0.2772 (139068 PWs)   bands (ev):

   -19.5851 -19.5851 -19.5830 -19.5830 -19.5396 -19.5396 -19.5372 -19.5372
   -15.5699 -15.5699 -15.5640 -15.5640 -14.5830 -14.5830 -14.5660 -14.5660
   -13.8879 -13.8879 -13.8574 -13.8574 -12.7890 -12.7890 -12.7827 -12.7827
   -12.0002 -12.0002 -11.9944 -11.9944 -11.5786 -11.5786 -11.5188 -11.5188
   -11.2497 -11.2497 -11.1721 -11.1721 -11.1318 -11.1318 -11.1304 -11.1304
    -9.5107  -9.5107  -9.5061  -9.5061  -8.7088  -8.7088  -8.6935  -8.6935
    -8.3677  -8.3677  -8.3323  -8.3323  -8.2753  -8.2753  -8.2002  -8.2002
    -7.7219  -7.7219  -7.6202  -7.6202  -6.9006  -6.9006  -6.8046  -6.8046
    -6.4111  -6.4111  -6.3964  -6.3964  -6.1943  -6.1943  -6.1566  -6.1566
    -5.7838  -5.7838  -5.7489  -5.7489  -5.1835  -5.1835  -5.1545  -5.1545
    -4.9240  -4.9240  -4.8917  -4.8917  -4.7603  -4.7603  -4.7351  -4.7351
    -4.4810  -4.4810  -4.4268  -4.4268  -4.3760  -4.3760  -4.3252  -4.3252
    -4.2852  -4.2852  -4.2484  -4.2484  -4.1928  -4.1928  -4.1050  -4.1050
    -4.0357  -4.0357  -3.9557  -3.9557  -3.7054  -3.7054  -3.6063  -3.6063
    -3.2477  -3.2477  -3.2355  -3.2355  -3.0446  -3.0446  -2.9950  -2.9950
    -2.7413  -2.7413  -2.6533  -2.6533  -2.5932  -2.5932  -2.4886  -2.4886
    -2.4539  -2.4539  -2.2954  -2.2954  -2.1980  -2.1980  -2.1589  -2.1589
    -2.0503  -2.0503  -2.0384  -2.0384  -1.9956  -1.9956  -1.8817  -1.8817
    -1.7876  -1.7876  -1.7729  -1.7729  -1.7459  -1.7459  -1.7184  -1.7184
    -1.6454  -1.6454  -1.6152  -1.6152  -1.5036  -1.5036  -1.4381  -1.4381
    -1.3912  -1.3912  -1.3779  -1.3779  -1.1804  -1.1804  -1.1704  -1.1704
    -0.0249  -0.0249  -0.0195  -0.0195   0.0764   0.0764   0.0921   0.0921
     0.8312   0.8312   0.8343   0.8343   1.0185   1.0185   1.0819   1.0819
     4.2440   4.2440   4.3857   4.3857   4.4728   4.4728   4.5770   4.5770
     5.0135   5.0135   5.0499   5.0499   5.4871   5.4871   5.6031   5.6031
     6.4013   6.4013   6.5795   6.5795   6.9251   6.9251   7.0184   7.0184
     7.5226   7.5226   7.6164   7.6164   7.7213   7.7213   7.8252   7.8252
     8.2027   8.2027   8.2479   8.2482

     highest occupied, lowest unoccupied level (ev):     1.1326    4.2440

!    total energy              =   -1589.27364898 Ry
     Harris-Foulkes estimate   =   -1589.27364898 Ry
     estimated scf accuracy    <          4.3E-09 Ry

     total all-electron energy =     -6156.951002 Ry

     The total energy is the sum of the following terms:

     one-electron contribution =    -902.09839966 Ry
     hartree contribution      =     590.18540082 Ry
     xc contribution           =    -369.96709005 Ry
     ewald contribution        =    -404.78885030 Ry
     Dispersion Correction     =      -0.66608877 Ry
     one-center paw contrib.   =    -501.93862102 Ry

     convergence has been achieved in  22 iterations

     Forces acting on atoms (cartesian axes, Ry/au):

     atom    1 type  1   force =     0.00084823   -0.00018919   -0.00089176
     atom    2 type  1   force =    -0.00084823   -0.00018919    0.00089176
     atom    3 type  1   force =    -0.00084823    0.00018919    0.00089176
     atom    4 type  1   force =     0.00084823    0.00018919   -0.00089176
     atom    5 type  1   force =     0.00094470    0.00018648   -0.00093506
     atom    6 type  1   force =    -0.00094470    0.00018648    0.00093506
     atom    7 type  1   force =    -0.00094470   -0.00018648    0.00093506
     atom    8 type  1   force =     0.00094470   -0.00018648   -0.00093506
     atom    9 type  1   force =     0.00023142   -0.00098654    0.00090643
     atom   10 type  1   force =    -0.00023142   -0.00098654   -0.00090643
     atom   11 type  1   force =    -0.00023142    0.00098654   -0.00090643
     atom   12 type  1   force =     0.00023142    0.00098654    0.00090643
     atom   13 type  1   force =    -0.00104905    0.00175183    0.00009742
     atom   14 type  1   force =     0.00104905    0.00175183   -0.00009742
     atom   15 type  1   force =     0.00104905   -0.00175183   -0.00009742
     atom   16 type  1   force =    -0.00104905   -0.00175183    0.00009742
     atom   17 type  1   force =     0.00120497    0.00037937   -0.00076608
     atom   18 type  1   force =    -0.00120497    0.00037937    0.00076608
     atom   19 type  1   force =    -0.00120497   -0.00037937    0.00076608
     atom   20 type  1   force =     0.00120497   -0.00037937   -0.00076608
     atom   21 type  1   force =    -0.00009677   -0.00039658   -0.00033727
     atom   22 type  1   force =     0.00009677   -0.00039658    0.00033727
     atom   23 type  1   force =     0.00009677    0.00039658    0.00033727
     atom   24 type  1   force =    -0.00009677    0.00039658   -0.00033727
     atom   25 type  1   force =     0.00003949   -0.00022849   -0.00001599
     atom   26 type  1   force =    -0.00003949   -0.00022849    0.00001599
     atom   27 type  1   force =    -0.00003949    0.00022849    0.00001599
     atom   28 type  1   force =     0.00003949    0.00022849   -0.00001599
     atom   29 type  1   force =    -0.00035915    0.00100689   -0.00066677
     atom   30 type  1   force =     0.00035915    0.00100689    0.00066677
     atom   31 type  1   force =     0.00035915   -0.00100689    0.00066677
     atom   32 type  1   force =    -0.00035915   -0.00100689   -0.00066677
     atom   33 type  1   force =     0.00045312   -0.00024206    0.00020502
     atom   34 type  1   force =    -0.00045312   -0.00024206   -0.00020502
     atom   35 type  1   force =    -0.00045312    0.00024206   -0.00020502
     atom   36 type  1   force =     0.00045312    0.00024206    0.00020502
     atom   37 type  1   force =     0.00038980   -0.00022759    0.00006593
     atom   38 type  1   force =    -0.00038980   -0.00022759   -0.00006593
     atom   39 type  1   force =    -0.00038980    0.00022759   -0.00006593
     atom   40 type  1   force =     0.00038980    0.00022759    0.00006593
     atom   41 type  1   force =    -0.00050617    0.00018613   -0.00001870
     atom   42 type  1   force =     0.00050617    0.00018613    0.00001870
     atom   43 type  1   force =     0.00050617   -0.00018613    0.00001870
     atom   44 type  1   force =    -0.00050617   -0.00018613   -0.00001870
     atom   45 type  1   force =     0.00027093   -0.00040570   -0.00014150
     atom   46 type  1   force =    -0.00027093   -0.00040570    0.00014150
     atom   47 type  1   force =    -0.00027093    0.00040570    0.00014150
     atom   48 type  1   force =     0.00027093    0.00040570   -0.00014150
     atom   49 type  1   force =    -0.00006677    0.00031173    0.00025763
     atom   50 type  1   force =     0.00006677    0.00031173   -0.00025763
     atom   51 type  1   force =     0.00006677   -0.00031173   -0.00025763
     atom   52 type  1   force =    -0.00006677   -0.00031173    0.00025763
     atom   53 type  1   force =     0.00005244   -0.00022865   -0.00009832
     atom   54 type  1   force =    -0.00005244   -0.00022865    0.00009832
     atom   55 type  1   force =    -0.00005244    0.00022865    0.00009832
     atom   56 type  1   force =     0.00005244    0.00022865   -0.00009832
     atom   57 type  1   force =    -0.00010622    0.00066821    0.00064401
     atom   58 type  1   force =     0.00010622    0.00066821   -0.00064401
     atom   59 type  1   force =     0.00010622   -0.00066821   -0.00064401
     atom   60 type  1   force =    -0.00010622   -0.00066821    0.00064401
     atom   61 type  1   force =    -0.00023333   -0.00041331   -0.00030330
     atom   62 type  1   force =     0.00023333   -0.00041331    0.00030330
     atom   63 type  1   force =     0.00023333    0.00041331    0.00030330
     atom   64 type  1   force =    -0.00023333    0.00041331   -0.00030330
     atom   65 type  4   force =     0.00015302    0.00088320   -0.00001780
     atom   66 type  4   force =    -0.00015302    0.00088320    0.00001780
     atom   67 type  4   force =    -0.00015302   -0.00088320    0.00001780
     atom   68 type  4   force =     0.00015302   -0.00088320   -0.00001780
     atom   69 type  4   force =     0.00028415    0.00001159    0.00027342
     atom   70 type  4   force =    -0.00028415    0.00001159   -0.00027342
     atom   71 type  4   force =    -0.00028415   -0.00001159   -0.00027342
     atom   72 type  4   force =     0.00028415   -0.00001159    0.00027342
     atom   73 type  3   force =    -0.00006218    0.00013650   -0.00021466
     atom   74 type  3   force =     0.00006218    0.00013650    0.00021466
     atom   75 type  3   force =     0.00006218   -0.00013650    0.00021466
     atom   76 type  3   force =    -0.00006218   -0.00013650   -0.00021466
     atom   77 type  3   force =    -0.00054567    0.00066882   -0.00003935
     atom   78 type  3   force =     0.00054567    0.00066882    0.00003935
     atom   79 type  3   force =     0.00054567   -0.00066882    0.00003935
     atom   80 type  3   force =    -0.00054567   -0.00066882   -0.00003935
     atom   81 type  3   force =    -0.00016346   -0.00072492   -0.00009181
     atom   82 type  3   force =     0.00016346   -0.00072492    0.00009181
     atom   83 type  3   force =     0.00016346    0.00072492    0.00009181
     atom   84 type  3   force =    -0.00016346    0.00072492   -0.00009181
     atom   85 type  3   force =    -0.00012431    0.00013875    0.00028364
     atom   86 type  3   force =     0.00012431    0.00013875   -0.00028364
     atom   87 type  3   force =     0.00012431   -0.00013875   -0.00028364
     atom   88 type  3   force =    -0.00012431   -0.00013875    0.00028364
     atom   89 type  3   force =    -0.00033557    0.00034495   -0.00003064
     atom   90 type  3   force =     0.00033557    0.00034495    0.00003064
     atom   91 type  3   force =     0.00033557   -0.00034495    0.00003064
     atom   92 type  3   force =    -0.00033557   -0.00034495   -0.00003064
     atom   93 type  3   force =    -0.00008320    0.00034221    0.00060083
     atom   94 type  3   force =     0.00008320    0.00034221   -0.00060083
     atom   95 type  3   force =     0.00008320   -0.00034221   -0.00060083
     atom   96 type  3   force =    -0.00008320   -0.00034221    0.00060083
     atom   97 type  3   force =     0.00020876   -0.00019126    0.00002157
     atom   98 type  3   force =    -0.00020876   -0.00019126   -0.00002157
     atom   99 type  3   force =    -0.00020876    0.00019126   -0.00002157
     atom  100 type  3   force =     0.00020876    0.00019126    0.00002157
     atom  101 type  3   force =    -0.00076691   -0.00025342   -0.00013885
     atom  102 type  3   force =     0.00076691   -0.00025342    0.00013885
     atom  103 type  3   force =     0.00076691    0.00025342    0.00013885
     atom  104 type  3   force =    -0.00076691    0.00025342   -0.00013885
     atom  105 type  3   force =     0.00068312    0.00013574   -0.00025058
     atom  106 type  3   force =    -0.00068312    0.00013574    0.00025058
     atom  107 type  3   force =    -0.00068312   -0.00013574    0.00025058
     atom  108 type  3   force =     0.00068312   -0.00013574   -0.00025058
     atom  109 type  3   force =    -0.00027910   -0.00012093    0.00020326
     atom  110 type  3   force =     0.00027910   -0.00012093   -0.00020326
     atom  111 type  3   force =     0.00027910    0.00012093   -0.00020326
     atom  112 type  3   force =    -0.00027910    0.00012093    0.00020326
     atom  113 type  3   force =     0.00000956   -0.00012268    0.00029518
     atom  114 type  3   force =    -0.00000956   -0.00012268   -0.00029518
     atom  115 type  3   force =    -0.00000956    0.00012268   -0.00029518
     atom  116 type  3   force =     0.00000956    0.00012268    0.00029518
     atom  117 type  3   force =     0.00041523   -0.00031815    0.00000686
     atom  118 type  3   force =    -0.00041523   -0.00031815   -0.00000686
     atom  119 type  3   force =    -0.00041523    0.00031815   -0.00000686
     atom  120 type  3   force =     0.00041523    0.00031815    0.00000686
     atom  121 type  3   force =     0.00002964   -0.00008321   -0.00031101
     atom  122 type  3   force =    -0.00002964   -0.00008321    0.00031101
     atom  123 type  3   force =    -0.00002964    0.00008321    0.00031101
     atom  124 type  3   force =     0.00002964    0.00008321   -0.00031101
     atom  125 type  3   force =    -0.00049150   -0.00011697    0.00062158
     atom  126 type  3   force =     0.00049150   -0.00011697   -0.00062158
     atom  127 type  3   force =     0.00049150    0.00011697   -0.00062158
     atom  128 type  3   force =    -0.00049150    0.00011697    0.00062158
     atom  129 type  3   force =    -0.00040170    0.00036563    0.00026128
     atom  130 type  3   force =     0.00040170    0.00036563   -0.00026128
     atom  131 type  3   force =     0.00040170   -0.00036563   -0.00026128
     atom  132 type  3   force =    -0.00040170   -0.00036563    0.00026128
     atom  133 type  3   force =     0.00026239   -0.00003410   -0.00028216
     atom  134 type  3   force =    -0.00026239   -0.00003410    0.00028216
     atom  135 type  3   force =    -0.00026239    0.00003410    0.00028216
     atom  136 type  3   force =     0.00026239    0.00003410   -0.00028216

     Total force =     0.009425     Total SCF correction =     0.000149


     Computing stress (Cartesian axis) and pressure

          total   stress  (Ry/bohr**3)                   (kbar)     P=   -6.52
  -0.00004509   0.00000000   0.00000228         -6.63      0.00      0.34
   0.00000000  -0.00004662   0.00000000          0.00     -6.86      0.00
   0.00000228   0.00000000  -0.00004134          0.34      0.00     -6.08


     Writing output data file scf.save
 
     init_run     :     68.93s CPU     72.48s WALL (       1 calls)
     electrons    :   3111.09s CPU   3269.44s WALL (       1 calls)
     forces       :     30.71s CPU     31.02s WALL (       1 calls)
     stress       :    240.54s CPU    241.08s WALL (       1 calls)

     Called by init_run:
     wfcinit      :     55.24s CPU     58.58s WALL (       1 calls)
     potinit      :      4.78s CPU      4.82s WALL (       1 calls)

     Called by electrons:
     c_bands      :   2805.08s CPU   2941.82s WALL (      22 calls)
     sum_band     :    281.18s CPU    299.69s WALL (      22 calls)
     v_of_rho     :      3.66s CPU      4.04s WALL (      23 calls)
     newd         :      8.80s CPU     11.39s WALL (      23 calls)
     PAW_pot      :     11.08s CPU     11.08s WALL (      23 calls)
     mix_rho      :      1.14s CPU      1.22s WALL (      22 calls)

     Called by c_bands:
     init_us_2    :     22.25s CPU     22.31s WALL (     376 calls)
     cegterg      :   2733.37s CPU   2870.01s WALL (     176 calls)

     Called by sum_band:
     sum_band:bec :      0.18s CPU      0.18s WALL (     176 calls)
     addusdens    :      9.65s CPU     12.13s WALL (      22 calls)

     Called by *egterg:
     h_psi        :   1543.92s CPU   1653.61s WALL (     868 calls)
     s_psi        :    315.47s CPU    315.52s WALL (     868 calls)
     g_psi        :      9.67s CPU      9.67s WALL (     684 calls)
     cdiaghg      :    128.37s CPU    128.42s WALL (     860 calls)

     Called by h_psi:
     h_psi:pot    :   1529.63s CPU   1639.07s WALL (     868 calls)
     h_psi:calbec :    295.54s CPU    296.06s WALL (     868 calls)
     vloc_psi     :    918.23s CPU   1027.05s WALL (     868 calls)
     add_vuspsi   :    315.85s CPU    315.95s WALL (     868 calls)

     General routines
     calbec       :    414.78s CPU    415.47s WALL (    1084 calls)
     fft          :      2.58s CPU      3.23s WALL (     323 calls)
     fftw         :    955.48s CPU   1079.47s WALL (  275984 calls)
 
     Parallel routines
     fft_scatter  :    191.83s CPU    310.93s WALL (  276307 calls)
 
     PWSCF        :     0h57m CPU        1h 1m WALL

 
   This run was terminated on:  19: 1:24   8Dec2017            

=------------------------------------------------------------------------------=
   JOB DONE.
=------------------------------------------------------------------------------=
