
     Program PWSCF v.6.1 (svn rev. 13369) starts on 13Nov2017 at 12:24: 3 

     This program is part of the open-source Quantum ESPRESSO suite
     for quantum simulation of materials; please cite
         "P. Giannozzi et al., J. Phys.:Condens. Matter 21 395502 (2009);
          URL http://www.quantum-espresso.org", 
     in publications or presentations arising from this work. More details at
     http://www.quantum-espresso.org/quote

     Parallel version (MPI), running on     8 processors
     R & G space division:  proc/nbgrp/npool/nimage =       8
     Waiting for input...
     Reading input from standard input

     Current dimensions of program PWSCF are:
     Max number of different atomic species (ntypx) = 10
     Max number of k-points (npk) =  40000
     Max angular momentum in pseudopotentials (lmaxx) =  3
               file C.pbe-n-kjpaw_psl.0.1.UPF: wavefunction(s)  2P renormalized
               file N.pbe-n-kjpaw_psl.0.1.UPF: wavefunction(s)  2P renormalized
               file H.pbe-kjpaw_psl.0.1.UPF: wavefunction(s)  1S renormalized
               file O.pbe-n-kjpaw_psl.0.1.UPF: wavefunction(s)  2P renormalized

     -------------------------------------
     Parameters for Dispersion Correction:
     -------------------------------------
       atom      VdW radius       C_6     

        C          2.744         60.710
        N          2.640         42.670
        H          1.892          4.857
        O          2.536         24.284

     Subspace diagonalization in iterative solution of the eigenvalue problem:
     a serial algorithm will be used

 
     Parallelization info
     --------------------
     sticks:   dense  smooth     PW     G-vecs:    dense   smooth      PW
     Min        3513    3513    914               173486   173486   22998
     Max        3514    3514    915               173488   173488   22999
     Sum       28109   28109   7319              1387895  1387895  183991
 


     bravais-lattice index     =            0
     lattice parameter (alat)  =      26.0045  a.u.
     unit-cell volume          =   10273.1705 (a.u.)^3
     number of atoms/cell      =           84
     number of atomic types    =            4
     number of electrons       =       224.00
     number of Kohn-Sham states=          134
     kinetic-energy cutoff     =     100.0000  Ry
     charge density cutoff     =     400.0000  Ry
     convergence threshold     =      1.0E-08
     mixing beta               =       0.5000
     number of iterations used =            8  plain     mixing
     Exchange-correlation      =  SLA  PW   PBX  PBC ( 1  4  3  4 0 0)

     celldm(1)=  26.004521  celldm(2)=   0.000000  celldm(3)=   0.000000
     celldm(4)=   0.000000  celldm(5)=   0.000000  celldm(6)=   0.000000

     crystal axes: (cart. coord. in units of alat)
               a(1) = (   1.000000   0.000000   0.000000 )  
               a(2) = (   0.000000   1.306155   0.000000 )  
               a(3) = (  -0.082653   0.000000   0.447263 )  

     reciprocal axes: (cart. coord. in units 2 pi/alat)
               b(1) = (  1.000000  0.000000  0.184798 )  
               b(2) = (  0.000000  0.765606  0.000000 )  
               b(3) = (  0.000000  0.000000  2.235820 )  


     PseudoPot. # 1 for  C read from file:
     /scratch/ahofstet/pseudo/C.pbe-n-kjpaw_psl.0.1.UPF
     MD5 check sum: 430fe95172b1e11ef3f8ed03bac87931
     Pseudo is Projector augmented-wave + core cor, Zval =  4.0
     Generated using "atomic" code by A. Dal Corso  v.5.0.99 svn rev. 10869
     Shape of augmentation charge: BESSEL
     Using radial grid of 1073 points,  4 beta functions with: 
                l(1) =   0
                l(2) =   0
                l(3) =   1
                l(4) =   1
     Q(r) pseudized with 0 coefficients 


     PseudoPot. # 2 for  N read from file:
     /scratch/ahofstet/pseudo/N.pbe-n-kjpaw_psl.0.1.UPF
     MD5 check sum: f73187c8b701007e77325f868c9291d7
     Pseudo is Projector augmented-wave + core cor, Zval =  5.0
     Generated using "atomic" code by A. Dal Corso  v.5.0.99 svn rev. 10869
     Shape of augmentation charge: PSQ
     Using radial grid of 1085 points,  4 beta functions with: 
                l(1) =   0
                l(2) =   0
                l(3) =   1
                l(4) =   1
     Q(r) pseudized with 0 coefficients 


     PseudoPot. # 3 for  H read from file:
     /scratch/ahofstet/pseudo/H.pbe-kjpaw_psl.0.1.UPF
     MD5 check sum: 94e484f906d9e9773b2f6e52662335b2
     Pseudo is Projector augmented-wave, Zval =  1.0
     Generated using "atomic" code by A. Dal Corso  v.5.0.99 svn rev. 10869
     Shape of augmentation charge: PSQ
     Using radial grid of  929 points,  2 beta functions with: 
                l(1) =   0
                l(2) =   0
     Q(r) pseudized with 0 coefficients 


     PseudoPot. # 4 for  O read from file:
     /scratch/ahofstet/pseudo/O.pbe-n-kjpaw_psl.0.1.UPF
     MD5 check sum: 3f94a2996a3169367d6eb21d9b593f20
     Pseudo is Projector augmented-wave + core cor, Zval =  6.0
     Generated using "atomic" code by A. Dal Corso  v.5.0.99 svn rev. 10869
     Shape of augmentation charge: BESSEL
     Using radial grid of 1095 points,  4 beta functions with: 
                l(1) =   0
                l(2) =   0
                l(3) =   1
                l(4) =   1
     Q(r) pseudized with 0 coefficients 


     atomic species   valence    mass     pseudopotential
        C              4.00    12.01070      C( 1.00)
        N              5.00    14.00670      N( 1.00)
        H              1.00     1.00794      H( 1.00)
        O              6.00    15.99940      O( 1.00)

     No symmetry found
          (note:  1 additional sym.ops. were found but ignored
           their fractional translations are incommensurate with FFT grid)


   Cartesian axes

     site n.     atom                  positions (alat units)
         1           C   tau(   1) = (   0.3580480   1.1910747   0.0911711  )
         2           C   tau(   2) = (   0.5592989   0.5379971   0.3560921  )
         3           C   tau(   3) = (   0.2591956   1.2293153   0.1277905  )
         4           C   tau(   4) = (   0.6581512   0.5762378   0.3194727  )
         5           C   tau(   5) = (   0.1419078   1.3038644   0.4979191  )
         6           C   tau(   6) = (   0.7754391   0.6507869  -0.0506559  )
         7           C   tau(   7) = (   0.2239616   1.3090222   0.4216588  )
         8           C   tau(   8) = (   0.6933852   0.6559447   0.0256044  )
         9           C   tau(   9) = (   0.3159747   1.2753176   0.4764661  )
        10           C   tau(  10) = (   0.6013722   0.6222401  -0.0292029  )
        11           C   tau(  11) = (   0.4530104   0.0445282   0.0910625  )
        12           C   tau(  12) = (   0.4643365   0.6976057   0.3562007  )
        13           C   tau(  13) = (   0.5157550   0.1153144   0.0326872  )
        14           C   tau(  14) = (   0.4015919   0.7683919   0.4145760  )
        15           C   tau(  15) = (   0.4926963   0.2057826   0.0615215  )
        16           C   tau(  16) = (   0.4246505   0.8588601   0.3857417  )
        17           C   tau(  17) = (   0.4151172   0.2017989   0.1347188  )
        18           C   tau(  18) = (   0.5022297   0.8548764   0.3125444  )
        19           C   tau(  19) = (   0.4278372   1.1558697   0.1705419  )
        20           C   tau(  20) = (   0.4895097   0.5027922   0.2767213  )
        21           C   tau(  21) = (   0.2267460   0.0974930   0.3642601  )
        22           C   tau(  22) = (   0.6906009   0.7505705   0.0830031  )
        23           C   tau(  23) = (   0.3795744   1.0982038   0.2521112  )
        24           C   tau(  24) = (   0.5377725   0.4451263   0.1951520  )
        25           C   tau(  25) = (   0.5003891   0.0831782   0.4010748  )
        26           C   tau(  26) = (   0.4169578   0.7362557   0.0461884  )
        27           C   tau(  27) = (   0.6545654   0.0029184  -0.0154237  )
        28           C   tau(  28) = (   0.2627815   0.6559960   0.4626869  )
        29           C   tau(  29) = (   0.5536910   0.1685518   0.3538545  )
        30           C   tau(  30) = (   0.3636558   0.8216294   0.0934087  )
        31           O   tau(  31) = (   0.5019511   1.1017075   0.1252757  )
        32           O   tau(  32) = (   0.4153958   0.4486299   0.3219875  )
        33           O   tau(  33) = (   0.4659044   1.2391731   0.2223607  )
        34           O   tau(  34) = (   0.4514425   0.5860956   0.2249025  )
        35           O   tau(  35) = (   0.5192202   1.3045090   0.1552848  )
        36           O   tau(  36) = (   0.3981267   0.6514314   0.2919784  )
        37           O   tau(  37) = (   0.3887869   0.1059041   0.1476791  )
        38           O   tau(  38) = (   0.5285600   0.7589816   0.2995841  )
        39           O   tau(  39) = (   0.3747385   0.2667466   0.1790900  )
        40           O   tau(  40) = (   0.5426084   0.9198241   0.2681732  )
        41           H   tau(  41) = (   0.2637052   1.1292829   0.4889226  )
        42           H   tau(  42) = (   0.6536417   0.4762054  -0.0416594  )
        43           H   tau(  43) = (   0.2697023   1.2663580   0.1974885  )
        44           H   tau(  44) = (   0.6476446   0.6132805   0.2497747  )
        45           H   tau(  45) = (   0.2074857   1.1696930   0.1392051  )
        46           H   tau(  46) = (   0.7098612   0.5166155   0.3080581  )
        47           H   tau(  47) = (   0.2138108   0.0692092   0.0844706  )
        48           H   tau(  48) = (   0.7035361   0.7222868   0.3627926  )
        49           H   tau(  49) = (   0.0729574   1.2831818   0.4634008  )
        50           H   tau(  50) = (   0.8443894   0.6301042  -0.0161376  )
        51           H   tau(  51) = (   0.2110571   1.2499277   0.3689619  )
        52           H   tau(  52) = (   0.7062898   0.5968502   0.0783013  )
        53           H   tau(  53) = (   0.3709903   1.2477684   0.4256658  )
        54           H   tau(  54) = (   0.5463566   0.5946909   0.0215974  )
        55           H   tau(  55) = (   0.5220499   0.2738798   0.0344315  )
        56           H   tau(  56) = (   0.3952969   0.9269574   0.4128317  )
        57           H   tau(  57) = (   0.2853711   0.0987143   0.3100689  )
        58           H   tau(  58) = (   0.6319758   0.7517919   0.1371943  )
        59           H   tau(  59) = (   0.2351667   0.1607724   0.4120987  )
        60           H   tau(  60) = (   0.6821802   0.8138500   0.0351645  )
        61           H   tau(  61) = (   0.1577020   0.1062637   0.3248446  )
        62           H   tau(  62) = (   0.7596448   0.7593412   0.1224186  )
        63           H   tau(  63) = (   0.4347679   1.0778185   0.3061676  )
        64           H   tau(  64) = (   0.4825789   0.4247409   0.1410956  )
        65           H   tau(  65) = (   0.3489471   1.0315419   0.2206868  )
        66           H   tau(  66) = (   0.5683998   0.3784643   0.2265764  )
        67           H   tau(  67) = (   0.3216572   1.1398982   0.2875221  )
        68           H   tau(  68) = (   0.5956896   0.4868206   0.1597411  )
        69           H   tau(  69) = (   0.4528969   0.0504552   0.3453996  )
        70           H   tau(  70) = (   0.4644499   0.7035327   0.1018635  )
        71           H   tau(  71) = (   0.6108600  -0.0219339   0.3668382  )
        72           H   tau(  72) = (   0.3064868   0.6311436   0.0804250  )
        73           H   tau(  73) = (   0.6174781  -0.0595460   0.0172502  )
        74           H   tau(  74) = (   0.2998688   0.5935315   0.4300130  )
        75           H   tau(  75) = (   0.7073302   0.0310903   0.0375585  )
        76           H   tau(  76) = (   0.2100167   0.6841678   0.4097047  )
        77           H   tau(  77) = (   0.5967922   0.1415475   0.2923796  )
        78           H   tau(  78) = (   0.3205547   0.7946250   0.1548836  )
        79           H   tau(  79) = (   0.6031541   0.2035003   0.4061774  )
        80           H   tau(  80) = (   0.3141927   0.8565778   0.0410858  )
        81           H   tau(  81) = (   0.5026493   0.2235687   0.3264264  )
        82           H   tau(  82) = (   0.4146976   0.8766462   0.1208368  )
        83           H   tau(  83) = (   0.5331379   1.0609620   0.1743517  )
        84           H   tau(  84) = (   0.3842089   0.4078845   0.2729114  )

     number of k points=     4
                       cart. coord. in units 2pi/alat
        k(    1) = (   0.0000000   0.0000000   0.0000000), wk =   0.3333333
        k(    2) = (   0.0000000   0.0000000   0.7452733), wk =   0.6666667
        k(    3) = (  -0.5000000   0.0000000  -0.0923988), wk =   0.3333333
        k(    4) = (  -0.5000000   0.0000000   0.6528746), wk =   0.6666667

     Dense  grid:  1387895 G-vectors     FFT dimensions: ( 180, 225,  75)

     Estimated max dynamical RAM per process >     826.25MB

     Estimated total allocated dynamical RAM >    6609.99MB

     Check: negative/imaginary core charge=   -0.000001    0.000000

     Initial potential from superposition of free atoms

     starting charge  223.99832, renormalised to  224.00000

     negative rho (up, down):  7.393E-05 0.000E+00
     Starting wfc are  204 randomized atomic wfcs
     Checking if some PAW data can be deallocated... 

     total cpu time spent up to now is       39.0 secs

     per-process dynamical memory:   509.8 Mb

     Self-consistent Calculation

     iteration #  1     ecut=   100.00 Ry     beta=0.50
     Davidson diagonalization with overlap
     ethr =  1.00E-02,  avg # of iterations =  4.0

     negative rho (up, down):  2.858E-05 0.000E+00

     total cpu time spent up to now is      117.3 secs

     total energy              =   -1020.12509630 Ry
     Harris-Foulkes estimate   =   -1024.95409590 Ry
     estimated scf accuracy    <       9.04546345 Ry

     iteration #  2     ecut=   100.00 Ry     beta=0.50
     Davidson diagonalization with overlap
     ethr =  4.04E-03,  avg # of iterations =  2.0

     negative rho (up, down):  8.311E-06 0.000E+00

     total cpu time spent up to now is      157.2 secs

     total energy              =   -1020.36513752 Ry
     Harris-Foulkes estimate   =   -1020.97144081 Ry
     estimated scf accuracy    <       1.16711605 Ry

     iteration #  3     ecut=   100.00 Ry     beta=0.50
     Davidson diagonalization with overlap
     ethr =  5.21E-04,  avg # of iterations =  5.0

     negative rho (up, down):  1.144E-05 0.000E+00

     total cpu time spent up to now is      247.0 secs

     total energy              =   -1021.73826960 Ry
     Harris-Foulkes estimate   =   -1022.52795963 Ry
     estimated scf accuracy    <       2.54934861 Ry

     iteration #  4     ecut=   100.00 Ry     beta=0.50
     Davidson diagonalization with overlap
     ethr =  5.21E-04,  avg # of iterations =  1.5

     negative rho (up, down):  2.305E-05 0.000E+00

     total cpu time spent up to now is      285.6 secs

     total energy              =   -1021.20000214 Ry
     Harris-Foulkes estimate   =   -1021.80962620 Ry
     estimated scf accuracy    <       1.14247263 Ry

     iteration #  5     ecut=   100.00 Ry     beta=0.50
     Davidson diagonalization with overlap
     ethr =  5.10E-04,  avg # of iterations =  5.8

     negative rho (up, down):  8.165E-05 0.000E+00

     total cpu time spent up to now is      355.8 secs

     total energy              =   -1021.85064993 Ry
     Harris-Foulkes estimate   =   -1021.85924364 Ry
     estimated scf accuracy    <       0.32786625 Ry

     iteration #  6     ecut=   100.00 Ry     beta=0.50
     Davidson diagonalization with overlap
     ethr =  1.46E-04,  avg # of iterations =  2.0

     negative rho (up, down):  8.098E-05 0.000E+00

     total cpu time spent up to now is      394.8 secs

     total energy              =   -1021.69506215 Ry
     Harris-Foulkes estimate   =   -1021.85772041 Ry
     estimated scf accuracy    <       0.30604825 Ry

     iteration #  7     ecut=   100.00 Ry     beta=0.50
     Davidson diagonalization with overlap
     ethr =  1.37E-04,  avg # of iterations =  3.5

     negative rho (up, down):  5.972E-05 0.000E+00

     total cpu time spent up to now is      435.8 secs

     total energy              =   -1021.71221020 Ry
     Harris-Foulkes estimate   =   -1021.72314321 Ry
     estimated scf accuracy    <       0.03832085 Ry

     iteration #  8     ecut=   100.00 Ry     beta=0.50
     Davidson diagonalization with overlap
     ethr =  1.71E-05,  avg # of iterations =  5.0

     negative rho (up, down):  7.654E-05 0.000E+00

     total cpu time spent up to now is      521.2 secs

     total energy              =   -1021.75774126 Ry
     Harris-Foulkes estimate   =   -1021.76237473 Ry
     estimated scf accuracy    <       0.01268885 Ry

     iteration #  9     ecut=   100.00 Ry     beta=0.50
     Davidson diagonalization with overlap
     c_bands:  1 eigenvalues not converged
     ethr =  5.66E-06,  avg # of iterations = 18.0

     negative rho (up, down):  1.171E-04 0.000E+00

     total cpu time spent up to now is      574.1 secs

     total energy              =   -1021.75502379 Ry
     Harris-Foulkes estimate   =   -1021.75818541 Ry
     estimated scf accuracy    <       0.00450391 Ry

     iteration # 10     ecut=   100.00 Ry     beta=0.50
     Davidson diagonalization with overlap
     ethr =  2.01E-06,  avg # of iterations =  5.0

     negative rho (up, down):  1.175E-04 0.000E+00

     total cpu time spent up to now is      656.5 secs

     total energy              =   -1021.75843496 Ry
     Harris-Foulkes estimate   =   -1021.76030216 Ry
     estimated scf accuracy    <       0.00612647 Ry

     iteration # 11     ecut=   100.00 Ry     beta=0.50
     Davidson diagonalization with overlap
     ethr =  2.01E-06,  avg # of iterations =  1.0

     negative rho (up, down):  1.111E-04 0.000E+00

     total cpu time spent up to now is      694.9 secs

     total energy              =   -1021.75730558 Ry
     Harris-Foulkes estimate   =   -1021.75853969 Ry
     estimated scf accuracy    <       0.00299829 Ry

     iteration # 12     ecut=   100.00 Ry     beta=0.50
     Davidson diagonalization with overlap
     ethr =  1.34E-06,  avg # of iterations =  3.0

     negative rho (up, down):  1.148E-04 0.000E+00

     total cpu time spent up to now is      753.2 secs

     total energy              =   -1021.75836697 Ry
     Harris-Foulkes estimate   =   -1021.75840028 Ry
     estimated scf accuracy    <       0.00006305 Ry

     iteration # 13     ecut=   100.00 Ry     beta=0.50
     Davidson diagonalization with overlap
     ethr =  2.81E-08,  avg # of iterations =  4.0

     negative rho (up, down):  1.178E-04 0.000E+00

     total cpu time spent up to now is      818.0 secs

     total energy              =   -1021.75839472 Ry
     Harris-Foulkes estimate   =   -1021.75839658 Ry
     estimated scf accuracy    <       0.00000818 Ry

     iteration # 14     ecut=   100.00 Ry     beta=0.50
     Davidson diagonalization with overlap
     ethr =  3.65E-09,  avg # of iterations =  2.8

     negative rho (up, down):  1.185E-04 0.000E+00

     total cpu time spent up to now is      858.9 secs

     total energy              =   -1021.75839626 Ry
     Harris-Foulkes estimate   =   -1021.75839567 Ry
     estimated scf accuracy    <       0.00000419 Ry

     iteration # 15     ecut=   100.00 Ry     beta=0.50
     Davidson diagonalization with overlap
     ethr =  1.87E-09,  avg # of iterations =  4.0

     negative rho (up, down):  1.178E-04 0.000E+00

     total cpu time spent up to now is      924.7 secs

     total energy              =   -1021.75839641 Ry
     Harris-Foulkes estimate   =   -1021.75839837 Ry
     estimated scf accuracy    <       0.00001145 Ry

     iteration # 16     ecut=   100.00 Ry     beta=0.50
     Davidson diagonalization with overlap
     ethr =  1.87E-09,  avg # of iterations =  1.0

     negative rho (up, down):  1.170E-04 0.000E+00

     total cpu time spent up to now is      963.1 secs

     total energy              =   -1021.75839243 Ry
     Harris-Foulkes estimate   =   -1021.75839651 Ry
     estimated scf accuracy    <       0.00000797 Ry

     iteration # 17     ecut=   100.00 Ry     beta=0.50
     Davidson diagonalization with overlap
     ethr =  1.87E-09,  avg # of iterations =  4.0

     negative rho (up, down):  1.171E-04 0.000E+00

     total cpu time spent up to now is     1029.0 secs

     total energy              =   -1021.75839484 Ry
     Harris-Foulkes estimate   =   -1021.75839499 Ry
     estimated scf accuracy    <       0.00000040 Ry

     iteration # 18     ecut=   100.00 Ry     beta=0.50
     Davidson diagonalization with overlap
     ethr =  1.81E-10,  avg # of iterations =  1.2

     negative rho (up, down):  1.171E-04 0.000E+00

     total cpu time spent up to now is     1067.4 secs

     total energy              =   -1021.75839478 Ry
     Harris-Foulkes estimate   =   -1021.75839486 Ry
     estimated scf accuracy    <       0.00000015 Ry

     iteration # 19     ecut=   100.00 Ry     beta=0.50
     Davidson diagonalization with overlap
     ethr =  6.87E-11,  avg # of iterations =  4.0

     negative rho (up, down):  1.170E-04 0.000E+00

     total cpu time spent up to now is     1137.6 secs

     total energy              =   -1021.75839487 Ry
     Harris-Foulkes estimate   =   -1021.75839491 Ry
     estimated scf accuracy    <       0.00000012 Ry

     iteration # 20     ecut=   100.00 Ry     beta=0.50
     Davidson diagonalization with overlap
     ethr =  5.17E-11,  avg # of iterations =  1.0

     negative rho (up, down):  1.169E-04 0.000E+00

     total cpu time spent up to now is     1176.0 secs

     total energy              =   -1021.75839485 Ry
     Harris-Foulkes estimate   =   -1021.75839487 Ry
     estimated scf accuracy    <       0.00000004 Ry

     iteration # 21     ecut=   100.00 Ry     beta=0.50
     Davidson diagonalization with overlap
     ethr =  1.91E-11,  avg # of iterations =  4.0

     negative rho (up, down):  1.168E-04 0.000E+00

     total cpu time spent up to now is     1245.4 secs

     total energy              =   -1021.75839488 Ry
     Harris-Foulkes estimate   =   -1021.75839488 Ry
     estimated scf accuracy    <       0.00000002 Ry

     iteration # 22     ecut=   100.00 Ry     beta=0.50
     Davidson diagonalization with overlap
     ethr =  9.99E-12,  avg # of iterations =  1.0

     negative rho (up, down):  1.168E-04 0.000E+00

     total cpu time spent up to now is     1284.0 secs

     total energy              =   -1021.75839487 Ry
     Harris-Foulkes estimate   =   -1021.75839488 Ry
     estimated scf accuracy    <       0.00000001 Ry

     iteration # 23     ecut=   100.00 Ry     beta=0.50
     Davidson diagonalization with overlap
     ethr =  4.99E-12,  avg # of iterations =  3.0

     negative rho (up, down):  1.168E-04 0.000E+00

     total cpu time spent up to now is     1346.9 secs

     End of self-consistent calculation

          k = 0.0000 0.0000 0.0000 (173481 PWs)   bands (ev):

   -25.6379 -25.6362 -24.6479 -24.6399 -23.1309 -23.0835 -22.7357 -22.6899
   -20.4543 -20.4488 -18.5154 -18.5146 -18.0039 -18.0037 -16.3669 -16.3617
   -16.2176 -16.2091 -15.5200 -15.5192 -15.1658 -15.1588 -14.2422 -14.2280
   -13.9014 -13.8943 -13.3825 -13.3789 -12.6636 -12.6339 -12.5392 -12.5043
   -11.9260 -11.9093 -11.3011 -11.2746 -10.8463 -10.7974 -10.5353 -10.5231
   -10.4407 -10.4258  -9.5037  -9.5029  -9.2810  -9.2706  -8.9431  -8.8916
    -8.7860  -8.7341  -8.5285  -8.4744  -8.3011  -8.2987  -8.2469  -8.2361
    -8.0645  -8.0187  -7.8701  -7.8613  -7.5225  -7.5204  -7.4759  -7.4744
    -7.2249  -7.2172  -7.1054  -7.1003  -6.8544  -6.8256  -6.7474  -6.7367
    -6.6982  -6.6227  -6.4776  -6.4270  -6.3633  -6.3455  -6.1249  -6.0842
    -5.9644  -5.9553  -5.6937  -5.6844  -5.6425  -5.6356  -5.5287  -5.4997
    -5.3137  -5.3123  -5.2368  -5.2262  -5.1257  -5.0821  -4.8549  -4.8207
    -4.7352  -4.7351  -4.5896  -4.5515  -4.4225  -4.4157  -4.2425  -4.2120
    -4.0748  -4.0734  -3.9032  -3.8975  -3.6451  -3.6261  -3.3864  -3.3805
     0.1715   0.2090   1.4955   1.5020   1.8705   2.0388   2.3914   2.6585
     2.6669   2.8517   3.0243   3.2940   3.3824   3.4158   3.5741   3.6670
     3.7489   3.8907   4.0181   4.1977   4.4508   4.5167

          k = 0.0000 0.0000 0.7453 (173448 PWs)   bands (ev):

   -25.6369 -25.6352 -24.6477 -24.6398 -23.1305 -23.0835 -22.7357 -22.6903
   -20.4598 -20.4546 -18.5103 -18.5096 -18.0021 -18.0006 -16.3565 -16.3509
   -16.2338 -16.2275 -15.5304 -15.5286 -15.1800 -15.1723 -14.2586 -14.2425
   -13.9147 -13.9099 -13.3358 -13.3328 -12.6563 -12.6472 -12.5134 -12.4931
   -11.9217 -11.9114 -11.3293 -11.2925 -10.8676 -10.8042 -10.4909 -10.4751
   -10.4203 -10.4010  -9.4622  -9.4473  -9.2544  -9.2315  -8.9829  -8.9578
    -8.8661  -8.8386  -8.5686  -8.5167  -8.3381  -8.2220  -8.1848  -8.1516
    -7.9983  -7.9312  -7.8553  -7.7840  -7.6069  -7.5752  -7.4160  -7.4031
    -7.2722  -7.2629  -7.1345  -7.1276  -6.9150  -6.8914  -6.7662  -6.7328
    -6.6323  -6.6002  -6.3891  -6.3499  -6.3264  -6.3028  -6.1803  -6.1302
    -5.9556  -5.9463  -5.6703  -5.6514  -5.6347  -5.6174  -5.5627  -5.5543
    -5.2988  -5.2866  -5.2177  -5.2074  -5.1230  -5.0990  -4.8664  -4.8501
    -4.7434  -4.7358  -4.6497  -4.6146  -4.5246  -4.5175  -4.2512  -4.2267
    -4.0826  -4.0664  -3.9324  -3.9124  -3.6384  -3.6056  -3.3963  -3.3813
     0.1753   0.2097   1.5455   1.5593   2.1841   2.3248   2.7098   2.8490
     2.9212   3.0950   3.1124   3.2017   3.3491   3.4501   3.5471   3.5712
     3.7610   3.8355   3.8979   3.9161   3.9431   4.0360

          k =-0.5000 0.0000-0.0924 (173430 PWs)   bands (ev):

   -25.6379 -25.6362 -24.6479 -24.6399 -23.1309 -23.0835 -22.7357 -22.6899
   -20.4543 -20.4488 -18.5154 -18.5146 -18.0039 -18.0037 -16.3669 -16.3617
   -16.2176 -16.2091 -15.5200 -15.5192 -15.1658 -15.1588 -14.2422 -14.2280
   -13.9014 -13.8943 -13.3825 -13.3789 -12.6636 -12.6339 -12.5392 -12.5043
   -11.9260 -11.9093 -11.3011 -11.2747 -10.8463 -10.7974 -10.5353 -10.5231
   -10.4407 -10.4258  -9.5037  -9.5029  -9.2809  -9.2706  -8.9431  -8.8917
    -8.7860  -8.7341  -8.5285  -8.4744  -8.3011  -8.2987  -8.2469  -8.2361
    -8.0645  -8.0187  -7.8701  -7.8613  -7.5225  -7.5204  -7.4759  -7.4744
    -7.2249  -7.2172  -7.1055  -7.1003  -6.8543  -6.8256  -6.7474  -6.7367
    -6.6982  -6.6227  -6.4777  -6.4269  -6.3634  -6.3455  -6.1250  -6.0842
    -5.9643  -5.9553  -5.6938  -5.6844  -5.6425  -5.6356  -5.5287  -5.4997
    -5.3136  -5.3123  -5.2369  -5.2263  -5.1257  -5.0821  -4.8549  -4.8208
    -4.7352  -4.7352  -4.5896  -4.5516  -4.4225  -4.4157  -4.2425  -4.2120
    -4.0747  -4.0733  -3.9033  -3.8975  -3.6451  -3.6261  -3.3864  -3.3805
     0.1715   0.2089   1.4954   1.5063   1.9282   2.0460   2.4188   2.4365
     2.5301   2.8645   3.1815   3.3139   3.5251   3.5349   3.6962   3.7308
     3.8806   3.8914   3.9860   4.0904   4.1555   4.2565

          k =-0.5000 0.0000 0.6529 (173449 PWs)   bands (ev):

   -25.6369 -25.6352 -24.6477 -24.6398 -23.1305 -23.0835 -22.7357 -22.6903
   -20.4598 -20.4546 -18.5103 -18.5096 -18.0021 -18.0006 -16.3565 -16.3509
   -16.2338 -16.2275 -15.5304 -15.5286 -15.1800 -15.1723 -14.2586 -14.2425
   -13.9147 -13.9099 -13.3358 -13.3328 -12.6563 -12.6472 -12.5134 -12.4931
   -11.9217 -11.9114 -11.3293 -11.2925 -10.8676 -10.8042 -10.4909 -10.4751
   -10.4203 -10.4010  -9.4622  -9.4473  -9.2544  -9.2315  -8.9829  -8.9578
    -8.8661  -8.8386  -8.5686  -8.5167  -8.3381  -8.2220  -8.1848  -8.1516
    -7.9983  -7.9312  -7.8552  -7.7840  -7.6069  -7.5752  -7.4159  -7.4030
    -7.2722  -7.2629  -7.1345  -7.1276  -6.9149  -6.8914  -6.7662  -6.7328
    -6.6323  -6.6002  -6.3892  -6.3498  -6.3264  -6.3028  -6.1803  -6.1302
    -5.9556  -5.9463  -5.6704  -5.6514  -5.6347  -5.6174  -5.5627  -5.5542
    -5.2988  -5.2866  -5.2178  -5.2075  -5.1230  -5.0990  -4.8665  -4.8502
    -4.7434  -4.7359  -4.6497  -4.6146  -4.5246  -4.5175  -4.2512  -4.2266
    -4.0825  -4.0663  -3.9325  -3.9124  -3.6383  -3.6056  -3.3963  -3.3812
     0.1753   0.2097   1.5453   1.5596   2.2112   2.3205   2.7344   2.8035
     2.8227   3.0489   3.1289   3.2388   3.3332   3.5056   3.6243   3.6760
     3.7399   3.7563   3.9058   3.9596   4.0588   4.1181

     highest occupied, lowest unoccupied level (ev):    -3.3805    0.1715

!    total energy              =   -1021.75839488 Ry
     Harris-Foulkes estimate   =   -1021.75839488 Ry
     estimated scf accuracy    <          1.3E-09 Ry

     total all-electron energy =     -3843.150171 Ry

     The total energy is the sum of the following terms:

     one-electron contribution =   -2973.59566187 Ry
     hartree contribution      =    1543.55189836 Ry
     xc contribution           =    -229.81582555 Ry
     ewald contribution        =     933.15844517 Ry
     Dispersion Correction     =      -0.29751998 Ry
     one-center paw contrib.   =    -294.75973100 Ry

     convergence has been achieved in  23 iterations

     negative rho (up, down):  1.168E-04 0.000E+00

     Forces acting on atoms (cartesian axes, Ry/au):

     atom    1 type  1   force =    -0.00048799    0.00108614    0.00099788
     atom    2 type  1   force =     0.00048795    0.00107471   -0.00099765
     atom    3 type  1   force =    -0.00146356    0.00210297   -0.00227682
     atom    4 type  1   force =     0.00146279    0.00210910    0.00227629
     atom    5 type  1   force =     0.00060827   -0.00359470    0.00211475
     atom    6 type  1   force =    -0.00060776   -0.00359199   -0.00211496
     atom    7 type  1   force =     0.00141328    0.00016277   -0.00214548
     atom    8 type  1   force =    -0.00141279    0.00016377    0.00214555
     atom    9 type  1   force =    -0.00013919   -0.00147145    0.00054292
     atom   10 type  1   force =     0.00013921   -0.00146703   -0.00054258
     atom   11 type  1   force =     0.00040925    0.00033000   -0.00192410
     atom   12 type  1   force =    -0.00040873    0.00033653    0.00192368
     atom   13 type  1   force =     0.00077028   -0.00037556   -0.00023851
     atom   14 type  1   force =    -0.00077074   -0.00036222    0.00023884
     atom   15 type  1   force =     0.00081165   -0.00171440    0.00107688
     atom   16 type  1   force =    -0.00081154   -0.00171369   -0.00107726
     atom   17 type  1   force =    -0.00159824    0.00078451    0.00039217
     atom   18 type  1   force =     0.00159879    0.00080639   -0.00039190
     atom   19 type  1   force =     0.00187645   -0.00003042   -0.00164912
     atom   20 type  1   force =    -0.00187713   -0.00003341    0.00164894
     atom   21 type  1   force =     0.00096349    0.00041797    0.00023177
     atom   22 type  1   force =    -0.00096314    0.00042739   -0.00023109
     atom   23 type  1   force =     0.00007826   -0.00013733    0.00180435
     atom   24 type  1   force =    -0.00007866   -0.00014374   -0.00180411
     atom   25 type  1   force =    -0.00047852    0.00316706    0.00231377
     atom   26 type  1   force =     0.00047884    0.00316098   -0.00231449
     atom   27 type  1   force =    -0.00095362    0.00110004   -0.00064592
     atom   28 type  1   force =     0.00095383    0.00110115    0.00064578
     atom   29 type  1   force =    -0.00103982    0.00055522   -0.00070016
     atom   30 type  1   force =     0.00104010    0.00055815    0.00069984
     atom   31 type  4   force =    -0.00127418   -0.00031823    0.00014574
     atom   32 type  4   force =     0.00127303   -0.00031916   -0.00014384
     atom   33 type  4   force =    -0.00088350   -0.00206115   -0.00033208
     atom   34 type  4   force =     0.00088309   -0.00206204    0.00033064
     atom   35 type  4   force =     0.00026584   -0.00095652    0.00099732
     atom   36 type  4   force =    -0.00026617   -0.00095583   -0.00099800
     atom   37 type  4   force =    -0.00041629    0.00032011    0.00079996
     atom   38 type  4   force =     0.00041664    0.00032007   -0.00079977
     atom   39 type  4   force =     0.00094098   -0.00034503   -0.00018308
     atom   40 type  4   force =    -0.00094092   -0.00034493    0.00018205
     atom   41 type  3   force =    -0.00027374    0.00071383    0.00071925
     atom   42 type  3   force =     0.00027381    0.00071270   -0.00071905
     atom   43 type  3   force =     0.00017520    0.00095977    0.00406117
     atom   44 type  3   force =    -0.00017520    0.00095989   -0.00406111
     atom   45 type  3   force =    -0.00072290    0.00005827    0.00043259
     atom   46 type  3   force =     0.00072283    0.00005817   -0.00043250
     atom   47 type  3   force =     0.00096051    0.00025813   -0.00085282
     atom   48 type  3   force =    -0.00096040    0.00025817    0.00085269
     atom   49 type  3   force =    -0.00034115   -0.00107390    0.00100931
     atom   50 type  3   force =     0.00034100   -0.00107381   -0.00100932
     atom   51 type  3   force =    -0.00067569   -0.00119428   -0.00096685
     atom   52 type  3   force =     0.00067576   -0.00119421    0.00096705
     atom   53 type  3   force =     0.00069427   -0.00020066   -0.00122171
     atom   54 type  3   force =    -0.00069417   -0.00020067    0.00122174
     atom   55 type  3   force =    -0.00035643    0.00013365   -0.00000714
     atom   56 type  3   force =     0.00035628    0.00013383    0.00000739
     atom   57 type  3   force =     0.00119879    0.00019100    0.00042824
     atom   58 type  3   force =    -0.00119876    0.00019094   -0.00042818
     atom   59 type  3   force =     0.00015156    0.00007242    0.00020945
     atom   60 type  3   force =    -0.00015153    0.00007222   -0.00020938
     atom   61 type  3   force =     0.00068257    0.00076777    0.00032668
     atom   62 type  3   force =    -0.00068266    0.00076793   -0.00032670
     atom   63 type  3   force =    -0.00152983   -0.00021518   -0.00092669
     atom   64 type  3   force =     0.00152980   -0.00021540    0.00092676
     atom   65 type  3   force =    -0.00073820    0.00038522    0.00016052
     atom   66 type  3   force =     0.00073824    0.00038498   -0.00016035
     atom   67 type  3   force =    -0.00014197    0.00085684   -0.00016851
     atom   68 type  3   force =     0.00014195    0.00085697    0.00016868
     atom   69 type  3   force =    -0.00179701   -0.00020450   -0.00212227
     atom   70 type  3   force =     0.00179710   -0.00020469    0.00212239
     atom   71 type  3   force =     0.00118469    0.00025546   -0.00010760
     atom   72 type  3   force =    -0.00118460    0.00025567    0.00010754
     atom   73 type  3   force =    -0.00031820   -0.00072627    0.00084056
     atom   74 type  3   force =     0.00031835   -0.00072634   -0.00084052
     atom   75 type  3   force =    -0.00027669   -0.00002242    0.00038988
     atom   76 type  3   force =     0.00027678   -0.00002238   -0.00038982
     atom   77 type  3   force =     0.00031035    0.00033872   -0.00019751
     atom   78 type  3   force =    -0.00031034    0.00033883    0.00019765
     atom   79 type  3   force =    -0.00023474   -0.00037038   -0.00017491
     atom   80 type  3   force =     0.00023480   -0.00037007    0.00017501
     atom   81 type  3   force =    -0.00008896   -0.00016076    0.00072536
     atom   82 type  3   force =     0.00008893   -0.00016050   -0.00072526
     atom   83 type  3   force =     0.00013059    0.00013451   -0.00042772
     atom   84 type  3   force =    -0.00013048    0.00013433    0.00042780

     Total force =     0.016932     Total SCF correction =     0.000064


     Computing stress (Cartesian axis) and pressure


     negative rho (up, down):  1.168E-04 0.000E+00
          total   stress  (Ry/bohr**3)                   (kbar)     P=   -2.40
  -0.00000460   0.00000000  -0.00000132         -0.68      0.00     -0.19
   0.00000000  -0.00002641  -0.00000000          0.00     -3.88     -0.00
  -0.00000132  -0.00000000  -0.00001783         -0.19     -0.00     -2.62


     Writing output data file scf.save
 
     init_run     :     36.94s CPU     38.19s WALL (       1 calls)
     electrons    :   1251.38s CPU   1308.30s WALL (       1 calls)
     forces       :     20.80s CPU     21.07s WALL (       1 calls)
     stress       :     62.49s CPU     62.81s WALL (       1 calls)

     Called by init_run:
     wfcinit      :     21.40s CPU     22.43s WALL (       1 calls)
     potinit      :      5.47s CPU      5.52s WALL (       1 calls)

     Called by electrons:
     c_bands      :   1095.62s CPU   1142.75s WALL (      23 calls)
     sum_band     :    132.02s CPU    138.74s WALL (      23 calls)
     v_of_rho     :      4.86s CPU      5.33s WALL (      24 calls)
     newd         :     10.20s CPU     12.60s WALL (      24 calls)
     PAW_pot      :      7.92s CPU      7.92s WALL (      24 calls)
     mix_rho      :      1.18s CPU      1.28s WALL (      23 calls)

     Called by c_bands:
     init_us_2    :      6.88s CPU      6.91s WALL (     196 calls)
     cegterg      :   1070.84s CPU   1117.92s WALL (      92 calls)

     Called by sum_band:
     sum_band:bec :      0.03s CPU      0.03s WALL (      92 calls)
     addusdens    :     10.62s CPU     12.94s WALL (      23 calls)

     Called by *egterg:
     h_psi        :    662.37s CPU    700.12s WALL (     439 calls)
     s_psi        :    113.63s CPU    113.64s WALL (     439 calls)
     g_psi        :      3.26s CPU      3.27s WALL (     343 calls)
     cdiaghg      :     22.85s CPU     22.84s WALL (     435 calls)

     Called by h_psi:
     h_psi:pot    :    657.91s CPU    695.60s WALL (     439 calls)
     h_psi:calbec :    112.20s CPU    112.33s WALL (     439 calls)
     vloc_psi     :    432.09s CPU    469.64s WALL (     439 calls)
     add_vuspsi   :    113.62s CPU    113.63s WALL (     439 calls)

     General routines
     calbec       :    157.58s CPU    157.75s WALL (     551 calls)
     fft          :      2.93s CPU      3.73s WALL (     336 calls)
     fftw         :    460.77s CPU    502.46s WALL (   85074 calls)
 
     Parallel routines
     fft_scatter  :     67.73s CPU    109.75s WALL (   85410 calls)
 
     PWSCF        : 22m58.65s CPU    24m24.40s WALL

 
   This run was terminated on:  12:48:27  13Nov2017            

=------------------------------------------------------------------------------=
   JOB DONE.
=------------------------------------------------------------------------------=
