
     Program PWSCF v.6.1 (svn rev. 13369) starts on  4Nov2017 at  4:43:42 

     This program is part of the open-source Quantum ESPRESSO suite
     for quantum simulation of materials; please cite
         "P. Giannozzi et al., J. Phys.:Condens. Matter 21 395502 (2009);
          URL http://www.quantum-espresso.org", 
     in publications or presentations arising from this work. More details at
     http://www.quantum-espresso.org/quote

     Parallel version (MPI), running on     8 processors
     R & G space division:  proc/nbgrp/npool/nimage =       8
     Waiting for input...
     Reading input from standard input

     Current dimensions of program PWSCF are:
     Max number of different atomic species (ntypx) = 10
     Max number of k-points (npk) =  40000
     Max angular momentum in pseudopotentials (lmaxx) =  3
               file C.pbe-n-kjpaw_psl.0.1.UPF: wavefunction(s)  2P renormalized
               file N.pbe-n-kjpaw_psl.0.1.UPF: wavefunction(s)  2P renormalized
               file H.pbe-kjpaw_psl.0.1.UPF: wavefunction(s)  1S renormalized
               file O.pbe-n-kjpaw_psl.0.1.UPF: wavefunction(s)  2P renormalized

     -------------------------------------
     Parameters for Dispersion Correction:
     -------------------------------------
       atom      VdW radius       C_6     

        C          2.744         60.710
        N          2.640         42.670
        H          1.892          4.857
        O          2.536         24.284

     Subspace diagonalization in iterative solution of the eigenvalue problem:
     a serial algorithm will be used

 
     Parallelization info
     --------------------
     sticks:   dense  smooth     PW     G-vecs:    dense   smooth      PW
     Min        1004    1004    267               147163   147163   20387
     Max        1005    1005    268               147164   147164   20390
     Sum        8039    8039   2141              1177311  1177311  163113
 


     bravais-lattice index     =            0
     lattice parameter (alat)  =      26.1406  a.u.
     unit-cell volume          =    8714.4797 (a.u.)^3
     number of atoms/cell      =          124
     number of atomic types    =            4
     number of electrons       =       464.00
     number of Kohn-Sham states=          278
     kinetic-energy cutoff     =     100.0000  Ry
     charge density cutoff     =     400.0000  Ry
     convergence threshold     =      1.0E-08
     mixing beta               =       0.5000
     number of iterations used =            8  plain     mixing
     Exchange-correlation      =  SLA  PW   PBX  PBC ( 1  4  3  4 0 0)

     celldm(1)=  26.140582  celldm(2)=   0.000000  celldm(3)=   0.000000
     celldm(4)=   0.000000  celldm(5)=   0.000000  celldm(6)=   0.000000

     crystal axes: (cart. coord. in units of alat)
               a(1) = (   1.000000   0.000000   0.000000 )  
               a(2) = (   0.000000   0.368778   0.000000 )  
               a(3) = (  -0.398479   0.000000   1.322913 )  

     reciprocal axes: (cart. coord. in units 2 pi/alat)
               b(1) = (  1.000000  0.000000  0.301213 )  
               b(2) = (  0.000000  2.711662  0.000000 )  
               b(3) = (  0.000000  0.000000  0.755908 )  


     PseudoPot. # 1 for  C read from file:
     /scratch/ahofstet/pseudo/C.pbe-n-kjpaw_psl.0.1.UPF
     MD5 check sum: 430fe95172b1e11ef3f8ed03bac87931
     Pseudo is Projector augmented-wave + core cor, Zval =  4.0
     Generated using "atomic" code by A. Dal Corso  v.5.0.99 svn rev. 10869
     Shape of augmentation charge: BESSEL
     Using radial grid of 1073 points,  4 beta functions with: 
                l(1) =   0
                l(2) =   0
                l(3) =   1
                l(4) =   1
     Q(r) pseudized with 0 coefficients 


     PseudoPot. # 2 for  N read from file:
     /scratch/ahofstet/pseudo/N.pbe-n-kjpaw_psl.0.1.UPF
     MD5 check sum: f73187c8b701007e77325f868c9291d7
     Pseudo is Projector augmented-wave + core cor, Zval =  5.0
     Generated using "atomic" code by A. Dal Corso  v.5.0.99 svn rev. 10869
     Shape of augmentation charge: PSQ
     Using radial grid of 1085 points,  4 beta functions with: 
                l(1) =   0
                l(2) =   0
                l(3) =   1
                l(4) =   1
     Q(r) pseudized with 0 coefficients 


     PseudoPot. # 3 for  H read from file:
     /scratch/ahofstet/pseudo/H.pbe-kjpaw_psl.0.1.UPF
     MD5 check sum: 94e484f906d9e9773b2f6e52662335b2
     Pseudo is Projector augmented-wave, Zval =  1.0
     Generated using "atomic" code by A. Dal Corso  v.5.0.99 svn rev. 10869
     Shape of augmentation charge: PSQ
     Using radial grid of  929 points,  2 beta functions with: 
                l(1) =   0
                l(2) =   0
     Q(r) pseudized with 0 coefficients 


     PseudoPot. # 4 for  O read from file:
     /scratch/ahofstet/pseudo/O.pbe-n-kjpaw_psl.0.1.UPF
     MD5 check sum: 3f94a2996a3169367d6eb21d9b593f20
     Pseudo is Projector augmented-wave + core cor, Zval =  6.0
     Generated using "atomic" code by A. Dal Corso  v.5.0.99 svn rev. 10869
     Shape of augmentation charge: BESSEL
     Using radial grid of 1095 points,  4 beta functions with: 
                l(1) =   0
                l(2) =   0
                l(3) =   1
                l(4) =   1
     Q(r) pseudized with 0 coefficients 


     atomic species   valence    mass     pseudopotential
        C              4.00    12.01070      C( 1.00)
        N              5.00    14.00670      N( 1.00)
        H              1.00     1.00794      H( 1.00)
        O              6.00    15.99940      O( 1.00)

      4 Sym. Ops., with inversion, found ( 2 have fractional translation)



   Cartesian axes

     site n.     atom                  positions (alat units)
         1           O   tau(   1) = (   0.2141783   0.2373580   0.0404283  )
         2           O   tau(   2) = (   0.5865822   0.0529692   0.6210281  )
         3           O   tau(   3) = (   0.3873427   0.1314195   1.2824846  )
         4           O   tau(   4) = (   0.0149388   0.3158083   0.7018847  )
         5           O   tau(   5) = (   0.3165510   0.0194057   0.2445139  )
         6           O   tau(   6) = (   0.4842095   0.2037945   0.4169426  )
         7           O   tau(   7) = (   0.2849700   0.3493719   1.0783990  )
         8           O   tau(   8) = (   0.1173115   0.1649831   0.9059703  )
         9           O   tau(   9) = (   0.1606389   0.0098424   0.2146031  )
        10           O   tau(  10) = (   0.6401216   0.1942312   0.4468533  )
        11           O   tau(  11) = (   0.4408821   0.3589351   1.1083098  )
        12           O   tau(  12) = (  -0.0386005   0.1745464   0.8760595  )
        13           N   tau(  13) = (   0.1779435   0.1633025   0.0918630  )
        14           N   tau(  14) = (   0.6228170   0.3476912   0.5695935  )
        15           N   tau(  15) = (   0.4235775   0.2054751   1.2310499  )
        16           N   tau(  16) = (  -0.0212959   0.0210863   0.7533194  )
        17           N   tau(  17) = (   0.3136899   0.2509883   0.0568727  )
        18           N   tau(  18) = (   0.4870707   0.0665995   0.6045837  )
        19           N   tau(  19) = (   0.2878312   0.1177893   1.2660401  )
        20           N   tau(  20) = (   0.1144504   0.3021781   0.7183292  )
        21           N   tau(  21) = (   0.4281141   0.1640122   0.1531757  )
        22           N   tau(  22) = (   0.3726464   0.3484010   0.5082807  )
        23           N   tau(  23) = (   0.1734070   0.2047653   1.1697371  )
        24           N   tau(  24) = (   0.2288746   0.0203765   0.8146322  )
        25           N   tau(  25) = (   0.5040947   0.2928641   0.0680898  )
        26           N   tau(  26) = (   0.2966658   0.1084753   0.5933667  )
        27           N   tau(  27) = (   0.0974264   0.0759134   1.2548231  )
        28           N   tau(  28) = (   0.3048552   0.2603022   0.7295462  )
        29           N   tau(  29) = (   0.5960269   0.3216142   0.0614964  )
        30           N   tau(  30) = (   0.2047337   0.1372254   0.5999600  )
        31           N   tau(  31) = (   0.0054942   0.0471633   1.2614165  )
        32           N   tau(  32) = (   0.3967874   0.2315521   0.7229528  )
        33           N   tau(  33) = (   0.6590633   0.2724208   0.1134678  )
        34           N   tau(  34) = (   0.1416972   0.0880320   0.5479886  )
        35           N   tau(  35) = (  -0.0575423   0.0963568   1.2094450  )
        36           N   tau(  36) = (   0.4598239   0.2807456   0.7749242  )
        37           N   tau(  37) = (   0.5921233   0.0597313   0.2608279  )
        38           N   tau(  38) = (   0.2086372   0.2441201   0.4006286  )
        39           N   tau(  39) = (   0.0093978   0.3090463   1.0620850  )
        40           N   tau(  40) = (   0.3928838   0.1246575   0.9222843  )
        41           N   tau(  41) = (   0.6533470   0.0110643   0.3195444  )
        42           N   tau(  42) = (   0.1474135   0.1954531   0.3419120  )
        43           N   tau(  43) = (  -0.0518260   0.3577133   1.0033684  )
        44           N   tau(  44) = (   0.4541075   0.1733245   0.9810009  )
        45           N   tau(  45) = (   0.7392834   0.0499927   0.3161937  )
        46           N   tau(  46) = (   0.0614771   0.2343815   0.3452628  )
        47           N   tau(  47) = (  -0.1377623   0.3187849   1.0067192  )
        48           N   tau(  48) = (   0.5400439   0.1343961   0.9776501  )
        49           N   tau(  49) = (   0.7353240   0.1259461   0.2559497  )
        50           N   tau(  50) = (   0.0654366   0.3103349   0.4055067  )
        51           N   tau(  51) = (  -0.1338029   0.2428315   1.0669631  )
        52           N   tau(  52) = (   0.5360845   0.0584427   0.9174062  )
        53           N   tau(  53) = (   0.2406028   0.0464002   0.2045492  )
        54           N   tau(  54) = (   0.5601577   0.2307890   0.4569072  )
        55           N   tau(  55) = (   0.3609182   0.3223773   1.1183637  )
        56           N   tau(  56) = (   0.0413633   0.1379886   0.8660056  )
        57           C   tau(  57) = (   0.2514935   0.1280140   0.1405200  )
        58           C   tau(  58) = (   0.5492670   0.3124028   0.5209364  )
        59           C   tau(  59) = (   0.3500275   0.2407635   1.1823929  )
        60           C   tau(  60) = (   0.0522541   0.0563747   0.8019764  )
        61           C   tau(  61) = (   0.3377895   0.1819757   0.1194049  )
        62           C   tau(  62) = (   0.4629710  -0.0024131   0.5420516  )
        63           C   tau(  63) = (   0.2637315   0.1868018   1.2035080  )
        64           C   tau(  64) = (   0.1385501   0.3711906   0.7808613  )
        65           C   tau(  65) = (   0.5081945   0.2175142   0.1283317  )
        66           C   tau(  66) = (   0.2925661   0.0331254   0.5331247  )
        67           C   tau(  67) = (   0.0933266   0.1512634   1.1945811  )
        68           C   tau(  68) = (   0.3089550   0.3356521   0.7897882  )
        69           C   tau(  69) = (   0.6056956   0.2035977   0.1572461  )
        70           C   tau(  70) = (   0.1950649   0.0192090   0.5042103  )
        71           C   tau(  71) = (  -0.0041746   0.1651798   1.1656667  )
        72           C   tau(  72) = (   0.4064562   0.3495686   0.8187026  )
        73           C   tau(  73) = (   0.6439442   0.1319426   0.2223287  )
        74           C   tau(  74) = (   0.1568163   0.3163314   0.4391278  )
        75           C   tau(  75) = (  -0.0424232   0.2368350   1.1005842  )
        76           C   tau(  76) = (   0.4447048   0.0524462   0.8837851  )
        77           H   tau(  77) = (   0.6143044   0.0110920   0.0183776  )
        78           H   tau(  78) = (   0.1864561   0.1954808   0.6430789  )
        79           H   tau(  79) = (  -0.0127834   0.3576856   1.3045353  )
        80           H   tau(  80) = (   0.4150649   0.1732968   0.6798340  )
        81           H   tau(  81) = (   0.4366834   0.1075720   0.2003571  )
        82           H   tau(  82) = (   0.3640772   0.2919608   0.4610994  )
        83           H   tau(  83) = (   0.1648377   0.2612055   1.1225558  )
        84           H   tau(  84) = (   0.2374439   0.0768168   0.8618135  )
        85           H   tau(  85) = (   0.7974626   0.1725943   0.2475770  )
        86           H   tau(  86) = (   0.0032980   0.3569831   0.4138795  )
        87           H   tau(  87) = (  -0.1959415   0.1961833   1.0753359  )
        88           H   tau(  88) = (   0.5982231   0.0117945   0.9090334  )
        89           O   tau(  89) = (   0.8897437   0.2370320   0.2431303  )
        90           O   tau(  90) = (  -0.0889832   0.0526432   0.4183261  )
        91           O   tau(  91) = (  -0.2882227   0.1317456   1.0797826  )
        92           O   tau(  92) = (   0.6905043   0.3161343   0.9045867  )
        93           C   tau(  93) = (   0.9345926   0.2450173   0.1490827  )
        94           C   tau(  94) = (  -0.1338320   0.0606285   0.5123738  )
        95           C   tau(  95) = (  -0.3330715   0.1237603   1.1738302  )
        96           C   tau(  96) = (   0.7353531   0.3081491   0.8105391  )
        97           H   tau(  97) = (   0.9155310   0.1781215   0.1066017  )
        98           H   tau(  98) = (  -0.1147704  -0.0062673   0.5548548  )
        99           H   tau(  99) = (  -0.3140099   0.1906561   1.2163112  )
       100           H   tau( 100) = (   0.7162915   0.3750449   0.7680581  )
       101           H   tau( 101) = (   0.0134280   0.2441319   0.1586834  )
       102           H   tau( 102) = (   0.7873326   0.0597431   0.5027731  )
       103           H   tau( 103) = (   0.5880931   0.1246457   1.1642295  )
       104           H   tau( 104) = (  -0.1858115   0.3090344   0.8201398  )
       105           C   tau( 105) = (   0.9016607   0.3354645   0.0970809  )
       106           C   tau( 106) = (  -0.1009002   0.1510757   0.5643755  )
       107           C   tau( 107) = (  -0.3001397   0.0333131   1.2258320  )
       108           C   tau( 108) = (   0.7024212   0.2177019   0.7585373  )
       109           H   tau( 109) = (   0.8225823   0.3382692   0.0931905  )
       110           H   tau( 110) = (  -0.0218217   0.1538804   0.5682659  )
       111           H   tau( 111) = (  -0.2210612   0.0305084   1.2297224  )
       112           H   tau( 112) = (   0.6233428   0.2148971   0.7546469  )
       113           H   tau( 113) = (   0.9305548   0.3361479   0.0231344  )
       114           H   tau( 114) = (  -0.1297943   0.1517592   0.6383221  )
       115           H   tau( 115) = (  -0.3290337   0.0326296   1.2997785  )
       116           H   tau( 116) = (   0.7313153   0.2170184   0.6845908  )
       117           H   tau( 117) = (  -0.0721668   0.0339798   0.1340788  )
       118           H   tau( 118) = (   0.8729273   0.2183686   0.5273776  )
       119           H   tau( 119) = (   0.6736878   0.3347978   1.1888340  )
       120           H   tau( 120) = (  -0.2714063   0.1504090   0.7955353  )
       121           H   tau( 121) = (  -0.0573094   0.2207773   0.2887859  )
       122           H   tau( 122) = (   0.8580699   0.0363885   0.3726705  )
       123           H   tau( 123) = (   0.6588304   0.1480003   1.0341269  )
       124           H   tau( 124) = (  -0.2565489   0.3323891   0.9502424  )

     number of k points=     6
                       cart. coord. in units 2pi/alat
        k(    1) = (   0.0000000   0.0000000   0.0000000), wk =   0.2500000
        k(    2) = (   0.0000000   0.6779154   0.0000000), wk =   0.5000000
        k(    3) = (   0.0000000  -1.3558309   0.0000000), wk =   0.2500000
        k(    4) = (  -0.5000000   0.0000000  -0.1506067), wk =   0.2500000
        k(    5) = (  -0.5000000   0.6779154  -0.1506067), wk =   0.5000000
        k(    6) = (  -0.5000000  -1.3558309  -0.1506067), wk =   0.2500000

     Dense  grid:  1177311 G-vectors     FFT dimensions: ( 180,  64, 240)

     Estimated max dynamical RAM per process >    1518.71MB

     Estimated total allocated dynamical RAM >   12149.69MB

     Check: negative/imaginary core charge=   -0.000002    0.000000

     Initial potential from superposition of free atoms

     starting charge  463.99815, renormalised to  464.00000
     Starting wfc are  388 randomized atomic wfcs
     Checking if some PAW data can be deallocated... 

     total cpu time spent up to now is       87.3 secs

     per-process dynamical memory:   922.7 Mb

     Self-consistent Calculation

     iteration #  1     ecut=   100.00 Ry     beta=0.50
     Davidson diagonalization with overlap
     ethr =  1.00E-02,  avg # of iterations =  3.2

     total cpu time spent up to now is      351.8 secs

     total energy              =   -2463.20331593 Ry
     Harris-Foulkes estimate   =   -2468.78869384 Ry
     estimated scf accuracy    <      10.73263585 Ry

     iteration #  2     ecut=   100.00 Ry     beta=0.50
     Davidson diagonalization with overlap
     ethr =  2.31E-03,  avg # of iterations =  4.0

     total cpu time spent up to now is      529.2 secs

     total energy              =   -2464.61186867 Ry
     Harris-Foulkes estimate   =   -2465.59913384 Ry
     estimated scf accuracy    <       2.08727935 Ry

     iteration #  3     ecut=   100.00 Ry     beta=0.50
     Davidson diagonalization with overlap
     ethr =  4.50E-04,  avg # of iterations =  6.8

     total cpu time spent up to now is      742.2 secs

     total energy              =   -2465.00183848 Ry
     Harris-Foulkes estimate   =   -2465.31746596 Ry
     estimated scf accuracy    <       0.73515471 Ry

     iteration #  4     ecut=   100.00 Ry     beta=0.50
     Davidson diagonalization with overlap
     ethr =  1.58E-04,  avg # of iterations = 10.5

     total cpu time spent up to now is      938.5 secs

     total energy              =   -2465.09163760 Ry
     Harris-Foulkes estimate   =   -2465.24531073 Ry
     estimated scf accuracy    <       0.45203691 Ry

     iteration #  5     ecut=   100.00 Ry     beta=0.50
     Davidson diagonalization with overlap
     ethr =  9.74E-05,  avg # of iterations =  6.7

     total cpu time spent up to now is     1101.0 secs

     total energy              =   -2465.16851488 Ry
     Harris-Foulkes estimate   =   -2465.19094582 Ry
     estimated scf accuracy    <       0.07003988 Ry

     iteration #  6     ecut=   100.00 Ry     beta=0.50
     Davidson diagonalization with overlap
     c_bands:  1 eigenvalues not converged
     ethr =  1.51E-05,  avg # of iterations = 13.7

     total cpu time spent up to now is     1329.5 secs

     total energy              =   -2465.18383107 Ry
     Harris-Foulkes estimate   =   -2465.18737192 Ry
     estimated scf accuracy    <       0.00913781 Ry

     iteration #  7     ecut=   100.00 Ry     beta=0.50
     Davidson diagonalization with overlap
     ethr =  1.97E-06,  avg # of iterations =  6.8

     total cpu time spent up to now is     1560.8 secs

     total energy              =   -2465.18654126 Ry
     Harris-Foulkes estimate   =   -2465.18716845 Ry
     estimated scf accuracy    <       0.00170309 Ry

     iteration #  8     ecut=   100.00 Ry     beta=0.50
     Davidson diagonalization with overlap
     ethr =  3.67E-07,  avg # of iterations =  3.0

     total cpu time spent up to now is     1720.8 secs

     total energy              =   -2465.18686867 Ry
     Harris-Foulkes estimate   =   -2465.18692947 Ry
     estimated scf accuracy    <       0.00024295 Ry

     iteration #  9     ecut=   100.00 Ry     beta=0.50
     Davidson diagonalization with overlap
     ethr =  5.24E-08,  avg # of iterations =  3.3

     total cpu time spent up to now is     1926.6 secs

     total energy              =   -2465.18693394 Ry
     Harris-Foulkes estimate   =   -2465.18694616 Ry
     estimated scf accuracy    <       0.00004090 Ry

     iteration # 10     ecut=   100.00 Ry     beta=0.50
     Davidson diagonalization with overlap
     ethr =  8.82E-09,  avg # of iterations =  3.5

     total cpu time spent up to now is     2088.1 secs

     total energy              =   -2465.18694135 Ry
     Harris-Foulkes estimate   =   -2465.18694331 Ry
     estimated scf accuracy    <       0.00000678 Ry

     iteration # 11     ecut=   100.00 Ry     beta=0.50
     Davidson diagonalization with overlap
     ethr =  1.46E-09,  avg # of iterations =  4.0

     total cpu time spent up to now is     2320.0 secs

     total energy              =   -2465.18694370 Ry
     Harris-Foulkes estimate   =   -2465.18694504 Ry
     estimated scf accuracy    <       0.00000324 Ry

     iteration # 12     ecut=   100.00 Ry     beta=0.50
     Davidson diagonalization with overlap
     ethr =  6.98E-10,  avg # of iterations =  3.2

     total cpu time spent up to now is     2463.5 secs

     total energy              =   -2465.18694392 Ry
     Harris-Foulkes estimate   =   -2465.18694411 Ry
     estimated scf accuracy    <       0.00000045 Ry

     iteration # 13     ecut=   100.00 Ry     beta=0.50
     Davidson diagonalization with overlap
     ethr =  9.62E-11,  avg # of iterations =  4.0

     total cpu time spent up to now is     2721.2 secs

     total energy              =   -2465.18694427 Ry
     Harris-Foulkes estimate   =   -2465.18694443 Ry
     estimated scf accuracy    <       0.00000047 Ry

     iteration # 14     ecut=   100.00 Ry     beta=0.50
     Davidson diagonalization with overlap
     ethr =  9.62E-11,  avg # of iterations =  1.8

     total cpu time spent up to now is     2855.0 secs

     total energy              =   -2465.18694423 Ry
     Harris-Foulkes estimate   =   -2465.18694430 Ry
     estimated scf accuracy    <       0.00000017 Ry

     iteration # 15     ecut=   100.00 Ry     beta=0.50
     Davidson diagonalization with overlap
     ethr =  3.62E-11,  avg # of iterations =  4.0

     total cpu time spent up to now is     3054.2 secs

     End of self-consistent calculation

          k = 0.0000 0.0000 0.0000 (147215 PWs)   bands (ev):

   -24.5345 -24.5345 -24.5342 -24.5341 -23.7401 -23.7401 -23.7398 -23.7398
   -21.5470 -21.5444 -21.5406 -21.5376 -21.3423 -21.3415 -21.2645 -21.2640
   -20.0963 -20.0959 -20.0943 -20.0940 -18.4716 -18.4705 -18.4482 -18.4478
   -18.4285 -18.4271 -18.3674 -18.3673 -16.5838 -16.5836 -16.5763 -16.5759
   -16.4101 -16.4096 -16.3842 -16.3839 -15.9942 -15.9916 -15.8888 -15.8866
   -15.6779 -15.6632 -15.6445 -15.6298 -15.0201 -15.0184 -15.0170 -15.0151
   -13.7461 -13.7419 -13.7389 -13.7347 -12.4903 -12.4902 -12.4878 -12.4874
   -11.2349 -11.2209 -11.1694 -11.1564 -10.7431 -10.7365 -10.7225 -10.7148
   -10.5413 -10.5397 -10.5060 -10.5043  -9.5443  -9.5231  -9.5023  -9.4791
    -9.3973  -9.3971  -9.3665  -9.3649  -8.7597  -8.7409  -8.6937  -8.6494
    -8.3768  -8.3575  -8.3524  -8.3515  -7.7674  -7.6905  -7.6617  -7.5705
    -7.5701  -7.5402  -7.5313  -7.4877  -7.2664  -7.2606  -7.2570  -7.2558
    -7.0425  -7.0151  -6.9661  -6.9155  -6.9052  -6.8972  -6.8966  -6.8411
    -6.7498  -6.7065  -6.6838  -6.6530  -6.1743  -6.1525  -6.1470  -6.0983
    -6.0782  -6.0620  -6.0282  -6.0244  -5.8924  -5.8628  -5.7221  -5.6874
    -5.6433  -5.5279  -5.4223  -5.3840  -5.3399  -5.3334  -5.2067  -5.2038
    -5.0550  -5.0529  -5.0435  -5.0391  -5.0112  -4.9991  -4.9936  -4.9820
    -4.4344  -4.4306  -4.4113  -4.4018  -3.7378  -3.7289  -3.7253  -3.7013
    -3.6541  -3.6348  -3.3853  -3.3841  -2.8484  -2.8293  -2.8156  -2.7847
    -2.7355  -2.6562  -2.6155  -2.5249  -2.3968  -2.3128  -2.2780  -2.2669
    -2.2302  -2.1748  -2.1332  -1.9334  -1.8929  -1.8386  -1.8352  -1.8293
    -1.8042  -1.7928  -1.7871  -1.7675  -1.6423  -1.6336  -1.6314  -1.5753
    -1.5696  -1.5310  -1.4594  -1.4431  -1.4013  -1.3853  -1.3530  -1.3497
    -1.2984  -1.2775  -1.2610  -1.2484  -1.2282  -1.1687  -1.1504  -1.0479
    -1.0115  -1.0101  -0.9451  -0.8910  -0.8479  -0.8407  -0.7717  -0.7406
    -0.7234  -0.6537  -0.5974  -0.5370  -0.4467  -0.4445  -0.4307  -0.3980
    -0.3943  -0.3812  -0.3642  -0.2933  -0.2239  -0.1559  -0.1277  -0.1217
    -0.0890  -0.0882   0.0263   0.0540   0.0659   0.0660   0.1564   0.1839
     0.3724   0.3927   0.5905   0.6199   0.8454   0.9169   1.1689   1.2133
     2.8826   2.8859   2.9007   2.9054   4.2282   4.2871   4.3847   4.4533
     4.8467   4.8797   4.8954   4.9027   5.6142   5.6704   5.6721   5.6942
     5.8542   5.8918   6.0573   6.0597   6.6805   6.6909   6.7381   6.7445
     7.1533   7.3168   7.3380   7.3461   7.4066   7.4388   7.6918   7.7816
     7.8822   7.9797   8.1273   8.2758   8.3129   8.3753   8.3966   8.5264
     8.5286   8.5913   8.6842   8.6859   8.7723   8.7750

          k = 0.0000 0.6779 0.0000 (147171 PWs)   bands (ev):

   -24.5281 -24.5281 -24.5278 -24.5278 -23.7460 -23.7460 -23.7458 -23.7458
   -21.5334 -21.5313 -21.5302 -21.5280 -21.3399 -21.3395 -21.2764 -21.2763
   -20.0943 -20.0941 -20.0929 -20.0926 -18.4702 -18.4696 -18.4536 -18.4535
   -18.4185 -18.4178 -18.3754 -18.3752 -16.5901 -16.5899 -16.5843 -16.5836
   -16.4156 -16.4140 -16.3991 -16.3959 -15.9786 -15.9756 -15.8994 -15.8971
   -15.6896 -15.6799 -15.6509 -15.6401 -15.0390 -15.0374 -15.0290 -15.0262
   -13.7667 -13.7632 -13.7275 -13.7247 -12.4772 -12.4766 -12.4752 -12.4749
   -11.1965 -11.1870 -11.1390 -11.1302 -10.7519 -10.7482 -10.6874 -10.6832
   -10.5336 -10.5310 -10.5005 -10.4985  -9.5475  -9.5333  -9.4909  -9.4772
    -9.3964  -9.3908  -9.3704  -9.3697  -8.7440  -8.7271  -8.6733  -8.6444
    -8.3863  -8.3809  -8.3475  -8.3390  -7.8237  -7.7515  -7.7335  -7.6734
    -7.6006  -7.5668  -7.5387  -7.5004  -7.2618  -7.2597  -7.2538  -7.2469
    -7.0925  -7.0824  -7.0668  -7.0638  -7.0050  -6.9641  -6.9545  -6.8586
    -6.7450  -6.7015  -6.7014  -6.6704  -6.1388  -6.1286  -6.1188  -6.0991
    -6.0307  -6.0071  -5.8666  -5.8548  -5.8460  -5.8442  -5.6791  -5.6575
    -5.6212  -5.5738  -5.5020  -5.4698  -5.4643  -5.4354  -5.4350  -5.4094
    -5.0326  -5.0320  -5.0224  -5.0016  -4.9487  -4.9372  -4.8315  -4.8246
    -4.4397  -4.4392  -4.4082  -4.4037  -3.8934  -3.8777  -3.8554  -3.8545
    -3.6647  -3.6621  -3.3787  -3.3693  -2.8574  -2.8286  -2.7603  -2.7332
    -2.6576  -2.5961  -2.5445  -2.4737  -2.3936  -2.3502  -2.2648  -2.2589
    -2.1698  -2.1216  -2.0768  -1.8997  -1.8080  -1.7661  -1.7417  -1.7070
    -1.6706  -1.6511  -1.6197  -1.6135  -1.5744  -1.5713  -1.5497  -1.5078
    -1.4763  -1.4293  -1.4144  -1.4006  -1.3806  -1.3441  -1.3307  -1.3065
    -1.2658  -1.2612  -1.2279  -1.2099  -1.1790  -1.1528  -1.1336  -1.0378
    -1.0171  -1.0079  -0.9341  -0.8895  -0.8173  -0.7965  -0.7752  -0.7663
    -0.7291  -0.6669  -0.6412  -0.5556  -0.4844  -0.4423  -0.4355  -0.4152
    -0.3833  -0.3445  -0.3431  -0.2783  -0.2100  -0.1596  -0.1590  -0.1381
    -0.0292  -0.0107   0.0559   0.0677   0.0730   0.0799   0.1755   0.2017
     0.5039   0.5211   0.6509   0.6682   0.9011   0.9417   1.1509   1.1787
     2.8422   2.8485   2.8547   2.8624   4.2854   4.3249   4.4225   4.4685
     4.7384   4.7413   4.7894   4.8210   5.5853   5.6367   5.6644   5.6792
     5.8417   5.8721   6.0291   6.0365   6.6171   6.6181   6.6947   6.7037
     7.2497   7.2498   7.2912   7.3306   7.4349   7.6609   7.8050   7.8994
     7.9401   8.0305   8.1180   8.1724   8.2908   8.3275   8.4186   8.4205
     8.4915   8.5691   8.6175   8.6382   8.7575   8.8774

          k = 0.0000-1.3558 0.0000 (147118 PWs)   bands (ev):

   -24.5215 -24.5215 -24.5215 -24.5215 -23.7520 -23.7520 -23.7518 -23.7518
   -21.5186 -21.5186 -21.5183 -21.5183 -21.3344 -21.3344 -21.2927 -21.2927
   -20.0919 -20.0919 -20.0918 -20.0918 -18.4659 -18.4659 -18.4620 -18.4620
   -18.3960 -18.3960 -18.3957 -18.3957 -16.5969 -16.5969 -16.5912 -16.5912
   -16.4174 -16.4174 -16.4135 -16.4135 -15.9552 -15.9552 -15.9148 -15.9148
   -15.6977 -15.6977 -15.6545 -15.6545 -15.0560 -15.0560 -15.0401 -15.0401
   -13.7774 -13.7774 -13.7238 -13.7238 -12.4635 -12.4635 -12.4627 -12.4627
   -11.1530 -11.1530 -11.1061 -11.1061 -10.7541 -10.7541 -10.6620 -10.6620
   -10.5206 -10.5206 -10.4957 -10.4957  -9.5501  -9.5501  -9.4762  -9.4762
    -9.3833  -9.3833  -9.3790  -9.3790  -8.7180  -8.7180  -8.6440  -8.6440
    -8.3923  -8.3923  -8.3423  -8.3423  -7.8752  -7.8752  -7.8045  -7.8045
    -7.5790  -7.5790  -7.5245  -7.5245  -7.2468  -7.2468  -7.2454  -7.2454
    -7.2013  -7.2013  -7.1839  -7.1839  -6.9881  -6.9881  -6.9141  -6.9141
    -6.7234  -6.7234  -6.6892  -6.6892  -6.1281  -6.1281  -6.1147  -6.1147
    -6.0111  -6.0111  -5.8570  -5.8570  -5.7234  -5.7234  -5.6253  -5.6253
    -5.6132  -5.6132  -5.5465  -5.5465  -5.5100  -5.5100  -5.4607  -5.4607
    -5.0316  -5.0316  -5.0070  -5.0070  -4.9326  -4.9326  -4.7420  -4.7420
    -4.4245  -4.4245  -4.4157  -4.4157  -3.9933  -3.9933  -3.9586  -3.9586
    -3.6682  -3.6682  -3.3604  -3.3604  -2.8439  -2.8439  -2.7967  -2.7967
    -2.5965  -2.5965  -2.4963  -2.4963  -2.3357  -2.3357  -2.2405  -2.2405
    -2.1073  -2.1073  -1.9863  -1.9863  -1.7250  -1.7250  -1.6791  -1.6791
    -1.6086  -1.6086  -1.5612  -1.5612  -1.4644  -1.4644  -1.4258  -1.4258
    -1.3659  -1.3659  -1.3248  -1.3248  -1.2712  -1.2712  -1.2404  -1.2404
    -1.1859  -1.1859  -1.1747  -1.1747  -1.1291  -1.1291  -1.0322  -1.0322
    -1.0159  -1.0159  -0.8857  -0.8857  -0.7925  -0.7925  -0.7514  -0.7514
    -0.7062  -0.7062  -0.6024  -0.6024  -0.4635  -0.4635  -0.4331  -0.4331
    -0.3399  -0.3399  -0.2852  -0.2852  -0.2225  -0.2225  -0.1519  -0.1519
     0.0318   0.0318   0.0675   0.0675   0.1206   0.1206   0.1738   0.1738
     0.7059   0.7059   0.7183   0.7183   0.9864   0.9864   1.1100   1.1100
     2.8059   2.8059   2.8098   2.8098   4.3610   4.3610   4.4709   4.4709
     4.5877   4.5877   4.6992   4.6992   5.6063   5.6063   5.6202   5.6202
     5.8256   5.8256   6.0324   6.0324   6.5471   6.5471   6.6510   6.6510
     7.2228   7.2228   7.2633   7.2633   7.9120   7.9120   7.9775   7.9775
     8.0276   8.0276   8.1094   8.1094   8.2935   8.2935   8.4419   8.4419
     8.4593   8.4593   8.5002   8.5002   8.6112   8.6112

          k =-0.5000 0.0000-0.1506 (147230 PWs)   bands (ev):

   -24.5345 -24.5345 -24.5342 -24.5341 -23.7401 -23.7401 -23.7398 -23.7398
   -21.5474 -21.5440 -21.5408 -21.5374 -21.3419 -21.3419 -21.2642 -21.2642
   -20.0963 -20.0959 -20.0943 -20.0940 -18.4718 -18.4702 -18.4491 -18.4464
   -18.4288 -18.4275 -18.3675 -18.3673 -16.5839 -16.5834 -16.5763 -16.5761
   -16.4077 -16.4076 -16.3867 -16.3858 -15.9939 -15.9918 -15.8891 -15.8863
   -15.6761 -15.6651 -15.6430 -15.6315 -15.0252 -15.0234 -15.0117 -15.0098
   -13.7447 -13.7435 -13.7375 -13.7363 -12.4905 -12.4901 -12.4880 -12.4872
   -11.2344 -11.2221 -11.1700 -11.1554 -10.7403 -10.7391 -10.7190 -10.7178
   -10.5429 -10.5379 -10.5084 -10.5023  -9.5393  -9.5300  -9.4971  -9.4876
    -9.3856  -9.3848  -9.3772  -9.3750  -8.7561  -8.7413  -8.6835  -8.6551
    -8.3706  -8.3613  -8.3592  -8.3520  -7.7484  -7.7135  -7.7110  -7.6313
    -7.5576  -7.5038  -7.4790  -7.4691  -7.2723  -7.2667  -7.2508  -7.2447
    -7.0397  -6.9762  -6.9746  -6.9551  -6.9056  -6.9002  -6.8869  -6.8227
    -6.7476  -6.7099  -6.6944  -6.6628  -6.1636  -6.1483  -6.1432  -6.1065
    -6.1033  -6.0843  -6.0301  -6.0279  -5.8899  -5.8473  -5.6895  -5.6770
    -5.6010  -5.5899  -5.4427  -5.4229  -5.3197  -5.3115  -5.2115  -5.2068
    -5.0538  -5.0503  -5.0440  -5.0402  -5.0116  -4.9959  -4.9928  -4.9714
    -4.4317  -4.4278  -4.4151  -4.4053  -3.7573  -3.7476  -3.7063  -3.6885
    -3.6583  -3.6189  -3.3876  -3.3875  -2.8432  -2.8386  -2.8053  -2.7927
    -2.7476  -2.6468  -2.6051  -2.4700  -2.4329  -2.3724  -2.2823  -2.2663
    -2.2156  -2.1896  -2.0894  -1.9382  -1.8936  -1.8856  -1.8729  -1.8695
    -1.8274  -1.7911  -1.7536  -1.7036  -1.6536  -1.6077  -1.6068  -1.5706
    -1.5171  -1.5104  -1.4972  -1.3907  -1.3832  -1.3613  -1.3469  -1.3174
    -1.2899  -1.2870  -1.2772  -1.2412  -1.2277  -1.1988  -1.1420  -1.0488
    -1.0103  -0.9697  -0.9470  -0.9422  -0.8531  -0.8369  -0.8187  -0.7692
    -0.7175  -0.6962  -0.6861  -0.6609  -0.4416  -0.4376  -0.4295  -0.4125
    -0.3610  -0.3499  -0.3086  -0.2553  -0.1806  -0.1681  -0.1548  -0.1269
    -0.0953  -0.0327   0.0416   0.0452   0.0640   0.0665   0.1533   0.1923
     0.3581   0.4032   0.5851   0.6262   0.8524   0.9083   1.1700   1.2112
     2.8821   2.8868   2.9001   2.9059   4.2215   4.2832   4.3788   4.4494
     4.8614   4.8800   4.8955   4.9042   5.6268   5.6695   5.6761   5.6930
     5.8608   5.8861   6.0575   6.0588   6.7067   6.7174   6.7196   6.7202
     7.2463   7.3030   7.3333   7.3477   7.4012   7.4024   7.5648   7.8048
     7.9416   7.9685   8.0104   8.3017   8.3100   8.3847   8.4075   8.4603
     8.6124   8.6290   8.6685   8.7083   8.7543   8.7905

          k =-0.5000 0.6779-0.1506 (147178 PWs)   bands (ev):

   -24.5281 -24.5281 -24.5278 -24.5278 -23.7460 -23.7460 -23.7458 -23.7458
   -21.5336 -21.5311 -21.5303 -21.5279 -21.3397 -21.3397 -21.2763 -21.2763
   -20.0943 -20.0941 -20.0929 -20.0926 -18.4705 -18.4692 -18.4541 -18.4525
   -18.4187 -18.4180 -18.3755 -18.3753 -16.5902 -16.5898 -16.5842 -16.5836
   -16.4151 -16.4122 -16.3996 -16.3979 -15.9780 -15.9763 -15.8988 -15.8977
   -15.6888 -15.6806 -15.6494 -15.6415 -15.0431 -15.0333 -15.0322 -15.0230
   -13.7654 -13.7645 -13.7265 -13.7258 -12.4772 -12.4765 -12.4753 -12.4747
   -11.1958 -11.1876 -11.1398 -11.1298 -10.7500 -10.7498 -10.6853 -10.6850
   -10.5339 -10.5302 -10.5020 -10.4971  -9.5440  -9.5395  -9.4861  -9.4826
    -9.3874  -9.3848  -9.3784  -9.3761  -8.7381  -8.7316  -8.6662  -8.6495
    -8.3881  -8.3837  -8.3460  -8.3401  -7.7903  -7.7675  -7.7281  -7.7203
    -7.5910  -7.5612  -7.5380  -7.4822  -7.2698  -7.2573  -7.2528  -7.2418
    -7.0916  -7.0834  -7.0684  -7.0637  -7.0071  -6.9561  -6.9485  -6.8815
    -6.7411  -6.7016  -6.7016  -6.6672  -6.1385  -6.1245  -6.1234  -6.1012
    -6.0281  -6.0048  -5.8679  -5.8516  -5.8488  -5.8421  -5.6786  -5.6495
    -5.6126  -5.5669  -5.5047  -5.4832  -5.4717  -5.4520  -5.4311  -5.4261
    -5.0331  -5.0206  -5.0134  -5.0012  -4.9440  -4.9400  -4.8296  -4.8266
    -4.4411  -4.4358  -4.4066  -4.4060  -3.9078  -3.8991  -3.8496  -3.8398
    -3.6607  -3.6491  -3.3781  -3.3748  -2.8488  -2.8306  -2.7648  -2.7250
    -2.6540  -2.5706  -2.5222  -2.5130  -2.4120  -2.3230  -2.2784  -2.2532
    -2.2330  -2.0978  -2.0664  -1.9586  -1.7799  -1.7742  -1.7362  -1.7277
    -1.6684  -1.6385  -1.6035  -1.5763  -1.5675  -1.5394  -1.5174  -1.5005
    -1.4564  -1.4367  -1.4079  -1.4007  -1.3818  -1.3771  -1.3498  -1.3043
    -1.2866  -1.2253  -1.2178  -1.1905  -1.1667  -1.1649  -1.0995  -1.0505
    -1.0291  -0.9765  -0.9390  -0.8914  -0.8767  -0.8233  -0.7928  -0.7740
    -0.7448  -0.7229  -0.6789  -0.6420  -0.4480  -0.4347  -0.4341  -0.4183
    -0.3585  -0.3497  -0.3219  -0.2286  -0.2137  -0.1638  -0.1305  -0.1209
    -0.0414   0.0109   0.0609   0.0634   0.0705   0.0814   0.1766   0.2011
     0.5004   0.5263   0.6480   0.6719   0.9026   0.9361   1.1527   1.1773
     2.8439   2.8456   2.8575   2.8608   4.2817   4.3229   4.4188   4.4657
     4.7366   4.7467   4.7971   4.8191   5.5941   5.6305   5.6668   5.6765
     5.8480   5.8708   6.0285   6.0364   6.6253   6.6255   6.6955   6.7029
     7.2389   7.2430   7.2948   7.3299   7.5402   7.6516   7.6897   7.8285
     7.9590   8.0772   8.1033   8.1736   8.2619   8.2774   8.3535   8.4568
     8.5190   8.5728   8.6460   8.7251   8.7708   8.8642

          k =-0.5000-1.3558-0.1506 (147120 PWs)   bands (ev):

   -24.5215 -24.5215 -24.5215 -24.5215 -23.7520 -23.7520 -23.7519 -23.7519
   -21.5186 -21.5186 -21.5183 -21.5183 -21.3344 -21.3344 -21.2927 -21.2927
   -20.0919 -20.0919 -20.0918 -20.0918 -18.4659 -18.4659 -18.4618 -18.4618
   -18.3961 -18.3961 -18.3958 -18.3958 -16.5968 -16.5968 -16.5910 -16.5910
   -16.4175 -16.4175 -16.4136 -16.4136 -15.9553 -15.9553 -15.9149 -15.9149
   -15.6975 -15.6975 -15.6543 -15.6543 -15.0560 -15.0560 -15.0401 -15.0401
   -13.7774 -13.7774 -13.7238 -13.7238 -12.4634 -12.4634 -12.4629 -12.4629
   -11.1527 -11.1527 -11.1066 -11.1066 -10.7540 -10.7540 -10.6620 -10.6620
   -10.5199 -10.5199 -10.4958 -10.4958  -9.5509  -9.5509  -9.4769  -9.4769
    -9.3827  -9.3827  -9.3796  -9.3796  -8.7169  -8.7169  -8.6444  -8.6444
    -8.3971  -8.3971  -8.3412  -8.3412  -7.8556  -7.8556  -7.8123  -7.8123
    -7.5806  -7.5806  -7.5234  -7.5234  -7.2522  -7.2522  -7.2459  -7.2459
    -7.2042  -7.2042  -7.1805  -7.1805  -6.9973  -6.9973  -6.9196  -6.9196
    -6.7168  -6.7168  -6.6840  -6.6840  -6.1208  -6.1208  -6.1089  -6.1089
    -6.0097  -6.0097  -5.8592  -5.8592  -5.7243  -5.7243  -5.6349  -5.6349
    -5.6113  -5.6113  -5.5412  -5.5412  -5.5069  -5.5069  -5.4832  -5.4832
    -5.0262  -5.0262  -5.0035  -5.0035  -4.9291  -4.9291  -4.7431  -4.7431
    -4.4496  -4.4496  -4.3906  -4.3906  -4.0111  -4.0111  -3.9500  -3.9500
    -3.6575  -3.6575  -3.3624  -3.3624  -2.8274  -2.8274  -2.8058  -2.8058
    -2.5868  -2.5868  -2.4888  -2.4888  -2.3362  -2.3362  -2.2308  -2.2308
    -2.1654  -2.1654  -1.9937  -1.9937  -1.6933  -1.6933  -1.6703  -1.6703
    -1.6138  -1.6138  -1.5297  -1.5297  -1.4484  -1.4484  -1.4048  -1.4048
    -1.3750  -1.3750  -1.3459  -1.3459  -1.3190  -1.3190  -1.2465  -1.2465
    -1.1797  -1.1797  -1.1320  -1.1320  -1.1212  -1.1212  -1.0442  -1.0442
    -1.0042  -1.0042  -0.8998  -0.8998  -0.8078  -0.8078  -0.7947  -0.7947
    -0.7061  -0.7061  -0.6385  -0.6385  -0.4487  -0.4487  -0.4282  -0.4282
    -0.3346  -0.3346  -0.2974  -0.2974  -0.1925  -0.1925  -0.1226  -0.1226
     0.0268   0.0268   0.0655   0.0655   0.1223   0.1223   0.1722   0.1722
     0.7131   0.7131   0.7166   0.7166   0.9819   0.9819   1.1098   1.1098
     2.8050   2.8050   2.8108   2.8108   4.3599   4.3599   4.4702   4.4702
     4.5872   4.5872   4.7015   4.7015   5.6067   5.6067   5.6197   5.6197
     5.8255   5.8255   6.0311   6.0311   6.5554   6.5554   6.6492   6.6492
     7.2178   7.2178   7.2762   7.2762   7.9332   7.9332   7.9653   7.9653
     7.9722   7.9722   8.1017   8.1017   8.3213   8.3213   8.3998   8.3998
     8.4836   8.4836   8.5751   8.5751   8.5912   8.5913

     highest occupied, lowest unoccupied level (ev):     1.2133    2.8050

!    total energy              =   -2465.18694429 Ry
     Harris-Foulkes estimate   =   -2465.18694429 Ry
     estimated scf accuracy    <          6.3E-09 Ry

     total all-electron energy =     -9401.279156 Ry

     The total energy is the sum of the following terms:

     one-electron contribution =   -1532.22689694 Ry
     hartree contribution      =     947.08166468 Ry
     xc contribution           =    -496.93636307 Ry
     ewald contribution        =    -679.56836200 Ry
     Dispersion Correction     =      -0.55665597 Ry
     one-center paw contrib.   =    -702.98033097 Ry

     convergence has been achieved in  15 iterations

     Forces acting on atoms (cartesian axes, Ry/au):

     atom    1 type  4   force =    -0.00068399   -0.00017157    0.00340596
     atom    2 type  4   force =     0.00068399   -0.00017157   -0.00340596
     atom    3 type  4   force =     0.00068399    0.00017157   -0.00340596
     atom    4 type  4   force =    -0.00068399    0.00017157    0.00340596
     atom    5 type  4   force =     0.00007040    0.00087706    0.00199236
     atom    6 type  4   force =    -0.00007040    0.00087706   -0.00199236
     atom    7 type  4   force =    -0.00007040   -0.00087706   -0.00199236
     atom    8 type  4   force =     0.00007040   -0.00087706    0.00199236
     atom    9 type  4   force =     0.00093522    0.00019247   -0.00454529
     atom   10 type  4   force =    -0.00093522    0.00019247    0.00454529
     atom   11 type  4   force =    -0.00093522   -0.00019247    0.00454529
     atom   12 type  4   force =     0.00093522   -0.00019247   -0.00454529
     atom   13 type  2   force =     0.00437224   -0.00447321    0.00282692
     atom   14 type  2   force =    -0.00437224   -0.00447321   -0.00282692
     atom   15 type  2   force =    -0.00437224    0.00447321   -0.00282692
     atom   16 type  2   force =     0.00437224    0.00447321    0.00282692
     atom   17 type  2   force =    -0.00167689    0.00186899   -0.00179026
     atom   18 type  2   force =     0.00167689    0.00186899    0.00179026
     atom   19 type  2   force =     0.00167689   -0.00186899    0.00179026
     atom   20 type  2   force =    -0.00167689   -0.00186899   -0.00179026
     atom   21 type  2   force =    -0.00804445    0.00462424    0.00242999
     atom   22 type  2   force =     0.00804445    0.00462424   -0.00242999
     atom   23 type  2   force =     0.00804445   -0.00462424   -0.00242999
     atom   24 type  2   force =    -0.00804445   -0.00462424    0.00242999
     atom   25 type  2   force =     0.00475792   -0.00118521   -0.00168954
     atom   26 type  2   force =    -0.00475792   -0.00118521    0.00168954
     atom   27 type  2   force =    -0.00475792    0.00118521    0.00168954
     atom   28 type  2   force =     0.00475792    0.00118521   -0.00168954
     atom   29 type  2   force =     0.00004346   -0.00490252    0.00868113
     atom   30 type  2   force =    -0.00004346   -0.00490252   -0.00868113
     atom   31 type  2   force =    -0.00004346    0.00490252   -0.00868113
     atom   32 type  2   force =     0.00004346    0.00490252    0.00868113
     atom   33 type  2   force =     0.00167640   -0.00561738   -0.00344417
     atom   34 type  2   force =    -0.00167640   -0.00561738    0.00344417
     atom   35 type  2   force =    -0.00167640    0.00561738    0.00344417
     atom   36 type  2   force =     0.00167640    0.00561738   -0.00344417
     atom   37 type  2   force =     0.00003534    0.00441007    0.00271299
     atom   38 type  2   force =    -0.00003534    0.00441007   -0.00271299
     atom   39 type  2   force =    -0.00003534   -0.00441007   -0.00271299
     atom   40 type  2   force =     0.00003534   -0.00441007    0.00271299
     atom   41 type  2   force =     0.00016064    0.00216132   -0.01076161
     atom   42 type  2   force =    -0.00016064    0.00216132    0.01076161
     atom   43 type  2   force =    -0.00016064   -0.00216132    0.01076161
     atom   44 type  2   force =     0.00016064   -0.00216132   -0.01076161
     atom   45 type  2   force =    -0.00199322   -0.00005185   -0.00010779
     atom   46 type  2   force =     0.00199322   -0.00005185    0.00010779
     atom   47 type  2   force =     0.00199322    0.00005185    0.00010779
     atom   48 type  2   force =    -0.00199322    0.00005185   -0.00010779
     atom   49 type  2   force =    -0.00642869   -0.00075295   -0.00107736
     atom   50 type  2   force =     0.00642869   -0.00075295    0.00107736
     atom   51 type  2   force =     0.00642869    0.00075295    0.00107736
     atom   52 type  2   force =    -0.00642869    0.00075295   -0.00107736
     atom   53 type  2   force =     0.00211284    0.00099110    0.00028118
     atom   54 type  2   force =    -0.00211284    0.00099110   -0.00028118
     atom   55 type  2   force =    -0.00211284   -0.00099110   -0.00028118
     atom   56 type  2   force =     0.00211284   -0.00099110    0.00028118
     atom   57 type  1   force =    -0.00606393    0.00508401   -0.00269315
     atom   58 type  1   force =     0.00606393    0.00508401    0.00269315
     atom   59 type  1   force =     0.00606393   -0.00508401    0.00269315
     atom   60 type  1   force =    -0.00606393   -0.00508401   -0.00269315
     atom   61 type  1   force =     0.00266426   -0.00721296   -0.00032011
     atom   62 type  1   force =    -0.00266426   -0.00721296    0.00032011
     atom   63 type  1   force =    -0.00266426    0.00721296    0.00032011
     atom   64 type  1   force =     0.00266426    0.00721296   -0.00032011
     atom   65 type  1   force =     0.00984862   -0.00047014   -0.00013595
     atom   66 type  1   force =    -0.00984862   -0.00047014    0.00013595
     atom   67 type  1   force =    -0.00984862    0.00047014    0.00013595
     atom   68 type  1   force =     0.00984862    0.00047014   -0.00013595
     atom   69 type  1   force =    -0.00419930    0.00604388   -0.00112145
     atom   70 type  1   force =     0.00419930    0.00604388    0.00112145
     atom   71 type  1   force =     0.00419930   -0.00604388    0.00112145
     atom   72 type  1   force =    -0.00419930   -0.00604388   -0.00112145
     atom   73 type  1   force =     0.00268567    0.00010807    0.00286779
     atom   74 type  1   force =    -0.00268567    0.00010807   -0.00286779
     atom   75 type  1   force =    -0.00268567   -0.00010807   -0.00286779
     atom   76 type  1   force =     0.00268567   -0.00010807    0.00286779
     atom   77 type  3   force =    -0.00084444    0.00007240    0.00103330
     atom   78 type  3   force =     0.00084444    0.00007240   -0.00103330
     atom   79 type  3   force =     0.00084444   -0.00007240   -0.00103330
     atom   80 type  3   force =    -0.00084444   -0.00007240    0.00103330
     atom   81 type  3   force =    -0.00012697    0.00059509    0.00068637
     atom   82 type  3   force =     0.00012697    0.00059509   -0.00068637
     atom   83 type  3   force =     0.00012697   -0.00059509   -0.00068637
     atom   84 type  3   force =    -0.00012697   -0.00059509    0.00068637
     atom   85 type  3   force =     0.00069590   -0.00054942    0.00057419
     atom   86 type  3   force =    -0.00069590   -0.00054942   -0.00057419
     atom   87 type  3   force =    -0.00069590    0.00054942   -0.00057419
     atom   88 type  3   force =     0.00069590    0.00054942    0.00057419
     atom   89 type  4   force =     0.00107314    0.00033506    0.00245871
     atom   90 type  4   force =    -0.00107314    0.00033506   -0.00245871
     atom   91 type  4   force =    -0.00107314   -0.00033506   -0.00245871
     atom   92 type  4   force =     0.00107314   -0.00033506    0.00245871
     atom   93 type  1   force =    -0.00468621   -0.02414777   -0.01714233
     atom   94 type  1   force =     0.00468621   -0.02414777    0.01714233
     atom   95 type  1   force =     0.00468621    0.02414777    0.01714233
     atom   96 type  1   force =    -0.00468621    0.02414777   -0.01714233
     atom   97 type  3   force =     0.00465650    0.02619892    0.00945459
     atom   98 type  3   force =    -0.00465650    0.02619892   -0.00945459
     atom   99 type  3   force =    -0.00465650   -0.02619892   -0.00945459
     atom  100 type  3   force =     0.00465650   -0.02619892    0.00945459
     atom  101 type  3   force =     0.00103454    0.00113807    0.00019886
     atom  102 type  3   force =    -0.00103454    0.00113807   -0.00019886
     atom  103 type  3   force =    -0.00103454   -0.00113807   -0.00019886
     atom  104 type  3   force =     0.00103454   -0.00113807    0.00019886
     atom  105 type  1   force =     0.00865535    0.02387266    0.01038093
     atom  106 type  1   force =    -0.00865535    0.02387266   -0.01038093
     atom  107 type  1   force =    -0.00865535   -0.02387266   -0.01038093
     atom  108 type  1   force =     0.00865535   -0.02387266    0.01038093
     atom  109 type  3   force =    -0.00065758   -0.00090742    0.00017929
     atom  110 type  3   force =     0.00065758   -0.00090742   -0.00017929
     atom  111 type  3   force =     0.00065758    0.00090742   -0.00017929
     atom  112 type  3   force =    -0.00065758    0.00090742    0.00017929
     atom  113 type  3   force =    -0.00045159   -0.00147399   -0.00069585
     atom  114 type  3   force =     0.00045159   -0.00147399    0.00069585
     atom  115 type  3   force =     0.00045159    0.00147399    0.00069585
     atom  116 type  3   force =    -0.00045159    0.00147399   -0.00069585
     atom  117 type  3   force =    -0.00645147   -0.02559388   -0.00763489
     atom  118 type  3   force =     0.00645147   -0.02559388    0.00763489
     atom  119 type  3   force =     0.00645147    0.02559388    0.00763489
     atom  120 type  3   force =    -0.00645147    0.02559388   -0.00763489
     atom  121 type  3   force =    -0.00007008    0.00047864   -0.00015604
     atom  122 type  3   force =     0.00007008    0.00047864    0.00015604
     atom  123 type  3   force =     0.00007008   -0.00047864    0.00015604
     atom  124 type  3   force =    -0.00007008   -0.00047864   -0.00015604

     Total force =     0.127726     Total SCF correction =     0.000164


     Computing stress (Cartesian axis) and pressure

          total   stress  (Ry/bohr**3)                   (kbar)     P=   -6.59
  -0.00003420   0.00000000  -0.00000920         -5.03      0.00     -1.35
   0.00000000  -0.00007301   0.00000000          0.00    -10.74      0.00
  -0.00000920   0.00000000  -0.00002727         -1.35      0.00     -4.01


     Writing output data file scf.save
 
     init_run     :     83.49s CPU     86.58s WALL (       1 calls)
     electrons    :   2863.96s CPU   2967.11s WALL (       1 calls)
     forces       :     45.71s CPU     46.07s WALL (       1 calls)
     stress       :    211.83s CPU    212.74s WALL (       1 calls)

     Called by init_run:
     wfcinit      :     69.51s CPU     72.29s WALL (       1 calls)
     potinit      :      4.97s CPU      5.08s WALL (       1 calls)

     Called by electrons:
     c_bands      :   2609.06s CPU   2696.02s WALL (      15 calls)
     sum_band     :    236.60s CPU    250.69s WALL (      15 calls)
     v_of_rho     :      2.71s CPU      3.00s WALL (      16 calls)
     newd         :      7.30s CPU      9.04s WALL (      16 calls)
     PAW_pot      :      7.84s CPU      7.86s WALL (      16 calls)
     mix_rho      :      0.58s CPU      0.65s WALL (      15 calls)

     Called by c_bands:
     init_us_2    :     10.27s CPU     10.36s WALL (     198 calls)
     cegterg      :   2566.30s CPU   2653.14s WALL (      90 calls)

     Called by sum_band:
     sum_band:bec :      0.14s CPU      0.14s WALL (      90 calls)
     addusdens    :      7.41s CPU      9.10s WALL (      15 calls)

     Called by *egterg:
     h_psi        :   1236.66s CPU   1305.61s WALL (     567 calls)
     s_psi        :    354.63s CPU    354.94s WALL (     567 calls)
     g_psi        :      5.12s CPU      5.13s WALL (     471 calls)
     cdiaghg      :    195.47s CPU    195.63s WALL (     561 calls)

     Called by h_psi:
     h_psi:pot    :   1229.43s CPU   1298.25s WALL (     567 calls)
     h_psi:calbec :    340.30s CPU    341.02s WALL (     567 calls)
     vloc_psi     :    534.37s CPU    602.17s WALL (     567 calls)
     add_vuspsi   :    354.77s CPU    355.06s WALL (     567 calls)

     General routines
     calbec       :    498.64s CPU    499.67s WALL (     687 calls)
     fft          :      1.59s CPU      2.13s WALL (     232 calls)
     fftw         :    560.79s CPU    640.36s WALL (  164506 calls)
 
     Parallel routines
     fft_scatter  :    116.87s CPU    193.58s WALL (  164738 calls)
 
     PWSCF        : 53m41.82s CPU    56m13.44s WALL

 
   This run was terminated on:   5:39:56   4Nov2017            

=------------------------------------------------------------------------------=
   JOB DONE.
=------------------------------------------------------------------------------=
