
     Program PWSCF v.6.1 (svn rev. 13369) starts on 21Dec2017 at  4:55:55 

     This program is part of the open-source Quantum ESPRESSO suite
     for quantum simulation of materials; please cite
         "P. Giannozzi et al., J. Phys.:Condens. Matter 21 395502 (2009);
          URL http://www.quantum-espresso.org", 
     in publications or presentations arising from this work. More details at
     http://www.quantum-espresso.org/quote

     Parallel version (MPI), running on     8 processors
     R & G space division:  proc/nbgrp/npool/nimage =       8
     Waiting for input...
     Reading input from standard input

     Current dimensions of program PWSCF are:
     Max number of different atomic species (ntypx) = 10
     Max number of k-points (npk) =  40000
     Max angular momentum in pseudopotentials (lmaxx) =  3
               file C.pbe-n-kjpaw_psl.0.1.UPF: wavefunction(s)  2P renormalized
               file N.pbe-n-kjpaw_psl.0.1.UPF: wavefunction(s)  2P renormalized
               file H.pbe-kjpaw_psl.0.1.UPF: wavefunction(s)  1S renormalized
               file O.pbe-n-kjpaw_psl.0.1.UPF: wavefunction(s)  2P renormalized

     -------------------------------------
     Parameters for Dispersion Correction:
     -------------------------------------
       atom      VdW radius       C_6     

        C          2.744         60.710
        N          2.640         42.670
        H          1.892          4.857
        O          2.536         24.284

     Subspace diagonalization in iterative solution of the eigenvalue problem:
     a serial algorithm will be used

 
     Parallelization info
     --------------------
     sticks:   dense  smooth     PW     G-vecs:    dense   smooth      PW
     Min         480     480    129                99165    99165   13788
     Max         481     481    130                99174    99174   13793
     Sum        3847    3847   1037               793353   793353  110331
 


     bravais-lattice index     =            0
     lattice parameter (alat)  =       9.7196  a.u.
     unit-cell volume          =    5873.4760 (a.u.)^3
     number of atoms/cell      =           92
     number of atomic types    =            4
     number of electrons       =       288.00
     number of Kohn-Sham states=          172
     kinetic-energy cutoff     =     100.0000  Ry
     charge density cutoff     =     400.0000  Ry
     convergence threshold     =      1.0E-08
     mixing beta               =       0.5000
     number of iterations used =            8  plain     mixing
     Exchange-correlation      =  SLA  PW   PBX  PBC ( 1  4  3  4 0 0)

     celldm(1)=   9.719617  celldm(2)=   0.000000  celldm(3)=   0.000000
     celldm(4)=   0.000000  celldm(5)=   0.000000  celldm(6)=   0.000000

     crystal axes: (cart. coord. in units of alat)
               a(1) = (   1.000000   0.000000   0.000000 )  
               a(2) = (   0.000000   1.280962   0.000000 )  
               a(3) = (  -0.369071   0.000000   4.993573 )  

     reciprocal axes: (cart. coord. in units 2 pi/alat)
               b(1) = (  1.000000  0.000000  0.073909 )  
               b(2) = (  0.000000  0.780663  0.000000 )  
               b(3) = (  0.000000  0.000000  0.200257 )  


     PseudoPot. # 1 for  C read from file:
     /scratch/ahofstet/pseudo/C.pbe-n-kjpaw_psl.0.1.UPF
     MD5 check sum: 430fe95172b1e11ef3f8ed03bac87931
     Pseudo is Projector augmented-wave + core cor, Zval =  4.0
     Generated using "atomic" code by A. Dal Corso  v.5.0.99 svn rev. 10869
     Shape of augmentation charge: BESSEL
     Using radial grid of 1073 points,  4 beta functions with: 
                l(1) =   0
                l(2) =   0
                l(3) =   1
                l(4) =   1
     Q(r) pseudized with 0 coefficients 


     PseudoPot. # 2 for  N read from file:
     /scratch/ahofstet/pseudo/N.pbe-n-kjpaw_psl.0.1.UPF
     MD5 check sum: f73187c8b701007e77325f868c9291d7
     Pseudo is Projector augmented-wave + core cor, Zval =  5.0
     Generated using "atomic" code by A. Dal Corso  v.5.0.99 svn rev. 10869
     Shape of augmentation charge: PSQ
     Using radial grid of 1085 points,  4 beta functions with: 
                l(1) =   0
                l(2) =   0
                l(3) =   1
                l(4) =   1
     Q(r) pseudized with 0 coefficients 


     PseudoPot. # 3 for  H read from file:
     /scratch/ahofstet/pseudo/H.pbe-kjpaw_psl.0.1.UPF
     MD5 check sum: 94e484f906d9e9773b2f6e52662335b2
     Pseudo is Projector augmented-wave, Zval =  1.0
     Generated using "atomic" code by A. Dal Corso  v.5.0.99 svn rev. 10869
     Shape of augmentation charge: PSQ
     Using radial grid of  929 points,  2 beta functions with: 
                l(1) =   0
                l(2) =   0
     Q(r) pseudized with 0 coefficients 


     PseudoPot. # 4 for  O read from file:
     /scratch/ahofstet/pseudo/O.pbe-n-kjpaw_psl.0.1.UPF
     MD5 check sum: 3f94a2996a3169367d6eb21d9b593f20
     Pseudo is Projector augmented-wave + core cor, Zval =  6.0
     Generated using "atomic" code by A. Dal Corso  v.5.0.99 svn rev. 10869
     Shape of augmentation charge: BESSEL
     Using radial grid of 1095 points,  4 beta functions with: 
                l(1) =   0
                l(2) =   0
                l(3) =   1
                l(4) =   1
     Q(r) pseudized with 0 coefficients 


     atomic species   valence    mass     pseudopotential
        C              4.00    12.01070      C( 1.00)
        N              5.00    14.00670      N( 1.00)
        H              1.00     1.00794      H( 1.00)
        O              6.00    15.99940      O( 1.00)

      4 Sym. Ops., with inversion, found ( 2 have fractional translation)



   Cartesian axes

     site n.     atom                  positions (alat units)
         1           O   tau(   1) = (   0.0780776   0.3811425   0.0985457  )
         2           O   tau(   2) = (   0.7373869   1.0216235   2.3982410  )
         3           O   tau(   3) = (   0.5528514   0.8998195   4.8950277  )
         4           O   tau(   4) = (  -0.1064579   0.2593385   2.5953324  )
         5           N   tau(   5) = (   0.2720906   0.1784274   0.8279278  )
         6           N   tau(   6) = (   0.5433739   0.8189084   1.6688589  )
         7           N   tau(   7) = (   0.3588384   1.1025346   4.1656456  )
         8           N   tau(   8) = (   0.0875550   0.4620536   3.3247145  )
         9           N   tau(   9) = (   0.1392821   0.0704982   0.6407887  )
        10           N   tau(  10) = (   0.6761823   0.7109792   1.8559980  )
        11           N   tau(  11) = (   0.4916468   1.2104638   4.3527847  )
        12           N   tau(  12) = (  -0.0452534   0.5699828   3.1375754  )
        13           N   tau(  13) = (   0.9266954   0.2156147   0.5850885  )
        14           N   tau(  14) = (  -0.1112310   0.8560957   1.9116982  )
        15           N   tau(  15) = (  -0.2957665   1.0653473   4.4084849  )
        16           N   tau(  16) = (   0.7421599   0.4248663   3.0818752  )
        17           N   tau(  17) = (   0.3188564   0.2573281   4.9094818  )
        18           N   tau(  18) = (   0.1275370   0.8978091   2.5808783  )
        19           N   tau(  19) = (   0.3120726   1.0236339   0.0840916  )
        20           N   tau(  20) = (   0.5033919   0.3831529   2.4126951  )
        21           H   tau(  21) = (   0.4977314   0.2245045  -0.0349741  )
        22           H   tau(  22) = (   0.3177331   0.8649855   2.5317608  )
        23           H   tau(  23) = (   0.1331975   1.0564575   5.0285475  )
        24           H   tau(  24) = (   0.3131959   0.4159765   2.4618126  )
        25           N   tau(  25) = (   0.3503708   0.3967998   4.6756533  )
        26           N   tau(  26) = (   0.0960226   1.0372808   2.8147068  )
        27           N   tau(  27) = (   0.2805582   0.8841622   0.3179201  )
        28           N   tau(  28) = (   0.5349063   0.2436812   2.1788666  )
        29           C   tau(  29) = (   0.1494012   0.4084734   0.8920873  )
        30           C   tau(  30) = (   0.6660633   1.0489544   1.6046993  )
        31           C   tau(  31) = (   0.4815278   0.8724886   4.1014860  )
        32           C   tau(  32) = (  -0.0351344   0.2320076   3.3888740  )
        33           C   tau(  33) = (   0.2189446   0.6007321   1.0745799  )
        34           C   tau(  34) = (   0.5965198   1.2412131   1.4222068  )
        35           C   tau(  35) = (   0.4119843   0.6802299   3.9189935  )
        36           C   tau(  36) = (   0.0344091   0.0397489   3.5713666  )
        37           H   tau(  37) = (   0.3853341   0.5758144   1.2028123  )
        38           H   tau(  38) = (   0.4301303   1.2162954   1.2939744  )
        39           H   tau(  39) = (   0.2455948   0.7051476   3.7907611  )
        40           H   tau(  40) = (   0.2007986   0.0646666   3.6995990  )
        41           C   tau(  41) = (   0.0496787   0.8110721   1.0978763  )
        42           C   tau(  42) = (   0.7657858   0.1705911   1.3989103  )
        43           C   tau(  43) = (   0.5812503   0.4698899   3.8956970  )
        44           C   tau(  44) = (  -0.1348569   1.1103709   3.5946630  )
        45           H   tau(  45) = (   0.0874272   0.9605002   1.2431288  )
        46           H   tau(  46) = (   0.7280373   0.3200192   1.2536579  )
        47           H   tau(  47) = (   0.5435018   0.3204618   3.7504446  )
        48           H   tau(  48) = (  -0.0971083   0.9609428   3.7399155  )
        49           C   tau(  49) = (   0.8229631   0.8319605   0.9452739  )
        50           C   tau(  50) = (  -0.0074986   0.1914795   1.5515128  )
        51           C   tau(  51) = (  -0.1920341   0.4490015   4.0482995  )
        52           C   tau(  52) = (   0.6384276   1.0894826   3.4420606  )
        53           H   tau(  53) = (   0.6950333   0.9982239   0.9743141  )
        54           H   tau(  54) = (   0.1204312   0.3577429   1.5224726  )
        55           H   tau(  55) = (  -0.0641043   0.2827381   4.0192593  )
        56           H   tau(  56) = (   0.5104978   0.9232191   3.4711008  )
        57           C   tau(  57) = (   0.7533447   0.6472669   0.7597795  )
        58           C   tau(  58) = (   0.0621198   0.0067859   1.7370072  )
        59           C   tau(  59) = (  -0.1224158   0.6336951   4.2337939  )
        60           C   tau(  60) = (   0.5688092   1.2741761   3.2565662  )
        61           H   tau(  61) = (   0.5841058   0.6730479   0.6342189  )
        62           H   tau(  62) = (   0.2313586   0.0325669   1.8625678  )
        63           H   tau(  63) = (   0.0468231   0.6079141   4.3593545  )
        64           H   tau(  64) = (   0.3995703   1.2483951   3.1310056  )
        65           C   tau(  65) = (  -0.0754786   0.4350852   0.7372629  )
        66           C   tau(  66) = (   0.8909431   1.0755662   1.7595238  )
        67           C   tau(  67) = (   0.7064076   0.8458768   4.2563105  )
        68           C   tau(  68) = (  -0.2600142   0.2053958   3.2340496  )
        69           C   tau(  69) = (   0.7677919   0.1444822   0.3650047  )
        70           C   tau(  70) = (   0.0476725   0.7849632   2.1317820  )
        71           C   tau(  71) = (  -0.1368630   1.1364798   4.6285687  )
        72           C   tau(  72) = (   0.5832564   0.4959988   2.8617914  )
        73           H   tau(  73) = (   0.5628330   0.1916150   0.4050371  )
        74           H   tau(  74) = (   0.2526315   0.8320960   2.0917496  )
        75           H   tau(  75) = (   0.0680960   1.0893470   4.5885363  )
        76           H   tau(  76) = (   0.3782974   0.4488660   2.9018238  )
        77           H   tau(  77) = (   0.7812485   1.2131985   0.3422512  )
        78           H   tau(  78) = (   0.0342160   0.5727174   2.1545355  )
        79           H   tau(  79) = (  -0.1503195   0.0677636   4.6513222  )
        80           H   tau(  80) = (   0.5967129   0.7082446   2.8390379  )
        81           C   tau(  81) = (   0.8626286   0.2755527   0.1137259  )
        82           C   tau(  82) = (  -0.0471642   0.9160337   2.3830608  )
        83           C   tau(  83) = (  -0.2316997   1.0054093   4.8798475  )
        84           C   tau(  84) = (   0.6780931   0.3649283   2.6105126  )
        85           H   tau(  85) = (   0.4298368   0.2724941   4.5404455  )
        86           H   tau(  86) = (   0.0165566   0.9129751   2.9499146  )
        87           H   tau(  87) = (   0.2010922   1.0084679   0.4531279  )
        88           H   tau(  88) = (   0.6143723   0.3679869   2.0436588  )
        89           H   tau(  89) = (   0.4731338   0.5499414   4.7119656  )
        90           H   tau(  90) = (  -0.0267404   1.1904225   2.7783945  )
        91           H   tau(  91) = (   0.1577951   0.7310206   0.2816078  )
        92           H   tau(  92) = (   0.6576693   0.0905396   2.2151789  )

     number of k points=     6
                       cart. coord. in units 2pi/alat
        k(    1) = (   0.0000000   0.0000000   0.0000000), wk =   0.1666667
        k(    2) = (   0.0000000   0.2602211   0.0000000), wk =   0.3333333
        k(    3) = (   0.2500000   0.0000000   0.0184773), wk =   0.3333333
        k(    4) = (   0.2500000   0.2602211   0.0184773), wk =   0.6666667
        k(    5) = (  -0.5000000   0.0000000  -0.0369546), wk =   0.1666667
        k(    6) = (  -0.5000000   0.2602211  -0.0369546), wk =   0.3333333

     Dense  grid:   793353 G-vectors     FFT dimensions: (  64,  80, 320)

     Estimated max dynamical RAM per process >     660.59MB

     Estimated total allocated dynamical RAM >    5284.68MB

     Check: negative/imaginary core charge=   -0.000002    0.000000

     Initial potential from superposition of free atoms

     starting charge  287.99817, renormalised to  288.00000
     Starting wfc are  260 randomized atomic wfcs
     Checking if some PAW data can be deallocated... 

     total cpu time spent up to now is       35.0 secs

     per-process dynamical memory:   434.8 Mb

     Self-consistent Calculation

     iteration #  1     ecut=   100.00 Ry     beta=0.50
     Davidson diagonalization with overlap
     ethr =  1.00E-02,  avg # of iterations =  4.0

     total cpu time spent up to now is      122.7 secs

     total energy              =   -1361.94887067 Ry
     Harris-Foulkes estimate   =   -1366.62579942 Ry
     estimated scf accuracy    <       9.01529218 Ry

     iteration #  2     ecut=   100.00 Ry     beta=0.50
     Davidson diagonalization with overlap
     ethr =  3.13E-03,  avg # of iterations =  3.2

     total cpu time spent up to now is      171.0 secs

     total energy              =   -1362.49606893 Ry
     Harris-Foulkes estimate   =   -1363.29335683 Ry
     estimated scf accuracy    <       1.61190888 Ry

     iteration #  3     ecut=   100.00 Ry     beta=0.50
     Davidson diagonalization with overlap
     ethr =  5.60E-04,  avg # of iterations =  7.7

     total cpu time spent up to now is      269.1 secs

     total energy              =   -1363.36023543 Ry
     Harris-Foulkes estimate   =   -1363.72245279 Ry
     estimated scf accuracy    <       0.91049847 Ry

     iteration #  4     ecut=   100.00 Ry     beta=0.50
     Davidson diagonalization with overlap
     ethr =  3.16E-04,  avg # of iterations =  2.0

     total cpu time spent up to now is      313.3 secs

     total energy              =   -1363.36949286 Ry
     Harris-Foulkes estimate   =   -1363.45964007 Ry
     estimated scf accuracy    <       0.17748835 Ry

     iteration #  5     ecut=   100.00 Ry     beta=0.50
     Davidson diagonalization with overlap
     ethr =  6.16E-05,  avg # of iterations =  7.2

     total cpu time spent up to now is      407.1 secs

     total energy              =   -1363.47557445 Ry
     Harris-Foulkes estimate   =   -1363.50016047 Ry
     estimated scf accuracy    <       0.07816772 Ry

     iteration #  6     ecut=   100.00 Ry     beta=0.50
     Davidson diagonalization with overlap
     ethr =  2.71E-05,  avg # of iterations =  1.3

     total cpu time spent up to now is      449.4 secs

     total energy              =   -1363.46800700 Ry
     Harris-Foulkes estimate   =   -1363.48013428 Ry
     estimated scf accuracy    <       0.02762584 Ry

     iteration #  7     ecut=   100.00 Ry     beta=0.50
     Davidson diagonalization with overlap
     ethr =  9.59E-06,  avg # of iterations =  5.5

     total cpu time spent up to now is      521.5 secs

     total energy              =   -1363.47729935 Ry
     Harris-Foulkes estimate   =   -1363.47780806 Ry
     estimated scf accuracy    <       0.00166361 Ry

     iteration #  8     ecut=   100.00 Ry     beta=0.50
     Davidson diagonalization with overlap
     ethr =  5.78E-07,  avg # of iterations =  6.2

     total cpu time spent up to now is      586.7 secs

     total energy              =   -1363.47751269 Ry
     Harris-Foulkes estimate   =   -1363.47775358 Ry
     estimated scf accuracy    <       0.00060744 Ry

     iteration #  9     ecut=   100.00 Ry     beta=0.50
     Davidson diagonalization with overlap
     ethr =  2.11E-07,  avg # of iterations =  3.8

     total cpu time spent up to now is      639.9 secs

     total energy              =   -1363.47759121 Ry
     Harris-Foulkes estimate   =   -1363.47764746 Ry
     estimated scf accuracy    <       0.00014274 Ry

     iteration # 10     ecut=   100.00 Ry     beta=0.50
     Davidson diagonalization with overlap
     ethr =  4.96E-08,  avg # of iterations =  4.0

     total cpu time spent up to now is      705.6 secs

     total energy              =   -1363.47764243 Ry
     Harris-Foulkes estimate   =   -1363.47765257 Ry
     estimated scf accuracy    <       0.00002152 Ry

     iteration # 11     ecut=   100.00 Ry     beta=0.50
     Davidson diagonalization with overlap
     ethr =  7.47E-09,  avg # of iterations =  3.7

     total cpu time spent up to now is      764.2 secs

     total energy              =   -1363.47764864 Ry
     Harris-Foulkes estimate   =   -1363.47764911 Ry
     estimated scf accuracy    <       0.00000188 Ry

     iteration # 12     ecut=   100.00 Ry     beta=0.50
     Davidson diagonalization with overlap
     ethr =  6.52E-10,  avg # of iterations =  4.0

     total cpu time spent up to now is      841.9 secs

     total energy              =   -1363.47764968 Ry
     Harris-Foulkes estimate   =   -1363.47764976 Ry
     estimated scf accuracy    <       0.00000021 Ry

     iteration # 13     ecut=   100.00 Ry     beta=0.50
     Davidson diagonalization with overlap
     ethr =  7.18E-11,  avg # of iterations =  3.2

     total cpu time spent up to now is      897.9 secs

     total energy              =   -1363.47764973 Ry
     Harris-Foulkes estimate   =   -1363.47764974 Ry
     estimated scf accuracy    <       0.00000003 Ry

     iteration # 14     ecut=   100.00 Ry     beta=0.50
     Davidson diagonalization with overlap
     ethr =  8.94E-12,  avg # of iterations =  3.8

     total cpu time spent up to now is      976.4 secs

     End of self-consistent calculation

          k = 0.0000 0.0000 0.0000 ( 99201 PWs)   bands (ev):

   -20.9405 -20.9401 -20.9358 -20.9354 -19.7936 -19.7935 -19.6466 -19.6466
   -17.7492 -17.7492 -17.7077 -17.7077 -16.3916 -16.3912 -16.3898 -16.3894
   -14.7974 -14.7972 -14.7174 -14.7172 -13.6236 -13.6213 -13.5094 -13.5054
   -12.5453 -12.5264 -12.5115 -12.5005 -12.0518 -12.0456 -11.9900 -11.9853
   -11.4742 -11.4619 -11.4561 -11.4389  -9.3878  -9.3735  -9.2718  -9.2532
    -8.7645  -8.7604  -8.7243  -8.6955  -8.6464  -8.6127  -8.5851  -8.5708
    -7.9455  -7.8927  -7.7906  -7.7202  -6.8002  -6.7442  -6.6991  -6.6710
    -6.1907  -6.1626  -6.1529  -6.1235  -6.1095  -6.0944  -6.0706  -6.0102
    -5.9786  -5.9568  -5.5349  -5.5192  -5.5172  -5.4951  -5.4320  -5.4319
    -4.8504  -4.7571  -4.7429  -4.7038  -4.5295  -4.5164  -4.5152  -4.4815
    -4.4213  -4.2932  -4.2704  -4.2424  -4.1469  -4.1191  -4.0343  -3.9939
    -3.9234  -3.9068  -3.8061  -3.7677  -3.4041  -3.4040  -3.3697  -3.3648
    -2.6569  -2.6435  -2.6150  -2.6077  -2.3327  -2.2996  -2.1811  -2.1577
    -2.1228  -2.1198  -1.9772  -1.9730  -1.9270  -1.8661  -1.8188  -1.8183
    -1.3068  -1.2960  -1.2822  -1.2458  -1.1617  -1.1281  -1.1137  -1.1004
    -0.7263  -0.7257  -0.3529  -0.3520   0.0657   0.0864   0.1356   0.1367
     0.1534   0.1915   0.2089   0.2315   0.4189   0.4473   0.6584   0.6872
     0.7137   0.7245   0.7896   0.8716   0.9520   0.9902   1.0264   1.0300
     4.4260   4.4261   4.4767   4.4789   5.6628   5.6672   5.6908   5.7095
     6.1377   6.1385   6.2819   6.2834   6.3492   6.4304   6.4500   6.5842
     6.6665   6.6713   7.3009   7.5846   7.7689   7.8467   8.1537   8.1542
     8.1891   8.4872   8.6580   8.7270

          k = 0.0000 0.2602 0.0000 ( 99266 PWs)   bands (ev):

   -20.9390 -20.9388 -20.9359 -20.9357 -19.7624 -19.7624 -19.6800 -19.6800
   -17.7646 -17.7646 -17.6923 -17.6923 -16.3927 -16.3919 -16.3883 -16.3874
   -14.7931 -14.7888 -14.7542 -14.7491 -13.5918 -13.5888 -13.5314 -13.5305
   -12.5173 -12.5028 -12.4851 -12.4788 -12.0391 -12.0332 -12.0046 -12.0019
   -11.4825 -11.4725 -11.4354 -11.4298  -9.3654  -9.3557  -9.3054  -9.2947
    -8.7739  -8.7712  -8.7105  -8.6953  -8.6573  -8.6395  -8.5875  -8.5854
    -7.9839  -7.9586  -7.7297  -7.6944  -6.8027  -6.7852  -6.6976  -6.6720
    -6.1950  -6.1930  -6.1543  -6.1477  -6.1158  -6.1065  -6.0344  -6.0330
    -5.8788  -5.8572  -5.6052  -5.5888  -5.4961  -5.4944  -5.4116  -5.4089
    -4.8072  -4.7943  -4.7916  -4.6917  -4.5649  -4.5062  -4.4700  -4.4566
    -4.4175  -4.3781  -4.2783  -4.2392  -4.1302  -4.1080  -4.0952  -4.0247
    -3.8809  -3.8313  -3.8285  -3.7523  -3.5097  -3.5056  -3.3265  -3.3194
    -2.6474  -2.6225  -2.6083  -2.5975  -2.1627  -2.1532  -2.1511  -2.1347
    -2.1188  -2.1098  -1.9713  -1.9617  -1.8311  -1.7933  -1.7577  -1.7433
    -1.3345  -1.3150  -1.2678  -1.2641  -1.1948  -1.1810  -1.1482  -1.1368
    -0.7836  -0.7828  -0.3314  -0.3311   0.0720   0.0764   0.1269   0.1596
     0.1707   0.2050   0.2323   0.2739   0.2980   0.3681   0.4349   0.4754
     0.7250   0.7594   0.8348   0.8813   0.9688   0.9867   1.0093   1.0145
     4.5419   4.5467   4.5894   4.5929   5.6329   5.6440   5.7649   5.8186
     5.9320   6.0376   6.0677   6.0901   6.3923   6.4394   6.5275   6.5474
     6.9228   6.9294   7.4265   7.5780   7.7236   7.7630   7.8189   8.1665
     8.3006   8.3289   8.4689   8.5664

          k = 0.2500 0.0000 0.0185 ( 99179 PWs)   bands (ev):

   -20.9332 -20.9330 -20.9290 -20.9287 -19.7751 -19.7751 -19.6404 -19.6404
   -17.7938 -17.7938 -17.7022 -17.7022 -16.4205 -16.4202 -16.4185 -16.4182
   -14.7608 -14.7603 -14.6906 -14.6899 -13.6170 -13.6159 -13.5351 -13.5348
   -12.5269 -12.5091 -12.4991 -12.4878 -12.1142 -12.0845 -12.0751 -12.0346
   -11.4762 -11.4750 -11.4611 -11.4568  -9.3577  -9.3411  -9.2649  -9.2443
    -8.7509  -8.7431  -8.7263  -8.7180  -8.6484  -8.6032  -8.5638  -8.5340
    -7.8725  -7.8341  -7.6679  -7.6234  -6.8050  -6.7704  -6.6231  -6.6024
    -6.2628  -6.2600  -6.1688  -6.1631  -6.1626  -6.1306  -6.1122  -6.0861
    -5.9368  -5.9110  -5.5263  -5.5208  -5.4628  -5.4532  -5.4273  -5.4213
    -4.8123  -4.7918  -4.6964  -4.6481  -4.5800  -4.5711  -4.4709  -4.4702
    -4.3587  -4.3301  -4.2469  -4.2210  -4.1301  -4.0783  -4.0304  -4.0283
    -3.9425  -3.9224  -3.8454  -3.7884  -3.5898  -3.5861  -3.4222  -3.3751
    -2.6347  -2.6257  -2.5943  -2.5890  -2.3693  -2.3562  -2.2196  -2.2125
    -2.1838  -2.1609  -2.0092  -1.9978  -1.9307  -1.9260  -1.8910  -1.8770
    -1.3249  -1.2999  -1.2300  -1.2111  -1.0406  -1.0402  -0.9790  -0.9720
    -0.6454  -0.6450  -0.3902  -0.3892   0.0753   0.0951   0.1495   0.1741
     0.2043   0.2132   0.2986   0.3019   0.4159   0.4324   0.7374   0.7497
     0.8655   0.8704   0.8974   0.9301   0.9842   0.9876   1.0648   1.0858
     4.4282   4.4349   4.4871   4.4899   5.4238   5.4243   5.6344   5.6364
     5.9183   5.9428   6.0417   6.0571   6.3890   6.3995   6.4453   6.4568
     6.9376   6.9559   7.5525   7.7133   7.8828   7.9535   8.1636   8.2266
     8.3771   8.4150   8.5827   8.6016

          k = 0.2500 0.2602 0.0185 ( 99205 PWs)   bands (ev):

   -20.9318 -20.9317 -20.9291 -20.9289 -19.7548 -19.7439 -19.6735 -19.6621
   -17.7946 -17.7600 -17.7374 -17.7017 -16.4217 -16.4213 -16.4163 -16.4162
   -14.7581 -14.7536 -14.7237 -14.7189 -13.6405 -13.6018 -13.5435 -13.5004
   -12.4994 -12.4870 -12.4721 -12.4652 -12.1042 -12.0785 -12.0765 -12.0592
   -11.4888 -11.4847 -11.4487 -11.4469  -9.3462  -9.3298  -9.2977  -9.2806
    -8.7457  -8.7405  -8.7254  -8.7085  -8.6504  -8.6260  -8.5539  -8.5270
    -7.9048  -7.8820  -7.6596  -7.6171  -6.8013  -6.7141  -6.6907  -6.6145
    -6.2617  -6.2031  -6.1850  -6.1712  -6.1455  -6.1223  -6.1026  -6.0811
    -5.8920  -5.8882  -5.6571  -5.5342  -5.5145  -5.4846  -5.4013  -5.3873
    -4.7863  -4.7544  -4.7055  -4.6732  -4.5525  -4.5250  -4.4857  -4.4839
    -4.4349  -4.3551  -4.2718  -4.2346  -4.1338  -4.0829  -4.0547  -4.0463
    -3.8962  -3.8725  -3.8235  -3.8080  -3.6137  -3.5108  -3.4717  -3.4161
    -2.6551  -2.6223  -2.5519  -2.5297  -2.2827  -2.2729  -2.2036  -2.1994
    -2.0671  -2.0582  -1.9744  -1.9630  -1.9365  -1.9158  -1.8599  -1.8441
    -1.3029  -1.2924  -1.2517  -1.2342  -1.0733  -1.0404  -1.0148  -0.9885
    -0.7967  -0.6991  -0.3335  -0.2575   0.0847   0.0907   0.1441   0.1486
     0.1561   0.1858   0.2861   0.3126   0.3548   0.3651   0.4723   0.4818
     0.8661   0.9269   0.9534   0.9565   0.9853   0.9971   1.0996   1.1333
     4.5392   4.5437   4.5900   4.5975   5.3669   5.4175   5.6667   5.7472
     5.8414   5.9061   5.9581   5.9717   6.2636   6.3246   6.3364   6.3989
     7.0093   7.3494   7.6058   7.7602   7.8063   8.0248   8.1034   8.2404
     8.2673   8.3203   8.4758   8.5812

          k =-0.5000 0.0000-0.0370 ( 99066 PWs)   bands (ev):

   -20.9259 -20.9258 -20.9220 -20.9220 -19.7555 -19.7555 -19.6348 -19.6348
   -17.8297 -17.8297 -17.7059 -17.7059 -16.4494 -16.4484 -16.4475 -16.4465
   -14.7212 -14.7199 -14.6639 -14.6624 -13.5911 -13.5908 -13.5828 -13.5817
   -12.5071 -12.4911 -12.4880 -12.4767 -12.1777 -12.1734 -12.1100 -12.1078
   -11.4765 -11.4696 -11.4676 -11.4632  -9.3256  -9.3023  -9.2655  -9.2416
    -8.7621  -8.7613  -8.7508  -8.7427  -8.5834  -8.5504  -8.5497  -8.5059
    -7.7977  -7.7803  -7.5505  -7.5247  -6.7715  -6.7663  -6.6209  -6.5904
    -6.3127  -6.2997  -6.2719  -6.2505  -6.1690  -6.1540  -6.1186  -6.0634
    -5.9190  -5.8564  -5.5200  -5.5144  -5.4286  -5.4096  -5.3966  -5.3729
    -4.9290  -4.8880  -4.6468  -4.6304  -4.5399  -4.5240  -4.5095  -4.5009
    -4.3278  -4.2938  -4.2118  -4.1584  -4.1561  -4.1516  -4.0776  -4.0047
    -3.9607  -3.9018  -3.8640  -3.8205  -3.6840  -3.6804  -3.5039  -3.4866
    -2.6085  -2.6035  -2.5468  -2.5458  -2.3350  -2.3272  -2.2328  -2.2301
    -2.2195  -2.1851  -2.1435  -2.1173  -1.9362  -1.9268  -1.9219  -1.9202
    -1.3261  -1.2930  -1.2344  -1.2029  -0.9719  -0.9644  -0.9094  -0.8908
    -0.5090  -0.5080  -0.4914  -0.4877   0.0851   0.1109   0.1550   0.1761
     0.2128   0.2264   0.3265   0.3631   0.4473   0.4563   0.7418   0.7578
     0.9824   0.9850   0.9987   1.0004   1.1231   1.1305   1.1866   1.1960
     4.4053   4.4210   4.4525   4.4661   5.2682   5.2714   5.4933   5.5059
     5.7121   5.7395   5.7648   5.7996   6.4167   6.4239   6.4346   6.4486
     7.6148   7.6237   7.7013   7.7266   7.8696   7.9344   7.9394   8.0109
     8.5563   8.5591   8.6045   8.6558

          k =-0.5000 0.2602-0.0370 ( 99100 PWs)   bands (ev):

   -20.9246 -20.9246 -20.9222 -20.9222 -19.7368 -19.7368 -19.6546 -19.6546
   -17.8000 -17.8000 -17.7373 -17.7373 -16.4508 -16.4498 -16.4450 -16.4441
   -14.7205 -14.7161 -14.6924 -14.6877 -13.6504 -13.6501 -13.5156 -13.5148
   -12.4805 -12.4705 -12.4593 -12.4524 -12.1654 -12.1613 -12.1345 -12.1245
   -11.4846 -11.4817 -11.4624 -11.4573  -9.3265  -9.3019  -9.2942  -9.2704
    -8.7524  -8.7460  -8.7409  -8.7266  -8.6057  -8.5880  -8.4914  -8.4734
    -7.8148  -7.8104  -7.5697  -7.5582  -6.7299  -6.7237  -6.6444  -6.6297
    -6.2988  -6.2821  -6.2674  -6.2565  -6.1410  -6.1385  -6.0989  -6.0787
    -5.8666  -5.8470  -5.6879  -5.6872  -5.4245  -5.4074  -5.4065  -5.3939
    -4.7889  -4.7561  -4.7013  -4.6389  -4.5490  -4.5263  -4.5015  -4.4405
    -4.3822  -4.3467  -4.2697  -4.2280  -4.1457  -4.1346  -4.0801  -4.0417
    -3.9126  -3.8631  -3.8427  -3.8382  -3.6456  -3.6225  -3.5318  -3.5151
    -2.6343  -2.6207  -2.4943  -2.4787  -2.3400  -2.3266  -2.2489  -2.2226
    -2.0460  -2.0311  -2.0211  -2.0142  -1.9782  -1.9405  -1.9118  -1.9009
    -1.2842  -1.2795  -1.2537  -1.2486  -1.0381  -1.0017  -0.9349  -0.8977
    -0.7090  -0.7046  -0.2739  -0.2702   0.0778   0.0983   0.1008   0.1380
     0.1877   0.1981   0.2690   0.3467   0.3487   0.4338   0.4919   0.5305
     0.9954   1.0039   1.0072   1.0130   1.1709   1.1717   1.2563   1.2594
     4.5063   4.5151   4.5473   4.5580   5.1978   5.1987   5.5766   5.6281
     5.6942   5.7296   5.7385   5.7615   6.2934   6.2959   6.3423   6.3471
     7.4541   7.5386   7.7111   7.7970   7.9408   8.0963   8.1359   8.2467
     8.3351   8.4277   8.4837   8.5666

     highest occupied, lowest unoccupied level (ev):     1.2594    4.4053

!    total energy              =   -1363.47764974 Ry
     Harris-Foulkes estimate   =   -1363.47764975 Ry
     estimated scf accuracy    <          9.9E-09 Ry

     total all-electron energy =     -5273.292331 Ry

     The total energy is the sum of the following terms:

     one-electron contribution =    -707.55275309 Ry
     hartree contribution      =     464.91149333 Ry
     xc contribution           =    -296.05382592 Ry
     ewald contribution        =    -407.81990224 Ry
     Dispersion Correction     =      -0.44097070 Ry
     one-center paw contrib.   =    -416.52169113 Ry

     convergence has been achieved in  14 iterations

     Forces acting on atoms (cartesian axes, Ry/au):

     atom    1 type  4   force =     0.00044496   -0.01246259   -0.00915041
     atom    2 type  4   force =    -0.00044496   -0.01246259    0.00915041
     atom    3 type  4   force =    -0.00044496    0.01246259    0.00915041
     atom    4 type  4   force =     0.00044496    0.01246259   -0.00915041
     atom    5 type  2   force =    -0.00215199    0.00627957   -0.00668046
     atom    6 type  2   force =     0.00215199    0.00627957    0.00668046
     atom    7 type  2   force =     0.00215199   -0.00627957    0.00668046
     atom    8 type  2   force =    -0.00215199   -0.00627957   -0.00668046
     atom    9 type  2   force =     0.00293356   -0.00792693    0.00743956
     atom   10 type  2   force =    -0.00293356   -0.00792693   -0.00743956
     atom   11 type  2   force =    -0.00293356    0.00792693   -0.00743956
     atom   12 type  2   force =     0.00293356    0.00792693    0.00743956
     atom   13 type  2   force =    -0.00118021    0.00584335   -0.00113015
     atom   14 type  2   force =     0.00118021    0.00584335    0.00113015
     atom   15 type  2   force =     0.00118021   -0.00584335    0.00113015
     atom   16 type  2   force =    -0.00118021   -0.00584335   -0.00113015
     atom   17 type  2   force =     0.00045679    0.01084478    0.00890810
     atom   18 type  2   force =    -0.00045679    0.01084478   -0.00890810
     atom   19 type  2   force =    -0.00045679   -0.01084478   -0.00890810
     atom   20 type  2   force =     0.00045679   -0.01084478    0.00890810
     atom   21 type  3   force =     0.00392612    0.00347505    0.00208125
     atom   22 type  3   force =    -0.00392612    0.00347505   -0.00208125
     atom   23 type  3   force =    -0.00392612   -0.00347505   -0.00208125
     atom   24 type  3   force =     0.00392612   -0.00347505    0.00208125
     atom   25 type  2   force =    -0.00131399   -0.00030317   -0.00266035
     atom   26 type  2   force =     0.00131399   -0.00030317    0.00266035
     atom   27 type  2   force =     0.00131399    0.00030317    0.00266035
     atom   28 type  2   force =    -0.00131399    0.00030317   -0.00266035
     atom   29 type  1   force =     0.00886280    0.00317890    0.00930868
     atom   30 type  1   force =    -0.00886280    0.00317890   -0.00930868
     atom   31 type  1   force =    -0.00886280   -0.00317890   -0.00930868
     atom   32 type  1   force =     0.00886280   -0.00317890    0.00930868
     atom   33 type  1   force =    -0.02256495   -0.00240851    0.00326988
     atom   34 type  1   force =     0.02256495   -0.00240851   -0.00326988
     atom   35 type  1   force =     0.02256495    0.00240851   -0.00326988
     atom   36 type  1   force =    -0.02256495    0.00240851    0.00326988
     atom   37 type  3   force =     0.00204465    0.00481322   -0.00229939
     atom   38 type  3   force =    -0.00204465    0.00481322    0.00229939
     atom   39 type  3   force =    -0.00204465   -0.00481322    0.00229939
     atom   40 type  3   force =     0.00204465   -0.00481322   -0.00229939
     atom   41 type  1   force =     0.01120963   -0.01186564    0.00736837
     atom   42 type  1   force =    -0.01120963   -0.01186564   -0.00736837
     atom   43 type  1   force =    -0.01120963    0.01186564   -0.00736837
     atom   44 type  1   force =     0.01120963    0.01186564    0.00736837
     atom   45 type  3   force =     0.00123672    0.00087336   -0.00030133
     atom   46 type  3   force =    -0.00123672    0.00087336    0.00030133
     atom   47 type  3   force =    -0.00123672   -0.00087336    0.00030133
     atom   48 type  3   force =     0.00123672   -0.00087336   -0.00030133
     atom   49 type  1   force =    -0.00979709   -0.00129376   -0.01345926
     atom   50 type  1   force =     0.00979709   -0.00129376    0.01345926
     atom   51 type  1   force =     0.00979709    0.00129376    0.01345926
     atom   52 type  1   force =    -0.00979709    0.00129376   -0.01345926
     atom   53 type  3   force =     0.00134402    0.00247128   -0.00092308
     atom   54 type  3   force =    -0.00134402    0.00247128    0.00092308
     atom   55 type  3   force =    -0.00134402   -0.00247128    0.00092308
     atom   56 type  3   force =     0.00134402   -0.00247128   -0.00092308
     atom   57 type  1   force =     0.01589325   -0.00058136   -0.00255721
     atom   58 type  1   force =    -0.01589325   -0.00058136    0.00255721
     atom   59 type  1   force =    -0.01589325    0.00058136    0.00255721
     atom   60 type  1   force =     0.01589325    0.00058136   -0.00255721
     atom   61 type  3   force =     0.00069986   -0.00158460    0.00299754
     atom   62 type  3   force =    -0.00069986   -0.00158460   -0.00299754
     atom   63 type  3   force =    -0.00069986    0.00158460   -0.00299754
     atom   64 type  3   force =     0.00069986    0.00158460    0.00299754
     atom   65 type  1   force =    -0.00953898    0.00124965   -0.00895262
     atom   66 type  1   force =     0.00953898    0.00124965    0.00895262
     atom   67 type  1   force =     0.00953898   -0.00124965    0.00895262
     atom   68 type  1   force =    -0.00953898   -0.00124965   -0.00895262
     atom   69 type  1   force =    -0.00523209    0.00213499    0.00641312
     atom   70 type  1   force =     0.00523209    0.00213499   -0.00641312
     atom   71 type  1   force =     0.00523209   -0.00213499   -0.00641312
     atom   72 type  1   force =    -0.00523209   -0.00213499    0.00641312
     atom   73 type  3   force =     0.00361564    0.00037797    0.00148391
     atom   74 type  3   force =    -0.00361564    0.00037797   -0.00148391
     atom   75 type  3   force =    -0.00361564   -0.00037797   -0.00148391
     atom   76 type  3   force =     0.00361564   -0.00037797    0.00148391
     atom   77 type  3   force =     0.00109722   -0.00068091    0.00059511
     atom   78 type  3   force =    -0.00109722   -0.00068091   -0.00059511
     atom   79 type  3   force =    -0.00109722    0.00068091   -0.00059511
     atom   80 type  3   force =     0.00109722    0.00068091    0.00059511
     atom   81 type  1   force =    -0.00505546    0.00073250    0.00180848
     atom   82 type  1   force =     0.00505546    0.00073250   -0.00180848
     atom   83 type  1   force =     0.00505546   -0.00073250   -0.00180848
     atom   84 type  1   force =    -0.00505546   -0.00073250    0.00180848
     atom   85 type  3   force =     0.00056795    0.00007763   -0.00120849
     atom   86 type  3   force =    -0.00056795    0.00007763    0.00120849
     atom   87 type  3   force =    -0.00056795   -0.00007763    0.00120849
     atom   88 type  3   force =     0.00056795   -0.00007763   -0.00120849
     atom   89 type  3   force =    -0.00116270    0.00068949   -0.00006994
     atom   90 type  3   force =     0.00116270    0.00068949    0.00006994
     atom   91 type  3   force =     0.00116270   -0.00068949    0.00006994
     atom   92 type  3   force =    -0.00116270   -0.00068949   -0.00006994

     Total force =     0.102789     Total SCF correction =     0.000226


     Computing stress (Cartesian axis) and pressure

          total   stress  (Ry/bohr**3)                   (kbar)     P=   -8.79
  -0.00007393   0.00000000  -0.00002587        -10.88      0.00     -3.81
   0.00000000  -0.00005620   0.00000000          0.00     -8.27      0.00
  -0.00002587   0.00000000  -0.00004906         -3.81      0.00     -7.22


     Writing output data file scf.save
 
     init_run     :     33.11s CPU     34.31s WALL (       1 calls)
     electrons    :    904.38s CPU    941.52s WALL (       1 calls)
     forces       :     18.41s CPU     18.56s WALL (       1 calls)
     stress       :     71.05s CPU     71.21s WALL (       1 calls)

     Called by init_run:
     wfcinit      :     23.48s CPU     24.55s WALL (       1 calls)
     potinit      :      3.39s CPU      3.41s WALL (       1 calls)

     Called by electrons:
     c_bands      :    817.05s CPU    848.42s WALL (      14 calls)
     sum_band     :     75.61s CPU     80.29s WALL (      14 calls)
     v_of_rho     :      1.55s CPU      1.73s WALL (      15 calls)
     newd         :      4.04s CPU      4.95s WALL (      15 calls)
     PAW_pot      :      5.67s CPU      5.67s WALL (      15 calls)
     mix_rho      :      0.36s CPU      0.38s WALL (      14 calls)

     Called by c_bands:
     init_us_2    :      4.75s CPU      4.78s WALL (     186 calls)
     cegterg      :    798.69s CPU    829.98s WALL (      84 calls)

     Called by sum_band:
     sum_band:bec :      0.05s CPU      0.05s WALL (      84 calls)
     addusdens    :      4.10s CPU      4.97s WALL (      14 calls)

     Called by *egterg:
     h_psi        :    403.72s CPU    428.65s WALL (     447 calls)
     s_psi        :    104.73s CPU    104.75s WALL (     447 calls)
     g_psi        :      2.28s CPU      2.28s WALL (     357 calls)
     cdiaghg      :     55.90s CPU     55.92s WALL (     441 calls)

     Called by h_psi:
     h_psi:pot    :    400.43s CPU    425.29s WALL (     447 calls)
     h_psi:calbec :    101.79s CPU    102.03s WALL (     447 calls)
     vloc_psi     :    193.43s CPU    218.03s WALL (     447 calls)
     add_vuspsi   :    105.20s CPU    105.22s WALL (     447 calls)

     General routines
     calbec       :    146.73s CPU    147.06s WALL (     561 calls)
     fft          :      1.03s CPU      1.30s WALL (     219 calls)
     fftw         :    202.37s CPU    228.39s WALL (  101420 calls)
 
     Parallel routines
     fft_scatter  :     52.70s CPU     73.72s WALL (  101639 calls)
 
     PWSCF        : 17m14.52s CPU    18m23.07s WALL

 
   This run was terminated on:   5:14:18  21Dec2017            

=------------------------------------------------------------------------------=
   JOB DONE.
=------------------------------------------------------------------------------=
