
     Program PWSCF v.6.1 (svn rev. 13369) starts on  7Dec2017 at  0:23:30 

     This program is part of the open-source Quantum ESPRESSO suite
     for quantum simulation of materials; please cite
         "P. Giannozzi et al., J. Phys.:Condens. Matter 21 395502 (2009);
          URL http://www.quantum-espresso.org", 
     in publications or presentations arising from this work. More details at
     http://www.quantum-espresso.org/quote

     Parallel version (MPI), running on     8 processors
     R & G space division:  proc/nbgrp/npool/nimage =       8
     Waiting for input...
     Reading input from standard input

     Current dimensions of program PWSCF are:
     Max number of different atomic species (ntypx) = 10
     Max number of k-points (npk) =  40000
     Max angular momentum in pseudopotentials (lmaxx) =  3
               file C.pbe-n-kjpaw_psl.0.1.UPF: wavefunction(s)  2P renormalized
               file N.pbe-n-kjpaw_psl.0.1.UPF: wavefunction(s)  2P renormalized
               file H.pbe-kjpaw_psl.0.1.UPF: wavefunction(s)  1S renormalized
               file O.pbe-n-kjpaw_psl.0.1.UPF: wavefunction(s)  2P renormalized

     -------------------------------------
     Parameters for Dispersion Correction:
     -------------------------------------
       atom      VdW radius       C_6     

        C          2.744         60.710
        N          2.640         42.670
        H          1.892          4.857
        O          2.536         24.284

     Subspace diagonalization in iterative solution of the eigenvalue problem:
     a serial algorithm will be used

 
     Parallelization info
     --------------------
     sticks:   dense  smooth     PW     G-vecs:    dense   smooth      PW
     Min         649     649    177                53225    53225    7595
     Max         650     650    178                53228    53228    7599
     Sum        5199    5199   1423               425807   425807   60779
 


     bravais-lattice index     =            0
     lattice parameter (alat)  =      16.1530  a.u.
     unit-cell volume          =    3152.6444 (a.u.)^3
     number of atoms/cell      =           56
     number of atomic types    =            4
     number of electrons       =       172.00
     number of Kohn-Sham states=          103
     kinetic-energy cutoff     =     100.0000  Ry
     charge density cutoff     =     400.0000  Ry
     convergence threshold     =      1.0E-08
     mixing beta               =       0.5000
     number of iterations used =            8  plain     mixing
     Exchange-correlation      =  SLA  PW   PBX  PBC ( 1  4  3  4 0 0)

     celldm(1)=  16.153001  celldm(2)=   0.000000  celldm(3)=   0.000000
     celldm(4)=   0.000000  celldm(5)=   0.000000  celldm(6)=   0.000000

     crystal axes: (cart. coord. in units of alat)
               a(1) = (   1.000000   0.000000   0.000000 )  
               a(2) = (  -0.148231   0.625256   0.000000 )  
               a(3) = (  -0.074756  -0.053530   1.196348 )  

     reciprocal axes: (cart. coord. in units 2 pi/alat)
               b(1) = (  1.000000  0.237072  0.073094 )  
               b(2) = (  0.000000  1.599345  0.071562 )  
               b(3) = (  0.000000  0.000000  0.835877 )  


     PseudoPot. # 1 for  C read from file:
     /scratch/ahofstet/pseudo/C.pbe-n-kjpaw_psl.0.1.UPF
     MD5 check sum: 430fe95172b1e11ef3f8ed03bac87931
     Pseudo is Projector augmented-wave + core cor, Zval =  4.0
     Generated using "atomic" code by A. Dal Corso  v.5.0.99 svn rev. 10869
     Shape of augmentation charge: BESSEL
     Using radial grid of 1073 points,  4 beta functions with: 
                l(1) =   0
                l(2) =   0
                l(3) =   1
                l(4) =   1
     Q(r) pseudized with 0 coefficients 


     PseudoPot. # 2 for  N read from file:
     /scratch/ahofstet/pseudo/N.pbe-n-kjpaw_psl.0.1.UPF
     MD5 check sum: f73187c8b701007e77325f868c9291d7
     Pseudo is Projector augmented-wave + core cor, Zval =  5.0
     Generated using "atomic" code by A. Dal Corso  v.5.0.99 svn rev. 10869
     Shape of augmentation charge: PSQ
     Using radial grid of 1085 points,  4 beta functions with: 
                l(1) =   0
                l(2) =   0
                l(3) =   1
                l(4) =   1
     Q(r) pseudized with 0 coefficients 


     PseudoPot. # 3 for  H read from file:
     /scratch/ahofstet/pseudo/H.pbe-kjpaw_psl.0.1.UPF
     MD5 check sum: 94e484f906d9e9773b2f6e52662335b2
     Pseudo is Projector augmented-wave, Zval =  1.0
     Generated using "atomic" code by A. Dal Corso  v.5.0.99 svn rev. 10869
     Shape of augmentation charge: PSQ
     Using radial grid of  929 points,  2 beta functions with: 
                l(1) =   0
                l(2) =   0
     Q(r) pseudized with 0 coefficients 


     PseudoPot. # 4 for  O read from file:
     /scratch/ahofstet/pseudo/O.pbe-n-kjpaw_psl.0.1.UPF
     MD5 check sum: 3f94a2996a3169367d6eb21d9b593f20
     Pseudo is Projector augmented-wave + core cor, Zval =  6.0
     Generated using "atomic" code by A. Dal Corso  v.5.0.99 svn rev. 10869
     Shape of augmentation charge: BESSEL
     Using radial grid of 1095 points,  4 beta functions with: 
                l(1) =   0
                l(2) =   0
                l(3) =   1
                l(4) =   1
     Q(r) pseudized with 0 coefficients 


     atomic species   valence    mass     pseudopotential
        C              4.00    12.01070      C( 1.00)
        N              5.00    14.00670      N( 1.00)
        H              1.00     1.00794      H( 1.00)
        O              6.00    15.99940      O( 1.00)

      2 Sym. Ops., with inversion, found



   Cartesian axes

     site n.     atom                  positions (alat units)
         1           N   tau(   1) = (   0.1141872   0.4372898   0.7335872  )
         2           N   tau(   2) = (   0.6628266   0.1344357   0.4627608  )
         3           C   tau(   3) = (   0.0182330   0.5779226   0.6922100  )
         4           C   tau(   4) = (   0.7587807  -0.0061971   0.5041380  )
         5           C   tau(   5) = (  -0.1474057   0.5333758   0.6458719  )
         6           C   tau(   6) = (   0.9244195   0.0383497   0.5504761  )
         7           N   tau(   7) = (   0.2327714   0.0803867   0.1407910  )
         8           N   tau(   8) = (   0.5442424   0.4913388   1.0555570  )
         9           C   tau(   9) = (   0.2944309   0.0988479  -0.0218009  )
        10           C   tau(  10) = (   0.4825829   0.4728776   1.2181488  )
        11           C   tau(  11) = (   0.2062285   0.5594275   1.1428762  )
        12           C   tau(  12) = (   0.5707853   0.0122980   0.0534718  )
        13           N   tau(  13) = (   0.2940909   0.3736802   0.3924273  )
        14           N   tau(  14) = (   0.4829228   0.1980453   0.8039207  )
        15           O   tau(  15) = (   0.2858618   0.5159676   0.4269496  )
        16           O   tau(  16) = (   0.4911520   0.0557579   0.7693984  )
        17           O   tau(  17) = (   0.3946248   0.3247530   0.2946820  )
        18           O   tau(  18) = (   0.3823890   0.2469725   0.9016660  )
        19           O   tau(  19) = (   0.2009370   0.2765512   0.4559592  )
        20           O   tau(  20) = (   0.5760767   0.2951743   0.7403888  )
        21           N   tau(  21) = (   0.8550786   0.2648648   0.9868982  )
        22           N   tau(  22) = (  -0.0780648   0.3068606   0.2094498  )
        23           O   tau(  23) = (  -0.1373948   0.4085402   1.0213523  )
        24           O   tau(  24) = (   0.9144085   0.1631853   0.1749957  )
        25           O   tau(  25) = (   0.7416023   0.1851170   1.0358709  )
        26           O   tau(  26) = (   0.0354114   0.3866085   0.1604771  )
        27           O   tau(  27) = (  -0.0393676   0.2033997   0.9034844  )
        28           O   tau(  28) = (   0.8163814   0.3683258   0.2928636  )
        29           H   tau(  29) = (   0.2193731   0.4743732   0.7788801  )
        30           H   tau(  30) = (   0.5576406   0.0973523   0.4174679  )
        31           H   tau(  31) = (   0.1381769   0.3727692   0.6317335  )
        32           H   tau(  32) = (   0.6388369   0.1989563   0.5646144  )
        33           H   tau(  33) = (   0.0585369   0.3628332   0.8139289  )
        34           H   tau(  34) = (   0.7184769   0.2088923   0.3824191  )
        35           H   tau(  35) = (   0.1670323   0.0308162   0.7939795  )
        36           H   tau(  36) = (   0.6099815   0.5409092   0.4023684  )
        37           H   tau(  37) = (   0.2281843   0.0097541   0.5956323  )
        38           H   tau(  38) = (   0.5488295   0.5619714   0.6007157  )
        39           H   tau(  39) = (   0.7827074   0.5089746   0.7507671  )
        40           H   tau(  40) = (  -0.0056936   0.0627509   0.4455809  )
        41           H   tau(  41) = (  -0.1444279   0.4242105   0.5745239  )
        42           H   tau(  42) = (   0.9214416   0.1475150   0.6218241  )
        43           H   tau(  43) = (   0.3001382   0.1448983   0.2191129  )
        44           H   tau(  44) = (   0.4768756   0.4268271   0.9772350  )
        45           H   tau(  45) = (   0.0775238   0.5881822   0.1720388  )
        46           H   tau(  46) = (   0.6994899  -0.0164567   1.0243092  )
        47           H   tau(  47) = (   0.1180876   0.1230997   0.1473098  )
        48           H   tau(  48) = (   0.6589261   0.4486258   1.0490381  )
        49           H   tau(  49) = (   0.1232024   0.0235233   1.0932097  )
        50           H   tau(  50) = (   0.6538114   0.5482022   0.1031383  )
        51           H   tau(  51) = (   0.3297033   0.2231742  -0.0355708  )
        52           H   tau(  52) = (   0.4473105   0.3485513   1.2319188  )
        53           H   tau(  53) = (   0.3883305  -0.0481810   1.0200548  )
        54           H   tau(  54) = (   0.3886833   0.6199065   0.1762932  )
        55           H   tau(  55) = (   0.1632591   0.4367256   1.1542715  )
        56           H   tau(  56) = (   0.6137546   0.1349998   0.0420765  )

     number of k points=    12
                       cart. coord. in units 2pi/alat
        k(    1) = (   0.0000000   0.0000000   0.0000000), wk =   0.1250000
        k(    2) = (   0.0000000   0.0000000  -0.4179386), wk =   0.1250000
        k(    3) = (   0.0000000   0.3998363   0.0178906), wk =   0.2500000
        k(    4) = (   0.0000000   0.3998363  -0.4000480), wk =   0.2500000
        k(    5) = (   0.0000000  -0.7996726  -0.0357812), wk =   0.1250000
        k(    6) = (   0.0000000  -0.7996726  -0.4537198), wk =   0.1250000
        k(    7) = (  -0.5000000  -0.1185360  -0.0365471), wk =   0.1250000
        k(    8) = (  -0.5000000  -0.1185360  -0.4544857), wk =   0.1250000
        k(    9) = (  -0.5000000   0.2813003  -0.0186565), wk =   0.2500000
        k(   10) = (  -0.5000000   0.2813003  -0.4365951), wk =   0.2500000
        k(   11) = (  -0.5000000  -0.9182085  -0.0723284), wk =   0.1250000
        k(   12) = (  -0.5000000  -0.9182085  -0.4902670), wk =   0.1250000

     Dense  grid:   425807 G-vectors     FFT dimensions: ( 108,  72, 125)

     Estimated max dynamical RAM per process >     285.96MB

     Estimated total allocated dynamical RAM >    2287.69MB

     Check: negative/imaginary core charge=   -0.000002    0.000000

     Initial potential from superposition of free atoms

     starting charge  171.99932, renormalised to  172.00000
     Starting wfc are  140 randomized atomic wfcs
     Checking if some PAW data can be deallocated... 

     total cpu time spent up to now is       17.1 secs

     per-process dynamical memory:   282.8 Mb

     Self-consistent Calculation

     iteration #  1     ecut=   100.00 Ry     beta=0.50
     Davidson diagonalization with overlap
     ethr =  1.00E-02,  avg # of iterations =  4.1

     total cpu time spent up to now is       52.3 secs

     total energy              =    -904.52787600 Ry
     Harris-Foulkes estimate   =    -907.76484106 Ry
     estimated scf accuracy    <       5.90903298 Ry

     iteration #  2     ecut=   100.00 Ry     beta=0.50
     Davidson diagonalization with overlap
     ethr =  3.44E-03,  avg # of iterations =  4.6

     total cpu time spent up to now is       81.1 secs

     total energy              =    -905.65290270 Ry
     Harris-Foulkes estimate   =    -906.28689918 Ry
     estimated scf accuracy    <       1.38034169 Ry

     iteration #  3     ecut=   100.00 Ry     beta=0.50
     Davidson diagonalization with overlap
     ethr =  8.03E-04,  avg # of iterations =  5.1

     total cpu time spent up to now is      109.5 secs

     total energy              =    -905.97115898 Ry
     Harris-Foulkes estimate   =    -906.03450995 Ry
     estimated scf accuracy    <       0.18412292 Ry

     iteration #  4     ecut=   100.00 Ry     beta=0.50
     Davidson diagonalization with overlap
     ethr =  1.07E-04,  avg # of iterations =  8.6

     total cpu time spent up to now is      139.0 secs

     total energy              =    -905.99051509 Ry
     Harris-Foulkes estimate   =    -905.99775244 Ry
     estimated scf accuracy    <       0.02666481 Ry

     iteration #  5     ecut=   100.00 Ry     beta=0.50
     Davidson diagonalization with overlap
     ethr =  1.55E-05,  avg # of iterations =  6.2

     total cpu time spent up to now is      171.3 secs

     total energy              =    -905.99535170 Ry
     Harris-Foulkes estimate   =    -906.00006152 Ry
     estimated scf accuracy    <       0.01238472 Ry

     iteration #  6     ecut=   100.00 Ry     beta=0.50
     Davidson diagonalization with overlap
     ethr =  7.20E-06,  avg # of iterations =  3.6

     total cpu time spent up to now is      194.6 secs

     total energy              =    -905.99647026 Ry
     Harris-Foulkes estimate   =    -905.99742105 Ry
     estimated scf accuracy    <       0.00167880 Ry

     iteration #  7     ecut=   100.00 Ry     beta=0.50
     Davidson diagonalization with overlap
     ethr =  9.76E-07,  avg # of iterations =  6.8

     total cpu time spent up to now is      229.5 secs

     total energy              =    -905.99718021 Ry
     Harris-Foulkes estimate   =    -905.99732265 Ry
     estimated scf accuracy    <       0.00042594 Ry

     iteration #  8     ecut=   100.00 Ry     beta=0.50
     Davidson diagonalization with overlap
     ethr =  2.48E-07,  avg # of iterations =  1.2

     total cpu time spent up to now is      249.1 secs

     total energy              =    -905.99713992 Ry
     Harris-Foulkes estimate   =    -905.99720429 Ry
     estimated scf accuracy    <       0.00012369 Ry

     iteration #  9     ecut=   100.00 Ry     beta=0.50
     Davidson diagonalization with overlap
     ethr =  7.19E-08,  avg # of iterations =  4.0

     total cpu time spent up to now is      279.8 secs

     total energy              =    -905.99722243 Ry
     Harris-Foulkes estimate   =    -905.99723524 Ry
     estimated scf accuracy    <       0.00005610 Ry

     iteration # 10     ecut=   100.00 Ry     beta=0.50
     Davidson diagonalization with overlap
     ethr =  3.26E-08,  avg # of iterations =  1.0

     total cpu time spent up to now is      299.2 secs

     total energy              =    -905.99720875 Ry
     Harris-Foulkes estimate   =    -905.99722416 Ry
     estimated scf accuracy    <       0.00003082 Ry

     iteration # 11     ecut=   100.00 Ry     beta=0.50
     Davidson diagonalization with overlap
     ethr =  1.79E-08,  avg # of iterations =  4.0

     total cpu time spent up to now is      325.5 secs

     total energy              =    -905.99721900 Ry
     Harris-Foulkes estimate   =    -905.99721928 Ry
     estimated scf accuracy    <       0.00000169 Ry

     iteration # 12     ecut=   100.00 Ry     beta=0.50
     Davidson diagonalization with overlap
     ethr =  9.81E-10,  avg # of iterations =  2.7

     total cpu time spent up to now is      347.4 secs

     total energy              =    -905.99721863 Ry
     Harris-Foulkes estimate   =    -905.99721919 Ry
     estimated scf accuracy    <       0.00000087 Ry

     iteration # 13     ecut=   100.00 Ry     beta=0.50
     Davidson diagonalization with overlap
     ethr =  5.06E-10,  avg # of iterations =  4.0

     total cpu time spent up to now is      375.2 secs

     total energy              =    -905.99721896 Ry
     Harris-Foulkes estimate   =    -905.99721905 Ry
     estimated scf accuracy    <       0.00000022 Ry

     iteration # 14     ecut=   100.00 Ry     beta=0.50
     Davidson diagonalization with overlap
     ethr =  1.27E-10,  avg # of iterations =  3.3

     total cpu time spent up to now is      396.8 secs

     total energy              =    -905.99721896 Ry
     Harris-Foulkes estimate   =    -905.99721898 Ry
     estimated scf accuracy    <       0.00000004 Ry

     iteration # 15     ecut=   100.00 Ry     beta=0.50
     Davidson diagonalization with overlap
     ethr =  2.27E-11,  avg # of iterations =  4.0

     total cpu time spent up to now is      428.6 secs

     total energy              =    -905.99721899 Ry
     Harris-Foulkes estimate   =    -905.99721899 Ry
     estimated scf accuracy    <       0.00000002 Ry

     iteration # 16     ecut=   100.00 Ry     beta=0.50
     Davidson diagonalization with overlap
     ethr =  1.07E-11,  avg # of iterations =  1.0

     total cpu time spent up to now is      448.1 secs

     End of self-consistent calculation

          k = 0.0000 0.0000 0.0000 ( 53301 PWs)   bands (ev):

   -24.6557 -24.6302 -24.5986 -24.5877 -19.2065 -19.1936 -19.1827 -19.1761
   -19.0649 -19.0397 -19.0090 -18.9999 -17.3574 -17.3092 -17.2836 -17.2308
   -13.1524 -13.1178 -11.4138 -11.2204  -9.3514  -9.1965  -8.8298  -8.7707
    -8.6435  -8.5648  -8.0087  -7.8763  -7.3741  -7.1832  -7.1256  -7.0607
    -6.9868  -6.8949  -6.8629  -6.7507  -6.6504  -6.4661  -6.4634  -6.3211
    -6.2118  -6.1904  -6.0360  -5.9490  -5.9179  -5.8910  -5.7938  -5.6618
    -5.1386  -5.0135  -4.8565  -4.5801  -4.5670  -3.7654  -3.6765  -3.4301
    -3.3306  -2.8315  -2.3234  -2.1567  -2.0518  -1.9802  -1.8556  -1.8001
    -1.5599  -1.4141  -1.1605  -1.1530  -1.0729  -0.9877  -0.9820  -0.9519
    -0.9207  -0.8582  -0.8419  -0.7975  -0.7358  -0.6858  -0.6745  -0.6068
    -0.5645  -0.3521   0.6180   0.7066   0.7214   0.7547   4.3580   4.4227
     4.4844   4.6369   6.5177   7.2644   7.8095   8.1819   8.3817   8.4609
     8.6188   8.8122   8.8937   8.9292   9.2714   9.2813   9.2849

          k = 0.0000 0.0000-0.4179 ( 53258 PWs)   bands (ev):

   -24.6545 -24.6328 -24.5925 -24.5924 -19.2039 -19.1980 -19.1785 -19.1783
   -19.0653 -19.0395 -19.0092 -18.9999 -17.3506 -17.3165 -17.2845 -17.2295
   -13.1476 -13.1229 -11.4129 -11.2207  -9.3459  -9.2034  -8.8092  -8.7863
    -8.6885  -8.5142  -8.0228  -7.8882  -7.2643  -7.2259  -7.1634  -7.0651
    -7.0067  -6.9174  -6.8176  -6.8089  -6.6681  -6.4374  -6.3528  -6.3404
    -6.1966  -6.1307  -6.1004  -6.0587  -5.9745  -5.8272  -5.7539  -5.6683
    -5.1071  -5.0497  -4.8620  -4.5830  -4.5541  -3.7642  -3.6770  -3.4318
    -3.3279  -2.8377  -2.3067  -2.1036  -2.1019  -1.9750  -1.8279  -1.8022
    -1.5444  -1.5349  -1.1483  -1.1053  -1.0434  -1.0248  -0.9631  -0.9391
    -0.9249  -0.8306  -0.8265  -0.7899  -0.7737  -0.7150  -0.6562  -0.6546
    -0.4799  -0.4125   0.6338   0.6888   0.7268   0.7580   4.3800   4.4259
     4.4701   4.6169   6.7192   6.8571   8.0174   8.1520   8.3297   8.4627
     8.6048   8.8147   8.8595   9.0405   9.1828   9.2391   9.3853

          k = 0.0000 0.3998 0.0179 ( 53255 PWs)   bands (ev):

   -24.6542 -24.6293 -24.5968 -24.5878 -19.2073 -19.1932 -19.1842 -19.1814
   -19.0753 -19.0476 -19.0063 -19.0000 -17.3416 -17.3094 -17.2822 -17.2310
   -13.1445 -13.1211 -11.4083 -11.2418  -9.3728  -9.2143  -8.7968  -8.7192
    -8.6659  -8.6446  -8.1002  -7.8957  -7.3896  -7.1661  -7.1261  -7.0153
    -6.9156  -6.8826  -6.7726  -6.6801  -6.6047  -6.5688  -6.4762  -6.3167
    -6.1920  -6.1657  -6.1526  -6.0179  -5.8905  -5.8126  -5.7770  -5.7062
    -5.1417  -5.0909  -4.8941  -4.5906  -4.5045  -3.7407  -3.6299  -3.4096
    -3.2888  -2.8915  -2.4078  -2.0664  -2.0344  -1.9678  -1.8102  -1.7119
    -1.3830  -1.3481  -1.2233  -1.1475  -1.0819  -1.0104  -0.9952  -0.9314
    -0.8859  -0.8767  -0.7928  -0.7753  -0.7327  -0.7042  -0.6649  -0.6629
    -0.5112  -0.3776   0.6662   0.6995   0.7082   0.7526   4.3492   4.3745
     4.4563   4.6199   6.7232   7.5207   7.8574   7.9459   8.1458   8.3178
     8.4382   8.5711   8.6140   8.7682   8.8107   8.9132   9.1628

          k = 0.0000 0.3998-0.4000 ( 53271 PWs)   bands (ev):

   -24.6533 -24.6312 -24.5932 -24.5904 -19.2073 -19.1926 -19.1867 -19.1793
   -19.0757 -19.0474 -19.0064 -19.0001 -17.3395 -17.3117 -17.2825 -17.2305
   -13.1369 -13.1290 -11.4075 -11.2420  -9.3721  -9.2122  -8.8248  -8.7043
    -8.6699  -8.6261  -8.0563  -7.9628  -7.3525  -7.2073  -7.1186  -6.9833
    -6.9451  -6.8679  -6.8039  -6.6864  -6.5950  -6.5322  -6.4199  -6.3714
    -6.2253  -6.1707  -6.1015  -6.0396  -5.9341  -5.8405  -5.7230  -5.6816
    -5.1295  -5.1142  -4.8850  -4.5962  -4.5088  -3.7420  -3.6235  -3.4070
    -3.2872  -2.9027  -2.4023  -2.1063  -1.9890  -1.9696  -1.7745  -1.7484
    -1.4338  -1.3439  -1.1776  -1.1216  -1.0956  -1.0109  -0.9717  -0.9250
    -0.9020  -0.8832  -0.8226  -0.7786  -0.7592  -0.7195  -0.6716  -0.6358
    -0.4773  -0.3793   0.6655   0.6976   0.7141   0.7518   4.3565   4.3957
     4.4419   4.5950   6.8747   7.1245   7.9273   8.0058   8.1738   8.2903
     8.3665   8.4879   8.6645   8.8200   8.9660   9.0387   9.1696

          k = 0.0000-0.7997-0.0358 ( 53168 PWs)   bands (ev):

   -24.6527 -24.6284 -24.5947 -24.5882 -19.2152 -19.1967 -19.1828 -19.1779
   -19.0858 -19.0557 -19.0027 -19.0013 -17.3284 -17.3118 -17.2772 -17.2301
   -13.1420 -13.1187 -11.4033 -11.2628  -9.3894  -9.2115  -8.9506  -8.6837
    -8.6680  -8.4904  -8.2456  -7.8698  -7.3961  -7.1952  -7.1517  -6.9797
    -6.8893  -6.8458  -6.7792  -6.6869  -6.5551  -6.4599  -6.4477  -6.3074
    -6.2782  -6.2325  -6.1210  -5.9264  -5.8723  -5.8225  -5.8133  -5.7782
    -5.1598  -5.1224  -4.9505  -4.5870  -4.4604  -3.7118  -3.6262  -3.3762
    -3.2627  -2.9161  -2.3482  -2.0751  -2.0065  -1.9137  -1.8383  -1.6786
    -1.3508  -1.2668  -1.1946  -1.1364  -1.0918  -1.0317  -0.9788  -0.8910
    -0.8769  -0.8314  -0.7795  -0.7640  -0.7395  -0.6821  -0.6611  -0.6592
    -0.4758  -0.4182   0.6750   0.6963   0.7105   0.7671   4.3406   4.3653
     4.3931   4.6027   6.9337   7.5882   7.6878   7.9454   7.9658   8.0072
     8.1201   8.1276   8.3798   8.5292   8.6482   8.9563   9.0008

          k = 0.0000-0.7997-0.4537 ( 53204 PWs)   bands (ev):

   -24.6521 -24.6295 -24.5930 -24.5893 -19.2152 -19.1968 -19.1835 -19.1771
   -19.0860 -19.0554 -19.0029 -19.0013 -17.3294 -17.3120 -17.2770 -17.2292
   -13.1361 -13.1248 -11.4024 -11.2632  -9.3886  -9.2220  -8.8577  -8.8373
    -8.5690  -8.5513  -8.0679  -8.0545  -7.3288  -7.1813  -7.1695  -6.9822
    -6.9401  -6.8641  -6.7917  -6.7065  -6.4611  -6.4600  -6.4340  -6.3450
    -6.2713  -6.1693  -6.1641  -5.9376  -5.9249  -5.8499  -5.7605  -5.7440
    -5.1620  -5.1303  -4.9310  -4.5973  -4.4699  -3.7174  -3.6149  -3.3832
    -3.2510  -2.9307  -2.3589  -2.1027  -1.9515  -1.9436  -1.7734  -1.7611
    -1.3185  -1.2539  -1.1704  -1.1508  -1.0182  -1.0167  -0.9623  -0.9495
    -0.9245  -0.9202  -0.7999  -0.7625  -0.7383  -0.6646  -0.6642  -0.6428
    -0.4732  -0.3628   0.6691   0.7026   0.7280   0.7498   4.3361   4.3781
     4.4022   4.5760   7.1913   7.1964   7.5584   7.7687   7.8840   7.9504
     8.1624   8.4004   8.6644   8.6709   8.7449   8.9885   9.0775

          k =-0.5000-0.1185-0.0365 ( 53242 PWs)   bands (ev):

   -24.6543 -24.6314 -24.5940 -24.5926 -19.2021 -19.1980 -19.1805 -19.1770
   -19.0651 -19.0407 -19.0095 -19.0000 -17.3355 -17.3217 -17.2880 -17.2352
   -13.1496 -13.1252 -11.3976 -11.2146  -9.4199  -9.2163  -8.8500  -8.7679
    -8.5870  -8.5596  -7.9102  -7.8728  -7.2814  -7.2351  -7.1798  -7.1077
    -6.9431  -6.9259  -6.8231  -6.8195  -6.7096  -6.5297  -6.4238  -6.3435
    -6.2460  -6.0725  -6.0490  -6.0074  -5.8925  -5.8346  -5.7221  -5.6884
    -5.1013  -5.0771  -4.8526  -4.6399  -4.5404  -3.6869  -3.6627  -3.5023
    -3.3425  -2.7685  -2.3414  -2.1436  -2.1180  -1.9506  -1.8817  -1.8228
    -1.6219  -1.4585  -1.1717  -1.1165  -1.0246  -0.9736  -0.9475  -0.9125
    -0.8530  -0.8522  -0.8494  -0.7836  -0.7501  -0.7102  -0.6655  -0.6620
    -0.5479  -0.3536   0.6457   0.6755   0.7098   0.7688   4.3705   4.3742
     4.4968   4.6307   6.7274   7.0072   7.6197   7.8329   8.3587   8.3989
     8.7109   8.9201   9.0016   9.2299   9.3224   9.3541   9.4498

          k =-0.5000-0.1185-0.4545 ( 53276 PWs)   bands (ev):

   -24.6547 -24.6298 -24.5996 -24.5882 -19.2029 -19.1948 -19.1853 -19.1744
   -19.0661 -19.0396 -19.0110 -18.9987 -17.3352 -17.3217 -17.2871 -17.2365
   -13.1498 -13.1252 -11.3973 -11.2145  -9.4166  -9.2106  -8.8203  -8.7565
    -8.7532  -8.4335  -7.9319  -7.8543  -7.3094  -7.2659  -7.1280  -7.0189
    -6.9967  -6.9262  -6.9068  -6.7931  -6.7097  -6.4920  -6.4190  -6.3432
    -6.2155  -6.0686  -6.0542  -6.0257  -5.9599  -5.8750  -5.6831  -5.6629
    -5.1086  -5.0669  -4.8435  -4.6334  -4.5460  -3.6871  -3.6495  -3.4826
    -3.3718  -2.7692  -2.3414  -2.2250  -2.0101  -1.9589  -1.9126  -1.8588
    -1.5801  -1.4579  -1.0988  -1.0877  -1.0579  -0.9810  -0.9697  -0.9098
    -0.9020  -0.8755  -0.8538  -0.7796  -0.7574  -0.7294  -0.6768  -0.6068
    -0.4585  -0.4227   0.6313   0.6725   0.7091   0.7849   4.3548   4.4362
     4.4638   4.6103   6.7134   7.1802   7.4371   7.5709   8.4086   8.6147
     8.6269   8.8673   9.0743   9.1446   9.3707   9.5187   9.5566

          k =-0.5000 0.2813-0.0187 ( 53218 PWs)   bands (ev):

   -24.6532 -24.6299 -24.5936 -24.5914 -19.2123 -19.1973 -19.1807 -19.1744
   -19.0753 -19.0483 -19.0068 -19.0001 -17.3333 -17.3176 -17.2842 -17.2296
   -13.1380 -13.1302 -11.3999 -11.2329  -9.4040  -9.2401  -8.8800  -8.6681
    -8.6160  -8.5549  -8.1589  -7.9256  -7.3279  -7.2298  -7.1456  -6.9866
    -6.9574  -6.8623  -6.7582  -6.6972  -6.6429  -6.5057  -6.4399  -6.3195
    -6.2382  -6.1450  -6.0769  -6.0614  -5.9282  -5.8040  -5.7491  -5.6903
    -5.1605  -5.1228  -4.8884  -4.6312  -4.4708  -3.7364  -3.5824  -3.4746
    -3.3245  -2.8329  -2.3746  -2.1074  -2.0019  -1.9356  -1.7951  -1.7116
    -1.4325  -1.3687  -1.2192  -1.1796  -1.0457  -1.0115  -0.9794  -0.9428
    -0.8953  -0.8793  -0.8118  -0.7577  -0.7326  -0.6880  -0.6554  -0.6437
    -0.5429  -0.3833   0.6377   0.6958   0.7375   0.7479   4.3054   4.4094
     4.4521   4.6186   6.9392   7.2494   7.6567   7.9197   8.1884   8.2596
     8.3813   8.5738   8.7322   8.8868   8.9273   9.0966   9.1472

          k =-0.5000 0.2813-0.4366 ( 53267 PWs)   bands (ev):

   -24.6533 -24.6291 -24.5976 -24.5881 -19.2112 -19.1996 -19.1780 -19.1757
   -19.0761 -19.0477 -19.0078 -18.9991 -17.3327 -17.3208 -17.2802 -17.2310
   -13.1366 -13.1318 -11.3994 -11.2326  -9.3998  -9.2482  -8.8285  -8.7358
    -8.6512  -8.5233  -8.0860  -7.9680  -7.3743  -7.2210  -7.0653  -7.0387
    -6.9447  -6.8856  -6.7893  -6.6623  -6.6079  -6.5652  -6.3898  -6.2959
    -6.2314  -6.1457  -6.1015  -6.0637  -5.9346  -5.8614  -5.7676  -5.6451
    -5.1610  -5.1102  -4.8738  -4.6198  -4.4843  -3.7353  -3.5729  -3.4815
    -3.3325  -2.8301  -2.3757  -2.0795  -2.0295  -1.9366  -1.8541  -1.6894
    -1.4125  -1.3735  -1.1960  -1.1284  -1.0630  -1.0191  -0.9923  -0.9629
    -0.8889  -0.8683  -0.8423  -0.7747  -0.7344  -0.7196  -0.6590  -0.6218
    -0.4825  -0.3924   0.6413   0.6899   0.7213   0.7650   4.3405   4.3634
     4.4821   4.5915   6.9829   7.3206   7.5489   7.7085   8.0762   8.2971
     8.4329   8.6213   8.6621   8.9382   9.0382   9.1030   9.2876

          k =-0.5000-0.9182-0.0723 ( 53178 PWs)   bands (ev):

   -24.6521 -24.6285 -24.5931 -24.5903 -19.2178 -19.1994 -19.1794 -19.1759
   -19.0849 -19.0560 -19.0021 -19.0020 -17.3306 -17.3100 -17.2815 -17.2267
   -13.1388 -13.1231 -11.4028 -11.2511  -9.3795  -9.2427  -8.8246  -8.7494
    -8.5963  -8.5500  -8.2525  -8.1031  -7.2279  -7.2018  -7.1523  -7.0903
    -6.8749  -6.8526  -6.7504  -6.6195  -6.5216  -6.4805  -6.3408  -6.3211
    -6.1938  -6.1294  -6.1250  -6.0603  -6.0487  -5.8652  -5.7555  -5.7068
    -5.1821  -5.1658  -4.9202  -4.6080  -4.4132  -3.6838  -3.6597  -3.4705
    -3.2955  -2.8695  -2.2987  -2.0993  -1.9424  -1.8990  -1.7778  -1.6520
    -1.2873  -1.2807  -1.2244  -1.1899  -1.0449  -1.0210  -1.0128  -0.9865
    -0.9497  -0.8811  -0.7740  -0.7407  -0.6720  -0.6678  -0.6636  -0.6465
    -0.5155  -0.4236   0.6814   0.7003   0.7181   0.7412   4.3182   4.3829
     4.4058   4.6009   7.1590   7.3987   7.7425   7.8202   7.9243   7.9375
     8.2021   8.2834   8.5476   8.6347   8.8048   8.8926   8.9553

          k =-0.5000-0.9182-0.4903 ( 53180 PWs)   bands (ev):

   -24.6520 -24.6284 -24.5954 -24.5882 -19.2174 -19.2007 -19.1788 -19.1753
   -19.0855 -19.0557 -19.0030 -19.0011 -17.3314 -17.3106 -17.2808 -17.2261
   -13.1391 -13.1229 -11.4024 -11.2507  -9.3919  -9.2245  -8.8337  -8.7309
    -8.6424  -8.5300  -8.2609  -8.0630  -7.3148  -7.2175  -7.0808  -7.0573
    -6.9815  -6.8110  -6.7515  -6.5813  -6.5235  -6.4614  -6.3508  -6.2272
    -6.2122  -6.2094  -6.1362  -6.0718  -5.9226  -5.9204  -5.8661  -5.6612
    -5.1979  -5.1332  -4.8984  -4.5933  -4.4440  -3.6863  -3.6495  -3.4688
    -3.3014  -2.8623  -2.3085  -2.0375  -2.0068  -1.9331  -1.8067  -1.6497
    -1.2791  -1.2435  -1.1931  -1.1370  -1.1328  -0.9941  -0.9907  -0.9699
    -0.9355  -0.8996  -0.8467  -0.7604  -0.6905  -0.6789  -0.6785  -0.5996
    -0.5228  -0.3644   0.6883   0.6997   0.7069   0.7443   4.3324   4.3432
     4.4513   4.5727   7.3155   7.4222   7.5183   7.6999   7.8783   7.9974
     8.1867   8.2731   8.3314   8.7026   8.8100   8.9365   9.0430

     highest occupied, lowest unoccupied level (ev):     0.7849    4.3054

!    total energy              =    -905.99721898 Ry
     Harris-Foulkes estimate   =    -905.99721899 Ry
     estimated scf accuracy    <          8.2E-09 Ry

     total all-electron energy =     -3324.663027 Ry

     The total energy is the sum of the following terms:

     one-electron contribution =    -449.74004545 Ry
     hartree contribution      =     294.15244164 Ry
     xc contribution           =    -185.48978180 Ry
     ewald contribution        =    -331.00540522 Ry
     Dispersion Correction     =      -0.25247022 Ry
     one-center paw contrib.   =    -233.66195793 Ry

     convergence has been achieved in  16 iterations

     Forces acting on atoms (cartesian axes, Ry/au):

     atom    1 type  2   force =    -0.00316715    0.00133682   -0.00299074
     atom    2 type  2   force =     0.00316715   -0.00133682    0.00299074
     atom    3 type  1   force =     0.00196933   -0.00080231    0.00404466
     atom    4 type  1   force =    -0.00196933    0.00080231   -0.00404466
     atom    5 type  1   force =     0.00262841   -0.01464930   -0.00936268
     atom    6 type  1   force =    -0.00262841    0.01464930    0.00936268
     atom    7 type  2   force =    -0.00353564    0.00597381   -0.00145077
     atom    8 type  2   force =     0.00353564   -0.00597381    0.00145077
     atom    9 type  1   force =     0.00283632    0.01728503   -0.00239131
     atom   10 type  1   force =    -0.00283632   -0.01728503    0.00239131
     atom   11 type  1   force =    -0.00145660   -0.01777190    0.00120178
     atom   12 type  1   force =     0.00145660    0.01777190   -0.00120178
     atom   13 type  2   force =     0.00184111   -0.00511088   -0.00134477
     atom   14 type  2   force =    -0.00184111    0.00511088    0.00134477
     atom   15 type  4   force =    -0.00454812    0.00426717   -0.00263468
     atom   16 type  4   force =     0.00454812   -0.00426717    0.00263468
     atom   17 type  4   force =    -0.00073842   -0.00026270    0.00423209
     atom   18 type  4   force =     0.00073842    0.00026270   -0.00423209
     atom   19 type  4   force =     0.00431451   -0.00078235    0.00200699
     atom   20 type  4   force =    -0.00431451    0.00078235   -0.00200699
     atom   21 type  2   force =     0.00236014   -0.00445060   -0.00079723
     atom   22 type  2   force =    -0.00236014    0.00445060    0.00079723
     atom   23 type  4   force =    -0.00137615    0.00413881   -0.00549440
     atom   24 type  4   force =     0.00137615   -0.00413881    0.00549440
     atom   25 type  4   force =    -0.00699732    0.00139361    0.00257029
     atom   26 type  4   force =     0.00699732   -0.00139361   -0.00257029
     atom   27 type  4   force =    -0.00158985   -0.00090402    0.00399455
     atom   28 type  4   force =     0.00158985    0.00090402   -0.00399455
     atom   29 type  3   force =    -0.00062104    0.00021858   -0.00025595
     atom   30 type  3   force =     0.00062104   -0.00021858    0.00025595
     atom   31 type  3   force =     0.00032471    0.00135024    0.00122128
     atom   32 type  3   force =    -0.00032471   -0.00135024   -0.00122128
     atom   33 type  3   force =     0.00116858    0.00027343   -0.00104546
     atom   34 type  3   force =    -0.00116858   -0.00027343    0.00104546
     atom   35 type  3   force =     0.00018435   -0.00052315   -0.00157252
     atom   36 type  3   force =    -0.00018435    0.00052315    0.00157252
     atom   37 type  3   force =    -0.00011377    0.00134720   -0.00076195
     atom   38 type  3   force =     0.00011377   -0.00134720    0.00076195
     atom   39 type  3   force =     0.00045128   -0.00103661   -0.00020191
     atom   40 type  3   force =    -0.00045128    0.00103661    0.00020191
     atom   41 type  3   force =    -0.00047034    0.01412084    0.00647069
     atom   42 type  3   force =     0.00047034   -0.01412084   -0.00647069
     atom   43 type  3   force =    -0.00093954   -0.00166092    0.00002816
     atom   44 type  3   force =     0.00093954    0.00166092   -0.00002816
     atom   45 type  3   force =    -0.00216961   -0.00333781    0.00116981
     atom   46 type  3   force =     0.00216961    0.00333781   -0.00116981
     atom   47 type  3   force =     0.00104092   -0.00122216   -0.00004750
     atom   48 type  3   force =    -0.00104092    0.00122216    0.00004750
     atom   49 type  3   force =     0.00065488   -0.00016793    0.00111058
     atom   50 type  3   force =    -0.00065488    0.00016793   -0.00111058
     atom   51 type  3   force =    -0.00220230   -0.01694960    0.00246446
     atom   52 type  3   force =     0.00220230    0.01694960   -0.00246446
     atom   53 type  3   force =     0.00053964    0.00086317    0.00003217
     atom   54 type  3   force =    -0.00053964   -0.00086317   -0.00003217
     atom   55 type  3   force =     0.00401394    0.01481250   -0.00233781
     atom   56 type  3   force =    -0.00401394   -0.01481250    0.00233781

     Total force =     0.065174     Total SCF correction =     0.000156


     Computing stress (Cartesian axis) and pressure

          total   stress  (Ry/bohr**3)                   (kbar)     P=    0.34
   0.00002055   0.00001712  -0.00001023          3.02      2.52     -1.50
   0.00001712  -0.00001939   0.00000050          2.52     -2.85      0.07
  -0.00001023   0.00000050   0.00000574         -1.50      0.07      0.84


     Writing output data file scf.save
 
     init_run     :     15.97s CPU     16.52s WALL (       1 calls)
     electrons    :    414.49s CPU    430.98s WALL (       1 calls)
     forces       :      8.22s CPU      8.27s WALL (       1 calls)
     stress       :     31.05s CPU     31.07s WALL (       1 calls)

     Called by init_run:
     wfcinit      :      9.66s CPU     10.14s WALL (       1 calls)
     potinit      :      2.22s CPU      2.24s WALL (       1 calls)

     Called by electrons:
     c_bands      :    359.83s CPU    374.44s WALL (      16 calls)
     sum_band     :     47.32s CPU     49.05s WALL (      16 calls)
     v_of_rho     :      1.09s CPU      1.19s WALL (      17 calls)
     newd         :      2.21s CPU      2.25s WALL (      17 calls)
     PAW_pot      :      3.52s CPU      3.52s WALL (      17 calls)
     mix_rho      :      0.27s CPU      0.28s WALL (      16 calls)

     Called by c_bands:
     init_us_2    :      3.86s CPU      3.88s WALL (     420 calls)
     cegterg      :    347.16s CPU    361.72s WALL (     192 calls)

     Called by sum_band:
     sum_band:bec :      0.04s CPU      0.04s WALL (     192 calls)
     addusdens    :      2.34s CPU      2.37s WALL (      16 calls)

     Called by *egterg:
     h_psi        :    228.86s CPU    237.76s WALL (     972 calls)
     s_psi        :     26.42s CPU     26.41s WALL (     972 calls)
     g_psi        :      1.57s CPU      1.57s WALL (     768 calls)
     cdiaghg      :     22.56s CPU     22.54s WALL (     960 calls)

     Called by h_psi:
     h_psi:pot    :    226.43s CPU    235.28s WALL (     972 calls)
     h_psi:calbec :     25.33s CPU     25.41s WALL (     972 calls)
     vloc_psi     :    174.60s CPU    183.36s WALL (     972 calls)
     add_vuspsi   :     26.49s CPU     26.50s WALL (     972 calls)

     General routines
     calbec       :     37.20s CPU     37.32s WALL (    1224 calls)
     fft          :      1.32s CPU      1.48s WALL (     245 calls)
     fftw         :    189.47s CPU    199.47s WALL (  126212 calls)
 
     Parallel routines
     fft_scatter  :     58.37s CPU     64.29s WALL (  126457 calls)
 
     PWSCF        :  7m54.39s CPU     8m12.50s WALL

 
   This run was terminated on:   0:31:43   7Dec2017            

=------------------------------------------------------------------------------=
   JOB DONE.
=------------------------------------------------------------------------------=
