
     Program PWSCF v.6.1 (svn rev. 13369) starts on 21Dec2017 at  0: 9:37 

     This program is part of the open-source Quantum ESPRESSO suite
     for quantum simulation of materials; please cite
         "P. Giannozzi et al., J. Phys.:Condens. Matter 21 395502 (2009);
          URL http://www.quantum-espresso.org", 
     in publications or presentations arising from this work. More details at
     http://www.quantum-espresso.org/quote

     Parallel version (MPI), running on     8 processors
     R & G space division:  proc/nbgrp/npool/nimage =       8
     Waiting for input...
     Reading input from standard input

     Current dimensions of program PWSCF are:
     Max number of different atomic species (ntypx) = 10
     Max number of k-points (npk) =  40000
     Max angular momentum in pseudopotentials (lmaxx) =  3
               file C.pbe-n-kjpaw_psl.0.1.UPF: wavefunction(s)  2P renormalized
               file N.pbe-n-kjpaw_psl.0.1.UPF: wavefunction(s)  2P renormalized
               file H.pbe-kjpaw_psl.0.1.UPF: wavefunction(s)  1S renormalized
               file O.pbe-n-kjpaw_psl.0.1.UPF: wavefunction(s)  2P renormalized

     -------------------------------------
     Parameters for Dispersion Correction:
     -------------------------------------
       atom      VdW radius       C_6     

        C          2.744         60.710
        N          2.640         42.670
        H          1.892          4.857
        O          2.536         24.284

     Subspace diagonalization in iterative solution of the eigenvalue problem:
     a serial algorithm will be used

 
     Parallelization info
     --------------------
     sticks:   dense  smooth     PW     G-vecs:    dense   smooth      PW
     Min        1506    1506    396               159596   159596   21685
     Max        1507    1507    397               159601   159601   21690
     Sum       12053   12053   3169              1276791  1276791  173489
 


     bravais-lattice index     =            0
     lattice parameter (alat)  =      15.7717  a.u.
     unit-cell volume          =    9450.6152 (a.u.)^3
     number of atoms/cell      =          144
     number of atomic types    =            4
     number of electrons       =       456.00
     number of Kohn-Sham states=          273
     kinetic-energy cutoff     =     100.0000  Ry
     charge density cutoff     =     400.0000  Ry
     convergence threshold     =      1.0E-08
     mixing beta               =       0.5000
     number of iterations used =            8  plain     mixing
     Exchange-correlation      =  SLA  PW   PBX  PBC ( 1  4  3  4 0 0)

     celldm(1)=  15.771654  celldm(2)=   0.000000  celldm(3)=   0.000000
     celldm(4)=   0.000000  celldm(5)=   0.000000  celldm(6)=   0.000000

     crystal axes: (cart. coord. in units of alat)
               a(1) = (   1.000000   0.000000   0.000000 )  
               a(2) = (   0.000000   1.520609   0.000000 )  
               a(3) = (  -0.224619   0.000000   1.584203 )  

     reciprocal axes: (cart. coord. in units 2 pi/alat)
               b(1) = (  1.000000  0.000000  0.141787 )  
               b(2) = (  0.000000  0.657631  0.000000 )  
               b(3) = (  0.000000  0.000000  0.631232 )  


     PseudoPot. # 1 for  C read from file:
     /scratch/ahofstet/pseudo/C.pbe-n-kjpaw_psl.0.1.UPF
     MD5 check sum: 430fe95172b1e11ef3f8ed03bac87931
     Pseudo is Projector augmented-wave + core cor, Zval =  4.0
     Generated using "atomic" code by A. Dal Corso  v.5.0.99 svn rev. 10869
     Shape of augmentation charge: BESSEL
     Using radial grid of 1073 points,  4 beta functions with: 
                l(1) =   0
                l(2) =   0
                l(3) =   1
                l(4) =   1
     Q(r) pseudized with 0 coefficients 


     PseudoPot. # 2 for  N read from file:
     /scratch/ahofstet/pseudo/N.pbe-n-kjpaw_psl.0.1.UPF
     MD5 check sum: f73187c8b701007e77325f868c9291d7
     Pseudo is Projector augmented-wave + core cor, Zval =  5.0
     Generated using "atomic" code by A. Dal Corso  v.5.0.99 svn rev. 10869
     Shape of augmentation charge: PSQ
     Using radial grid of 1085 points,  4 beta functions with: 
                l(1) =   0
                l(2) =   0
                l(3) =   1
                l(4) =   1
     Q(r) pseudized with 0 coefficients 


     PseudoPot. # 3 for  H read from file:
     /scratch/ahofstet/pseudo/H.pbe-kjpaw_psl.0.1.UPF
     MD5 check sum: 94e484f906d9e9773b2f6e52662335b2
     Pseudo is Projector augmented-wave, Zval =  1.0
     Generated using "atomic" code by A. Dal Corso  v.5.0.99 svn rev. 10869
     Shape of augmentation charge: PSQ
     Using radial grid of  929 points,  2 beta functions with: 
                l(1) =   0
                l(2) =   0
     Q(r) pseudized with 0 coefficients 


     PseudoPot. # 4 for  O read from file:
     /scratch/ahofstet/pseudo/O.pbe-n-kjpaw_psl.0.1.UPF
     MD5 check sum: 3f94a2996a3169367d6eb21d9b593f20
     Pseudo is Projector augmented-wave + core cor, Zval =  6.0
     Generated using "atomic" code by A. Dal Corso  v.5.0.99 svn rev. 10869
     Shape of augmentation charge: BESSEL
     Using radial grid of 1095 points,  4 beta functions with: 
                l(1) =   0
                l(2) =   0
                l(3) =   1
                l(4) =   1
     Q(r) pseudized with 0 coefficients 


     atomic species   valence    mass     pseudopotential
        C              4.00    12.01070      C( 1.00)
        N              5.00    14.00670      N( 1.00)
        H              1.00     1.00794      H( 1.00)
        O              6.00    15.99940      O( 1.00)

      2 Sym. Ops., with inversion, found



   Cartesian axes

     site n.     atom                  positions (alat units)
         1           O   tau(   1) = (   0.2599123   0.4158515   1.2186473  )
         2           O   tau(   2) = (  -0.0968469   1.1761739   1.1576024  )
         3           O   tau(   3) = (   0.5154684   1.1047572   0.3655558  )
         4           O   tau(   4) = (   0.8722276   0.3444348   0.4266007  )
         5           O   tau(   5) = (   0.0595960   0.5578731   0.9754523  )
         6           O   tau(   6) = (   0.1034638   1.3181879   1.4007898  )
         7           O   tau(   7) = (   0.7157848   0.9627356   0.6087509  )
         8           O   tau(   8) = (   0.6719169   0.2024208   0.1834134  )
         9           O   tau(   9) = (   0.1950330   0.2527511   0.9334543  )
        10           O   tau(  10) = (  -0.0319593   1.0130653   1.4428554  )
        11           O   tau(  11) = (   0.5803477   1.2678576   0.6507488  )
        12           O   tau(  12) = (   0.8073400   0.5075434   0.1413477  )
        13           O   tau(  13) = (   0.2598461   0.6008555   1.4174655  )
        14           O   tau(  14) = (  -0.0967509   1.3611403   0.9587264  )
        15           O   tau(  15) = (   0.5155346   0.9197532   0.1667376  )
        16           O   tau(  16) = (   0.8721317   0.1594684   0.6254767  )
        17           O   tau(  17) = (  -0.0875287   0.5707618   0.7473212  )
        18           O   tau(  18) = (   0.4752329   1.3310684   0.0447069  )
        19           O   tau(  19) = (   0.8629094   0.9498469   0.8368820  )
        20           O   tau(  20) = (   0.3001478   0.1895402   1.5394962  )
        21           O   tau(  21) = (   0.3451878   0.0400175   1.0119111  )
        22           O   tau(  22) = (  -0.1821208   0.8003268   1.3643934  )
        23           O   tau(  23) = (   0.4301929   1.4805911   0.5722920  )
        24           O   tau(  24) = (   0.9575016   0.7202819   0.2198097  )
        25           N   tau(  25) = (  -0.1711254   0.3292367   1.2704242  )
        26           N   tau(  26) = (   0.3341878   1.0895244   1.1058488  )
        27           N   tau(  27) = (   0.9465061   1.1913720   0.3137790  )
        28           N   tau(  28) = (   0.4411930   0.4310842   0.4783543  )
        29           N   tau(  29) = (   0.7996887   0.2304042   1.1227246  )
        30           N   tau(  30) = (   0.3633793   0.9907065   1.2535563  )
        31           N   tau(  31) = (  -0.0243079   1.2902044   0.4614785  )
        32           N   tau(  32) = (   0.4120014   0.5299022   0.3306469  )
        33           N   tau(  33) = (  -0.0974159   0.1656161   1.2550529  )
        34           N   tau(  34) = (   0.2604710   0.9259074   1.1212464  )
        35           N   tau(  35) = (   0.8727966   1.3549926   0.3291502  )
        36           N   tau(  36) = (   0.5149098   0.5947013   0.4629568  )
        37           C   tau(  37) = (   0.1093594   0.3560753   1.2757133  )
        38           C   tau(  38) = (   0.0537066   1.1163712   1.1005753  )
        39           C   tau(  39) = (   0.6660213   1.1645334   0.3084898  )
        40           C   tau(  40) = (   0.7216741   0.4042375   0.4836278  )
        41           C   tau(  41) = (  -0.0430639   0.4489013   1.2290326  )
        42           C   tau(  42) = (   0.2061335   1.2091985   1.1472356  )
        43           C   tau(  43) = (   0.8184446   1.0717074   0.3551705  )
        44           C   tau(  44) = (   0.5692472   0.3114102   0.4369675  )
        45           C   tau(  45) = (  -0.0680768   0.4687166   1.0485808  )
        46           C   tau(  46) = (   0.2311470   1.2290299   1.3276725  )
        47           C   tau(  47) = (   0.8434575   1.0518921   0.5356223  )
        48           C   tau(  48) = (   0.5442338   0.2915787   0.2565306  )
        49           C   tau(  49) = (  -0.0887092   0.2928409   0.9963065  )
        50           C   tau(  50) = (   0.2517849   1.0531592   1.3799687  )
        51           C   tau(  51) = (   0.8640900   1.2277678   0.5878967  )
        52           C   tau(  52) = (   0.5235958   0.4674495   0.2042344  )
        53           C   tau(  53) = (   0.0606740   0.1895056   1.0211213  )
        54           C   tau(  54) = (   0.1023992   0.9498194   1.3551875  )
        55           C   tau(  55) = (   0.7147067   1.3311031   0.5630818  )
        56           C   tau(  56) = (   0.6729815   0.5707893   0.2290156  )
        57           C   tau(  57) = (   0.0731355   0.1908497   1.2054596  )
        58           C   tau(  58) = (   0.0899241   0.9511526   1.1708584  )
        59           C   tau(  59) = (   0.7022452   1.3297590   0.3787435  )
        60           C   tau(  60) = (   0.6854567   0.5694561   0.4133447  )
        61           C   tau(  61) = (   0.3262933   0.5380591   1.3035043  )
        62           C   tau(  62) = (   0.8367706   1.2983485   1.0727001  )
        63           C   tau(  63) = (   0.4490874   0.9825495   0.2806988  )
        64           C   tau(  64) = (  -0.0613899   0.2222601   0.5115030  )
        65           C   tau(  65) = (   0.0362217   0.5994364   0.8192591  )
        66           C   tau(  66) = (   0.1268373   1.3597506   1.5569746  )
        67           C   tau(  67) = (   0.7391590   0.9211723   0.7649441  )
        68           C   tau(  68) = (   0.6485434   0.1608581   0.0272285  )
        69           C   tau(  69) = (   0.3339133   0.1684204   0.9432069  )
        70           C   tau(  70) = (  -0.1708392   0.9287386   1.4331235  )
        71           C   tau(  71) = (   0.4414675   1.3521883   0.6409963  )
        72           C   tau(  72) = (   0.9462199   0.5918700   0.1510796  )
        73           C   tau(  73) = (   0.4882259   0.5804722   1.2383539  )
        74           C   tau(  74) = (   0.6748475   1.3407766   1.1378377  )
        75           C   tau(  75) = (   0.2871548   0.9401365   0.3458492  )
        76           C   tau(  76) = (   0.1005332   0.1798321   0.4463654  )
        77           C   tau(  77) = (   0.1815453   0.6788127   0.7498617  )
        78           C   tau(  78) = (   0.2061554   1.4391097   0.0422310  )
        79           C   tau(  79) = (   0.5938354   0.8417959   0.8343414  )
        80           C   tau(  80) = (   0.5692254   0.0814989   1.5419722  )
        81           C   tau(  81) = (   0.4689477   0.2576757   0.8650790  )
        82           C   tau(  82) = (   0.6941299   1.0179772   1.5112629  )
        83           C   tau(  83) = (   0.3064331   1.2629330   0.7191242  )
        84           C   tau(  84) = (   0.0812508   0.5026315   0.0729402  )
        85           H   tau(  85) = (   0.1139691   0.3474469   1.4067895  )
        86           H   tau(  86) = (   0.0491087   1.1077157   0.9695011  )
        87           H   tau(  87) = (   0.6614116   1.1731618   0.1774137  )
        88           H   tau(  88) = (   0.7262720   0.4128930   0.6147020  )
        89           H   tau(  89) = (  -0.0631302   0.5584699   1.2982342  )
        90           H   tau(  90) = (   0.2261989   1.3187620   1.0780253  )
        91           H   tau(  91) = (   0.8385109   0.9621388   0.2859689  )
        92           H   tau(  92) = (   0.5491818   0.2018467   0.5061778  )
        93           H   tau(  93) = (   0.8182498   0.5319510   1.0266636  )
        94           H   tau(  94) = (   0.3448171   1.2922677   1.3496005  )
        95           H   tau(  95) = (  -0.0428691   0.9886577   0.5575395  )
        96           H   tau(  96) = (   0.4305636   0.2283410   0.2346026  )
        97           H   tau(  97) = (   0.8556568   0.2776473   0.8787094  )
        98           H   tau(  98) = (   0.3074256   1.0379822   1.4975659  )
        99           H   tau(  99) = (  -0.0802761   1.2429613   0.7054938  )
       100           H   tau( 100) = (   0.4679552   0.4826264   0.0866372  )
       101           H   tau( 101) = (   0.0360726   0.0667209   0.9809876  )
       102           H   tau( 102) = (   0.1270081   0.8270367   1.3953273  )
       103           H   tau( 103) = (   0.7393081   1.4538878   0.6032155  )
       104           H   tau( 104) = (   0.6483727   0.6935720   0.1888758  )
       105           H   tau( 105) = (   0.1468809   0.0950273   1.2556818  )
       106           H   tau( 106) = (   0.0161746   0.8553304   1.1206420  )
       107           H   tau( 107) = (   0.6284999   1.4255814   0.3285214  )
       108           H   tau( 108) = (   0.7592062   0.6652783   0.4635612  )
       109           H   tau( 109) = (   0.5314741   0.6922238   1.2914620  )
       110           H   tau( 110) = (   0.6315867   1.4525345   1.0847568  )
       111           H   tau( 111) = (   0.2439067   0.8283848   0.2927411  )
       112           H   tau( 112) = (   0.1437940   0.0680742   0.4994464  )
       113           H   tau( 113) = (   0.5724183   0.4826534   1.2659309  )
       114           H   tau( 114) = (   0.5906425   1.2429575   1.1103034  )
       115           H   tau( 115) = (   0.2029625   1.0379553   0.3182722  )
       116           H   tau( 116) = (   0.1847383   0.2776512   0.4738998  )
       117           H   tau( 117) = (   0.4812075   0.5923123   1.1074620  )
       118           H   tau( 118) = (   0.6818920   1.3526163   1.2687326  )
       119           H   tau( 119) = (   0.2941732   0.9282964   0.4767412  )
       120           H   tau( 120) = (   0.0934887   0.1679924   0.3154705  )
       121           H   tau( 121) = (   0.1441343   0.7613621   0.6548350  )
       122           H   tau( 122) = (   0.2435911   1.5216510   0.1372555  )
       123           H   tau( 123) = (   0.6312465   0.7592466   0.9293681  )
       124           H   tau( 124) = (   0.5317896  -0.0010424   1.4469476  )
       125           H   tau( 125) = (   0.2508443   0.7410741   0.8425340  )
       126           H   tau( 126) = (  -0.0877939   1.5013826   1.5337902  )
       127           H   tau( 127) = (   0.5245364   0.7795345   0.7416692  )
       128           H   tau( 128) = (   0.8631746   0.0192261   0.0504129  )
       129           H   tau( 129) = (   0.2575208   0.5860732   0.6943216  )
       130           H   tau( 130) = (   0.1301948   1.3463628   0.0977792  )
       131           H   tau( 131) = (   0.5178600   0.9345355   0.8898815  )
       132           H   tau( 132) = (   0.6451860   0.1742459   1.4864239  )
       133           H   tau( 133) = (   0.5649634   0.1743038   0.8329757  )
       134           H   tau( 134) = (   0.5981142   0.9346032   1.5433608  )
       135           H   tau( 135) = (   0.2104174   1.3463049   0.7512274  )
       136           H   tau( 136) = (   0.1772665   0.5860054   0.0408423  )
       137           H   tau( 137) = (   0.4275789   0.3252763   0.7601692  )
       138           H   tau( 138) = (   0.9601198   1.0855864   0.0319611  )
       139           H   tau( 139) = (   0.3478018   1.1953324   0.8240339  )
       140           H   tau( 140) = (  -0.1847391   0.4350223   1.5522420  )
       141           H   tau( 141) = (   0.5158933   0.3429258   0.9541570  )
       142           H   tau( 142) = (   0.6471803   1.1032195   1.4221751  )
       143           H   tau( 143) = (   0.2594875   1.1776828   0.6300461  )
       144           H   tau( 144) = (   0.1282004   0.4173891   0.1620280  )

     number of k points=     8
                       cart. coord. in units 2pi/alat
        k(    1) = (   0.0000000   0.0000000   0.0000000), wk =   0.2500000
        k(    2) = (   0.0000000   0.0000000  -0.3156161), wk =   0.2500000
        k(    3) = (   0.0000000  -0.3288157   0.0000000), wk =   0.2500000
        k(    4) = (   0.0000000  -0.3288157  -0.3156161), wk =   0.2500000
        k(    5) = (  -0.5000000   0.0000000  -0.0708935), wk =   0.2500000
        k(    6) = (  -0.5000000   0.0000000  -0.3865095), wk =   0.2500000
        k(    7) = (  -0.5000000  -0.3288157  -0.0708935), wk =   0.2500000
        k(    8) = (  -0.5000000  -0.3288157  -0.3865095), wk =   0.2500000

     Dense  grid:  1276791 G-vectors     FFT dimensions: ( 108, 160, 162)

     Estimated max dynamical RAM per process >    1789.55MB

     Estimated total allocated dynamical RAM >   14316.38MB

     Check: negative/imaginary core charge=   -0.000002    0.000000

     Initial potential from superposition of free atoms

     starting charge  455.99731, renormalised to  456.00000
     Starting wfc are  396 randomized atomic wfcs
     Checking if some PAW data can be deallocated... 

     total cpu time spent up to now is      113.8 secs

     per-process dynamical memory:  1171.0 Mb

     Self-consistent Calculation

     iteration #  1     ecut=   100.00 Ry     beta=0.50
     Davidson diagonalization with overlap
     ethr =  1.00E-02,  avg # of iterations =  5.9

     total cpu time spent up to now is      489.5 secs

     total energy              =   -2291.55373491 Ry
     Harris-Foulkes estimate   =   -2298.57854849 Ry
     estimated scf accuracy    <      13.67145621 Ry

     iteration #  2     ecut=   100.00 Ry     beta=0.50
     Davidson diagonalization with overlap
     ethr =  3.00E-03,  avg # of iterations =  2.0

     total cpu time spent up to now is      670.3 secs

     total energy              =   -2292.51930112 Ry
     Harris-Foulkes estimate   =   -2293.49050297 Ry
     estimated scf accuracy    <       2.01501827 Ry

     iteration #  3     ecut=   100.00 Ry     beta=0.50
     Davidson diagonalization with overlap
     ethr =  4.42E-04,  avg # of iterations =  6.9

     total cpu time spent up to now is     1038.9 secs

     total energy              =   -2293.80068104 Ry
     Harris-Foulkes estimate   =   -2294.45034352 Ry
     estimated scf accuracy    <       1.75467663 Ry

     iteration #  4     ecut=   100.00 Ry     beta=0.50
     Davidson diagonalization with overlap
     ethr =  3.85E-04,  avg # of iterations =  2.0

     total cpu time spent up to now is     1213.1 secs

     total energy              =   -2293.60852419 Ry
     Harris-Foulkes estimate   =   -2293.91965216 Ry
     estimated scf accuracy    <       0.49980425 Ry

     iteration #  5     ecut=   100.00 Ry     beta=0.50
     Davidson diagonalization with overlap
     ethr =  1.10E-04,  avg # of iterations =  5.5

     total cpu time spent up to now is     1567.3 secs

     total energy              =   -2293.96041763 Ry
     Harris-Foulkes estimate   =   -2294.14189984 Ry
     estimated scf accuracy    <       0.61637180 Ry

     iteration #  6     ecut=   100.00 Ry     beta=0.50
     Davidson diagonalization with overlap
     ethr =  1.10E-04,  avg # of iterations =  1.0

     total cpu time spent up to now is     1734.3 secs

     total energy              =   -2293.79424807 Ry
     Harris-Foulkes estimate   =   -2293.97468625 Ry
     estimated scf accuracy    <       0.30077795 Ry

     iteration #  7     ecut=   100.00 Ry     beta=0.50
     Davidson diagonalization with overlap
     ethr =  6.60E-05,  avg # of iterations =  4.6

     total cpu time spent up to now is     2039.2 secs

     total energy              =   -2293.94103434 Ry
     Harris-Foulkes estimate   =   -2293.97725293 Ry
     estimated scf accuracy    <       0.09494676 Ry

     iteration #  8     ecut=   100.00 Ry     beta=0.50
     Davidson diagonalization with overlap
     ethr =  2.08E-05,  avg # of iterations =  1.1

     total cpu time spent up to now is     2206.4 secs

     total energy              =   -2293.92623103 Ry
     Harris-Foulkes estimate   =   -2293.94429767 Ry
     estimated scf accuracy    <       0.03363764 Ry

     iteration #  9     ecut=   100.00 Ry     beta=0.50
     Davidson diagonalization with overlap
     ethr =  7.38E-06,  avg # of iterations =  5.5

     total cpu time spent up to now is     2529.4 secs

     total energy              =   -2293.94782651 Ry
     Harris-Foulkes estimate   =   -2293.95050272 Ry
     estimated scf accuracy    <       0.01010101 Ry

     iteration # 10     ecut=   100.00 Ry     beta=0.50
     Davidson diagonalization with overlap
     ethr =  2.22E-06,  avg # of iterations =  1.0

     total cpu time spent up to now is     2695.8 secs

     total energy              =   -2293.94507820 Ry
     Harris-Foulkes estimate   =   -2293.94800124 Ry
     estimated scf accuracy    <       0.00539831 Ry

     iteration # 11     ecut=   100.00 Ry     beta=0.50
     Davidson diagonalization with overlap
     ethr =  1.18E-06,  avg # of iterations =  3.0

     total cpu time spent up to now is     2974.4 secs

     total energy              =   -2293.94725537 Ry
     Harris-Foulkes estimate   =   -2293.94754919 Ry
     estimated scf accuracy    <       0.00063509 Ry

     iteration # 12     ecut=   100.00 Ry     beta=0.50
     Davidson diagonalization with overlap
     ethr =  1.39E-07,  avg # of iterations =  2.0

     total cpu time spent up to now is     3146.6 secs

     total energy              =   -2293.94723114 Ry
     Harris-Foulkes estimate   =   -2293.94729660 Ry
     estimated scf accuracy    <       0.00015044 Ry

     iteration # 13     ecut=   100.00 Ry     beta=0.50
     Davidson diagonalization with overlap
     ethr =  3.30E-08,  avg # of iterations =  4.0

     total cpu time spent up to now is     3467.5 secs

     total energy              =   -2293.94736387 Ry
     Harris-Foulkes estimate   =   -2293.94737298 Ry
     estimated scf accuracy    <       0.00004273 Ry

     iteration # 14     ecut=   100.00 Ry     beta=0.50
     Davidson diagonalization with overlap
     ethr =  9.37E-09,  avg # of iterations =  1.0

     total cpu time spent up to now is     3633.9 secs

     total energy              =   -2293.94735274 Ry
     Harris-Foulkes estimate   =   -2293.94736445 Ry
     estimated scf accuracy    <       0.00002607 Ry

     iteration # 15     ecut=   100.00 Ry     beta=0.50
     Davidson diagonalization with overlap
     ethr =  5.72E-09,  avg # of iterations =  4.0

     total cpu time spent up to now is     3867.4 secs

     total energy              =   -2293.94735946 Ry
     Harris-Foulkes estimate   =   -2293.94735952 Ry
     estimated scf accuracy    <       0.00000022 Ry

     iteration # 16     ecut=   100.00 Ry     beta=0.50
     Davidson diagonalization with overlap
     ethr =  4.87E-11,  avg # of iterations =  4.0

     total cpu time spent up to now is     4224.9 secs

     total energy              =   -2293.94735973 Ry
     Harris-Foulkes estimate   =   -2293.94735975 Ry
     estimated scf accuracy    <       0.00000008 Ry

     iteration # 17     ecut=   100.00 Ry     beta=0.50
     Davidson diagonalization with overlap
     ethr =  1.73E-11,  avg # of iterations =  1.9

     total cpu time spent up to now is     4394.0 secs

     total energy              =   -2293.94735973 Ry
     Harris-Foulkes estimate   =   -2293.94735974 Ry
     estimated scf accuracy    <       0.00000003 Ry

     iteration # 18     ecut=   100.00 Ry     beta=0.50
     Davidson diagonalization with overlap
     ethr =  5.52E-12,  avg # of iterations =  4.0

     total cpu time spent up to now is     4702.1 secs

     total energy              =   -2293.94735974 Ry
     Harris-Foulkes estimate   =   -2293.94735974 Ry
     estimated scf accuracy    <       0.00000002 Ry

     iteration # 19     ecut=   100.00 Ry     beta=0.50
     Davidson diagonalization with overlap
     ethr =  3.99E-12,  avg # of iterations =  1.0

     total cpu time spent up to now is     4867.9 secs

     total energy              =   -2293.94735973 Ry
     Harris-Foulkes estimate   =   -2293.94735974 Ry
     estimated scf accuracy    <       0.00000001 Ry

     iteration # 20     ecut=   100.00 Ry     beta=0.50
     Davidson diagonalization with overlap
     ethr =  3.25E-12,  avg # of iterations =  4.0

     total cpu time spent up to now is     5098.0 secs

     End of self-consistent calculation

          k = 0.0000 0.0000 0.0000 (159609 PWs)   bands (ev):

   -21.7768 -21.7620 -21.7616 -21.7557 -21.4786 -21.4648 -21.4631 -21.4479
   -21.4006 -21.3993 -21.3904 -21.3857 -21.3611 -21.3572 -21.3530 -21.3524
   -19.2955 -19.2869 -19.2688 -19.2606 -19.1922 -19.1863 -19.1845 -19.1730
   -19.1334 -19.1243 -19.1192 -19.1166 -14.8886 -14.8760 -14.8752 -14.8597
   -14.6151 -14.6113 -14.6103 -14.6068 -14.5868 -14.5820 -14.5780 -14.5767
   -12.5402 -12.5319 -12.5220 -12.5040 -12.5025 -12.5020 -12.4885 -12.4637
   -12.2453 -12.2397 -12.2201 -12.2073 -10.7964 -10.7554 -10.7529 -10.7449
   -10.6578 -10.6497 -10.6421 -10.6352  -9.6575  -9.6360  -9.6187  -9.6056
    -8.9061  -8.8951  -8.8951  -8.8822  -8.8661  -8.8656  -8.8547  -8.8418
    -7.9013  -7.8718  -7.8716  -7.8213  -7.7926  -7.7866  -7.7778  -7.7639
    -7.6501  -7.5722  -7.5505  -7.5260  -6.8135  -6.7824  -6.7741  -6.7566
    -6.0906  -5.9709  -5.9446  -5.9354  -5.8526  -5.8520  -5.8501  -5.7782
    -5.7687  -5.7253  -5.7173  -5.6904  -5.6774  -5.6545  -5.6444  -5.6296
    -5.6224  -5.5535  -5.5514  -5.5254  -5.4907  -5.4795  -5.4424  -5.4407
    -5.3540  -5.2886  -5.2815  -5.2531  -5.2338  -5.2096  -5.1970  -5.1885
    -5.1147  -5.0799  -5.0471  -5.0445  -4.6409  -4.5667  -4.5538  -4.5184
    -4.4737  -4.3534  -4.2971  -4.2881  -4.2039  -4.1745  -4.1559  -4.1190
    -4.0445  -3.9680  -3.9142  -3.8499  -3.6446  -3.6308  -3.6196  -3.5998
    -3.5979  -3.5900  -3.4741  -3.4682  -3.4547  -3.4405  -3.4171  -3.3959
    -3.3871  -3.3300  -3.3076  -3.3031  -3.2705  -3.2664  -3.2572  -3.1614
    -3.0649  -3.0625  -3.0438  -3.0063  -2.9708  -2.9601  -2.9409  -2.9081
    -2.8758  -2.8735  -2.8018  -2.7636  -2.6907  -2.6765  -2.6736  -2.6725
    -2.6372  -2.6285  -2.6271  -2.6082  -2.5912  -2.5430  -2.5324  -2.5181
    -2.5039  -2.4520  -2.4510  -2.4325  -2.0260  -2.0160  -1.8682  -1.8516
    -1.7729  -1.7649  -1.6981  -1.6330  -1.3939  -1.3925  -1.3634  -1.2967
    -0.9753  -0.9526  -0.9042  -0.8239  -0.6587  -0.6427  -0.6387  -0.6183
    -0.2982  -0.2750  -0.2657  -0.2206  -0.2188  -0.2037  -0.1988  -0.1544
    -0.1351  -0.1254  -0.1222  -0.1199   0.2214   0.2280   0.2616   0.2703
     0.2828   0.2889   0.3154   0.3397   4.8620   4.9094   5.1023   5.1454
     5.1995   5.2162   5.2259   5.3032   5.3161   5.3765   5.4150   5.4214
     5.7597   5.8040   5.8471   5.8568   5.8801   6.1271   6.3940   6.4735
     6.6512   6.6602   6.7069   6.7082   6.8022   6.8635   6.9053   6.9516
     7.0466   7.0558   7.0834   7.1896   7.2252   7.4575   7.4660   7.5631
     7.6041   7.8223   7.8305   7.9170   7.9208   8.0105   8.2263   8.2265
     8.2750

          k = 0.0000 0.0000-0.3156 (159542 PWs)   bands (ev):

   -21.7701 -21.7700 -21.7583 -21.7582 -21.4717 -21.4716 -21.4557 -21.4556
   -21.3999 -21.3999 -21.3879 -21.3878 -21.3594 -21.3593 -21.3526 -21.3525
   -19.2920 -19.2901 -19.2666 -19.2646 -19.1881 -19.1866 -19.1807 -19.1792
   -19.1297 -19.1283 -19.1184 -19.1170 -14.8825 -14.8824 -14.8678 -14.8677
   -14.6107 -14.6104 -14.6090 -14.6086 -14.5857 -14.5857 -14.5781 -14.5780
   -12.5347 -12.5347 -12.5206 -12.5206 -12.4954 -12.4951 -12.4777 -12.4773
   -12.2431 -12.2426 -12.2128 -12.2122 -10.7782 -10.7776 -10.7484 -10.7479
   -10.6524 -10.6524 -10.6400 -10.6400  -9.6469  -9.6464  -9.6103  -9.6098
    -8.9006  -8.9006  -8.8882  -8.8882  -8.8671  -8.8671  -8.8482  -8.8482
    -7.8869  -7.8865  -7.8433  -7.8428  -7.7969  -7.7968  -7.7750  -7.7750
    -7.5864  -7.5863  -7.5566  -7.5566  -6.8011  -6.8007  -6.7723  -6.7720
    -5.9785  -5.9784  -5.9278  -5.9277  -5.8592  -5.8590  -5.8113  -5.8112
    -5.8009  -5.8008  -5.7124  -5.7124  -5.6768  -5.6768  -5.6073  -5.6072
    -5.5597  -5.5596  -5.5551  -5.5550  -5.5119  -5.5119  -5.4516  -5.4516
    -5.3131  -5.3131  -5.2655  -5.2655  -5.1833  -5.1832  -5.1653  -5.1651
    -5.1344  -5.1344  -5.0902  -5.0902  -4.6037  -4.6037  -4.5560  -4.5560
    -4.3609  -4.3608  -4.2815  -4.2813  -4.2050  -4.2048  -4.1177  -4.1177
    -3.9908  -3.9906  -3.8979  -3.8978  -3.6764  -3.6764  -3.6184  -3.6183
    -3.5666  -3.5665  -3.4978  -3.4977  -3.4636  -3.4634  -3.3933  -3.3932
    -3.3724  -3.3724  -3.3039  -3.3039  -3.2812  -3.2811  -3.1741  -3.1741
    -3.0518  -3.0518  -3.0113  -3.0112  -2.9700  -2.9699  -2.9335  -2.9334
    -2.8744  -2.8743  -2.7366  -2.7366  -2.7288  -2.7288  -2.6830  -2.6827
    -2.6329  -2.6328  -2.6051  -2.6050  -2.5492  -2.5491  -2.5252  -2.5250
    -2.4911  -2.4909  -2.4440  -2.4439  -2.0213  -2.0211  -1.8365  -1.8364
    -1.7504  -1.7502  -1.7296  -1.7294  -1.3873  -1.3873  -1.3276  -1.3274
    -0.9164  -0.9164  -0.8840  -0.8840  -0.6602  -0.6602  -0.6408  -0.6405
    -0.2947  -0.2941  -0.2405  -0.2400  -0.2190  -0.2190  -0.1668  -0.1667
    -0.1274  -0.1271  -0.1144  -0.1142   0.2213   0.2215   0.2491   0.2492
     0.2985   0.2986   0.3324   0.3324   4.8797   4.8805   5.1245   5.1248
     5.2137   5.2137   5.2562   5.2567   5.3528   5.3531   5.4170   5.4179
     5.8165   5.8166   5.8490   5.8492   5.9852   5.9855   6.4929   6.4931
     6.6100   6.6101   6.6750   6.6750   6.7769   6.7769   6.9543   6.9545
     7.0149   7.0149   7.2096   7.2098   7.2714   7.2716   7.4549   7.4549
     7.7930   7.7932   7.8502   7.8502   8.0751   8.0752   8.1299   8.1300
     8.3025

          k = 0.0000-0.3288 0.0000 (159576 PWs)   bands (ev):

   -21.7696 -21.7696 -21.7586 -21.7586 -21.4749 -21.4748 -21.4525 -21.4524
   -21.3955 -21.3955 -21.3924 -21.3923 -21.3593 -21.3592 -21.3527 -21.3526
   -19.2918 -19.2899 -19.2666 -19.2647 -19.1906 -19.1895 -19.1782 -19.1769
   -19.1287 -19.1272 -19.1193 -19.1178 -14.8822 -14.8822 -14.8680 -14.8679
   -14.6126 -14.6125 -14.6080 -14.6079 -14.5830 -14.5826 -14.5801 -14.5796
   -12.5393 -12.5393 -12.5117 -12.5117 -12.5025 -12.5024 -12.4728 -12.4726
   -12.2483 -12.2477 -12.2098 -12.2092 -10.7801 -10.7797 -10.7447 -10.7444
   -10.6550 -10.6548 -10.6382 -10.6380  -9.6457  -9.6451  -9.6137  -9.6130
    -8.9017  -8.9015  -8.8928  -8.8927  -8.8615  -8.8614  -8.8472  -8.8472
    -7.8988  -7.8985  -7.8368  -7.8365  -7.7969  -7.7966  -7.7741  -7.7738
    -7.5971  -7.5969  -7.5309  -7.5308  -6.8048  -6.8047  -6.7761  -6.7760
    -6.0158  -6.0158  -5.9573  -5.9573  -5.8500  -5.8499  -5.8150  -5.8148
    -5.7529  -5.7529  -5.7016  -5.7015  -5.6595  -5.6595  -5.6303  -5.6303
    -5.5852  -5.5852  -5.5564  -5.5563  -5.4790  -5.4789  -5.4228  -5.4228
    -5.3273  -5.3272  -5.2821  -5.2820  -5.2230  -5.2230  -5.1417  -5.1417
    -5.1335  -5.1335  -5.0631  -5.0630  -4.6123  -4.6123  -4.5276  -4.5275
    -4.3785  -4.3785  -4.3181  -4.3180  -4.2126  -4.2126  -4.0610  -4.0608
    -4.0352  -4.0351  -3.8857  -3.8856  -3.6652  -3.6651  -3.6265  -3.6264
    -3.6015  -3.6014  -3.4628  -3.4627  -3.4284  -3.4284  -3.4096  -3.4094
    -3.3503  -3.3502  -3.2925  -3.2922  -3.2593  -3.2591  -3.1949  -3.1949
    -3.1136  -3.1136  -3.0469  -3.0468  -2.9787  -2.9786  -2.8908  -2.8906
    -2.8597  -2.8595  -2.7754  -2.7754  -2.6844  -2.6843  -2.6572  -2.6571
    -2.6384  -2.6383  -2.5810  -2.5809  -2.5367  -2.5366  -2.5296  -2.5294
    -2.5033  -2.5033  -2.4954  -2.4954  -1.9988  -1.9985  -1.8742  -1.8737
    -1.7565  -1.7564  -1.7075  -1.7075  -1.3941  -1.3940  -1.3476  -1.3474
    -0.9325  -0.9324  -0.7525  -0.7525  -0.7344  -0.7341  -0.6509  -0.6505
    -0.2899  -0.2894  -0.2379  -0.2376  -0.2101  -0.2101  -0.1822  -0.1820
    -0.1318  -0.1317  -0.1175  -0.1173   0.2437   0.2437   0.2596   0.2596
     0.2922   0.2922   0.3119   0.3120   4.8924   4.8933   5.1031   5.1040
     5.1884   5.1891   5.3021   5.3027   5.3526   5.3533   5.4037   5.4045
     5.8150   5.8151   5.8494   5.8495   6.0089   6.0091   6.3796   6.3799
     6.5792   6.5793   6.7323   6.7325   6.8299   6.8299   6.9417   6.9418
     7.0855   7.0857   7.1606   7.1607   7.2694   7.2695   7.5747   7.5747
     7.7119   7.7120   7.8812   7.8813   8.0131   8.0132   8.1639   8.1640
     8.2415

          k = 0.0000-0.3288-0.3156 (159596 PWs)   bands (ev):

   -21.7658 -21.7655 -21.7629 -21.7626 -21.4721 -21.4720 -21.4553 -21.4552
   -21.3939 -21.3938 -21.3937 -21.3937 -21.3593 -21.3592 -21.3527 -21.3526
   -19.2909 -19.2889 -19.2683 -19.2664 -19.1866 -19.1850 -19.1816 -19.1800
   -19.1289 -19.1274 -19.1194 -19.1178 -14.8759 -14.8753 -14.8752 -14.8746
   -14.6094 -14.6090 -14.6089 -14.6086 -14.5830 -14.5825 -14.5823 -14.5818
   -12.5327 -12.5325 -12.5267 -12.5265 -12.4855 -12.4847 -12.4827 -12.4821
   -12.2485 -12.2479 -12.2088 -12.2082 -10.7749 -10.7743 -10.7519 -10.7514
   -10.6504 -10.6498 -10.6427 -10.6422  -9.6442  -9.6436  -9.6130  -9.6123
    -8.8976  -8.8975  -8.8974  -8.8973  -8.8555  -8.8553  -8.8537  -8.8535
    -7.8925  -7.8922  -7.8418  -7.8413  -7.7899  -7.7893  -7.7876  -7.7870
    -7.5768  -7.5764  -7.5468  -7.5465  -6.8007  -6.8004  -6.7925  -6.7921
    -5.9699  -5.9698  -5.9091  -5.9088  -5.8615  -5.8613  -5.8456  -5.8454
    -5.7563  -5.7561  -5.7501  -5.7499  -5.6561  -5.6560  -5.6110  -5.6110
    -5.6035  -5.6033  -5.5381  -5.5380  -5.4658  -5.4656  -5.4541  -5.4539
    -5.3426  -5.3426  -5.2388  -5.2388  -5.1910  -5.1909  -5.1745  -5.1744
    -5.1500  -5.1499  -5.0884  -5.0883  -4.5960  -4.5958  -4.5711  -4.5709
    -4.3216  -4.3214  -4.3127  -4.3126  -4.1751  -4.1750  -4.1133  -4.1132
    -3.9534  -3.9532  -3.9448  -3.9445  -3.6804  -3.6802  -3.6421  -3.6420
    -3.5823  -3.5821  -3.5453  -3.5450  -3.4362  -3.4358  -3.3492  -3.3490
    -3.3332  -3.3329  -3.3107  -3.3103  -3.2641  -3.2640  -3.1907  -3.1905
    -3.0738  -3.0737  -3.0577  -3.0576  -2.9621  -2.9620  -2.9421  -2.9419
    -2.7951  -2.7949  -2.7916  -2.7914  -2.7116  -2.7113  -2.6448  -2.6447
    -2.6355  -2.6355  -2.5853  -2.5852  -2.5436  -2.5436  -2.5402  -2.5401
    -2.5031  -2.5031  -2.4820  -2.4818  -1.9731  -1.9727  -1.8862  -1.8858
    -1.7498  -1.7498  -1.7442  -1.7438  -1.3833  -1.3831  -1.3577  -1.3574
    -0.8432  -0.8430  -0.8290  -0.8289  -0.7154  -0.7152  -0.6747  -0.6743
    -0.2847  -0.2841  -0.2523  -0.2517  -0.2004  -0.2004  -0.1892  -0.1889
    -0.1194  -0.1192  -0.1168  -0.1166   0.2406   0.2410   0.2439   0.2442
     0.3071   0.3073   0.3130   0.3132   4.8924   4.8932   5.0831   5.0839
     5.2280   5.2289   5.2851   5.2860   5.3458   5.3466   5.4073   5.4081
     5.8221   5.8223   5.8389   5.8391   6.1061   6.1064   6.2965   6.2969
     6.5936   6.5940   6.6943   6.6946   6.8139   6.8144   6.9875   6.9876
     7.0614   7.0617   7.0877   7.0880   7.2524   7.2524   7.6555   7.6557
     7.6907   7.6909   7.9450   7.9452   8.0181   8.0186   8.0783   8.0786
     8.3434

          k =-0.5000 0.0000-0.0709 (159598 PWs)   bands (ev):

   -21.7687 -21.7686 -21.7575 -21.7574 -21.4713 -21.4712 -21.4557 -21.4557
   -21.4008 -21.4008 -21.3889 -21.3889 -21.3601 -21.3600 -21.3531 -21.3530
   -19.2909 -19.2890 -19.2680 -19.2661 -19.1873 -19.1861 -19.1806 -19.1793
   -19.1303 -19.1291 -19.1177 -19.1165 -14.8847 -14.8846 -14.8689 -14.8688
   -14.6065 -14.6065 -14.6037 -14.6037 -14.5885 -14.5884 -14.5843 -14.5843
   -12.5570 -12.5567 -12.5214 -12.5211 -12.4602 -12.4599 -12.4392 -12.4388
   -12.2455 -12.2449 -12.2009 -12.2004 -10.7602 -10.7601 -10.7476 -10.7476
   -10.7248 -10.7248 -10.6873 -10.6873  -9.6772  -9.6767  -9.6414  -9.6408
    -8.8957  -8.8955  -8.8908  -8.8906  -8.8573  -8.8572  -8.8519  -8.8519
    -7.8939  -7.8936  -7.8425  -7.8423  -7.7848  -7.7848  -7.7306  -7.7306
    -7.5389  -7.5389  -7.4990  -7.4990  -6.7658  -6.7655  -6.7362  -6.7358
    -6.0343  -6.0343  -5.9261  -5.9261  -5.8940  -5.8938  -5.8619  -5.8618
    -5.8088  -5.8087  -5.6977  -5.6977  -5.6631  -5.6630  -5.6172  -5.6171
    -5.5675  -5.5675  -5.5260  -5.5259  -5.4514  -5.4514  -5.4269  -5.4269
    -5.3112  -5.3112  -5.2688  -5.2686  -5.2321  -5.2320  -5.1671  -5.1670
    -5.1268  -5.1268  -5.0668  -5.0668  -4.6222  -4.6222  -4.5313  -4.5313
    -4.4136  -4.4135  -4.2881  -4.2881  -4.2084  -4.2083  -4.1691  -4.1690
    -4.0044  -4.0043  -3.9478  -3.9478  -3.6812  -3.6810  -3.5645  -3.5644
    -3.5482  -3.5481  -3.5254  -3.5253  -3.4275  -3.4275  -3.3572  -3.3571
    -3.3220  -3.3219  -3.2993  -3.2992  -3.2144  -3.2143  -3.1665  -3.1663
    -3.0876  -3.0874  -3.0654  -3.0653  -3.0459  -3.0457  -2.9863  -2.9863
    -2.8785  -2.8783  -2.7618  -2.7617  -2.7459  -2.7458  -2.6721  -2.6719
    -2.6224  -2.6224  -2.5747  -2.5746  -2.5537  -2.5536  -2.5228  -2.5228
    -2.4771  -2.4771  -2.4120  -2.4118  -1.9971  -1.9970  -1.8409  -1.8407
    -1.7812  -1.7811  -1.7266  -1.7265  -1.3745  -1.3745  -1.3286  -1.3285
    -0.9237  -0.9236  -0.8735  -0.8734  -0.6776  -0.6776  -0.6150  -0.6147
    -0.3053  -0.3047  -0.2270  -0.2268  -0.2177  -0.2176  -0.1852  -0.1848
    -0.1525  -0.1522  -0.1495  -0.1492   0.2406   0.2410   0.2687   0.2691
     0.3097   0.3097   0.3471   0.3472   4.9484   4.9490   5.0175   5.0180
     5.1084   5.1093   5.2686   5.2697   5.3528   5.3539   5.3765   5.3774
     5.8694   5.8695   5.9159   5.9160   6.0476   6.0478   6.2893   6.2896
     6.5289   6.5290   6.7416   6.7417   6.7865   6.7865   7.0097   7.0097
     7.0876   7.0879   7.1649   7.1650   7.4064   7.4064   7.5466   7.5467
     7.6585   7.6586   7.8136   7.8140   7.9452   7.9456   8.2201   8.2204
     8.2650

          k =-0.5000 0.0000-0.3865 (159594 PWs)   bands (ev):

   -21.7740 -21.7624 -21.7603 -21.7552 -21.4778 -21.4646 -21.4627 -21.4483
   -21.4018 -21.3999 -21.3917 -21.3866 -21.3608 -21.3589 -21.3543 -21.3522
   -19.2947 -19.2854 -19.2700 -19.2624 -19.1908 -19.1856 -19.1855 -19.1732
   -19.1301 -19.1260 -19.1236 -19.1135 -14.8906 -14.8781 -14.8763 -14.8608
   -14.6119 -14.6094 -14.6014 -14.5983 -14.5976 -14.5932 -14.5796 -14.5756
   -12.5683 -12.5445 -12.5241 -12.5235 -12.4625 -12.4537 -12.4492 -12.4241
   -12.2578 -12.2335 -12.2031 -12.2019 -10.7779 -10.7623 -10.7394 -10.7291
   -10.7276 -10.7153 -10.7064 -10.6810  -9.6816  -9.6702  -9.6475  -9.6372
    -8.9067  -8.9022  -8.8834  -8.8831  -8.8666  -8.8611  -8.8451  -8.8440
    -7.9065  -7.8665  -7.8508  -7.8167  -7.8105  -7.7726  -7.7447  -7.7339
    -7.5428  -7.5387  -7.5071  -7.4828  -6.7898  -6.7529  -6.7483  -6.7156
    -6.0834  -6.0143  -6.0047  -5.9443  -5.9058  -5.8939  -5.8599  -5.7740
    -5.7697  -5.7304  -5.7090  -5.6941  -5.6933  -5.6646  -5.6440  -5.6226
    -5.5752  -5.5181  -5.5175  -5.5009  -5.4562  -5.4519  -5.4323  -5.4186
    -5.3814  -5.3142  -5.3066  -5.2642  -5.2300  -5.2079  -5.1599  -5.1538
    -5.1532  -5.1430  -5.0482  -5.0250  -4.6468  -4.6048  -4.5454  -4.5299
    -4.4697  -4.4355  -4.2927  -4.2269  -4.2137  -4.1853  -4.1519  -4.0888
    -4.0786  -3.9778  -3.9767  -3.8912  -3.7335  -3.6796  -3.6649  -3.6303
    -3.5399  -3.5205  -3.5140  -3.4852  -3.4536  -3.4415  -3.4017  -3.3663
    -3.3436  -3.2657  -3.2604  -3.2515  -3.2201  -3.2101  -3.1947  -3.1285
    -3.1118  -3.1076  -3.1068  -3.0687  -3.0266  -3.0024  -2.9543  -2.9396
    -2.9144  -2.8884  -2.8207  -2.7859  -2.7237  -2.7143  -2.6661  -2.6374
    -2.6368  -2.6178  -2.5859  -2.5772  -2.5371  -2.5214  -2.5081  -2.5037
    -2.5008  -2.4656  -2.4230  -2.4067  -2.0302  -2.0085  -1.8580  -1.8477
    -1.7876  -1.7645  -1.7554  -1.6443  -1.3925  -1.3823  -1.3716  -1.3100
    -0.9350  -0.9294  -0.8989  -0.8519  -0.6784  -0.6418  -0.6163  -0.6100
    -0.3469  -0.2662  -0.2448  -0.2401  -0.2069  -0.2056  -0.1969  -0.1967
    -0.1508  -0.1499  -0.1357  -0.1354   0.2307   0.2505   0.2610   0.2701
     0.2974   0.3229   0.3426   0.3525   4.9288   4.9674   5.0065   5.0183
     5.0798   5.1554   5.2596   5.2733   5.3320   5.3347   5.3644   5.4221
     5.8372   5.8980   5.9047   5.9313   5.9384   6.1319   6.3637   6.4153
     6.5337   6.6251   6.6313   6.6747   6.6814   6.8130   6.8561   7.0473
     7.0791   7.0837   7.1745   7.2075   7.3831   7.4699   7.4841   7.5558
     7.6128   7.8253   7.8456   7.8759   7.9333   8.0638   8.1045   8.1052
     8.1945

          k =-0.5000-0.3288-0.0709 (159624 PWs)   bands (ev):

   -21.7653 -21.7650 -21.7613 -21.7610 -21.4720 -21.4719 -21.4550 -21.4549
   -21.3949 -21.3948 -21.3948 -21.3947 -21.3598 -21.3597 -21.3533 -21.3532
   -19.2919 -19.2900 -19.2667 -19.2647 -19.1878 -19.1862 -19.1811 -19.1794
   -19.1295 -19.1279 -19.1186 -19.1170 -14.8791 -14.8785 -14.8754 -14.8748
   -14.6048 -14.6043 -14.6034 -14.6029 -14.5880 -14.5876 -14.5872 -14.5868
   -12.5590 -12.5588 -12.5210 -12.5207 -12.4519 -12.4510 -12.4442 -12.4434
   -12.2517 -12.2511 -12.1968 -12.1963 -10.7595 -10.7589 -10.7523 -10.7517
   -10.7150 -10.7146 -10.6944 -10.6941  -9.6750  -9.6745  -9.6437  -9.6431
    -8.8952  -8.8950  -8.8902  -8.8899  -8.8550  -8.8550  -8.8548  -8.8547
    -7.8803  -7.8799  -7.8595  -7.8593  -7.7691  -7.7685  -7.7534  -7.7532
    -7.5113  -7.5109  -7.5081  -7.5077  -6.7662  -6.7658  -6.7559  -6.7555
    -6.0127  -6.0126  -5.9745  -5.9743  -5.8573  -5.8572  -5.8419  -5.8416
    -5.7689  -5.7687  -5.7578  -5.7577  -5.6457  -5.6455  -5.6411  -5.6410
    -5.5522  -5.5521  -5.5234  -5.5232  -5.4609  -5.4608  -5.4390  -5.4389
    -5.3232  -5.3231  -5.2618  -5.2617  -5.2274  -5.2274  -5.1556  -5.1555
    -5.1148  -5.1146  -5.0885  -5.0885  -4.6170  -4.6168  -4.5604  -4.5602
    -4.3296  -4.3294  -4.3043  -4.3041  -4.2019  -4.2018  -4.1927  -4.1927
    -4.0092  -4.0090  -3.9399  -3.9397  -3.6381  -3.6380  -3.6379  -3.6378
    -3.5211  -3.5210  -3.5168  -3.5166  -3.4276  -3.4275  -3.4260  -3.4256
    -3.3225  -3.3224  -3.2897  -3.2893  -3.1879  -3.1876  -3.1722  -3.1719
    -3.1153  -3.1150  -3.1030  -3.1029  -3.0134  -3.0133  -2.9619  -2.9617
    -2.8361  -2.8357  -2.7967  -2.7966  -2.7125  -2.7124  -2.6901  -2.6900
    -2.5890  -2.5889  -2.5848  -2.5847  -2.5288  -2.5286  -2.5068  -2.5066
    -2.4974  -2.4971  -2.4599  -2.4597  -1.9533  -1.9529  -1.8660  -1.8656
    -1.7764  -1.7761  -1.7645  -1.7644  -1.3864  -1.3863  -1.3436  -1.3434
    -0.8511  -0.8508  -0.8275  -0.8273  -0.7196  -0.7193  -0.6533  -0.6528
    -0.3112  -0.3105  -0.2228  -0.2224  -0.2192  -0.2191  -0.1807  -0.1803
    -0.1506  -0.1503  -0.1481  -0.1477   0.2497   0.2500   0.2598   0.2602
     0.3231   0.3235   0.3315   0.3319   4.9588   4.9597   5.0405   5.0416
     5.0698   5.0708   5.2891   5.2903   5.3292   5.3302   5.3748   5.3756
     5.8942   5.8944   5.8969   5.8972   6.1137   6.1140   6.2328   6.2333
     6.5792   6.5795   6.6593   6.6596   6.8703   6.8705   6.8898   6.8902
     7.0522   7.0524   7.1979   7.1980   7.4201   7.4205   7.4783   7.4786
     7.8091   7.8094   7.8285   7.8287   8.0402   8.0403   8.0704   8.0706
     8.2474

          k =-0.5000-0.3288-0.3865 (159652 PWs)   bands (ev):

   -21.7678 -21.7677 -21.7584 -21.7583 -21.4745 -21.4744 -21.4524 -21.4523
   -21.3967 -21.3967 -21.3932 -21.3931 -21.3599 -21.3598 -21.3533 -21.3532
   -19.2928 -19.2909 -19.2650 -19.2631 -19.1916 -19.1904 -19.1776 -19.1763
   -19.1301 -19.1286 -19.1179 -19.1164 -14.8839 -14.8838 -14.8695 -14.8694
   -14.6085 -14.6084 -14.6009 -14.6007 -14.5955 -14.5953 -14.5785 -14.5784
   -12.5595 -12.5593 -12.5225 -12.5223 -12.4575 -12.4574 -12.4336 -12.4335
   -12.2535 -12.2529 -12.1974 -12.1968 -10.7714 -10.7714 -10.7338 -10.7338
   -10.7205 -10.7204 -10.6944 -10.6942  -9.6745  -9.6740  -9.6443  -9.6436
    -8.9031  -8.9029  -8.8832  -8.8829  -8.8663  -8.8662  -8.8433  -8.8433
    -7.8888  -7.8886  -7.8296  -7.8296  -7.7912  -7.7906  -7.7522  -7.7518
    -7.5150  -7.5147  -7.5021  -7.5019  -6.7851  -6.7850  -6.7380  -6.7378
    -6.0177  -6.0175  -6.0021  -6.0020  -5.8970  -5.8969  -5.8320  -5.8319
    -5.7443  -5.7443  -5.7073  -5.7073  -5.6561  -5.6561  -5.6225  -5.6223
    -5.5358  -5.5358  -5.5166  -5.5165  -5.5070  -5.5070  -5.4091  -5.4090
    -5.3270  -5.3269  -5.2772  -5.2772  -5.2474  -5.2473  -5.1562  -5.1561
    -5.1032  -5.1032  -5.0751  -5.0751  -4.6214  -4.6213  -4.5455  -4.5453
    -4.3956  -4.3956  -4.3281  -4.3281  -4.1505  -4.1504  -4.1433  -4.1433
    -4.0302  -4.0301  -3.9194  -3.9193  -3.7065  -3.7063  -3.6279  -3.6278
    -3.5406  -3.5405  -3.4905  -3.4905  -3.4616  -3.4613  -3.4299  -3.4296
    -3.3447  -3.3446  -3.2296  -3.2292  -3.1629  -3.1627  -3.1562  -3.1561
    -3.1394  -3.1389  -3.0948  -3.0947  -3.0314  -3.0313  -2.9358  -2.9357
    -2.8833  -2.8832  -2.7917  -2.7917  -2.6920  -2.6920  -2.6545  -2.6544
    -2.6257  -2.6257  -2.5790  -2.5789  -2.5413  -2.5412  -2.5110  -2.5110
    -2.4667  -2.4667  -2.4500  -2.4498  -1.9853  -1.9850  -1.8615  -1.8609
    -1.7908  -1.7906  -1.7293  -1.7292  -1.4074  -1.4074  -1.3388  -1.3386
    -0.9056  -0.9054  -0.7684  -0.7683  -0.7266  -0.7263  -0.6455  -0.6451
    -0.3197  -0.3190  -0.2375  -0.2374  -0.2040  -0.2039  -0.1924  -0.1921
    -0.1474  -0.1472  -0.1318  -0.1318   0.2398   0.2399   0.2655   0.2655
     0.3188   0.3189   0.3374   0.3375   4.9441   4.9449   5.0542   5.0545
     5.0760   5.0762   5.2625   5.2636   5.3300   5.3310   5.3927   5.3936
     5.8682   5.8683   5.9192   5.9194   6.0824   6.0826   6.3560   6.3562
     6.5255   6.5256   6.6633   6.6634   6.7478   6.7478   6.9643   6.9646
     7.0818   7.0820   7.1218   7.1219   7.4061   7.4061   7.5968   7.5969
     7.7460   7.7463   7.9308   7.9309   8.0588   8.0588   8.1031   8.1032
     8.1894

     highest occupied, lowest unoccupied level (ev):     0.3525    4.8620

!    total energy              =   -2293.94735974 Ry
     Harris-Foulkes estimate   =   -2293.94735974 Ry
     estimated scf accuracy    <          1.3E-09 Ry

     total all-electron energy =     -8654.534999 Ry

     The total energy is the sum of the following terms:

     one-electron contribution =   -1596.23259039 Ry
     hartree contribution      =     972.73700809 Ry
     xc contribution           =    -483.86982844 Ry
     ewald contribution        =    -538.85910038 Ry
     Dispersion Correction     =      -0.60621171 Ry
     one-center paw contrib.   =    -647.11663691 Ry

     convergence has been achieved in  20 iterations

     Forces acting on atoms (cartesian axes, Ry/au):

     atom    1 type  4   force =     0.00050717    0.00051985    0.00034349
     atom    2 type  4   force =    -0.00053814    0.00051064   -0.00033646
     atom    3 type  4   force =    -0.00050717   -0.00051985   -0.00034349
     atom    4 type  4   force =     0.00053814   -0.00051064    0.00033646
     atom    5 type  4   force =    -0.00016534    0.00036820   -0.00011685
     atom    6 type  4   force =     0.00013662    0.00038781    0.00012699
     atom    7 type  4   force =     0.00016534   -0.00036820    0.00011685
     atom    8 type  4   force =    -0.00013662   -0.00038781   -0.00012699
     atom    9 type  4   force =    -0.00046949    0.00065981    0.00001291
     atom   10 type  4   force =     0.00046631    0.00069644    0.00001959
     atom   11 type  4   force =     0.00046949   -0.00065981   -0.00001291
     atom   12 type  4   force =    -0.00046631   -0.00069644   -0.00001959
     atom   13 type  4   force =     0.00014033   -0.00048350    0.00095801
     atom   14 type  4   force =    -0.00038724   -0.00071825   -0.00056107
     atom   15 type  4   force =    -0.00014033    0.00048350   -0.00095801
     atom   16 type  4   force =     0.00038724    0.00071825    0.00056107
     atom   17 type  4   force =     0.00023926    0.00056826    0.00078344
     atom   18 type  4   force =    -0.00062151    0.00065615   -0.00101152
     atom   19 type  4   force =    -0.00023926   -0.00056826   -0.00078344
     atom   20 type  4   force =     0.00062151   -0.00065615    0.00101152
     atom   21 type  4   force =    -0.00054154    0.00000436   -0.00071903
     atom   22 type  4   force =     0.00057395    0.00040441    0.00095575
     atom   23 type  4   force =     0.00054154   -0.00000436    0.00071903
     atom   24 type  4   force =    -0.00057395   -0.00040441   -0.00095575
     atom   25 type  2   force =     0.00061659    0.00027398   -0.00041824
     atom   26 type  2   force =    -0.00062245    0.00027089    0.00041609
     atom   27 type  2   force =    -0.00061659   -0.00027398    0.00041824
     atom   28 type  2   force =     0.00062245   -0.00027089   -0.00041609
     atom   29 type  2   force =     0.00052680   -0.00058779    0.00156907
     atom   30 type  2   force =    -0.00053470   -0.00058424   -0.00156767
     atom   31 type  2   force =    -0.00052680    0.00058779   -0.00156907
     atom   32 type  2   force =     0.00053470    0.00058424    0.00156767
     atom   33 type  2   force =    -0.00233304    0.00061962   -0.00042568
     atom   34 type  2   force =     0.00232726    0.00062022    0.00042343
     atom   35 type  2   force =     0.00233304   -0.00061962    0.00042568
     atom   36 type  2   force =    -0.00232726   -0.00062022   -0.00042343
     atom   37 type  1   force =    -0.00053988   -0.00025770   -0.00039414
     atom   38 type  1   force =     0.00055715   -0.00025607    0.00035125
     atom   39 type  1   force =     0.00053988    0.00025770    0.00039414
     atom   40 type  1   force =    -0.00055715    0.00025607   -0.00035125
     atom   41 type  1   force =     0.00019575   -0.00047465   -0.00009892
     atom   42 type  1   force =    -0.00020293   -0.00047172    0.00004843
     atom   43 type  1   force =    -0.00019575    0.00047465    0.00009892
     atom   44 type  1   force =     0.00020293    0.00047172   -0.00004843
     atom   45 type  1   force =     0.00043864    0.00011879   -0.00003617
     atom   46 type  1   force =    -0.00041298    0.00012048    0.00013036
     atom   47 type  1   force =    -0.00043864   -0.00011879    0.00003617
     atom   48 type  1   force =     0.00041298   -0.00012048   -0.00013036
     atom   49 type  1   force =    -0.00118119    0.00053932   -0.00079627
     atom   50 type  1   force =     0.00117765    0.00055229    0.00089142
     atom   51 type  1   force =     0.00118119   -0.00053932    0.00079627
     atom   52 type  1   force =    -0.00117765   -0.00055229   -0.00089142
     atom   53 type  1   force =     0.00100167   -0.00049750    0.00063896
     atom   54 type  1   force =    -0.00100441   -0.00051591   -0.00065547
     atom   55 type  1   force =    -0.00100167    0.00049750   -0.00063896
     atom   56 type  1   force =     0.00100441    0.00051591    0.00065547
     atom   57 type  1   force =     0.00147242    0.00008703   -0.00061933
     atom   58 type  1   force =    -0.00148843    0.00007862    0.00051311
     atom   59 type  1   force =    -0.00147242   -0.00008703    0.00061933
     atom   60 type  1   force =     0.00148843   -0.00007862   -0.00051311
     atom   61 type  1   force =     0.00046194    0.00009975   -0.00111724
     atom   62 type  1   force =    -0.00014404    0.00032102    0.00077154
     atom   63 type  1   force =    -0.00046194   -0.00009975    0.00111724
     atom   64 type  1   force =     0.00014404   -0.00032102   -0.00077154
     atom   65 type  1   force =    -0.00098356    0.00025034   -0.00010578
     atom   66 type  1   force =     0.00143626    0.00012690    0.00044665
     atom   67 type  1   force =     0.00098356   -0.00025034    0.00010578
     atom   68 type  1   force =    -0.00143626   -0.00012690   -0.00044665
     atom   69 type  1   force =    -0.00006487   -0.00126549    0.00067714
     atom   70 type  1   force =     0.00006974   -0.00170775   -0.00094888
     atom   71 type  1   force =     0.00006487    0.00126549   -0.00067714
     atom   72 type  1   force =    -0.00006974    0.00170775    0.00094888
     atom   73 type  1   force =    -0.00110137    0.00007309   -0.00004369
     atom   74 type  1   force =     0.00105079    0.00007244    0.00016709
     atom   75 type  1   force =     0.00110137   -0.00007309    0.00004369
     atom   76 type  1   force =    -0.00105079   -0.00007244   -0.00016709
     atom   77 type  1   force =    -0.00010886    0.00016609    0.00065847
     atom   78 type  1   force =     0.00007593    0.00018351   -0.00074473
     atom   79 type  1   force =     0.00010886   -0.00016609   -0.00065847
     atom   80 type  1   force =    -0.00007593   -0.00018351    0.00074473
     atom   81 type  1   force =     0.00025304    0.00043914   -0.00066027
     atom   82 type  1   force =    -0.00027103    0.00047291    0.00060869
     atom   83 type  1   force =    -0.00025304   -0.00043914    0.00066027
     atom   84 type  1   force =     0.00027103   -0.00047291   -0.00060869
     atom   85 type  3   force =     0.00004846    0.00026963   -0.00025171
     atom   86 type  3   force =    -0.00004349    0.00026299    0.00024983
     atom   87 type  3   force =    -0.00004846   -0.00026963    0.00025171
     atom   88 type  3   force =     0.00004349   -0.00026299   -0.00024983
     atom   89 type  3   force =     0.00021222   -0.00024022   -0.00032783
     atom   90 type  3   force =    -0.00021545   -0.00024914    0.00031891
     atom   91 type  3   force =    -0.00021222    0.00024022    0.00032783
     atom   92 type  3   force =     0.00021545    0.00024914   -0.00031891
     atom   93 type  3   force =     0.00000519   -0.00025634    0.00005241
     atom   94 type  3   force =    -0.00001750   -0.00025297   -0.00006693
     atom   95 type  3   force =    -0.00000519    0.00025634   -0.00005241
     atom   96 type  3   force =     0.00001750    0.00025297    0.00006693
     atom   97 type  3   force =     0.00043738   -0.00001781    0.00021787
     atom   98 type  3   force =    -0.00043570   -0.00000613   -0.00021862
     atom   99 type  3   force =    -0.00043738    0.00001781   -0.00021787
     atom  100 type  3   force =     0.00043570    0.00000613    0.00021862
     atom  101 type  3   force =     0.00017079    0.00024139   -0.00043946
     atom  102 type  3   force =    -0.00017788    0.00025867    0.00043774
     atom  103 type  3   force =    -0.00017079   -0.00024139    0.00043946
     atom  104 type  3   force =     0.00017788   -0.00025867   -0.00043774
     atom  105 type  3   force =     0.00005454    0.00030267   -0.00015025
     atom  106 type  3   force =    -0.00005957    0.00030093    0.00015779
     atom  107 type  3   force =    -0.00005454   -0.00030267    0.00015025
     atom  108 type  3   force =     0.00005957   -0.00030093   -0.00015779
     atom  109 type  3   force =     0.00006248    0.00008357    0.00004861
     atom  110 type  3   force =    -0.00004822    0.00007780   -0.00009244
     atom  111 type  3   force =    -0.00006248   -0.00008357   -0.00004861
     atom  112 type  3   force =     0.00004822   -0.00007780    0.00009244
     atom  113 type  3   force =     0.00052283   -0.00010212    0.00045407
     atom  114 type  3   force =    -0.00052262   -0.00010184   -0.00048767
     atom  115 type  3   force =    -0.00052283    0.00010212   -0.00045407
     atom  116 type  3   force =     0.00052262    0.00010184    0.00048767
     atom  117 type  3   force =    -0.00014341    0.00023350   -0.00012698
     atom  118 type  3   force =     0.00013457    0.00024069    0.00010204
     atom  119 type  3   force =     0.00014341   -0.00023350    0.00012698
     atom  120 type  3   force =    -0.00013457   -0.00024069   -0.00010204
     atom  121 type  3   force =     0.00010464   -0.00006026    0.00068449
     atom  122 type  3   force =    -0.00009508   -0.00007094   -0.00069323
     atom  123 type  3   force =    -0.00010464    0.00006026   -0.00068449
     atom  124 type  3   force =     0.00009508    0.00007094    0.00069323
     atom  125 type  3   force =    -0.00019886    0.00062271    0.00028107
     atom  126 type  3   force =     0.00019878    0.00061985   -0.00027031
     atom  127 type  3   force =     0.00019886   -0.00062271   -0.00028107
     atom  128 type  3   force =    -0.00019878   -0.00061985    0.00027031
     atom  129 type  3   force =     0.00010933    0.00023547    0.00048545
     atom  130 type  3   force =    -0.00010090    0.00023098   -0.00048620
     atom  131 type  3   force =    -0.00010933   -0.00023547   -0.00048545
     atom  132 type  3   force =     0.00010090   -0.00023098    0.00048620
     atom  133 type  3   force =    -0.00011338   -0.00004461   -0.00067378
     atom  134 type  3   force =     0.00012740   -0.00004835    0.00068620
     atom  135 type  3   force =     0.00011338    0.00004461    0.00067378
     atom  136 type  3   force =    -0.00012740    0.00004835   -0.00068620
     atom  137 type  3   force =    -0.00027331   -0.00035206   -0.00015218
     atom  138 type  3   force =     0.00026774   -0.00034833    0.00017159
     atom  139 type  3   force =     0.00027331    0.00035206    0.00015218
     atom  140 type  3   force =    -0.00026774    0.00034833   -0.00017159
     atom  141 type  3   force =     0.00011284   -0.00045688   -0.00030004
     atom  142 type  3   force =    -0.00011194   -0.00045741    0.00032425
     atom  143 type  3   force =    -0.00011284    0.00045688    0.00030004
     atom  144 type  3   force =     0.00011194    0.00045741   -0.00032425

     Total force =     0.011745     Total SCF correction =     0.000067


     Computing stress (Cartesian axis) and pressure

          total   stress  (Ry/bohr**3)                   (kbar)     P=   -5.04
  -0.00003717  -0.00000000   0.00001136         -5.47     -0.00      1.67
  -0.00000000  -0.00002591   0.00000010         -0.00     -3.81      0.02
   0.00001136   0.00000010  -0.00003963          1.67      0.02     -5.83


     Writing output data file scf.save
 
     init_run     :    108.12s CPU    113.15s WALL (       1 calls)
     electrons    :   4759.65s CPU   4984.42s WALL (       1 calls)
     forces       :     50.79s CPU     51.19s WALL (       1 calls)
     stress       :    422.82s CPU    423.91s WALL (       1 calls)

     Called by init_run:
     wfcinit      :     90.15s CPU     94.90s WALL (       1 calls)
     potinit      :      6.20s CPU      6.25s WALL (       1 calls)

     Called by electrons:
     c_bands      :   4270.84s CPU   4462.78s WALL (      20 calls)
     sum_band     :    459.68s CPU    489.04s WALL (      20 calls)
     v_of_rho     :      4.62s CPU      5.08s WALL (      21 calls)
     newd         :     12.13s CPU     15.15s WALL (      21 calls)
     PAW_pot      :     10.91s CPU     10.91s WALL (      21 calls)
     mix_rho      :      1.38s CPU      1.48s WALL (      20 calls)

     Called by c_bands:
     init_us_2    :     23.70s CPU     23.93s WALL (     344 calls)
     cegterg      :   4166.04s CPU   4357.55s WALL (     160 calls)

     Called by sum_band:
     sum_band:bec :      0.22s CPU      0.22s WALL (     160 calls)
     addusdens    :     13.35s CPU     16.28s WALL (      20 calls)

     Called by *egterg:
     h_psi        :   2316.26s CPU   2471.22s WALL (     683 calls)
     s_psi        :    422.70s CPU    422.73s WALL (     683 calls)
     g_psi        :     11.41s CPU     11.42s WALL (     515 calls)
     cdiaghg      :    199.21s CPU    199.33s WALL (     675 calls)

     Called by h_psi:
     h_psi:pot    :   2298.26s CPU   2452.96s WALL (     683 calls)
     h_psi:calbec :    446.92s CPU    447.85s WALL (     683 calls)
     vloc_psi     :   1427.77s CPU   1581.42s WALL (     683 calls)
     add_vuspsi   :    423.57s CPU    423.69s WALL (     683 calls)

     General routines
     calbec       :    689.00s CPU    690.43s WALL (     883 calls)
     fft          :     16.81s CPU     17.59s WALL (     297 calls)
     fftw         :   1504.05s CPU   1682.96s WALL (  296316 calls)
 
     Parallel routines
     fft_scatter  :    429.54s CPU    607.69s WALL (  296613 calls)
 
     PWSCF        :     1h29m CPU        1h34m WALL

 
   This run was terminated on:   1:43:53  21Dec2017            

=------------------------------------------------------------------------------=
   JOB DONE.
=------------------------------------------------------------------------------=
