
     Program PWSCF v.6.1 (svn rev. 13369) starts on  4Nov2017 at  4:31:40 

     This program is part of the open-source Quantum ESPRESSO suite
     for quantum simulation of materials; please cite
         "P. Giannozzi et al., J. Phys.:Condens. Matter 21 395502 (2009);
          URL http://www.quantum-espresso.org", 
     in publications or presentations arising from this work. More details at
     http://www.quantum-espresso.org/quote

     Parallel version (MPI), running on     8 processors
     R & G space division:  proc/nbgrp/npool/nimage =       8
     Waiting for input...
     Reading input from standard input

     Current dimensions of program PWSCF are:
     Max number of different atomic species (ntypx) = 10
     Max number of k-points (npk) =  40000
     Max angular momentum in pseudopotentials (lmaxx) =  3
               file C.pbe-n-kjpaw_psl.0.1.UPF: wavefunction(s)  2P renormalized
               file N.pbe-n-kjpaw_psl.0.1.UPF: wavefunction(s)  2P renormalized
               file H.pbe-kjpaw_psl.0.1.UPF: wavefunction(s)  1S renormalized
               file O.pbe-n-kjpaw_psl.0.1.UPF: wavefunction(s)  2P renormalized

     -------------------------------------
     Parameters for Dispersion Correction:
     -------------------------------------
       atom      VdW radius       C_6     

        C          2.744         60.710
        N          2.640         42.670
        H          1.892          4.857
        O          2.536         24.284

     Subspace diagonalization in iterative solution of the eigenvalue problem:
     a serial algorithm will be used

 
     Parallelization info
     --------------------
     sticks:   dense  smooth     PW     G-vecs:    dense   smooth      PW
     Min         873     873    234                60868    60868    8458
     Max         874     874    235                60869    60869    8460
     Sum        6987    6987   1877               486951   486951   67669
 


     bravais-lattice index     =            0
     lattice parameter (alat)  =      13.7515  a.u.
     unit-cell volume          =    3605.2852 (a.u.)^3
     number of atoms/cell      =           60
     number of atomic types    =            4
     number of electrons       =       208.00
     number of Kohn-Sham states=          124
     kinetic-energy cutoff     =     100.0000  Ry
     charge density cutoff     =     400.0000  Ry
     convergence threshold     =      1.0E-08
     mixing beta               =       0.5000
     number of iterations used =            8  plain     mixing
     Exchange-correlation      =  SLA  PW   PBX  PBC ( 1  4  3  4 0 0)

     celldm(1)=  13.751537  celldm(2)=   0.000000  celldm(3)=   0.000000
     celldm(4)=   0.000000  celldm(5)=   0.000000  celldm(6)=   0.000000

     crystal axes: (cart. coord. in units of alat)
               a(1) = (   1.000000   0.000000   0.000000 )  
               a(2) = (   0.000000   1.161193   0.000000 )  
               a(3) = (   0.497722   0.000000   1.193937 )  

     reciprocal axes: (cart. coord. in units 2 pi/alat)
               b(1) = (  1.000000  0.000000 -0.416874 )  
               b(2) = (  0.000000  0.861183  0.000000 )  
               b(3) = (  0.000000  0.000000  0.837565 )  


     PseudoPot. # 1 for  C read from file:
     /scratch/ahofstet/pseudo/C.pbe-n-kjpaw_psl.0.1.UPF
     MD5 check sum: 430fe95172b1e11ef3f8ed03bac87931
     Pseudo is Projector augmented-wave + core cor, Zval =  4.0
     Generated using "atomic" code by A. Dal Corso  v.5.0.99 svn rev. 10869
     Shape of augmentation charge: BESSEL
     Using radial grid of 1073 points,  4 beta functions with: 
                l(1) =   0
                l(2) =   0
                l(3) =   1
                l(4) =   1
     Q(r) pseudized with 0 coefficients 


     PseudoPot. # 2 for  N read from file:
     /scratch/ahofstet/pseudo/N.pbe-n-kjpaw_psl.0.1.UPF
     MD5 check sum: f73187c8b701007e77325f868c9291d7
     Pseudo is Projector augmented-wave + core cor, Zval =  5.0
     Generated using "atomic" code by A. Dal Corso  v.5.0.99 svn rev. 10869
     Shape of augmentation charge: PSQ
     Using radial grid of 1085 points,  4 beta functions with: 
                l(1) =   0
                l(2) =   0
                l(3) =   1
                l(4) =   1
     Q(r) pseudized with 0 coefficients 


     PseudoPot. # 3 for  H read from file:
     /scratch/ahofstet/pseudo/H.pbe-kjpaw_psl.0.1.UPF
     MD5 check sum: 94e484f906d9e9773b2f6e52662335b2
     Pseudo is Projector augmented-wave, Zval =  1.0
     Generated using "atomic" code by A. Dal Corso  v.5.0.99 svn rev. 10869
     Shape of augmentation charge: PSQ
     Using radial grid of  929 points,  2 beta functions with: 
                l(1) =   0
                l(2) =   0
     Q(r) pseudized with 0 coefficients 


     PseudoPot. # 4 for  O read from file:
     /scratch/ahofstet/pseudo/O.pbe-n-kjpaw_psl.0.1.UPF
     MD5 check sum: 3f94a2996a3169367d6eb21d9b593f20
     Pseudo is Projector augmented-wave + core cor, Zval =  6.0
     Generated using "atomic" code by A. Dal Corso  v.5.0.99 svn rev. 10869
     Shape of augmentation charge: BESSEL
     Using radial grid of 1095 points,  4 beta functions with: 
                l(1) =   0
                l(2) =   0
                l(3) =   1
                l(4) =   1
     Q(r) pseudized with 0 coefficients 


     atomic species   valence    mass     pseudopotential
        C              4.00    12.01070      C( 1.00)
        N              5.00    14.00670      N( 1.00)
        H              1.00     1.00794      H( 1.00)
        O              6.00    15.99940      O( 1.00)

      4 Sym. Ops., with inversion, found ( 2 have fractional translation)



   Cartesian axes

     site n.     atom                  positions (alat units)
         1           O   tau(   1) = (   1.2746005   0.0983187   1.1496605  )
         2           O   tau(   2) = (   0.9719822   0.6789151   0.6412456  )
         3           O   tau(   3) = (   0.2231213   1.0628741   0.0442769  )
         4           O   tau(   4) = (   0.5257396   0.4822777   0.5526918  )
         5           O   tau(   5) = (   1.1312014   0.4502859   0.9455206  )
         6           O   tau(   6) = (   1.1153813   1.0308823   0.8453855  )
         7           O   tau(   7) = (   0.3665204   0.7109069   0.2484168  )
         8           O   tau(   8) = (   0.3823405   0.1303105   0.3485519  )
         9           O   tau(   9) = (   0.5645382   0.1833627   0.9328972  )
        10           O   tau(  10) = (   0.6820445   0.7639591   0.8580089  )
        11           O   tau(  11) = (   0.9331836   0.9778301   0.2610402  )
        12           O   tau(  12) = (   0.8156773   0.3972337   0.3359285  )
        13           O   tau(  13) = (   0.4571018   0.2573403   0.0184849  )
        14           O   tau(  14) = (   0.2917591   0.8379367   0.5784838  )
        15           O   tau(  15) = (   1.0406200   0.9038525   1.1754525  )
        16           O   tau(  16) = (   1.2059627   0.3232561   0.6154536  )
        17           N   tau(  17) = (   0.9053631   0.2298874   0.0030416  )
        18           N   tau(  18) = (   0.8434978   0.8104838   0.5939271  )
        19           N   tau(  19) = (   0.5923587   0.9313054   1.1908958  )
        20           N   tau(  20) = (   0.6542240   0.3507090   0.6000103  )
        21           N   tau(  21) = (   0.9447999   0.4648306   0.9771195  )
        22           N   tau(  22) = (   1.3017828   1.0454270   0.8137866  )
        23           N   tau(  23) = (   0.5529219   0.6963622   0.2168179  )
        24           N   tau(  24) = (   0.1959390   0.1157658   0.3801508  )
        25           C   tau(  25) = (   0.5430388   0.2623509   1.0844414  )
        26           C   tau(  26) = (   0.7035439   0.8429473   0.7064648  )
        27           C   tau(  27) = (   0.9546830   0.8988419   0.1094961  )
        28           C   tau(  28) = (   0.7941779   0.3182455   0.4874727  )
        29           C   tau(  29) = (   0.6694296   0.4157362   1.1510712  )
        30           C   tau(  30) = (   0.5771531   0.9963326   0.6398349  )
        31           C   tau(  31) = (   0.8282922   0.7454566   0.0428662  )
        32           C   tau(  32) = (   0.9205687   0.1648602   0.5541025  )
        33           C   tau(  33) = (   0.8692582   0.3726013   1.1158311  )
        34           C   tau(  34) = (   0.3773245   0.9531977   0.6750751  )
        35           C   tau(  35) = (   0.6284636   0.7885915   0.0781064  )
        36           C   tau(  36) = (   1.1203973   0.2079951   0.5188624  )
        37           H   tau(  37) = (   1.1534791   0.1651571   1.1584822  )
        38           H   tau(  38) = (   1.0931036   0.7457535   0.6324239  )
        39           H   tau(  39) = (   0.3442427   0.9960357   0.0354552  )
        40           H   tau(  40) = (   0.4046182   0.4154393   0.5615135  )
        41           H   tau(  41) = (   1.1446676   0.4019844   0.8158961  )
        42           H   tau(  42) = (   1.1019151   0.9825808   0.9750100  )
        43           H   tau(  43) = (   0.3530542   0.7592084   0.3780413  )
        44           H   tau(  44) = (   0.3958067   0.1786120   0.2189274  )
        45           H   tau(  45) = (   0.8893975   0.2881758   0.1323837  )
        46           H   tau(  46) = (   0.8594634   0.8687722   0.4645850  )
        47           H   tau(  47) = (   0.6083243   0.8730170   1.0615537  )
        48           H   tau(  48) = (   0.6382584   0.2924206   0.7293524  )
        49           H   tau(  49) = (   0.8777598   0.5706496   0.9095562  )
        50           H   tau(  50) = (   1.3688229   1.1512460   0.8813499  )
        51           H   tau(  51) = (   0.6199620   0.5905432   0.2843812  )
        52           H   tau(  52) = (   0.1288989   0.0099468   0.3125875  )
        53           H   tau(  53) = (   0.6293122   0.5406642   1.0763573  )
        54           H   tau(  54) = (   0.6172705   1.1212606   0.7145488  )
        55           H   tau(  55) = (   0.8684096   0.6205286   0.1175801  )
        56           H   tau(  56) = (   0.8804513   0.0399322   0.4793886  )
        57           H   tau(  57) = (   0.1550790   0.4420285   0.1048892  )
        58           H   tau(  58) = (   0.5937819   1.0226249   0.4920795  )
        59           H   tau(  59) = (   1.3426428   0.7191643   1.0890482  )
        60           H   tau(  60) = (   0.9039399   0.1385679   0.7018579  )

     number of k points=     8
                       cart. coord. in units 2pi/alat
        k(    1) = (   0.0000000   0.0000000   0.0000000), wk =   0.1666667
        k(    2) = (   0.0000000   0.0000000  -0.4187824), wk =   0.1666667
        k(    3) = (   0.0000000  -0.4305917   0.0000000), wk =   0.1666667
        k(    4) = (   0.0000000  -0.4305917  -0.4187824), wk =   0.1666667
        k(    5) = (   0.3333333   0.0000000  -0.1389581), wk =   0.3333333
        k(    6) = (   0.3333333   0.0000000  -0.5577405), wk =   0.3333333
        k(    7) = (   0.3333333  -0.4305917  -0.1389581), wk =   0.3333333
        k(    8) = (   0.3333333  -0.4305917  -0.5577405), wk =   0.3333333

     Dense  grid:   486951 G-vectors     FFT dimensions: (  90, 108, 120)

     Estimated max dynamical RAM per process >     329.12MB

     Estimated total allocated dynamical RAM >    2632.94MB

     Check: negative/imaginary core charge=   -0.000003    0.000000

     Initial potential from superposition of free atoms

     starting charge  207.99919, renormalised to  208.00000
     Starting wfc are  168 randomized atomic wfcs
     Checking if some PAW data can be deallocated... 

     total cpu time spent up to now is       18.0 secs

     per-process dynamical memory:   298.0 Mb

     Self-consistent Calculation

     iteration #  1     ecut=   100.00 Ry     beta=0.50
     Davidson diagonalization with overlap
     ethr =  1.00E-02,  avg # of iterations =  3.0

     total cpu time spent up to now is       54.6 secs

     total energy              =   -1140.75722906 Ry
     Harris-Foulkes estimate   =   -1143.47961208 Ry
     estimated scf accuracy    <       5.18667298 Ry

     iteration #  2     ecut=   100.00 Ry     beta=0.50
     Davidson diagonalization with overlap
     ethr =  2.49E-03,  avg # of iterations =  3.0

     total cpu time spent up to now is       79.8 secs

     total energy              =   -1141.52377247 Ry
     Harris-Foulkes estimate   =   -1141.91007991 Ry
     estimated scf accuracy    <       0.82923874 Ry

     iteration #  3     ecut=   100.00 Ry     beta=0.50
     Davidson diagonalization with overlap
     ethr =  3.99E-04,  avg # of iterations =  6.1

     total cpu time spent up to now is      113.3 secs

     total energy              =   -1141.74271743 Ry
     Harris-Foulkes estimate   =   -1141.85172319 Ry
     estimated scf accuracy    <       0.27945454 Ry

     iteration #  4     ecut=   100.00 Ry     beta=0.50
     Davidson diagonalization with overlap
     ethr =  1.34E-04,  avg # of iterations =  2.2

     total cpu time spent up to now is      135.0 secs

     total energy              =   -1141.77055612 Ry
     Harris-Foulkes estimate   =   -1141.78249258 Ry
     estimated scf accuracy    <       0.03665086 Ry

     iteration #  5     ecut=   100.00 Ry     beta=0.50
     Davidson diagonalization with overlap
     ethr =  1.76E-05,  avg # of iterations =  5.9

     total cpu time spent up to now is      172.9 secs

     total energy              =   -1141.78487115 Ry
     Harris-Foulkes estimate   =   -1141.79288350 Ry
     estimated scf accuracy    <       0.02336371 Ry

     iteration #  6     ecut=   100.00 Ry     beta=0.50
     Davidson diagonalization with overlap
     ethr =  1.12E-05,  avg # of iterations =  2.0

     total cpu time spent up to now is      193.5 secs

     total energy              =   -1141.78111985 Ry
     Harris-Foulkes estimate   =   -1141.78613693 Ry
     estimated scf accuracy    <       0.00805873 Ry

     iteration #  7     ecut=   100.00 Ry     beta=0.50
     Davidson diagonalization with overlap
     ethr =  3.87E-06,  avg # of iterations =  5.8

     total cpu time spent up to now is      230.8 secs

     total energy              =   -1141.78623993 Ry
     Harris-Foulkes estimate   =   -1141.78779953 Ry
     estimated scf accuracy    <       0.00512603 Ry

     iteration #  8     ecut=   100.00 Ry     beta=0.50
     Davidson diagonalization with overlap
     ethr =  2.46E-06,  avg # of iterations =  2.0

     total cpu time spent up to now is      251.4 secs

     total energy              =   -1141.78515448 Ry
     Harris-Foulkes estimate   =   -1141.78635733 Ry
     estimated scf accuracy    <       0.00233969 Ry

     iteration #  9     ecut=   100.00 Ry     beta=0.50
     Davidson diagonalization with overlap
     ethr =  1.12E-06,  avg # of iterations =  4.1

     total cpu time spent up to now is      281.4 secs

     total energy              =   -1141.78620949 Ry
     Harris-Foulkes estimate   =   -1141.78626519 Ry
     estimated scf accuracy    <       0.00025320 Ry

     iteration # 10     ecut=   100.00 Ry     beta=0.50
     Davidson diagonalization with overlap
     ethr =  1.22E-07,  avg # of iterations =  1.0

     total cpu time spent up to now is      301.3 secs

     total energy              =   -1141.78612338 Ry
     Harris-Foulkes estimate   =   -1141.78621475 Ry
     estimated scf accuracy    <       0.00015446 Ry

     iteration # 11     ecut=   100.00 Ry     beta=0.50
     Davidson diagonalization with overlap
     ethr =  7.43E-08,  avg # of iterations =  3.9

     total cpu time spent up to now is      331.0 secs

     total energy              =   -1141.78618826 Ry
     Harris-Foulkes estimate   =   -1141.78619759 Ry
     estimated scf accuracy    <       0.00002673 Ry

     iteration # 12     ecut=   100.00 Ry     beta=0.50
     Davidson diagonalization with overlap
     ethr =  1.29E-08,  avg # of iterations =  2.0

     total cpu time spent up to now is      351.6 secs

     total energy              =   -1141.78618341 Ry
     Harris-Foulkes estimate   =   -1141.78618908 Ry
     estimated scf accuracy    <       0.00001087 Ry

     iteration # 13     ecut=   100.00 Ry     beta=0.50
     Davidson diagonalization with overlap
     ethr =  5.23E-09,  avg # of iterations =  4.0

     total cpu time spent up to now is      382.9 secs

     total energy              =   -1141.78618893 Ry
     Harris-Foulkes estimate   =   -1141.78618943 Ry
     estimated scf accuracy    <       0.00000146 Ry

     iteration # 14     ecut=   100.00 Ry     beta=0.50
     Davidson diagonalization with overlap
     ethr =  7.00E-10,  avg # of iterations =  2.0

     total cpu time spent up to now is      403.6 secs

     total energy              =   -1141.78618868 Ry
     Harris-Foulkes estimate   =   -1141.78618898 Ry
     estimated scf accuracy    <       0.00000059 Ry

     iteration # 15     ecut=   100.00 Ry     beta=0.50
     Davidson diagonalization with overlap
     ethr =  2.82E-10,  avg # of iterations =  3.8

     total cpu time spent up to now is      433.6 secs

     total energy              =   -1141.78618896 Ry
     Harris-Foulkes estimate   =   -1141.78618898 Ry
     estimated scf accuracy    <       0.00000006 Ry

     iteration # 16     ecut=   100.00 Ry     beta=0.50
     Davidson diagonalization with overlap
     ethr =  2.96E-11,  avg # of iterations =  2.0

     total cpu time spent up to now is      454.4 secs

     total energy              =   -1141.78618895 Ry
     Harris-Foulkes estimate   =   -1141.78618896 Ry
     estimated scf accuracy    <       0.00000001 Ry

     iteration # 17     ecut=   100.00 Ry     beta=0.50
     Davidson diagonalization with overlap
     ethr =  6.99E-12,  avg # of iterations =  3.9

     total cpu time spent up to now is      486.1 secs

     End of self-consistent calculation

          k = 0.0000 0.0000 0.0000 ( 60815 PWs)   bands (ev):

   -20.8584 -20.7488 -20.6679 -20.6407 -20.5106 -20.4986 -20.4877 -20.3832
   -19.1630 -19.1431 -18.8855 -18.8706 -18.7722 -18.7277 -18.7002 -18.6802
   -14.9566 -14.9109 -14.8348 -14.7313 -14.5387 -14.4548 -14.4062 -14.3830
   -11.7208 -11.6960 -11.6056 -11.6031  -8.6910  -8.6030  -8.5826  -8.5104
    -8.2372  -8.2087  -7.8145  -7.6659  -7.6462  -7.6371  -7.4253  -7.2588
    -7.1507  -7.0626  -6.9215  -6.8139  -5.8674  -5.6900  -5.5467  -5.4415
    -5.4260  -5.3241  -5.2857  -5.2739  -4.7541  -4.7359  -4.5876  -4.5669
    -4.4504  -4.1795  -4.1412  -4.0048  -3.8927  -3.8751  -3.7796  -3.7278
    -3.7179  -3.6886  -3.3202  -3.2659  -3.0700  -2.9992  -2.9369  -2.7664
    -2.6386  -2.6294  -2.2719  -2.2024  -2.1268  -1.8787  -1.8745  -1.7935
    -1.0088  -0.8332  -0.8109  -0.6924  -0.6231  -0.4991  -0.4977  -0.4935
    -0.1827  -0.0545  -0.0544   0.0347   0.2939   0.3570   0.4238   0.5419
     0.6384   0.7159   0.9969   1.0122   1.1330   1.2642   1.2919   1.3747
     5.6892   5.7436   5.7637   5.9222   6.1548   6.3402   6.3497   6.4880
     6.6438   7.6519   7.8020   7.9511   8.4626   8.4723   8.8154   8.8956
     8.9097   8.9147   9.0202   9.2603

          k = 0.0000 0.0000-0.4188 ( 60940 PWs)   bands (ev):

   -20.7770 -20.7770 -20.6944 -20.6944 -20.5076 -20.5076 -20.4287 -20.4287
   -19.0236 -19.0236 -19.0038 -19.0038 -18.7359 -18.7359 -18.7020 -18.7020
   -14.8760 -14.8760 -14.7994 -14.7994 -14.4949 -14.4949 -14.4423 -14.4423
   -11.7094 -11.7094 -11.6021 -11.6021  -8.5463  -8.5463  -8.4935  -8.4935
    -8.1186  -8.1186  -8.0344  -8.0344  -7.5495  -7.5495  -7.4517  -7.4517
    -7.0332  -7.0332  -6.9663  -6.9663  -5.8161  -5.8161  -5.4168  -5.4168
    -5.3736  -5.3736  -5.2862  -5.2862  -4.7617  -4.7617  -4.5870  -4.5870
    -4.2167  -4.2167  -4.0030  -4.0030  -3.9710  -3.9710  -3.7265  -3.7265
    -3.5883  -3.5883  -3.4223  -3.4223  -3.0707  -3.0707  -2.8552  -2.8552
    -2.5009  -2.5009  -2.3658  -2.3658  -1.9374  -1.9374  -1.8586  -1.8586
    -0.8635  -0.8635  -0.7657  -0.7657  -0.5676  -0.5676  -0.5183  -0.5183
    -0.1096  -0.1096  -0.0067  -0.0067   0.2641   0.2641   0.4383   0.4383
     0.8173   0.8173   0.8444   0.8444   1.2083   1.2083   1.3715   1.3715
     5.7512   5.7512   5.8446   5.8446   6.2249   6.2249   6.4451   6.4451
     7.0506   7.0506   7.9682   7.9682   8.3931   8.3931   8.7327   8.7327
     8.9589   8.9589   9.1831   9.1831

          k = 0.0000-0.4306 0.0000 ( 60862 PWs)   bands (ev):

   -20.8102 -20.8102 -20.6566 -20.6566 -20.5038 -20.5038 -20.4273 -20.4273
   -19.1535 -19.1535 -18.8780 -18.8780 -18.7545 -18.7545 -18.6855 -18.6855
   -14.9377 -14.9377 -14.7814 -14.7814 -14.5063 -14.5063 -14.3825 -14.3825
   -11.7008 -11.7008 -11.6121 -11.6121  -8.6413  -8.6413  -8.5533  -8.5533
    -8.2302  -8.2302  -7.7482  -7.7482  -7.6395  -7.6395  -7.3294  -7.3294
    -7.0997  -7.0997  -6.8709  -6.8709  -5.7493  -5.7493  -5.5136  -5.5136
    -5.3531  -5.3531  -5.3252  -5.3252  -4.7919  -4.7919  -4.5415  -4.5415
    -4.3969  -4.3969  -4.0384  -4.0384  -3.8125  -3.8125  -3.7364  -3.7364
    -3.7165  -3.7165  -3.2477  -3.2477  -3.0347  -3.0347  -2.9501  -2.9501
    -2.6267  -2.6267  -2.1521  -2.1521  -2.0420  -2.0420  -1.8317  -1.8317
    -0.9592  -0.9592  -0.7510  -0.7510  -0.6163  -0.6163  -0.3972  -0.3972
    -0.0861  -0.0861  -0.0496  -0.0496   0.2979   0.2979   0.5410   0.5410
     0.7018   0.7018   0.9397   0.9397   1.2537   1.2537   1.2807   1.2807
     5.7369   5.7369   5.8481   5.8481   6.1916   6.1916   6.4946   6.4946
     7.0132   7.0132   7.9188   7.9188   8.3187   8.3187   8.8047   8.8047
     9.0355   9.0355   9.2322   9.2322

          k = 0.0000-0.4306-0.4188 ( 60800 PWs)   bands (ev):

   -20.7413 -20.7413 -20.7406 -20.7406 -20.4786 -20.4786 -20.4474 -20.4474
   -19.0224 -19.0224 -19.0046 -19.0046 -18.7358 -18.7358 -18.7025 -18.7025
   -14.8481 -14.8481 -14.8325 -14.8325 -14.4826 -14.4826 -14.4490 -14.4490
   -11.6988 -11.6988 -11.6134 -11.6134  -8.5520  -8.5520  -8.4840  -8.4840
    -8.1384  -8.1384  -8.0055  -8.0055  -7.5690  -7.5690  -7.4365  -7.4365
    -7.0080  -7.0080  -6.9993  -6.9993  -5.7874  -5.7874  -5.4609  -5.4609
    -5.3708  -5.3708  -5.3361  -5.3361  -4.7220  -4.7220  -4.5095  -4.5095
    -4.2557  -4.2557  -4.1371  -4.1371  -3.7969  -3.7969  -3.7765  -3.7765
    -3.5866  -3.5866  -3.4438  -3.4438  -3.0329  -3.0329  -2.9167  -2.9167
    -2.4113  -2.4113  -2.3797  -2.3797  -1.9896  -1.9896  -1.8376  -1.8376
    -0.8649  -0.8649  -0.7785  -0.7785  -0.6063  -0.6063  -0.4946  -0.4946
    -0.0551  -0.0551  -0.0519  -0.0519   0.3662   0.3662   0.3680   0.3680
     0.7713   0.7713   0.8805   0.8805   1.2855   1.2855   1.2932   1.2932
     5.8044   5.8044   5.8072   5.8072   6.1941   6.1941   6.4316   6.4316
     7.3069   7.3069   7.5963   7.5963   8.4547   8.4547   8.5339   8.5339
     9.0230   9.0230   9.3702   9.3702

          k = 0.3333 0.0000-0.1390 ( 60885 PWs)   bands (ev):

   -20.7985 -20.7117 -20.6973 -20.6615 -20.5245 -20.5175 -20.4751 -20.4207
   -19.1363 -19.1262 -19.0010 -18.9972 -18.6995 -18.6724 -18.6556 -18.6423
   -14.8791 -14.8275 -14.7847 -14.6963 -14.5737 -14.5102 -14.4643 -14.4409
   -11.7618 -11.7511 -11.6897 -11.6773  -8.4920  -8.4912  -8.4544  -8.3764
    -8.2478  -8.1606  -7.9593  -7.8494  -7.5601  -7.5406  -7.3805  -7.2661
    -6.9710  -6.9486  -6.8610  -6.7709  -5.8918  -5.8842  -5.8131  -5.6846
    -5.6635  -5.4776  -5.3043  -5.2828  -4.7190  -4.7075  -4.6272  -4.6191
    -4.5008  -4.2370  -4.2067  -4.0708  -4.0421  -3.8344  -3.8165  -3.5798
    -3.5273  -3.4812  -3.4746  -3.3366  -3.0120  -2.9664  -2.7333  -2.7161
    -2.4167  -2.3655  -2.3630  -2.2157  -2.0072  -1.9653  -1.8280  -1.7581
    -1.0059  -0.8963  -0.8962  -0.7283  -0.5965  -0.5595  -0.4866  -0.4388
    -0.0960  -0.0391  -0.0080   0.0398   0.3116   0.3483   0.3784   0.4388
     0.6986   0.7472   0.8423   0.8821   1.2117   1.2388   1.2817   1.3340
     5.7516   5.7812   5.7919   5.9146   6.1112   6.2293   6.3971   6.5228
     6.8992   7.4704   7.9969   8.0023   8.3389   8.4250   8.4540   8.4702
     8.7684   8.8853   8.9455   9.3874

          k = 0.3333 0.0000-0.5577 ( 60865 PWs)   bands (ev):

   -20.8111 -20.7350 -20.6835 -20.6361 -20.5589 -20.4727 -20.4658 -20.4334
   -19.1849 -19.1703 -18.9648 -18.9514 -18.7175 -18.6879 -18.6392 -18.6211
   -14.9064 -14.8680 -14.7857 -14.6693 -14.5904 -14.4997 -14.4327 -14.4203
   -11.7663 -11.7464 -11.6917 -11.6764  -8.5694  -8.5606  -8.4963  -8.4670
    -8.1657  -8.1515  -7.8196  -7.7050  -7.6416  -7.5926  -7.3558  -7.2538
    -6.9341  -6.8803  -6.8503  -6.8301  -5.8777  -5.8684  -5.7696  -5.7390
    -5.5798  -5.5519  -5.2534  -5.1923  -4.9019  -4.7749  -4.7218  -4.5991
    -4.3972  -4.2984  -4.1524  -4.1143  -4.0703  -3.9164  -3.8628  -3.6188
    -3.5592  -3.5271  -3.3300  -3.1487  -2.9854  -2.9802  -2.7916  -2.6951
    -2.5335  -2.3322  -2.2667  -2.1245  -2.0774  -1.9733  -1.9030  -1.7635
    -1.0227  -0.8793  -0.7878  -0.7215  -0.6068  -0.5656  -0.5612  -0.4237
    -0.1344  -0.0180   0.0047   0.0857   0.2547   0.3000   0.4495   0.5516
     0.7142   0.7796   0.8325   0.8740   1.1684   1.2185   1.2377   1.3073
     5.7650   5.7727   5.7974   5.8785   6.1056   6.2792   6.3553   6.6049
     7.0500   7.4877   7.7128   8.0686   8.1717   8.2800   8.4430   8.7233
     8.7825   8.9032   9.0435   9.1582

          k = 0.3333-0.4306-0.1390 ( 60904 PWs)   bands (ev):

   -20.7613 -20.7613 -20.6790 -20.6790 -20.5135 -20.5135 -20.4497 -20.4497
   -19.1328 -19.1328 -18.9970 -18.9970 -18.6902 -18.6902 -18.6454 -18.6454
   -14.8579 -14.8579 -14.7391 -14.7391 -14.5469 -14.5469 -14.4442 -14.4442
   -11.7496 -11.7496 -11.6903 -11.6903  -8.4919  -8.4919  -8.4209  -8.4209
    -8.2094  -8.2094  -7.8873  -7.8873  -7.5613  -7.5613  -7.3216  -7.3216
    -6.9636  -6.9636  -6.8106  -6.8106  -5.8954  -5.8954  -5.7452  -5.7452
    -5.5669  -5.5669  -5.2614  -5.2614  -4.8256  -4.8256  -4.5416  -4.5416
    -4.4320  -4.4320  -4.1463  -4.1463  -3.9464  -3.9464  -3.6309  -3.6309
    -3.4742  -3.4742  -3.3765  -3.3765  -3.0237  -3.0237  -2.7797  -2.7797
    -2.3838  -2.3838  -2.2703  -2.2703  -1.9516  -1.9516  -1.8158  -1.8158
    -0.9771  -0.9771  -0.7887  -0.7887  -0.5772  -0.5772  -0.4715  -0.4715
    -0.0612  -0.0612   0.0354   0.0354   0.3235   0.3235   0.4471   0.4471
     0.7285   0.7285   0.8396   0.8396   1.2427   1.2427   1.2661   1.2661
     5.7319   5.7319   5.9021   5.9021   6.1979   6.1979   6.4032   6.4032
     7.3137   7.3137   7.9419   7.9419   8.2850   8.2850   8.3825   8.3825
     8.7390   8.7390   9.1914   9.1914

          k = 0.3333-0.4306-0.5577 ( 60896 PWs)   bands (ev):

   -20.7759 -20.7759 -20.6664 -20.6664 -20.5096 -20.5096 -20.4463 -20.4463
   -19.1789 -19.1789 -18.9564 -18.9564 -18.7052 -18.7052 -18.6280 -18.6280
   -14.8932 -14.8932 -14.7262 -14.7262 -14.5480 -14.5480 -14.4187 -14.4187
   -11.7509 -11.7509 -11.6895 -11.6895  -8.5411  -8.5411  -8.5057  -8.5057
    -8.1715  -8.1715  -7.7382  -7.7382  -7.6165  -7.6165  -7.3063  -7.3063
    -6.9185  -6.9185  -6.8434  -6.8434  -5.8923  -5.8923  -5.7415  -5.7415
    -5.5486  -5.5486  -5.2504  -5.2504  -4.9257  -4.9257  -4.4776  -4.4776
    -4.3571  -4.3571  -4.2250  -4.2250  -3.9590  -3.9590  -3.7318  -3.7318
    -3.5503  -3.5503  -3.2621  -3.2621  -3.0007  -3.0007  -2.7478  -2.7478
    -2.4511  -2.4511  -2.1851  -2.1851  -1.9722  -1.9722  -1.8446  -1.8446
    -0.9754  -0.9754  -0.7128  -0.7128  -0.6147  -0.6147  -0.4810  -0.4810
    -0.0790  -0.0790   0.0487   0.0487   0.2547   0.2547   0.5411   0.5411
     0.7133   0.7133   0.8913   0.8913   1.1894   1.1894   1.2668   1.2668
     5.7280   5.7280   5.8811   5.8811   6.1926   6.1926   6.4433   6.4433
     7.4270   7.4270   7.6978   7.6978   8.1666   8.1666   8.6185   8.6185
     8.7728   8.7728   9.0612   9.0612

     highest occupied, lowest unoccupied level (ev):     1.3747    5.6892

!    total energy              =   -1141.78618896 Ry
     Harris-Foulkes estimate   =   -1141.78618897 Ry
     estimated scf accuracy    <          4.5E-09 Ry

     total all-electron energy =     -4226.895990 Ry

     The total energy is the sum of the following terms:

     one-electron contribution =    -537.47846678 Ry
     hartree contribution      =     356.97962121 Ry
     xc contribution           =    -228.99856840 Ry
     ewald contribution        =    -433.78342090 Ry
     Dispersion Correction     =      -0.27513675 Ry
     one-center paw contrib.   =    -298.23021734 Ry

     convergence has been achieved in  17 iterations

     Forces acting on atoms (cartesian axes, Ry/au):

     atom    1 type  4   force =     0.00212348    0.00146920    0.00204682
     atom    2 type  4   force =    -0.00212348    0.00146920   -0.00204682
     atom    3 type  4   force =    -0.00212348   -0.00146920   -0.00204682
     atom    4 type  4   force =     0.00212348   -0.00146920    0.00204682
     atom    5 type  4   force =    -0.00043784   -0.00024795    0.00014077
     atom    6 type  4   force =     0.00043784   -0.00024795   -0.00014077
     atom    7 type  4   force =     0.00043784    0.00024795   -0.00014077
     atom    8 type  4   force =    -0.00043784    0.00024795    0.00014077
     atom    9 type  4   force =    -0.00116798    0.00000922   -0.00260575
     atom   10 type  4   force =     0.00116798    0.00000922    0.00260575
     atom   11 type  4   force =     0.00116798   -0.00000922    0.00260575
     atom   12 type  4   force =    -0.00116798   -0.00000922   -0.00260575
     atom   13 type  4   force =     0.00101525   -0.00057161   -0.00160941
     atom   14 type  4   force =    -0.00101525   -0.00057161    0.00160941
     atom   15 type  4   force =    -0.00101525    0.00057161    0.00160941
     atom   16 type  4   force =     0.00101525    0.00057161   -0.00160941
     atom   17 type  2   force =     0.00161511   -0.00596004   -0.00002416
     atom   18 type  2   force =    -0.00161511   -0.00596004    0.00002416
     atom   19 type  2   force =    -0.00161511    0.00596004    0.00002416
     atom   20 type  2   force =     0.00161511    0.00596004   -0.00002416
     atom   21 type  2   force =    -0.00076661   -0.00018656    0.00157550
     atom   22 type  2   force =     0.00076661   -0.00018656   -0.00157550
     atom   23 type  2   force =     0.00076661    0.00018656   -0.00157550
     atom   24 type  2   force =    -0.00076661    0.00018656    0.00157550
     atom   25 type  1   force =    -0.00064335    0.00487397    0.00149725
     atom   26 type  1   force =     0.00064335    0.00487397   -0.00149725
     atom   27 type  1   force =     0.00064335   -0.00487397   -0.00149725
     atom   28 type  1   force =    -0.00064335   -0.00487397    0.00149725
     atom   29 type  1   force =    -0.00115890   -0.00042740   -0.00208246
     atom   30 type  1   force =     0.00115890   -0.00042740    0.00208246
     atom   31 type  1   force =     0.00115890    0.00042740    0.00208246
     atom   32 type  1   force =    -0.00115890    0.00042740   -0.00208246
     atom   33 type  1   force =    -0.00011749    0.00129436    0.00155378
     atom   34 type  1   force =     0.00011749    0.00129436   -0.00155378
     atom   35 type  1   force =     0.00011749   -0.00129436   -0.00155378
     atom   36 type  1   force =    -0.00011749   -0.00129436    0.00155378
     atom   37 type  3   force =    -0.00236639    0.00047264   -0.00052292
     atom   38 type  3   force =     0.00236639    0.00047264    0.00052292
     atom   39 type  3   force =     0.00236639   -0.00047264    0.00052292
     atom   40 type  3   force =    -0.00236639   -0.00047264   -0.00052292
     atom   41 type  3   force =     0.00016660    0.00032425   -0.00005915
     atom   42 type  3   force =    -0.00016660    0.00032425    0.00005915
     atom   43 type  3   force =    -0.00016660   -0.00032425    0.00005915
     atom   44 type  3   force =     0.00016660   -0.00032425   -0.00005915
     atom   45 type  3   force =     0.00054296    0.00066783    0.00192915
     atom   46 type  3   force =    -0.00054296    0.00066783   -0.00192915
     atom   47 type  3   force =    -0.00054296   -0.00066783   -0.00192915
     atom   48 type  3   force =     0.00054296   -0.00066783    0.00192915
     atom   49 type  3   force =    -0.00089807    0.00080022   -0.00091916
     atom   50 type  3   force =     0.00089807    0.00080022    0.00091916
     atom   51 type  3   force =     0.00089807   -0.00080022    0.00091916
     atom   52 type  3   force =    -0.00089807   -0.00080022   -0.00091916
     atom   53 type  3   force =     0.00074513   -0.00019203   -0.00031294
     atom   54 type  3   force =    -0.00074513   -0.00019203    0.00031294
     atom   55 type  3   force =    -0.00074513    0.00019203    0.00031294
     atom   56 type  3   force =     0.00074513    0.00019203   -0.00031294
     atom   57 type  3   force =    -0.00037291   -0.00029015    0.00039894
     atom   58 type  3   force =     0.00037291   -0.00029015   -0.00039894
     atom   59 type  3   force =     0.00037291    0.00029015   -0.00039894
     atom   60 type  3   force =    -0.00037291    0.00029015    0.00039894

     Total force =     0.021439     Total SCF correction =     0.000092


     Computing stress (Cartesian axis) and pressure

          total   stress  (Ry/bohr**3)                   (kbar)     P=   -4.12
  -0.00000461   0.00000000   0.00000181         -0.68      0.00      0.27
   0.00000000  -0.00003852   0.00000000          0.00     -5.67      0.00
   0.00000181   0.00000000  -0.00004099          0.27      0.00     -6.03


     Writing output data file scf.save
 
     init_run     :     16.63s CPU     17.31s WALL (       1 calls)
     electrons    :    446.49s CPU    468.34s WALL (       1 calls)
     forces       :      8.78s CPU      8.85s WALL (       1 calls)
     stress       :     34.22s CPU     34.30s WALL (       1 calls)

     Called by init_run:
     wfcinit      :      9.77s CPU     10.27s WALL (       1 calls)
     potinit      :      2.42s CPU      2.48s WALL (       1 calls)

     Called by electrons:
     c_bands      :    387.52s CPU    406.35s WALL (      17 calls)
     sum_band     :     50.65s CPU     52.97s WALL (      17 calls)
     v_of_rho     :      1.33s CPU      1.49s WALL (      18 calls)
     newd         :      2.55s CPU      3.04s WALL (      18 calls)
     PAW_pot      :      3.91s CPU      3.92s WALL (      18 calls)
     mix_rho      :      0.32s CPU      0.34s WALL (      17 calls)

     Called by c_bands:
     init_us_2    :      3.30s CPU      3.31s WALL (     296 calls)
     cegterg      :    375.04s CPU    393.82s WALL (     136 calls)

     Called by sum_band:
     sum_band:bec :      0.03s CPU      0.03s WALL (     136 calls)
     addusdens    :      2.82s CPU      3.23s WALL (      17 calls)

     Called by *egterg:
     h_psi        :    249.08s CPU    262.77s WALL (     597 calls)
     s_psi        :     26.81s CPU     26.84s WALL (     597 calls)
     g_psi        :      1.49s CPU      1.49s WALL (     453 calls)
     cdiaghg      :     19.60s CPU     19.62s WALL (     589 calls)

     Called by h_psi:
     h_psi:pot    :    247.04s CPU    260.70s WALL (     597 calls)
     h_psi:calbec :     28.60s CPU     28.73s WALL (     597 calls)
     vloc_psi     :    191.30s CPU    204.81s WALL (     597 calls)
     add_vuspsi   :     27.14s CPU     27.16s WALL (     597 calls)

     General routines
     calbec       :     44.11s CPU     44.31s WALL (     773 calls)
     fft          :      2.68s CPU      2.95s WALL (     258 calls)
     fftw         :    207.96s CPU    223.05s WALL (  109814 calls)
 
     Parallel routines
     fft_scatter  :     69.10s CPU     78.91s WALL (  110072 calls)
 
     PWSCF        :  8m30.35s CPU     8m54.03s WALL

 
   This run was terminated on:   4:40:34   4Nov2017            

=------------------------------------------------------------------------------=
   JOB DONE.
=------------------------------------------------------------------------------=
