
     Program PWSCF v.6.1 (svn rev. 13369) starts on 22Dec2017 at  7:26:39 

     This program is part of the open-source Quantum ESPRESSO suite
     for quantum simulation of materials; please cite
         "P. Giannozzi et al., J. Phys.:Condens. Matter 21 395502 (2009);
          URL http://www.quantum-espresso.org", 
     in publications or presentations arising from this work. More details at
     http://www.quantum-espresso.org/quote

     Parallel version (MPI), running on     8 processors
     R & G space division:  proc/nbgrp/npool/nimage =       8
     Waiting for input...
     Reading input from standard input

     Current dimensions of program PWSCF are:
     Max number of different atomic species (ntypx) = 10
     Max number of k-points (npk) =  40000
     Max angular momentum in pseudopotentials (lmaxx) =  3
               file C.pbe-n-kjpaw_psl.0.1.UPF: wavefunction(s)  2P renormalized
               file N.pbe-n-kjpaw_psl.0.1.UPF: wavefunction(s)  2P renormalized
               file H.pbe-kjpaw_psl.0.1.UPF: wavefunction(s)  1S renormalized
               file O.pbe-n-kjpaw_psl.0.1.UPF: wavefunction(s)  2P renormalized

     -------------------------------------
     Parameters for Dispersion Correction:
     -------------------------------------
       atom      VdW radius       C_6     

        C          2.744         60.710
        N          2.640         42.670
        H          1.892          4.857
        O          2.536         24.284

     Subspace diagonalization in iterative solution of the eigenvalue problem:
     a serial algorithm will be used

 
     Parallelization info
     --------------------
     sticks:   dense  smooth     PW     G-vecs:    dense   smooth      PW
     Min        1254    1254    330               105723   105723   14240
     Max        1255    1255    331               105726   105726   14243
     Sum       10039   10039   2645               845805   845805  113929
 


     bravais-lattice index     =            0
     lattice parameter (alat)  =      13.5200  a.u.
     unit-cell volume          =    6262.3238 (a.u.)^3
     number of atoms/cell      =          104
     number of atomic types    =            4
     number of electrons       =       344.00
     number of Kohn-Sham states=          206
     kinetic-energy cutoff     =     100.0000  Ry
     charge density cutoff     =     400.0000  Ry
     convergence threshold     =      1.0E-08
     mixing beta               =       0.5000
     number of iterations used =            8  plain     mixing
     Exchange-correlation      =  SLA  PW   PBX  PBC ( 1  4  3  4 0 0)

     celldm(1)=  13.520046  celldm(2)=   0.000000  celldm(3)=   0.000000
     celldm(4)=   0.000000  celldm(5)=   0.000000  celldm(6)=   0.000000

     crystal axes: (cart. coord. in units of alat)
               a(1) = (   1.000000   0.000000   0.000000 )  
               a(2) = (   0.000000   1.728716   0.000000 )  
               a(3) = (  -0.107128   0.000000   1.465809 )  

     reciprocal axes: (cart. coord. in units 2 pi/alat)
               b(1) = (  1.000000  0.000000  0.073084 )  
               b(2) = (  0.000000  0.578464  0.000000 )  
               b(3) = (  0.000000  0.000000  0.682217 )  


     PseudoPot. # 1 for  C read from file:
     /scratch/ahofstet/pseudo/C.pbe-n-kjpaw_psl.0.1.UPF
     MD5 check sum: 430fe95172b1e11ef3f8ed03bac87931
     Pseudo is Projector augmented-wave + core cor, Zval =  4.0
     Generated using "atomic" code by A. Dal Corso  v.5.0.99 svn rev. 10869
     Shape of augmentation charge: BESSEL
     Using radial grid of 1073 points,  4 beta functions with: 
                l(1) =   0
                l(2) =   0
                l(3) =   1
                l(4) =   1
     Q(r) pseudized with 0 coefficients 


     PseudoPot. # 2 for  N read from file:
     /scratch/ahofstet/pseudo/N.pbe-n-kjpaw_psl.0.1.UPF
     MD5 check sum: f73187c8b701007e77325f868c9291d7
     Pseudo is Projector augmented-wave + core cor, Zval =  5.0
     Generated using "atomic" code by A. Dal Corso  v.5.0.99 svn rev. 10869
     Shape of augmentation charge: PSQ
     Using radial grid of 1085 points,  4 beta functions with: 
                l(1) =   0
                l(2) =   0
                l(3) =   1
                l(4) =   1
     Q(r) pseudized with 0 coefficients 


     PseudoPot. # 3 for  H read from file:
     /scratch/ahofstet/pseudo/H.pbe-kjpaw_psl.0.1.UPF
     MD5 check sum: 94e484f906d9e9773b2f6e52662335b2
     Pseudo is Projector augmented-wave, Zval =  1.0
     Generated using "atomic" code by A. Dal Corso  v.5.0.99 svn rev. 10869
     Shape of augmentation charge: PSQ
     Using radial grid of  929 points,  2 beta functions with: 
                l(1) =   0
                l(2) =   0
     Q(r) pseudized with 0 coefficients 


     PseudoPot. # 4 for  O read from file:
     /scratch/ahofstet/pseudo/O.pbe-n-kjpaw_psl.0.1.UPF
     MD5 check sum: 3f94a2996a3169367d6eb21d9b593f20
     Pseudo is Projector augmented-wave + core cor, Zval =  6.0
     Generated using "atomic" code by A. Dal Corso  v.5.0.99 svn rev. 10869
     Shape of augmentation charge: BESSEL
     Using radial grid of 1095 points,  4 beta functions with: 
                l(1) =   0
                l(2) =   0
                l(3) =   1
                l(4) =   1
     Q(r) pseudized with 0 coefficients 


     atomic species   valence    mass     pseudopotential
        C              4.00    12.01070      C( 1.00)
        N              5.00    14.00670      N( 1.00)
        H              1.00     1.00794      H( 1.00)
        O              6.00    15.99940      O( 1.00)

      4 Sym. Ops., with inversion, found ( 2 have fractional translation)



   Cartesian axes

     site n.     atom                  positions (alat units)
         1           C   tau(   1) = (   0.8263162   0.0607270   0.1536044  )
         2           C   tau(   2) = (   0.1201199   0.9250851   0.5793000  )
         3           C   tau(   3) = (   0.0665559   1.6679892   1.3122045  )
         4           C   tau(   4) = (   0.7727523   0.8036311   0.8865088  )
         5           C   tau(   5) = (   0.8967247   0.0986097   0.3512065  )
         6           C   tau(   6) = (   0.0497114   0.9629678   0.3816979  )
         7           C   tau(   7) = (  -0.0038525   1.6301065   1.1146024  )
         8           C   tau(   8) = (   0.8431607   0.7657484   1.0841109  )
         9           H   tau(   9) = (   0.0476016   0.1274075   0.3442637  )
        10           H   tau(  10) = (   0.8988344   0.9917656   0.3886408  )
        11           H   tau(  11) = (   0.8452705   1.6013087   1.1215452  )
        12           H   tau(  12) = (  -0.0059623   0.7369506   1.0771681  )
        13           H   tau(  13) = (   0.8308942   0.2285647   0.4012164  )
        14           H   tau(  14) = (   0.1155418   1.0929228   0.3316880  )
        15           H   tau(  15) = (   0.0619779   1.5001515   1.0645925  )
        16           H   tau(  16) = (   0.7773303   0.6357934   1.1341209  )
        17           C   tau(  17) = (   0.6697885   1.6842344   0.5679287  )
        18           C   tau(  18) = (   0.2766476   0.8198763   0.1649757  )
        19           C   tau(  19) = (   0.2230837   0.0444818   0.8978802  )
        20           C   tau(  20) = (   0.6162246   0.9088399   1.3008331  )
        21           H   tau(  21) = (   0.6230205   1.5440211   0.6065863  )
        22           H   tau(  22) = (   0.3234155   0.6796630   0.1263181  )
        23           H   tau(  23) = (   0.2698516   0.1846951   0.8592226  )
        24           H   tau(  24) = (   0.5694566   1.0490532   1.3394908  )
        25           H   tau(  25) = (   0.5715504   0.0092410   0.4632330  )
        26           H   tau(  26) = (   0.3748857   0.8735991   0.2696714  )
        27           H   tau(  27) = (   0.3213217   1.7194752   1.0025759  )
        28           H   tau(  28) = (   0.5179865   0.8551171   1.1961374  )
        29           H   tau(  29) = (   0.6677426   0.0461347   0.6923044  )
        30           H   tau(  30) = (   0.2786935   0.9104928   0.0406001  )
        31           H   tau(  31) = (   0.2251295   1.6825815   0.7735045  )
        32           H   tau(  32) = (   0.6141787   0.8182234   1.4252088  )
        33           C   tau(  33) = (  -0.0236926   1.5361298   0.5110182  )
        34           C   tau(  34) = (   0.9701287   0.6717717   0.2218862  )
        35           C   tau(  35) = (   0.9165647   0.1925864   0.9547907  )
        36           C   tau(  36) = (  -0.0772565   1.0569445   1.2439227  )
        37           N   tau(  37) = (   0.8560668   1.6794082   0.4840579  )
        38           N   tau(  38) = (   0.0903692   0.8150501   0.2488466  )
        39           N   tau(  39) = (   0.0368053   0.0493080   0.9817510  )
        40           N   tau(  40) = (   0.8025029   0.9136661   1.2169623  )
        41           N   tau(  41) = (   0.1283613   1.5178412   0.4034454  )
        42           N   tau(  42) = (   0.8180748   0.6534831   0.3294590  )
        43           N   tau(  43) = (   0.7645109   0.2108750   1.0623635  )
        44           N   tau(  44) = (   0.0747973   1.0752331   1.1363499  )
        45           N   tau(  45) = (   0.9493187   1.4139110   0.6504338  )
        46           N   tau(  46) = (  -0.0028826   0.5495529   0.0824706  )
        47           N   tau(  47) = (  -0.0564466   0.3148052   0.8153751  )
        48           N   tau(  48) = (   0.8957548   1.1791633   1.3833383  )
        49           O   tau(  49) = (   0.8600228   0.1713219   0.0255238  )
        50           O   tau(  50) = (   0.0864132   1.0356800   0.7073806  )
        51           O   tau(  51) = (   0.0328493   1.5573943   1.4402851  )
        52           O   tau(  52) = (   0.8064589   0.6930362   0.7584283  )
        53           O   tau(  53) = (   0.7315656   1.6333700   0.1371891  )
        54           O   tau(  54) = (   0.2148704   0.7690119   0.5957154  )
        55           O   tau(  55) = (   0.1613065   0.0953462   1.3286198  )
        56           O   tau(  56) = (   0.6780017   0.9597043   0.8700935  )
        57           H   tau(  57) = (   0.1384381   1.5763530   0.2740242  )
        58           H   tau(  58) = (   0.8079979   0.7119949   0.4588803  )
        59           H   tau(  59) = (   0.7544340   0.1523632   1.1917847  )
        60           H   tau(  60) = (   0.0848742   1.0167213   1.0069286  )
        61           H   tau(  61) = (   0.2312080   1.4247031   0.4411257  )
        62           H   tau(  62) = (   0.7152281   0.5603450   0.2917787  )
        63           H   tau(  63) = (   0.6616642   0.3040131   1.0246832  )
        64           H   tau(  64) = (   0.1776440   1.1683712   1.1740301  )
        65           H   tau(  65) = (   0.0158744   1.2864501   0.6508563  )
        66           H   tau(  66) = (   0.9305616   0.4220920   0.0820482  )
        67           H   tau(  67) = (   0.8769977   0.4422661   0.8149526  )
        68           H   tau(  68) = (  -0.0376895   1.3066242   1.3837607  )
        69           H   tau(  69) = (   0.8403392   1.4267395   0.7418780  )
        70           H   tau(  70) = (   0.1060968   0.5623814  -0.0089736  )
        71           H   tau(  71) = (   0.0525329   0.3019767   0.7239309  )
        72           H   tau(  72) = (   0.7867753   1.1663348   1.4747825  )
        73           H   tau(  73) = (   0.6981013   1.6043626  -0.0015448  )
        74           H   tau(  74) = (   0.2483348   0.7400045   0.7344492  )
        75           H   tau(  75) = (   0.1947709   0.1243536   1.4673537  )
        76           H   tau(  76) = (   0.6445373   0.9887117   0.7313597  )
        77           C   tau(  77) = (   0.4727894   1.4183601   1.2014092  )
        78           C   tau(  78) = (   0.3665188   0.5540020   0.9973041  )
        79           C   tau(  79) = (   0.4200827   0.3103561   0.2643997  )
        80           C   tau(  80) = (   0.5263534   1.1747142   0.4685047  )
        81           C   tau(  81) = (   0.5063502   1.3715619   0.9923202  )
        82           C   tau(  82) = (   0.3329580   0.5072038   1.2063931  )
        83           C   tau(  83) = (   0.3865220   0.3571543   0.4734887  )
        84           C   tau(  84) = (   0.5599141   1.2215124   0.2594157  )
        85           O   tau(  85) = (   0.3546609   1.3193487   1.2888210  )
        86           O   tau(  86) = (   0.4846473   0.4549906   0.9098923  )
        87           O   tau(  87) = (   0.5382113   0.4093675   0.1769879  )
        88           O   tau(  88) = (   0.4082248   1.2737256   0.5559165  )
        89           O   tau(  89) = (   0.5685080   1.5514209   1.2635157  )
        90           O   tau(  90) = (   0.2708002   0.6870628   0.9351976  )
        91           O   tau(  91) = (   0.3243641   0.1772953   0.2022932  )
        92           O   tau(  92) = (   0.6220720   1.0416534   0.5306113  )
        93           O   tau(  93) = (   0.3624876   1.2903944   0.9113185  )
        94           O   tau(  94) = (   0.4768206   0.4260363   1.2873949  )
        95           O   tau(  95) = (   0.5303845   0.4383218   0.5544904  )
        96           O   tau(  96) = (   0.4160516   1.3026799   0.1784140  )
        97           O   tau(  97) = (   0.6547464   1.4121811   0.9174431  )
        98           O   tau(  98) = (   0.1845618   0.5478230   1.2812703  )
        99           O   tau(  99) = (   0.2381257   0.3165351   0.5483658  )
       100           O   tau( 100) = (   0.7083103   1.1808932   0.1845386  )
       101           H   tau( 101) = (   0.3879246   1.2697891   0.7697566  )
       102           H   tau( 102) = (   0.4513836   0.4054310   1.4289568  )
       103           H   tau( 103) = (   0.5049475   0.4589271   0.6960523  )
       104           H   tau( 104) = (   0.4414885   1.3232852   0.0368521  )

     number of k points=     8
                       cart. coord. in units 2pi/alat
        k(    1) = (   0.0000000   0.0000000   0.0000000), wk =   0.1666667
        k(    2) = (   0.0000000   0.0000000  -0.3411086), wk =   0.1666667
        k(    3) = (   0.0000000  -0.2892320   0.0000000), wk =   0.1666667
        k(    4) = (   0.0000000  -0.2892320  -0.3411086), wk =   0.1666667
        k(    5) = (   0.3333333   0.0000000   0.0243615), wk =   0.3333333
        k(    6) = (   0.3333333   0.0000000  -0.3167471), wk =   0.3333333
        k(    7) = (   0.3333333  -0.2892320   0.0243615), wk =   0.3333333
        k(    8) = (   0.3333333  -0.2892320  -0.3167471), wk =   0.3333333

     Dense  grid:   845805 G-vectors     FFT dimensions: (  90, 150, 128)

     Estimated max dynamical RAM per process >     905.40MB

     Estimated total allocated dynamical RAM >    7243.24MB

     Check: negative/imaginary core charge=   -0.000002    0.000000

     Initial potential from superposition of free atoms

     starting charge  343.99846, renormalised to  344.00000
     Starting wfc are  284 randomized atomic wfcs
     Checking if some PAW data can be deallocated... 

     total cpu time spent up to now is       54.7 secs

     per-process dynamical memory:   607.3 Mb

     Self-consistent Calculation

     iteration #  1     ecut=   100.00 Ry     beta=0.50
     Davidson diagonalization with overlap
     ethr =  1.00E-02,  avg # of iterations =  3.9

     total cpu time spent up to now is      222.1 secs

     total energy              =   -1831.75384595 Ry
     Harris-Foulkes estimate   =   -1837.71391444 Ry
     estimated scf accuracy    <      10.85739836 Ry

     iteration #  2     ecut=   100.00 Ry     beta=0.50
     Davidson diagonalization with overlap
     ethr =  3.16E-03,  avg # of iterations =  3.0

     total cpu time spent up to now is      330.9 secs

     total energy              =   -1833.82904410 Ry
     Harris-Foulkes estimate   =   -1834.62812849 Ry
     estimated scf accuracy    <       1.70766025 Ry

     iteration #  3     ecut=   100.00 Ry     beta=0.50
     Davidson diagonalization with overlap
     ethr =  4.96E-04,  avg # of iterations =  7.6

     total cpu time spent up to now is      462.2 secs

     total energy              =   -1834.21991646 Ry
     Harris-Foulkes estimate   =   -1834.33443917 Ry
     estimated scf accuracy    <       0.31252583 Ry

     iteration #  4     ecut=   100.00 Ry     beta=0.50
     Davidson diagonalization with overlap
     ethr =  9.09E-05,  avg # of iterations =  7.0

     total cpu time spent up to now is      571.6 secs

     total energy              =   -1834.25650142 Ry
     Harris-Foulkes estimate   =   -1834.27898870 Ry
     estimated scf accuracy    <       0.06608321 Ry

     iteration #  5     ecut=   100.00 Ry     beta=0.50
     Davidson diagonalization with overlap
     ethr =  1.92E-05,  avg # of iterations =  8.0

     total cpu time spent up to now is      715.1 secs

     total energy              =   -1834.27102328 Ry
     Harris-Foulkes estimate   =   -1834.27664230 Ry
     estimated scf accuracy    <       0.01430154 Ry

     iteration #  6     ecut=   100.00 Ry     beta=0.50
     Davidson diagonalization with overlap
     ethr =  4.16E-06,  avg # of iterations =  6.0

     total cpu time spent up to now is      813.9 secs

     total energy              =   -1834.27268382 Ry
     Harris-Foulkes estimate   =   -1834.27344666 Ry
     estimated scf accuracy    <       0.00174793 Ry

     iteration #  7     ecut=   100.00 Ry     beta=0.50
     Davidson diagonalization with overlap
     ethr =  5.08E-07,  avg # of iterations =  4.9

     total cpu time spent up to now is      970.1 secs

     total energy              =   -1834.27364432 Ry
     Harris-Foulkes estimate   =   -1834.27383008 Ry
     estimated scf accuracy    <       0.00056824 Ry

     iteration #  8     ecut=   100.00 Ry     beta=0.50
     Davidson diagonalization with overlap
     ethr =  1.65E-07,  avg # of iterations =  3.0

     total cpu time spent up to now is     1057.3 secs

     total energy              =   -1834.27365033 Ry
     Harris-Foulkes estimate   =   -1834.27371022 Ry
     estimated scf accuracy    <       0.00014798 Ry

     iteration #  9     ecut=   100.00 Ry     beta=0.50
     Davidson diagonalization with overlap
     ethr =  4.30E-08,  avg # of iterations =  4.0

     total cpu time spent up to now is     1185.9 secs

     total energy              =   -1834.27371319 Ry
     Harris-Foulkes estimate   =   -1834.27371583 Ry
     estimated scf accuracy    <       0.00002253 Ry

     iteration # 10     ecut=   100.00 Ry     beta=0.50
     Davidson diagonalization with overlap
     ethr =  6.55E-09,  avg # of iterations =  2.0

     total cpu time spent up to now is     1268.8 secs

     total energy              =   -1834.27371042 Ry
     Harris-Foulkes estimate   =   -1834.27371504 Ry
     estimated scf accuracy    <       0.00000914 Ry

     iteration # 11     ecut=   100.00 Ry     beta=0.50
     Davidson diagonalization with overlap
     ethr =  2.66E-09,  avg # of iterations =  3.0

     total cpu time spent up to now is     1391.0 secs

     total energy              =   -1834.27371326 Ry
     Harris-Foulkes estimate   =   -1834.27371368 Ry
     estimated scf accuracy    <       0.00000097 Ry

     iteration # 12     ecut=   100.00 Ry     beta=0.50
     Davidson diagonalization with overlap
     ethr =  2.83E-10,  avg # of iterations =  3.1

     total cpu time spent up to now is     1482.3 secs

     total energy              =   -1834.27371335 Ry
     Harris-Foulkes estimate   =   -1834.27371341 Ry
     estimated scf accuracy    <       0.00000014 Ry

     iteration # 13     ecut=   100.00 Ry     beta=0.50
     Davidson diagonalization with overlap
     ethr =  4.17E-11,  avg # of iterations =  4.0

     total cpu time spent up to now is     1633.5 secs

     total energy              =   -1834.27371344 Ry
     Harris-Foulkes estimate   =   -1834.27371346 Ry
     estimated scf accuracy    <       0.00000005 Ry

     iteration # 14     ecut=   100.00 Ry     beta=0.50
     Davidson diagonalization with overlap
     ethr =  1.46E-11,  avg # of iterations =  3.6

     total cpu time spent up to now is     1722.9 secs

     End of self-consistent calculation

          k = 0.0000 0.0000 0.0000 (105755 PWs)   bands (ev):

   -21.0160 -21.0023 -20.8607 -20.8595 -20.6716 -20.6442 -20.5783 -20.5711
   -20.0403 -20.0151 -19.8302 -19.8184 -18.7172 -18.7082 -18.6999 -18.6619
   -18.6617 -18.6554 -18.5704 -18.5673 -18.3433 -18.3421 -18.3383 -18.3127
   -17.8867 -17.8718 -17.7491 -17.7462 -16.2753 -16.2621 -16.2420 -16.2373
   -15.2329 -15.2264 -15.2226 -15.2224 -11.8292 -11.8282 -11.8271 -11.8256
   -11.0756 -11.0656 -11.0636 -11.0634 -10.3992 -10.3707  -9.7030  -9.6845
    -8.8099  -8.6987  -8.6706  -8.6199  -8.2901  -8.2477  -8.2119  -8.1477
    -7.6886  -7.6302  -7.4565  -7.3912  -7.2509  -7.1311  -7.0220  -7.0091
    -7.0000  -6.9850  -6.6403  -6.6267  -6.0395  -5.9982  -5.9018  -5.8182
    -5.7821  -5.7316  -5.6913  -5.6737  -5.5109  -5.4973  -5.4684  -5.4297
    -5.3975  -5.2584  -5.1349  -5.1246  -5.0166  -5.0055  -4.9613  -4.8736
    -4.8504  -4.7744  -4.7463  -4.7358  -4.7237  -4.6992  -4.6734  -4.6345
    -4.4817  -4.4451  -4.4420  -4.2930  -4.2798  -4.1451  -4.0928  -4.0219
    -3.9893  -3.9720  -3.9446  -3.8916  -3.8269  -3.7396  -3.7064  -3.6710
    -3.3829  -3.3001  -3.2837  -3.2490  -3.2229  -3.1507  -3.0579  -2.9750
    -2.8874  -2.8840  -2.7917  -2.7518  -2.7229  -2.7084  -2.4989  -2.4228
    -2.3178  -2.2948  -2.2504  -2.1946  -2.0560  -2.0051  -1.9445  -1.9437
    -1.0266  -1.0190  -1.0112  -0.9623  -0.9295  -0.8574  -0.8342  -0.7582
    -0.7133  -0.6415  -0.6396  -0.6266  -0.4309  -0.4099  -0.2938  -0.2756
    -0.1382  -0.1135  -0.0763  -0.0597   0.0650   0.0948   0.1126   0.1969
     0.3142   0.3453   0.3879   0.3900   0.4187   0.4357   0.6641   0.8095
     0.9456   0.9491   1.0407   1.1280   4.4660   4.4661   4.5068   4.5450
     5.6595   5.6648   5.9204   5.9540   6.2120   6.2961   6.3228   6.3668
     6.8165   7.3866   7.4192   7.4692   7.4881   7.7557   7.8388   7.9306
     7.9989   8.0583   8.2286   8.5232   8.5690   8.6256   8.9755   9.1154
     9.1697   9.1704   9.2870   9.3614   9.3980   9.5190

          k = 0.0000 0.0000-0.3411 (105752 PWs)   bands (ev):

   -20.9484 -20.9484 -20.9379 -20.9379 -20.6531 -20.6531 -20.5742 -20.5742
   -19.9302 -19.9302 -19.9127 -19.9127 -18.7082 -18.7082 -18.6675 -18.6675
   -18.6339 -18.6339 -18.6174 -18.6174 -18.3476 -18.3476 -18.3141 -18.3141
   -17.8179 -17.8179 -17.8089 -17.8089 -16.2726 -16.2726 -16.2347 -16.2347
   -15.2280 -15.2280 -15.2238 -15.2238 -11.8523 -11.8523 -11.8060 -11.8060
   -11.0780 -11.0780 -11.0609 -11.0609 -10.0731 -10.0731 -10.0650 -10.0650
    -8.7856  -8.7856  -8.6746  -8.6746  -8.2176  -8.2176  -8.1878  -8.1878
    -7.4707  -7.4707  -7.3512  -7.3512  -7.1257  -7.1257  -7.0733  -7.0733
    -6.9597  -6.9597  -6.9121  -6.9121  -6.0119  -6.0119  -5.8200  -5.8200
    -5.7573  -5.7573  -5.6854  -5.6854  -5.5127  -5.5127  -5.4092  -5.4092
    -5.2476  -5.2476  -5.1617  -5.1617  -5.1158  -5.1158  -4.9134  -4.9134
    -4.7916  -4.7916  -4.7411  -4.7411  -4.7170  -4.7170  -4.6101  -4.6101
    -4.3851  -4.3851  -4.3694  -4.3694  -4.2326  -4.2326  -4.1417  -4.1417
    -4.0304  -4.0304  -3.9044  -3.9044  -3.7648  -3.7648  -3.6625  -3.6625
    -3.3284  -3.3284  -3.2442  -3.2442  -3.2186  -3.2186  -2.8959  -2.8959
    -2.8870  -2.8870  -2.7867  -2.7867  -2.6949  -2.6949  -2.6311  -2.6311
    -2.3302  -2.3302  -2.2470  -2.2470  -1.9963  -1.9963  -1.9450  -1.9450
    -1.0261  -1.0261  -0.9653  -0.9653  -0.8508  -0.8508  -0.7643  -0.7643
    -0.7432  -0.7432  -0.6241  -0.6241  -0.4263  -0.4263  -0.2878  -0.2878
    -0.1493  -0.1493  -0.0875  -0.0875   0.1391   0.1391   0.1767   0.1767
     0.3354   0.3354   0.3763   0.3763   0.6177   0.6177   0.6489   0.6489
     0.8438   0.8438   1.0795   1.0795   4.4600   4.4600   4.5319   4.5319
     5.6664   5.6664   5.9595   5.9595   6.2250   6.2250   6.3508   6.3508
     7.0832   7.0832   7.4176   7.4176   7.4619   7.4619   8.0367   8.0367
     8.0892   8.0892   8.3082   8.3082   8.8253   8.8253   9.0714   9.0714
     9.2335   9.2335   9.3143   9.3143   9.3577   9.3579

          k = 0.0000-0.2892 0.0000 (105802 PWs)   bands (ev):

   -21.0094 -21.0094 -20.8600 -20.8600 -20.6584 -20.6584 -20.5741 -20.5741
   -20.0280 -20.0280 -19.8239 -19.8239 -18.7166 -18.7166 -18.6783 -18.6783
   -18.6573 -18.6573 -18.5689 -18.5689 -18.3429 -18.3429 -18.3254 -18.3254
   -17.8789 -17.8789 -17.7478 -17.7478 -16.2691 -16.2691 -16.2392 -16.2392
   -15.2300 -15.2300 -15.2222 -15.2222 -11.8285 -11.8285 -11.8265 -11.8265
   -11.0709 -11.0709 -11.0635 -11.0635 -10.3845 -10.3845  -9.6938  -9.6938
    -8.7611  -8.7611  -8.6460  -8.6460  -8.2629  -8.2629  -8.1808  -8.1808
    -7.6555  -7.6555  -7.4253  -7.4253  -7.1829  -7.1829  -7.0111  -7.0111
    -6.9981  -6.9981  -6.6526  -6.6526  -6.0233  -6.0233  -5.8103  -5.8103
    -5.7747  -5.7747  -5.6796  -5.6796  -5.5124  -5.5124  -5.4427  -5.4427
    -5.2672  -5.2672  -5.2258  -5.2258  -5.0570  -5.0570  -4.9790  -4.9790
    -4.8185  -4.8185  -4.7116  -4.7116  -4.6456  -4.6456  -4.6042  -4.6042
    -4.4369  -4.4369  -4.3184  -4.3184  -4.2137  -4.2137  -4.1714  -4.1714
    -3.9571  -3.9571  -3.9371  -3.9371  -3.7391  -3.7391  -3.7085  -3.7085
    -3.3569  -3.3569  -3.2333  -3.2333  -3.2225  -3.2225  -2.9944  -2.9944
    -2.8550  -2.8550  -2.8031  -2.8031  -2.7410  -2.7410  -2.4583  -2.4583
    -2.2928  -2.2928  -2.2007  -2.2007  -2.0622  -2.0622  -1.9302  -1.9302
    -1.0246  -1.0246  -1.0014  -1.0014  -0.8773  -0.8773  -0.7925  -0.7925
    -0.6919  -0.6919  -0.6174  -0.6174  -0.4202  -0.4202  -0.2866  -0.2866
    -0.1147  -0.1147  -0.1002  -0.1002   0.0800   0.0800   0.1538   0.1538
     0.3296   0.3296   0.3919   0.3919   0.4279   0.4279   0.7654   0.7654
     0.9781   0.9781   1.0400   1.0400   4.4641   4.4641   4.5278   4.5278
     5.6621   5.6621   5.9376   5.9376   6.2684   6.2684   6.3291   6.3291
     7.1178   7.1178   7.4251   7.4251   7.4423   7.4423   7.9768   7.9768
     8.0602   8.0602   8.3982   8.3982   8.7663   8.7663   8.9086   8.9086
     9.1519   9.1519   9.4068   9.4068   9.4890   9.4890

          k = 0.0000-0.2892-0.3411 (105776 PWs)   bands (ev):

   -20.9480 -20.9480 -20.9383 -20.9383 -20.6530 -20.6530 -20.5743 -20.5743
   -19.9301 -19.9301 -19.9129 -19.9129 -18.7068 -18.7068 -18.6685 -18.6685
   -18.6268 -18.6268 -18.6261 -18.6261 -18.3363 -18.3363 -18.3242 -18.3242
   -17.8178 -17.8178 -17.8090 -17.8090 -16.2723 -16.2723 -16.2349 -16.2349
   -15.2274 -15.2274 -15.2244 -15.2244 -11.8522 -11.8522 -11.8061 -11.8061
   -11.0773 -11.0773 -11.0618 -11.0618 -10.0695 -10.0695 -10.0687 -10.0687
    -8.7476  -8.7476  -8.7185  -8.7185  -8.2046  -8.2046  -8.1959  -8.1959
    -7.4536  -7.4536  -7.3686  -7.3686  -7.1119  -7.1119  -7.0844  -7.0844
    -6.9480  -6.9480  -6.9236  -6.9236  -5.9956  -5.9956  -5.8506  -5.8506
    -5.7263  -5.7263  -5.7128  -5.7128  -5.4697  -5.4697  -5.4452  -5.4452
    -5.2542  -5.2542  -5.1992  -5.1992  -5.0473  -5.0473  -5.0119  -5.0119
    -4.7315  -4.7315  -4.6990  -4.6990  -4.6658  -4.6658  -4.6530  -4.6530
    -4.4483  -4.4483  -4.3678  -4.3678  -4.2012  -4.2012  -4.1528  -4.1528
    -3.9271  -3.9271  -3.9237  -3.9237  -3.8437  -3.8437  -3.6700  -3.6700
    -3.2819  -3.2819  -3.2621  -3.2621  -3.2349  -3.2349  -2.9065  -2.9065
    -2.8805  -2.8805  -2.7531  -2.7531  -2.7402  -2.7402  -2.6396  -2.6396
    -2.3084  -2.3084  -2.2350  -2.2350  -1.9977  -1.9977  -1.9573  -1.9573
    -1.0189  -1.0189  -0.9802  -0.9802  -0.8139  -0.8139  -0.7989  -0.7989
    -0.7316  -0.7316  -0.6252  -0.6252  -0.4221  -0.4221  -0.2920  -0.2920
    -0.1467  -0.1467  -0.1071  -0.1071   0.1328   0.1328   0.1786   0.1786
     0.3602   0.3602   0.3606   0.3606   0.6216   0.6216   0.6420   0.6420
     0.9218   0.9218   1.0129   1.0129   4.4614   4.4614   4.5304   4.5304
     5.6662   5.6662   5.9594   5.9594   6.2668   6.2668   6.3101   6.3101
     7.2910   7.2910   7.3982   7.3982   7.3995   7.3995   7.5555   7.5555
     8.1880   8.1880   8.7468   8.7468   8.7472   8.7472   9.0089   9.0089
     9.3137   9.3137   9.3402   9.3403   9.4640   9.4640

          k = 0.3333 0.0000 0.0244 (105755 PWs)   bands (ev):

   -21.0120 -21.0026 -20.8606 -20.8595 -20.6574 -20.6463 -20.5941 -20.5726
   -20.0383 -20.0136 -19.8300 -19.8191 -18.7436 -18.7380 -18.6909 -18.6413
   -18.6359 -18.6263 -18.5879 -18.5764 -18.3665 -18.3385 -18.3258 -18.3144
   -17.8830 -17.8613 -17.7582 -17.7476 -16.2746 -16.2660 -16.2440 -16.2354
   -15.2300 -15.2256 -15.2255 -15.2230 -11.8347 -11.8317 -11.8240 -11.8212
   -11.0777 -11.0719 -11.0403 -11.0287 -10.3853 -10.3813  -9.7041  -9.6865
    -8.8257  -8.7359  -8.6806  -8.6390  -8.2831  -8.2641  -8.2106  -8.1434
    -7.5776  -7.5386  -7.4572  -7.3615  -7.3306  -7.2538  -7.0661  -7.0308
    -7.0167  -7.0060  -6.6601  -6.6138  -6.0836  -6.0236  -5.8762  -5.7926
    -5.7913  -5.7677  -5.6996  -5.6269  -5.4803  -5.4629  -5.3968  -5.3814
    -5.2724  -5.2470  -5.2252  -5.1480  -5.0743  -4.9755  -4.9317  -4.9312
    -4.8210  -4.7657  -4.7493  -4.7166  -4.6550  -4.6504  -4.6019  -4.5698
    -4.5595  -4.5051  -4.4642  -4.3211  -4.2372  -4.2323  -4.1535  -4.0347
    -4.0148  -3.9423  -3.9050  -3.8886  -3.8240  -3.7648  -3.7452  -3.6842
    -3.4536  -3.3179  -3.3106  -3.2556  -3.1564  -3.0685  -2.9515  -2.9309
    -2.9051  -2.8279  -2.7959  -2.7946  -2.7795  -2.7049  -2.4751  -2.4259
    -2.3212  -2.2967  -2.2805  -2.2329  -2.0357  -2.0222  -1.9878  -1.8776
    -1.0501  -1.0105  -1.0082  -0.9703  -0.9267  -0.8594  -0.8573  -0.7931
    -0.6785  -0.6575  -0.6283  -0.6213  -0.4592  -0.3971  -0.3184  -0.2530
    -0.1720  -0.1400  -0.1046  -0.0652   0.0785   0.0972   0.1251   0.1701
     0.2547   0.3208   0.3747   0.3898   0.5127   0.5223   0.6351   0.7949
     0.8984   0.9527   1.0238   1.1176   4.4377   4.4600   4.5141   4.5502
     5.6199   5.6468   5.9682   5.9838   6.2934   6.3475   6.3882   6.4800
     7.1270   7.3339   7.3866   7.4601   7.4986   7.6559   7.8159   7.9607
     8.1250   8.2539   8.3310   8.3620   8.5003   8.6466   8.8566   8.8802
     8.9492   9.2369   9.3031   9.4015   9.4054   9.5257

          k = 0.3333 0.0000-0.3167 (105820 PWs)   bands (ev):

   -20.9460 -20.9446 -20.9385 -20.9380 -20.6512 -20.6474 -20.5822 -20.5796
   -19.9298 -19.9290 -19.9127 -19.9126 -18.7284 -18.6988 -18.6903 -18.6733
   -18.6378 -18.6179 -18.6107 -18.5960 -18.3487 -18.3350 -18.3242 -18.3180
   -17.8228 -17.8189 -17.8086 -17.8047 -16.2743 -16.2728 -16.2363 -16.2343
   -15.2275 -15.2274 -15.2256 -15.2229 -11.8514 -11.8499 -11.8087 -11.8078
   -11.0731 -11.0635 -11.0438 -11.0422 -10.0889 -10.0790 -10.0728 -10.0607
    -8.7757  -8.7660  -8.6845  -8.6839  -8.2275  -8.2251  -8.1856  -8.1800
    -7.4841  -7.4695  -7.4606  -7.3864  -7.1374  -7.0764  -7.0629  -7.0327
    -6.9843  -6.9764  -6.9384  -6.9102  -6.0328  -5.9747  -5.8425  -5.8020
    -5.8009  -5.7644  -5.6865  -5.6793  -5.4560  -5.4278  -5.3797  -5.3429
    -5.3346  -5.1782  -5.1545  -5.1416  -5.0024  -4.9797  -4.9665  -4.9307
    -4.8820  -4.8453  -4.8210  -4.7798  -4.6975  -4.6935  -4.6017  -4.5825
    -4.5270  -4.4562  -4.3442  -4.3298  -4.2201  -4.1727  -4.1250  -4.1049
    -4.0568  -4.0442  -3.8861  -3.8712  -3.8095  -3.7430  -3.6952  -3.6597
    -3.3878  -3.3860  -3.2913  -3.2584  -3.1526  -3.1105  -2.9276  -2.9104
    -2.8700  -2.8631  -2.7831  -2.7450  -2.6866  -2.6599  -2.6479  -2.6272
    -2.3621  -2.3484  -2.2650  -2.2275  -2.0379  -2.0014  -1.9193  -1.9044
    -1.0397  -0.9987  -0.9637  -0.9556  -0.9236  -0.8599  -0.8092  -0.7564
    -0.7492  -0.7355  -0.6111  -0.6098  -0.4558  -0.4152  -0.2959  -0.2882
    -0.1739  -0.1615  -0.0745  -0.0678   0.1161   0.1350   0.1507   0.1508
     0.3383   0.3527   0.3617   0.3769   0.6396   0.6405   0.6452   0.6762
     0.8038   0.8226   1.0595   1.0703   4.4570   4.4615   4.5215   4.5240
     5.6369   5.6389   5.9806   5.9913   6.2720   6.2892   6.4512   6.4555
     7.1612   7.3432   7.4214   7.4446   7.4944   7.5710   7.9086   7.9243
     7.9433   8.3062   8.3776   8.4728   8.5823   8.7346   8.8163   8.8742
     9.0618   9.2692   9.2844   9.3337   9.4130   9.4794

          k = 0.3333-0.2892 0.0244 (105740 PWs)   bands (ev):

   -21.0074 -21.0074 -20.8600 -20.8600 -20.6521 -20.6521 -20.5831 -20.5831
   -20.0261 -20.0261 -19.8243 -19.8243 -18.7434 -18.7434 -18.6661 -18.6661
   -18.6297 -18.6297 -18.5816 -18.5816 -18.3444 -18.3444 -18.3280 -18.3280
   -17.8719 -17.8719 -17.7528 -17.7528 -16.2703 -16.2703 -16.2397 -16.2397
   -15.2286 -15.2286 -15.2235 -15.2235 -11.8333 -11.8333 -11.8225 -11.8225
   -11.0748 -11.0748 -11.0342 -11.0342 -10.3839 -10.3839  -9.6950  -9.6950
    -8.7655  -8.7655  -8.6826  -8.6826  -8.2711  -8.2711  -8.1753  -8.1753
    -7.5568  -7.5568  -7.4160  -7.4160  -7.2792  -7.2792  -7.0517  -7.0517
    -7.0078  -7.0078  -6.6422  -6.6422  -6.0589  -6.0589  -5.8244  -5.8244
    -5.7716  -5.7716  -5.6712  -5.6712  -5.4935  -5.4935  -5.3641  -5.3641
    -5.2640  -5.2640  -5.1980  -5.1980  -5.0510  -5.0510  -4.8782  -4.8782
    -4.8423  -4.8423  -4.7521  -4.7521  -4.6557  -4.6557  -4.6014  -4.6014
    -4.4701  -4.4701  -4.2950  -4.2950  -4.2316  -4.2316  -4.1977  -4.1977
    -3.9888  -3.9888  -3.9188  -3.9188  -3.7575  -3.7575  -3.7098  -3.7098
    -3.4000  -3.4000  -3.2717  -3.2717  -3.1155  -3.1155  -2.9433  -2.9433
    -2.8594  -2.8594  -2.7911  -2.7911  -2.7527  -2.7527  -2.4452  -2.4452
    -2.3084  -2.3084  -2.2502  -2.2502  -2.0593  -2.0593  -1.9060  -1.9060
    -1.0374  -1.0374  -0.9886  -0.9886  -0.8977  -0.8977  -0.8206  -0.8206
    -0.6674  -0.6674  -0.6216  -0.6216  -0.4271  -0.4271  -0.2876  -0.2876
    -0.1546  -0.1546  -0.1065  -0.1065   0.0962   0.0962   0.1599   0.1599
     0.2625   0.2625   0.3913   0.3913   0.5159   0.5159   0.7484   0.7484
     0.9658   0.9658   1.0157   1.0157   4.4478   4.4478   4.5334   4.5334
     5.6329   5.6329   5.9745   5.9745   6.3417   6.3417   6.4132   6.4132
     7.2945   7.2945   7.4039   7.4039   7.5001   7.5001   7.9007   7.9007
     8.0645   8.0645   8.4645   8.4645   8.5952   8.5952   8.8785   8.8785
     9.1738   9.1738   9.3153   9.3154   9.4151   9.4151

          k = 0.3333-0.2892-0.3167 (105682 PWs)   bands (ev):

   -20.9450 -20.9450 -20.9386 -20.9386 -20.6493 -20.6493 -20.5809 -20.5809
   -19.9292 -19.9292 -19.9128 -19.9128 -18.7230 -18.7230 -18.6686 -18.6686
   -18.6307 -18.6307 -18.6046 -18.6046 -18.3367 -18.3367 -18.3261 -18.3261
   -17.8207 -17.8207 -17.8067 -17.8067 -16.2731 -16.2731 -16.2358 -16.2358
   -15.2273 -15.2273 -15.2244 -15.2244 -11.8505 -11.8505 -11.8083 -11.8083
   -11.0683 -11.0683 -11.0429 -11.0429 -10.0838 -10.0838 -10.0669 -10.0669
    -8.7471  -8.7471  -8.7139  -8.7139  -8.2049  -8.2049  -8.2002  -8.2002
    -7.4771  -7.4771  -7.4128  -7.4128  -7.1171  -7.1171  -7.0301  -7.0301
    -6.9750  -6.9750  -6.9518  -6.9518  -5.9735  -5.9735  -5.8599  -5.8599
    -5.7633  -5.7633  -5.6941  -5.6941  -5.4153  -5.4153  -5.3520  -5.3520
    -5.2829  -5.2829  -5.1888  -5.1888  -5.0213  -5.0213  -4.9102  -4.9102
    -4.8202  -4.8202  -4.7760  -4.7760  -4.6787  -4.6787  -4.6613  -4.6613
    -4.5158  -4.5158  -4.3182  -4.3182  -4.1814  -4.1814  -4.1264  -4.1264
    -3.9663  -3.9663  -3.9207  -3.9207  -3.8031  -3.8031  -3.6839  -3.6839
    -3.3655  -3.3655  -3.2848  -3.2848  -3.1342  -3.1342  -2.9161  -2.9161
    -2.8816  -2.8816  -2.7591  -2.7591  -2.6962  -2.6962  -2.6187  -2.6187
    -2.3373  -2.3373  -2.2567  -2.2567  -2.0154  -2.0154  -1.9133  -1.9133
    -1.0229  -1.0229  -0.9688  -0.9688  -0.8742  -0.8742  -0.7960  -0.7960
    -0.7369  -0.7369  -0.6103  -0.6103  -0.4249  -0.4249  -0.3004  -0.3004
    -0.1653  -0.1653  -0.0951  -0.0951   0.1275   0.1275   0.1489   0.1489
     0.3528   0.3528   0.3709   0.3709   0.6396   0.6396   0.6657   0.6657
     0.8899   0.8899   0.9947   0.9947   4.4623   4.4623   4.5200   4.5200
     5.6370   5.6370   5.9845   5.9845   6.3171   6.3171   6.4178   6.4178
     7.3007   7.3007   7.3920   7.3920   7.5614   7.5614   7.8728   7.8728
     7.9770   7.9770   8.4792   8.4792   8.6917   8.6917   9.0234   9.0234
     9.1154   9.1154   9.2773   9.2773   9.4415   9.4415

     highest occupied, lowest unoccupied level (ev):     1.1280    4.4377

!    total energy              =   -1834.27371344 Ry
     Harris-Foulkes estimate   =   -1834.27371344 Ry
     estimated scf accuracy    <          2.7E-09 Ry

     total all-electron energy =     -6808.522988 Ry

     The total energy is the sum of the following terms:

     one-electron contribution =    -897.91425487 Ry
     hartree contribution      =     590.62915524 Ry
     xc contribution           =    -374.81694191 Ry
     ewald contribution        =    -664.49253084 Ry
     Dispersion Correction     =      -0.47911701 Ry
     one-center paw contrib.   =    -487.20002405 Ry

     convergence has been achieved in  14 iterations

     Forces acting on atoms (cartesian axes, Ry/au):

     atom    1 type  1   force =    -0.00037967   -0.00011181   -0.00119670
     atom    2 type  1   force =     0.00037967   -0.00011181    0.00119670
     atom    3 type  1   force =     0.00037967    0.00011181    0.00119670
     atom    4 type  1   force =    -0.00037967    0.00011181   -0.00119670
     atom    5 type  1   force =    -0.00114324   -0.00039713   -0.00031529
     atom    6 type  1   force =     0.00114324   -0.00039713    0.00031529
     atom    7 type  1   force =     0.00114324    0.00039713    0.00031529
     atom    8 type  1   force =    -0.00114324    0.00039713   -0.00031529
     atom    9 type  3   force =    -0.00027233   -0.00030152   -0.00018441
     atom   10 type  3   force =     0.00027233   -0.00030152    0.00018441
     atom   11 type  3   force =     0.00027233    0.00030152    0.00018441
     atom   12 type  3   force =    -0.00027233    0.00030152   -0.00018441
     atom   13 type  3   force =     0.00063676   -0.00094068   -0.00025474
     atom   14 type  3   force =    -0.00063676   -0.00094068    0.00025474
     atom   15 type  3   force =    -0.00063676    0.00094068    0.00025474
     atom   16 type  3   force =     0.00063676    0.00094068   -0.00025474
     atom   17 type  1   force =     0.00190586   -0.00049960   -0.00006294
     atom   18 type  1   force =    -0.00190586   -0.00049960    0.00006294
     atom   19 type  1   force =    -0.00190586    0.00049960    0.00006294
     atom   20 type  1   force =     0.00190586    0.00049960   -0.00006294
     atom   21 type  3   force =    -0.00042178   -0.00020355   -0.00008798
     atom   22 type  3   force =     0.00042178   -0.00020355    0.00008798
     atom   23 type  3   force =     0.00042178    0.00020355    0.00008798
     atom   24 type  3   force =    -0.00042178    0.00020355   -0.00008798
     atom   25 type  3   force =    -0.00105300   -0.00015732   -0.00006950
     atom   26 type  3   force =     0.00105300   -0.00015732    0.00006950
     atom   27 type  3   force =     0.00105300    0.00015732    0.00006950
     atom   28 type  3   force =    -0.00105300    0.00015732   -0.00006950
     atom   29 type  3   force =    -0.00022508   -0.00006068   -0.00106465
     atom   30 type  3   force =     0.00022508   -0.00006068    0.00106465
     atom   31 type  3   force =     0.00022508    0.00006068    0.00106465
     atom   32 type  3   force =    -0.00022508    0.00006068   -0.00106465
     atom   33 type  1   force =     0.00021770    0.00064920   -0.00065178
     atom   34 type  1   force =    -0.00021770    0.00064920    0.00065178
     atom   35 type  1   force =    -0.00021770   -0.00064920    0.00065178
     atom   36 type  1   force =     0.00021770   -0.00064920   -0.00065178
     atom   37 type  2   force =    -0.00064688    0.00138642    0.00216726
     atom   38 type  2   force =     0.00064688    0.00138642   -0.00216726
     atom   39 type  2   force =     0.00064688   -0.00138642   -0.00216726
     atom   40 type  2   force =    -0.00064688   -0.00138642    0.00216726
     atom   41 type  2   force =     0.00042072    0.00009271   -0.00020482
     atom   42 type  2   force =    -0.00042072    0.00009271    0.00020482
     atom   43 type  2   force =    -0.00042072   -0.00009271    0.00020482
     atom   44 type  2   force =     0.00042072   -0.00009271   -0.00020482
     atom   45 type  2   force =    -0.00056275    0.00032038    0.00002226
     atom   46 type  2   force =     0.00056275    0.00032038   -0.00002226
     atom   47 type  2   force =     0.00056275   -0.00032038   -0.00002226
     atom   48 type  2   force =    -0.00056275   -0.00032038    0.00002226
     atom   49 type  4   force =    -0.00001957   -0.00020775    0.00068464
     atom   50 type  4   force =     0.00001957   -0.00020775   -0.00068464
     atom   51 type  4   force =     0.00001957    0.00020775   -0.00068464
     atom   52 type  4   force =    -0.00001957    0.00020775    0.00068464
     atom   53 type  4   force =     0.00044133   -0.00044046   -0.00061991
     atom   54 type  4   force =    -0.00044133   -0.00044046    0.00061991
     atom   55 type  4   force =    -0.00044133    0.00044046    0.00061991
     atom   56 type  4   force =     0.00044133    0.00044046   -0.00061991
     atom   57 type  3   force =    -0.00029521   -0.00014976   -0.00057064
     atom   58 type  3   force =     0.00029521   -0.00014976    0.00057064
     atom   59 type  3   force =     0.00029521    0.00014976    0.00057064
     atom   60 type  3   force =    -0.00029521    0.00014976   -0.00057064
     atom   61 type  3   force =    -0.00050144   -0.00004374   -0.00009288
     atom   62 type  3   force =     0.00050144   -0.00004374    0.00009288
     atom   63 type  3   force =     0.00050144    0.00004374    0.00009288
     atom   64 type  3   force =    -0.00050144    0.00004374   -0.00009288
     atom   65 type  3   force =    -0.00054371    0.00039851   -0.00000122
     atom   66 type  3   force =     0.00054371    0.00039851    0.00000122
     atom   67 type  3   force =     0.00054371   -0.00039851    0.00000122
     atom   68 type  3   force =    -0.00054371   -0.00039851   -0.00000122
     atom   69 type  3   force =    -0.00026310    0.00013758   -0.00041808
     atom   70 type  3   force =     0.00026310    0.00013758    0.00041808
     atom   71 type  3   force =     0.00026310   -0.00013758    0.00041808
     atom   72 type  3   force =    -0.00026310   -0.00013758   -0.00041808
     atom   73 type  3   force =     0.00017461   -0.00011674   -0.00013374
     atom   74 type  3   force =    -0.00017461   -0.00011674    0.00013374
     atom   75 type  3   force =    -0.00017461    0.00011674    0.00013374
     atom   76 type  3   force =     0.00017461    0.00011674   -0.00013374
     atom   77 type  1   force =    -0.00137987    0.00087878    0.00093796
     atom   78 type  1   force =     0.00137987    0.00087878   -0.00093796
     atom   79 type  1   force =     0.00137987   -0.00087878   -0.00093796
     atom   80 type  1   force =    -0.00137987   -0.00087878    0.00093796
     atom   81 type  1   force =    -0.00016488    0.00054352   -0.00017534
     atom   82 type  1   force =     0.00016488    0.00054352    0.00017534
     atom   83 type  1   force =     0.00016488   -0.00054352    0.00017534
     atom   84 type  1   force =    -0.00016488   -0.00054352   -0.00017534
     atom   85 type  4   force =     0.00018277    0.00002298    0.00016319
     atom   86 type  4   force =    -0.00018277    0.00002298   -0.00016319
     atom   87 type  4   force =    -0.00018277   -0.00002298   -0.00016319
     atom   88 type  4   force =     0.00018277   -0.00002298    0.00016319
     atom   89 type  4   force =    -0.00042703    0.00000444    0.00085111
     atom   90 type  4   force =     0.00042703    0.00000444   -0.00085111
     atom   91 type  4   force =     0.00042703   -0.00000444   -0.00085111
     atom   92 type  4   force =    -0.00042703   -0.00000444    0.00085111
     atom   93 type  4   force =     0.00069950    0.00008202   -0.00017241
     atom   94 type  4   force =    -0.00069950    0.00008202    0.00017241
     atom   95 type  4   force =    -0.00069950   -0.00008202    0.00017241
     atom   96 type  4   force =     0.00069950   -0.00008202   -0.00017241
     atom   97 type  4   force =    -0.00001207   -0.00057069    0.00009861
     atom   98 type  4   force =     0.00001207   -0.00057069   -0.00009861
     atom   99 type  4   force =     0.00001207    0.00057069   -0.00009861
     atom  100 type  4   force =    -0.00001207    0.00057069    0.00009861
     atom  101 type  3   force =    -0.00043622    0.00000958   -0.00005159
     atom  102 type  3   force =     0.00043622    0.00000958    0.00005159
     atom  103 type  3   force =     0.00043622   -0.00000958    0.00005159
     atom  104 type  3   force =    -0.00043622   -0.00000958   -0.00005159

     Total force =     0.010662     Total SCF correction =     0.000075


     Computing stress (Cartesian axis) and pressure

          total   stress  (Ry/bohr**3)                   (kbar)     P=   -1.53
  -0.00000973   0.00000000  -0.00000643         -1.43      0.00     -0.95
   0.00000000  -0.00003348   0.00000000          0.00     -4.93      0.00
  -0.00000643   0.00000000   0.00001208         -0.95      0.00      1.78


     Writing output data file scf.save
 
     init_run     :     52.18s CPU     54.02s WALL (       1 calls)
     electrons    :   1609.03s CPU   1668.40s WALL (       1 calls)
     forces       :     27.44s CPU     27.65s WALL (       1 calls)
     stress       :    119.47s CPU    119.83s WALL (       1 calls)

     Called by init_run:
     wfcinit      :     42.03s CPU     43.75s WALL (       1 calls)
     potinit      :      3.64s CPU      3.66s WALL (       1 calls)

     Called by electrons:
     c_bands      :   1457.22s CPU   1507.78s WALL (      14 calls)
     sum_band     :    138.98s CPU    146.56s WALL (      14 calls)
     v_of_rho     :      1.72s CPU      1.88s WALL (      15 calls)
     newd         :      4.60s CPU      5.63s WALL (      15 calls)
     PAW_pot      :      6.05s CPU      6.05s WALL (      15 calls)
     mix_rho      :      0.39s CPU      0.42s WALL (      14 calls)

     Called by c_bands:
     init_us_2    :      7.23s CPU      7.27s WALL (     248 calls)
     cegterg      :   1428.45s CPU   1478.94s WALL (     112 calls)

     Called by sum_band:
     sum_band:bec :      0.08s CPU      0.08s WALL (     112 calls)
     addusdens    :      4.52s CPU      5.46s WALL (      14 calls)

     Called by *egterg:
     h_psi        :    734.99s CPU    774.29s WALL (     625 calls)
     s_psi        :    181.16s CPU    181.22s WALL (     625 calls)
     g_psi        :      3.51s CPU      3.51s WALL (     505 calls)
     cdiaghg      :    100.56s CPU    100.72s WALL (     617 calls)

     Called by h_psi:
     h_psi:pot    :    729.65s CPU    768.86s WALL (     625 calls)
     h_psi:calbec :    174.81s CPU    175.10s WALL (     625 calls)
     vloc_psi     :    374.11s CPU    412.95s WALL (     625 calls)
     add_vuspsi   :    180.73s CPU    180.80s WALL (     625 calls)

     General routines
     calbec       :    256.56s CPU    256.98s WALL (     777 calls)
     fft          :      1.25s CPU      1.52s WALL (     219 calls)
     fftw         :    399.61s CPU    442.52s WALL (  153114 calls)
 
     Parallel routines
     fft_scatter  :     82.23s CPU    117.14s WALL (  153333 calls)
 
     PWSCF        : 30m20.24s CPU    32m15.65s WALL

 
   This run was terminated on:   7:58:55  22Dec2017            

=------------------------------------------------------------------------------=
   JOB DONE.
=------------------------------------------------------------------------------=
