
     Program PWSCF v.6.1 (svn rev. 13369) starts on 21Dec2017 at  9: 6:24 

     This program is part of the open-source Quantum ESPRESSO suite
     for quantum simulation of materials; please cite
         "P. Giannozzi et al., J. Phys.:Condens. Matter 21 395502 (2009);
          URL http://www.quantum-espresso.org", 
     in publications or presentations arising from this work. More details at
     http://www.quantum-espresso.org/quote

     Parallel version (MPI), running on     8 processors
     R & G space division:  proc/nbgrp/npool/nimage =       8
     Waiting for input...
     Reading input from standard input

     Current dimensions of program PWSCF are:
     Max number of different atomic species (ntypx) = 10
     Max number of k-points (npk) =  40000
     Max angular momentum in pseudopotentials (lmaxx) =  3
               file C.pbe-n-kjpaw_psl.0.1.UPF: wavefunction(s)  2P renormalized
               file N.pbe-n-kjpaw_psl.0.1.UPF: wavefunction(s)  2P renormalized
               file H.pbe-kjpaw_psl.0.1.UPF: wavefunction(s)  1S renormalized
               file O.pbe-n-kjpaw_psl.0.1.UPF: wavefunction(s)  2P renormalized

     -------------------------------------
     Parameters for Dispersion Correction:
     -------------------------------------
       atom      VdW radius       C_6     

        C          2.744         60.710
        N          2.640         42.670
        H          1.892          4.857
        O          2.536         24.284

     Subspace diagonalization in iterative solution of the eigenvalue problem:
     a serial algorithm will be used

 
     Parallelization info
     --------------------
     sticks:   dense  smooth     PW     G-vecs:    dense   smooth      PW
     Min        1532    1532    408               124278   124278   17086
     Max        1533    1533    409               124280   124280   17087
     Sum       12257   12257   3265               994227   994227  136693
 


     bravais-lattice index     =            0
     lattice parameter (alat)  =      16.2694  a.u.
     unit-cell volume          =    7359.2500 (a.u.)^3
     number of atoms/cell      =          116
     number of atomic types    =            4
     number of electrons       =       336.00
     number of Kohn-Sham states=          201
     kinetic-energy cutoff     =     100.0000  Ry
     charge density cutoff     =     400.0000  Ry
     convergence threshold     =      1.0E-08
     mixing beta               =       0.5000
     number of iterations used =            8  plain     mixing
     Exchange-correlation      =  SLA  PW   PBX  PBC ( 1  4  3  4 0 0)

     celldm(1)=  16.269408  celldm(2)=   0.000000  celldm(3)=   0.000000
     celldm(4)=   0.000000  celldm(5)=   0.000000  celldm(6)=   0.000000

     crystal axes: (cart. coord. in units of alat)
               a(1) = (   1.000000   0.000000   0.000000 )  
               a(2) = (   0.000000   1.453469   0.000000 )  
               a(3) = (  -0.357128   0.000000   1.175743 )  

     reciprocal axes: (cart. coord. in units 2 pi/alat)
               b(1) = (  1.000000  0.000000  0.303747 )  
               b(2) = (  0.000000  0.688009  0.000000 )  
               b(3) = (  0.000000  0.000000  0.850526 )  


     PseudoPot. # 1 for  C read from file:
     /scratch/ahofstet/pseudo/C.pbe-n-kjpaw_psl.0.1.UPF
     MD5 check sum: 430fe95172b1e11ef3f8ed03bac87931
     Pseudo is Projector augmented-wave + core cor, Zval =  4.0
     Generated using "atomic" code by A. Dal Corso  v.5.0.99 svn rev. 10869
     Shape of augmentation charge: BESSEL
     Using radial grid of 1073 points,  4 beta functions with: 
                l(1) =   0
                l(2) =   0
                l(3) =   1
                l(4) =   1
     Q(r) pseudized with 0 coefficients 


     PseudoPot. # 2 for  N read from file:
     /scratch/ahofstet/pseudo/N.pbe-n-kjpaw_psl.0.1.UPF
     MD5 check sum: f73187c8b701007e77325f868c9291d7
     Pseudo is Projector augmented-wave + core cor, Zval =  5.0
     Generated using "atomic" code by A. Dal Corso  v.5.0.99 svn rev. 10869
     Shape of augmentation charge: PSQ
     Using radial grid of 1085 points,  4 beta functions with: 
                l(1) =   0
                l(2) =   0
                l(3) =   1
                l(4) =   1
     Q(r) pseudized with 0 coefficients 


     PseudoPot. # 3 for  H read from file:
     /scratch/ahofstet/pseudo/H.pbe-kjpaw_psl.0.1.UPF
     MD5 check sum: 94e484f906d9e9773b2f6e52662335b2
     Pseudo is Projector augmented-wave, Zval =  1.0
     Generated using "atomic" code by A. Dal Corso  v.5.0.99 svn rev. 10869
     Shape of augmentation charge: PSQ
     Using radial grid of  929 points,  2 beta functions with: 
                l(1) =   0
                l(2) =   0
     Q(r) pseudized with 0 coefficients 


     PseudoPot. # 4 for  O read from file:
     /scratch/ahofstet/pseudo/O.pbe-n-kjpaw_psl.0.1.UPF
     MD5 check sum: 3f94a2996a3169367d6eb21d9b593f20
     Pseudo is Projector augmented-wave + core cor, Zval =  6.0
     Generated using "atomic" code by A. Dal Corso  v.5.0.99 svn rev. 10869
     Shape of augmentation charge: BESSEL
     Using radial grid of 1095 points,  4 beta functions with: 
                l(1) =   0
                l(2) =   0
                l(3) =   1
                l(4) =   1
     Q(r) pseudized with 0 coefficients 


     atomic species   valence    mass     pseudopotential
        C              4.00    12.01070      C( 1.00)
        N              5.00    14.00670      N( 1.00)
        H              1.00     1.00794      H( 1.00)
        O              6.00    15.99940      O( 1.00)

      2 Sym. Ops., with inversion, found



   Cartesian axes

     site n.     atom                  positions (alat units)
         1           O   tau(   1) = (   0.2838242   0.5649273   0.9756336  )
         2           O   tau(   2) = (   0.6805025   1.2916605   0.7879746  )
         3           O   tau(   3) = (   0.3590474   0.8885422   0.2001093  )
         4           O   tau(   4) = (  -0.0376308   0.1618089   0.3877684  )
         5           O   tau(   5) = (   0.3374374   0.4161219   0.7747130  )
         6           O   tau(   6) = (   0.6268730   1.1428635   0.9888984  )
         7           O   tau(   7) = (   0.3054342   1.0373475   0.4010300  )
         8           O   tau(   8) = (   0.0159987   0.3106059   0.1868445  )
         9           N   tau(   9) = (  -0.0594164   0.6796550   0.9545444  )
        10           N   tau(  10) = (   0.0237482   1.4063901   0.8090743  )
        11           N   tau(  11) = (   0.7022880   0.7738145   0.2211985  )
        12           N   tau(  12) = (   0.6191235   0.0470794   0.3666687  )
        13           N   tau(  13) = (  -0.1070627   0.8240204   0.9877473  )
        14           N   tau(  14) = (   0.0713875   0.0972871   0.7758678  )
        15           N   tau(  15) = (   0.7499344   0.6294491   0.1879957  )
        16           N   tau(  16) = (   0.5714842   1.3561823   0.3998751  )
        17           N   tau(  17) = (  -0.0305384   0.9175244   0.8949472  )
        18           N   tau(  18) = (  -0.0051463   0.1907918   0.8686582  )
        19           N   tau(  19) = (   0.6734101   0.5359451   0.2807958  )
        20           N   tau(  20) = (   0.6480179   1.2626777   0.3070847  )
        21           N   tau(  21) = (   0.0674283   0.8376361   0.8015572  )
        22           N   tau(  22) = (  -0.1031148   0.1109040   0.9620467  )
        23           N   tau(  23) = (   0.5754433   0.6158334   0.3741858  )
        24           N   tau(  24) = (   0.7459865   1.3425655   0.2136962  )
        25           N   tau(  25) = (   0.1214921   0.5619884   0.7728490  )
        26           N   tau(  26) = (  -0.1571750   1.2887273   0.9907637  )
        27           N   tau(  27) = (   0.5213795   0.8914810   0.4028939  )
        28           N   tau(  28) = (   0.8000466   0.1647422   0.1849792  )
        29           N   tau(  29) = (   0.2573867   0.5114062   0.8449613  )
        30           N   tau(  30) = (   0.7069342   1.2381501   0.9186418  )
        31           N   tau(  31) = (   0.3854849   0.9420632   0.3307816  )
        32           N   tau(  32) = (  -0.0640625   0.2153194   0.2571011  )
        33           C   tau(  33) = (   0.0486696   0.6894175   0.8406622  )
        34           C   tau(  34) = (  -0.0843475   1.4161513   0.9229500  )
        35           C   tau(  35) = (   0.5942020   0.7640520   0.3350807  )
        36           C   tau(  36) = (   0.7272191   0.0373182   0.2527930  )
        37           C   tau(  37) = (  -0.1178768   0.5410590   1.0371145  )
        38           C   tau(  38) = (   0.0822162   1.2677948   0.7265088  )
        39           C   tau(  39) = (   0.7607484   0.9124105   0.1386284  )
        40           C   tau(  40) = (   0.5606555   0.1856747   0.4492342  )
        41           H   tau(  41) = (  -0.0592576   0.4434060   0.9795448  )
        42           H   tau(  42) = (   0.0235935   1.1701417   0.7840737  )
        43           H   tau(  43) = (   0.7021293   1.0100634   0.1961981  )
        44           H   tau(  44) = (   0.6192782   0.2833278   0.3916692  )
        45           C   tau(  45) = (  -0.2931067   0.5263783   1.0147716  )
        46           C   tau(  46) = (   0.2574503   1.2531135   0.7488568  )
        47           C   tau(  47) = (   0.9359784   0.9270912   0.1609714  )
        48           C   tau(  48) = (   0.3854213   0.2003559   0.4268861  )
        49           H   tau(  49) = (   0.6450330   0.6229137   1.0706105  )
        50           H   tau(  50) = (   0.3193130   1.3496466   0.6930168  )
        51           H   tau(  51) = (  -0.0021613   0.8305557   0.1051324  )
        52           H   tau(  52) = (   0.3235586   0.1038229   0.4827262  )
        53           H   tau(  53) = (   0.6683742   0.4176352   1.0686886  )
        54           H   tau(  54) = (   0.2959619   1.1443698   0.6949353  )
        55           H   tau(  55) = (  -0.0255025   1.0358342   0.1070543  )
        56           H   tau(  56) = (   0.3469097   0.3090997   0.4808076  )
        57           H   tau(  57) = (   0.6757755   0.5234730   0.8911413  )
        58           H   tau(  58) = (   0.2885651   1.2502045   0.8724873  )
        59           H   tau(  59) = (  -0.0329038   0.9299965   0.2846017  )
        60           H   tau(  60) = (   0.3543065   0.2032650   0.3032557  )
        61           C   tau(  61) = (   0.2873032   0.5487745   0.0317660  )
        62           C   tau(  62) = (   0.0341629   1.2755117   0.5561141  )
        63           C   tau(  63) = (   0.3555684   0.9046949   1.1439769  )
        64           C   tau(  64) = (   0.6087087   0.1779578   0.6196288  )
        65           H   tau(  65) = (   0.2306254   0.6469720   0.0900076  )
        66           H   tau(  66) = (   0.0908339   1.3737101   0.4978680  )
        67           H   tau(  67) = (   0.4122462   0.8064975   1.0857353  )
        68           H   tau(  68) = (   0.5520378   0.0797594   0.6778749  )
        69           H   tau(  69) = (   0.2517105   0.4408834   0.0893424  )
        70           H   tau(  70) = (   0.0697462   1.1676191   0.4985346  )
        71           H   tau(  71) = (   0.3911611   1.0125861   1.0864005  )
        72           H   tau(  72) = (   0.5731254   0.2858504   0.6772083  )
        73           H   tau(  73) = (   0.4135499   0.5621389   0.0427021  )
        74           H   tau(  74) = (  -0.0920849   1.2888765   0.5451862  )
        75           H   tau(  75) = (   0.2293218   0.8913306   1.1330408  )
        76           H   tau(  76) = (   0.7349565   0.1645930   0.6305568  )
        77           C   tau(  77) = (   0.0799006   0.5044349   0.6157095  )
        78           C   tau(  78) = (  -0.1155973   1.2311749   1.1479060  )
        79           C   tau(  79) = (   0.5629711   0.9490346   0.5600334  )
        80           C   tau(  80) = (   0.7584690   0.2222946   0.0278370  )
        81           H   tau(  81) = (   0.1258418   0.3856298   0.6115862  )
        82           H   tau(  82) = (  -0.1615421   1.1123705   1.1520267  )
        83           H   tau(  83) = (   0.5170298   1.0678397   0.5641568  )
        84           H   tau(  84) = (   0.8044138   0.3410990   0.0237162  )
        85           C   tau(  85) = (  -0.0964803   0.4964196   0.6040782  )
        86           C   tau(  86) = (   0.0607854   1.2231536   1.1595471  )
        87           C   tau(  87) = (   0.7393519   0.9570499   0.5716647  )
        88           C   tau(  88) = (   0.5820862   0.2303159   0.0161958  )
        89           H   tau(  89) = (  -0.1495251   0.6122063   0.6123973  )
        90           H   tau(  90) = (   0.1138342   1.3389385   1.1512271  )
        91           H   tau(  91) = (   0.7923968   0.8412632   0.5633456  )
        92           H   tau(  92) = (   0.5290374   0.1145310   0.0245158  )
        93           H   tau(  93) = (  -0.1444998   0.4216217   0.6953422  )
        94           H   tau(  94) = (   0.1088012   1.1483561   1.0682807  )
        95           H   tau(  95) = (   0.7873715   1.0318478   0.4804007  )
        96           H   tau(  96) = (   0.5340704   0.3051134   0.1074622  )
        97           H   tau(  97) = (  -0.1278162   0.4475380   0.4908525  )
        98           H   tau(  98) = (   0.4492494   1.1742695   0.0970284  )
        99           H   tau(  99) = (   0.7706879   1.0059315   0.6848905  )
       100           H   tau( 100) = (   0.1936222   0.2791999   1.0787145  )
       101           C   tau( 101) = (   0.1539555   0.6040637   0.4889138  )
       102           C   tau( 102) = (   0.1674718   1.3308023   0.0989582  )
       103           C   tau( 103) = (   0.4889161   0.8494058   0.6868291  )
       104           C   tau( 104) = (   0.4753999   0.1226672   1.0767848  )
       105           H   tau( 105) = (   0.1131501   0.7247910   0.4979549  )
       106           H   tau( 106) = (   0.2082755   1.4515302   0.0899192  )
       107           H   tau( 107) = (   0.5297215   0.7286785   0.6777880  )
       108           H   tau( 108) = (   0.4345961   0.0019393   1.0858238  )
       109           H   tau( 109) = (   0.2812412   0.6025494   0.4974387  )
       110           H   tau( 110) = (   0.0401854   1.3292861   0.0904341  )
       111           H   tau( 111) = (   0.3616304   0.8509201   0.6783042  )
       112           H   tau( 112) = (   0.6026862   0.1241833   1.0853088  )
       113           H   tau( 113) = (   0.1211045   0.5580575   0.3744612  )
       114           H   tau( 114) = (   0.2003232   1.2847947   0.2134096  )
       115           H   tau( 115) = (   0.5217671   0.8954120   0.8012817  )
       116           H   tau( 116) = (   0.4425485   0.1686748   0.9623333  )

     number of k points=     8
                       cart. coord. in units 2pi/alat
        k(    1) = (   0.0000000   0.0000000   0.0000000), wk =   0.2500000
        k(    2) = (   0.0000000   0.0000000  -0.4252630), wk =   0.2500000
        k(    3) = (   0.0000000  -0.3440045   0.0000000), wk =   0.2500000
        k(    4) = (   0.0000000  -0.3440045  -0.4252630), wk =   0.2500000
        k(    5) = (  -0.5000000   0.0000000  -0.1518735), wk =   0.2500000
        k(    6) = (  -0.5000000   0.0000000  -0.5771365), wk =   0.2500000
        k(    7) = (  -0.5000000  -0.3440045  -0.1518735), wk =   0.2500000
        k(    8) = (  -0.5000000  -0.3440045  -0.5771365), wk =   0.2500000

     Dense  grid:   994227 G-vectors     FFT dimensions: ( 108, 160, 128)

     Estimated max dynamical RAM per process >    1046.25MB

     Estimated total allocated dynamical RAM >    8369.99MB

     Check: negative/imaginary core charge=   -0.000002    0.000000

     Initial potential from superposition of free atoms

     starting charge  335.99811, renormalised to  336.00000
     Starting wfc are  296 randomized atomic wfcs
     Checking if some PAW data can be deallocated... 

     total cpu time spent up to now is       60.7 secs

     per-process dynamical memory:   719.8 Mb

     Self-consistent Calculation

     iteration #  1     ecut=   100.00 Ry     beta=0.50
     Davidson diagonalization with overlap
     ethr =  1.00E-02,  avg # of iterations =  4.0

     total cpu time spent up to now is      218.6 secs

     total energy              =   -1589.88010213 Ry
     Harris-Foulkes estimate   =   -1596.38820498 Ry
     estimated scf accuracy    <      12.22531459 Ry

     iteration #  2     ecut=   100.00 Ry     beta=0.50
     Davidson diagonalization with overlap
     ethr =  3.64E-03,  avg # of iterations =  2.6

     total cpu time spent up to now is      307.8 secs

     total energy              =   -1591.05236674 Ry
     Harris-Foulkes estimate   =   -1591.90901850 Ry
     estimated scf accuracy    <       1.76574961 Ry

     iteration #  3     ecut=   100.00 Ry     beta=0.50
     Davidson diagonalization with overlap
     ethr =  5.26E-04,  avg # of iterations =  7.0

     total cpu time spent up to now is      488.5 secs

     total energy              =   -1592.20821648 Ry
     Harris-Foulkes estimate   =   -1592.78420732 Ry
     estimated scf accuracy    <       1.55419815 Ry

     iteration #  4     ecut=   100.00 Ry     beta=0.50
     Davidson diagonalization with overlap
     ethr =  4.63E-04,  avg # of iterations =  1.2

     total cpu time spent up to now is      568.1 secs

     total energy              =   -1592.07903067 Ry
     Harris-Foulkes estimate   =   -1592.32096864 Ry
     estimated scf accuracy    <       0.43940647 Ry

     iteration #  5     ecut=   100.00 Ry     beta=0.50
     Davidson diagonalization with overlap
     ethr =  1.31E-04,  avg # of iterations =  5.4

     total cpu time spent up to now is      720.3 secs

     total energy              =   -1592.36775811 Ry
     Harris-Foulkes estimate   =   -1592.43805336 Ry
     estimated scf accuracy    <       0.30726777 Ry

     iteration #  6     ecut=   100.00 Ry     beta=0.50
     Davidson diagonalization with overlap
     ethr =  9.14E-05,  avg # of iterations =  1.0

     total cpu time spent up to now is      799.1 secs

     total energy              =   -1592.29317864 Ry
     Harris-Foulkes estimate   =   -1592.37814527 Ry
     estimated scf accuracy    <       0.17234646 Ry

     iteration #  7     ecut=   100.00 Ry     beta=0.50
     Davidson diagonalization with overlap
     ethr =  5.13E-05,  avg # of iterations =  3.1

     total cpu time spent up to now is      909.0 secs

     total energy              =   -1592.34311556 Ry
     Harris-Foulkes estimate   =   -1592.34429211 Ry
     estimated scf accuracy    <       0.00481778 Ry

     iteration #  8     ecut=   100.00 Ry     beta=0.50
     Davidson diagonalization with overlap
     ethr =  1.43E-06,  avg # of iterations = 11.5

     total cpu time spent up to now is     1070.4 secs

     total energy              =   -1592.34319557 Ry
     Harris-Foulkes estimate   =   -1592.34454412 Ry
     estimated scf accuracy    <       0.00243496 Ry

     iteration #  9     ecut=   100.00 Ry     beta=0.50
     Davidson diagonalization with overlap
     ethr =  7.25E-07,  avg # of iterations =  3.2

     total cpu time spent up to now is     1163.3 secs

     total energy              =   -1592.34362137 Ry
     Harris-Foulkes estimate   =   -1592.34372177 Ry
     estimated scf accuracy    <       0.00033052 Ry

     iteration # 10     ecut=   100.00 Ry     beta=0.50
     Davidson diagonalization with overlap
     ethr =  9.84E-08,  avg # of iterations =  4.0

     total cpu time spent up to now is     1304.4 secs

     total energy              =   -1592.34380810 Ry
     Harris-Foulkes estimate   =   -1592.34396889 Ry
     estimated scf accuracy    <       0.00030620 Ry

     iteration # 11     ecut=   100.00 Ry     beta=0.50
     Davidson diagonalization with overlap
     ethr =  9.11E-08,  avg # of iterations =  3.0

     total cpu time spent up to now is     1389.9 secs

     total energy              =   -1592.34383433 Ry
     Harris-Foulkes estimate   =   -1592.34384501 Ry
     estimated scf accuracy    <       0.00002730 Ry

     iteration # 12     ecut=   100.00 Ry     beta=0.50
     Davidson diagonalization with overlap
     ethr =  8.12E-09,  avg # of iterations =  4.0

     total cpu time spent up to now is     1550.9 secs

     total energy              =   -1592.34388255 Ry
     Harris-Foulkes estimate   =   -1592.34389202 Ry
     estimated scf accuracy    <       0.00003733 Ry

     iteration # 13     ecut=   100.00 Ry     beta=0.50
     Davidson diagonalization with overlap
     ethr =  8.12E-09,  avg # of iterations =  1.0

     total cpu time spent up to now is     1629.6 secs

     total energy              =   -1592.34387863 Ry
     Harris-Foulkes estimate   =   -1592.34388348 Ry
     estimated scf accuracy    <       0.00001915 Ry

     iteration # 14     ecut=   100.00 Ry     beta=0.50
     Davidson diagonalization with overlap
     ethr =  5.70E-09,  avg # of iterations =  3.0

     total cpu time spent up to now is     1728.0 secs

     total energy              =   -1592.34388001 Ry
     Harris-Foulkes estimate   =   -1592.34388137 Ry
     estimated scf accuracy    <       0.00000274 Ry

     iteration # 15     ecut=   100.00 Ry     beta=0.50
     Davidson diagonalization with overlap
     ethr =  8.14E-10,  avg # of iterations =  4.6

     total cpu time spent up to now is     1832.3 secs

     total energy              =   -1592.34388075 Ry
     Harris-Foulkes estimate   =   -1592.34388074 Ry
     estimated scf accuracy    <       0.00000009 Ry

     iteration # 16     ecut=   100.00 Ry     beta=0.50
     Davidson diagonalization with overlap
     ethr =  2.80E-11,  avg # of iterations =  4.2

     total cpu time spent up to now is     1993.2 secs

     total energy              =   -1592.34388100 Ry
     Harris-Foulkes estimate   =   -1592.34388100 Ry
     estimated scf accuracy    <       0.00000003 Ry

     iteration # 17     ecut=   100.00 Ry     beta=0.50
     Davidson diagonalization with overlap
     ethr =  8.61E-12,  avg # of iterations =  1.4

     total cpu time spent up to now is     2072.6 secs

     End of self-consistent calculation

          k = 0.0000 0.0000 0.0000 (124277 PWs)   bands (ev):

   -25.4174 -25.4170 -25.4168 -25.4168 -22.8644 -22.8639 -22.8627 -22.8621
   -20.7548 -20.7541 -20.7536 -20.7536 -19.0476 -19.0420 -19.0356 -19.0332
   -18.1238 -18.1237 -18.1073 -18.1069 -16.0496 -16.0459 -16.0293 -16.0286
   -14.0661 -14.0126 -13.9936 -13.9654 -13.8935 -13.8620 -13.8445 -13.8228
   -11.8532 -11.8294 -11.8252 -11.8213 -11.2249 -11.1903 -11.1175 -11.0545
   -11.0206 -11.0187 -10.9719 -10.9717 -10.8983 -10.8623 -10.8458 -10.8344
   -10.1667 -10.1557 -10.1448 -10.1235  -9.5022  -9.4631  -9.4228  -9.4188
    -8.4068  -8.3981  -8.3896  -8.2553  -8.1306  -8.1270  -8.1118  -8.0473
    -7.6711  -7.6593  -7.6396  -7.6307  -7.0437  -7.0035  -6.9853  -6.9335
    -6.7039  -6.6385  -6.5749  -6.5252  -6.3629  -6.3431  -6.3227  -6.3217
    -5.9454  -5.9236  -5.8781  -5.8646  -5.3819  -5.2402  -5.2365  -5.1793
    -5.0113  -4.9830  -4.9099  -4.8502  -4.4862  -4.3312  -4.3134  -4.3091
    -4.1785  -4.1553  -4.1226  -4.0909  -3.8686  -3.8431  -3.7466  -3.7094
    -3.6486  -3.6210  -3.5500  -3.5428  -3.5293  -3.4841  -3.4535  -3.3704
    -3.2826  -3.2730  -3.2403  -3.1974  -3.0669  -2.9894  -2.9251  -2.9248
    -2.8248  -2.7775  -2.7511  -2.6796  -2.6746  -2.6359  -2.5954  -2.5292
    -2.4889  -2.4656  -2.4076  -2.3687  -2.3442  -2.3203  -2.2899  -2.0649
    -2.0262  -2.0041  -1.9539  -1.9241  -1.8442  -1.8104  -1.7391  -1.7277
    -1.7206  -1.7108  -1.6622  -1.6466  -1.6368  -1.5909  -1.5675  -1.5626
    -1.5579  -1.5034  -1.4889  -1.3942  -1.0947  -1.0809  -1.0806  -1.0783
    -0.8830  -0.8781  -0.8134  -0.7587  -0.6748  -0.6305  -0.4262  -0.3965
     3.3410   3.3614   3.3774   3.4232   4.1577   4.1630   4.1693   4.1722
     4.7051   4.7071   4.7542   4.7627   5.9364   6.5058   6.6203   6.8357
     7.0405   7.1541   7.2318   7.2611   7.3778   7.3951   7.5192   7.5616
     7.6930   7.7137   7.7669   7.7810   7.8246   7.9343   7.9834   8.0076
     8.0603

          k = 0.0000 0.0000-0.4253 (124240 PWs)   bands (ev):

   -25.4171 -25.4171 -25.4169 -25.4168 -22.8641 -22.8641 -22.8624 -22.8624
   -20.7545 -20.7545 -20.7536 -20.7536 -19.0448 -19.0448 -19.0344 -19.0344
   -18.1238 -18.1238 -18.1071 -18.1071 -16.0479 -16.0479 -16.0290 -16.0290
   -14.0267 -14.0267 -13.9908 -13.9907 -13.8795 -13.8795 -13.8332 -13.8332
   -11.8445 -11.8445 -11.8258 -11.8258 -11.1857 -11.1857 -11.0850 -11.0850
   -11.0014 -11.0013 -10.9878 -10.9877 -10.8880 -10.8880 -10.8642 -10.8642
   -10.1475 -10.1474 -10.1186 -10.1186  -9.5031  -9.5030  -9.4352  -9.4351
    -8.4025  -8.4025  -8.3003  -8.3003  -8.1198  -8.1198  -8.0750  -8.0750
    -7.6823  -7.6822  -7.6276  -7.6276  -7.0576  -7.0576  -6.9359  -6.9359
    -6.6626  -6.6626  -6.5436  -6.5436  -6.3620  -6.3620  -6.3332  -6.3332
    -5.9457  -5.9457  -5.8514  -5.8514  -5.3090  -5.3090  -5.1973  -5.1973
    -4.9807  -4.9807  -4.8973  -4.8973  -4.4026  -4.4026  -4.2985  -4.2985
    -4.2047  -4.2046  -4.1089  -4.1089  -3.8606  -3.8605  -3.7295  -3.7295
    -3.6883  -3.6883  -3.5496  -3.5496  -3.4772  -3.4772  -3.3518  -3.3518
    -3.2839  -3.2837  -3.2167  -3.2166  -3.0319  -3.0319  -2.9674  -2.9673
    -2.7648  -2.7647  -2.6932  -2.6932  -2.6370  -2.6370  -2.6208  -2.6207
    -2.5198  -2.5197  -2.4076  -2.4076  -2.3454  -2.3454  -2.1772  -2.1772
    -1.9733  -1.9732  -1.9442  -1.9441  -1.8230  -1.8229  -1.7657  -1.7657
    -1.6513  -1.6513  -1.6345  -1.6345  -1.6091  -1.6090  -1.5997  -1.5996
    -1.5391  -1.5390  -1.3896  -1.3895  -1.0964  -1.0963  -1.0683  -1.0683
    -0.8841  -0.8841  -0.7826  -0.7826  -0.6587  -0.6587  -0.4201  -0.4201
     3.3631   3.3632   3.3866   3.3867   4.1571   4.1572   4.1792   4.1793
     4.7241   4.7243   4.7426   4.7427   6.2871   6.2871   6.6554   6.6555
     6.9642   6.9642   7.2586   7.2586   7.4255   7.4255   7.5216   7.5216
     7.6870   7.6871   7.7375   7.7376   7.9310   7.9311   7.9636   7.9636
     8.1110

          k = 0.0000-0.3440 0.0000 (124292 PWs)   bands (ev):

   -25.4172 -25.4172 -25.4168 -25.4167 -22.8635 -22.8635 -22.8630 -22.8630
   -20.7544 -20.7543 -20.7538 -20.7537 -19.0418 -19.0417 -19.0375 -19.0374
   -18.1156 -18.1156 -18.1154 -18.1153 -16.0398 -16.0398 -16.0370 -16.0370
   -14.0429 -14.0428 -13.9745 -13.9745 -13.8679 -13.8679 -13.8451 -13.8451
   -11.8415 -11.8415 -11.8225 -11.8225 -11.2036 -11.2036 -11.1020 -11.1019
   -11.0111 -11.0111 -10.9700 -10.9700 -10.8801 -10.8801 -10.8404 -10.8404
   -10.1569 -10.1568 -10.1384 -10.1384  -9.4839  -9.4839  -9.4199  -9.4199
    -8.4116  -8.4116  -8.3104  -8.3104  -8.1396  -8.1396  -8.0659  -8.0659
    -7.6658  -7.6657  -7.6323  -7.6322  -7.0318  -7.0318  -6.9535  -6.9535
    -6.6815  -6.6814  -6.5435  -6.5435  -6.3550  -6.3550  -6.3295  -6.3295
    -5.9376  -5.9376  -5.8645  -5.8645  -5.3244  -5.3244  -5.1928  -5.1928
    -4.9949  -4.9949  -4.8805  -4.8805  -4.4204  -4.4204  -4.3141  -4.3141
    -4.1468  -4.1467  -4.1045  -4.1045  -3.8230  -3.8230  -3.7521  -3.7521
    -3.6443  -3.6443  -3.5410  -3.5410  -3.5149  -3.5148  -3.4210  -3.4210
    -3.3120  -3.3118  -3.1928  -3.1928  -3.0343  -3.0343  -2.9279  -2.9278
    -2.7617  -2.7617  -2.7346  -2.7345  -2.6487  -2.6487  -2.5776  -2.5775
    -2.4532  -2.4532  -2.3851  -2.3851  -2.3254  -2.3253  -2.2237  -2.2237
    -2.0337  -2.0337  -1.9164  -1.9163  -1.8737  -1.8737  -1.7351  -1.7351
    -1.6790  -1.6789  -1.6416  -1.6416  -1.6262  -1.6260  -1.5649  -1.5648
    -1.5281  -1.5281  -1.4114  -1.4112  -1.0911  -1.0910  -1.0760  -1.0760
    -0.8384  -0.8383  -0.7933  -0.7933  -0.5753  -0.5752  -0.5287  -0.5287
     3.3450   3.3451   3.4055   3.4055   4.1604   4.1604   4.1734   4.1735
     4.7056   4.7058   4.7575   4.7576   6.1226   6.1227   6.8627   6.8627
     7.1356   7.1356   7.2410   7.2411   7.2919   7.2919   7.4788   7.4789
     7.6568   7.6568   7.6768   7.6768   7.8922   7.8922   8.0827   8.0827
     8.2020

          k = 0.0000-0.3440-0.4253 (124304 PWs)   bands (ev):

   -25.4171 -25.4170 -25.4169 -25.4169 -22.8633 -22.8633 -22.8632 -22.8631
   -20.7543 -20.7542 -20.7539 -20.7538 -19.0401 -19.0399 -19.0393 -19.0391
   -18.1160 -18.1159 -18.1151 -18.1150 -16.0393 -16.0393 -16.0376 -16.0376
   -14.0187 -14.0186 -13.9973 -13.9973 -13.8617 -13.8616 -13.8527 -13.8527
   -11.8372 -11.8371 -11.8328 -11.8327 -11.1780 -11.1780 -11.0973 -11.0972
   -10.9977 -10.9976 -10.9886 -10.9885 -10.8873 -10.8873 -10.8649 -10.8649
   -10.1404 -10.1403 -10.1257 -10.1256  -9.5002  -9.5002  -9.4386  -9.4385
    -8.3582  -8.3582  -8.3447  -8.3446  -8.1036  -8.1036  -8.0860  -8.0860
    -7.6795  -7.6794  -7.6279  -7.6278  -7.0564  -7.0564  -6.9420  -6.9420
    -6.6665  -6.6664  -6.5407  -6.5406  -6.3517  -6.3517  -6.3515  -6.3514
    -5.9517  -5.9517  -5.8421  -5.8421  -5.2862  -5.2861  -5.2235  -5.2234
    -4.9459  -4.9459  -4.9244  -4.9243  -4.3533  -4.3533  -4.3496  -4.3495
    -4.2042  -4.2041  -4.0975  -4.0975  -3.8244  -3.8243  -3.7954  -3.7954
    -3.6628  -3.6628  -3.5616  -3.5616  -3.4301  -3.4300  -3.4059  -3.4059
    -3.3007  -3.3005  -3.1922  -3.1921  -3.0203  -3.0202  -3.0080  -3.0079
    -2.7300  -2.7300  -2.7096  -2.7095  -2.6302  -2.6301  -2.6131  -2.6131
    -2.4747  -2.4746  -2.4176  -2.4176  -2.3277  -2.3277  -2.2643  -2.2642
    -1.9723  -1.9722  -1.9538  -1.9537  -1.8070  -1.8069  -1.7759  -1.7758
    -1.6532  -1.6531  -1.6218  -1.6217  -1.6135  -1.6134  -1.6029  -1.6029
    -1.4636  -1.4635  -1.4273  -1.4272  -1.0962  -1.0961  -1.0647  -1.0646
    -0.8352  -0.8352  -0.8027  -0.8027  -0.5738  -0.5738  -0.5429  -0.5429
     3.3609   3.3611   3.3888   3.3889   4.1598   4.1599   4.1765   4.1766
     4.7240   4.7241   4.7424   4.7426   6.4115   6.4116   6.4324   6.4324
     7.1092   7.1092   7.2492   7.2493   7.3651   7.3651   7.5342   7.5342
     7.6204   7.6204   7.8128   7.8128   7.8867   7.8867   8.0131   8.0132
     8.0539

          k =-0.5000 0.0000-0.1519 (124284 PWs)   bands (ev):

   -25.4172 -25.4171 -25.4169 -25.4168 -22.8641 -22.8641 -22.8624 -22.8624
   -20.7546 -20.7546 -20.7536 -20.7535 -19.0451 -19.0450 -19.0343 -19.0342
   -18.1237 -18.1237 -18.1070 -18.1070 -16.0474 -16.0474 -16.0284 -16.0284
   -14.0156 -14.0156 -13.9980 -13.9980 -13.8849 -13.8849 -13.8385 -13.8385
   -11.8397 -11.8396 -11.8122 -11.8122 -11.1651 -11.1651 -11.1212 -11.1212
   -11.0025 -11.0024 -10.9903 -10.9902 -10.8713 -10.8713 -10.8554 -10.8554
   -10.1755 -10.1754 -10.1445 -10.1444  -9.4563  -9.4563  -9.4356  -9.4356
    -8.3878  -8.3878  -8.3234  -8.3234  -8.1326  -8.1326  -8.0803  -8.0803
    -7.6603  -7.6603  -7.6287  -7.6287  -7.0700  -7.0700  -6.9486  -6.9485
    -6.6325  -6.6325  -6.5337  -6.5336  -6.3967  -6.3967  -6.3141  -6.3140
    -5.9405  -5.9405  -5.8766  -5.8766  -5.2514  -5.2514  -5.1946  -5.1946
    -5.0013  -5.0013  -4.9588  -4.9588  -4.3751  -4.3751  -4.3216  -4.3216
    -4.2100  -4.2099  -4.1094  -4.1094  -3.8499  -3.8499  -3.7338  -3.7338
    -3.6580  -3.6580  -3.5388  -3.5387  -3.4367  -3.4367  -3.3862  -3.3862
    -3.2848  -3.2847  -3.2131  -3.2130  -3.0917  -3.0916  -2.9424  -2.9423
    -2.7947  -2.7946  -2.7074  -2.7074  -2.6706  -2.6705  -2.5005  -2.5004
    -2.4922  -2.4921  -2.4525  -2.4524  -2.2684  -2.2683  -2.1492  -2.1492
    -1.9739  -1.9738  -1.9661  -1.9660  -1.8679  -1.8679  -1.7727  -1.7727
    -1.6761  -1.6761  -1.6659  -1.6659  -1.6016  -1.6016  -1.5756  -1.5755
    -1.5362  -1.5361  -1.4214  -1.4214  -1.0860  -1.0859  -1.0738  -1.0737
    -0.8706  -0.8706  -0.7984  -0.7984  -0.6609  -0.6609  -0.4070  -0.4070
     3.3659   3.3660   3.3905   3.3906   4.1513   4.1513   4.1696   4.1697
     4.7053   4.7055   4.7546   4.7548   6.2911   6.2911   6.7849   6.7850
     6.9266   6.9266   7.0599   7.0599   7.3435   7.3436   7.5394   7.5394
     7.5988   7.5989   7.6912   7.6913   7.7893   7.7894   7.9815   7.9815
     8.0788

          k =-0.5000 0.0000-0.5771 (124274 PWs)   bands (ev):

   -25.4172 -25.4171 -25.4169 -25.4167 -22.8644 -22.8639 -22.8626 -22.8622
   -20.7549 -20.7542 -20.7536 -20.7536 -19.0467 -19.0431 -19.0365 -19.0324
   -18.1242 -18.1231 -18.1078 -18.1063 -16.0484 -16.0463 -16.0309 -16.0264
   -14.0306 -14.0040 -13.9953 -13.9864 -13.8906 -13.8857 -13.8562 -13.8224
   -11.8535 -11.8406 -11.8271 -11.7984 -11.1639 -11.1256 -11.1247 -11.0940
   -11.0078 -10.9967 -10.9904 -10.9797 -10.9041 -10.8976 -10.8752 -10.8708
   -10.1717 -10.1320 -10.1310 -10.1290  -9.4898  -9.4710  -9.4599  -9.4400
    -8.4201  -8.3359  -8.2944  -8.2878  -8.1742  -8.1435  -8.0998  -8.0315
    -7.6855  -7.6625  -7.6295  -7.6121  -7.0662  -7.0309  -6.9714  -6.9565
    -6.6744  -6.6018  -6.5511  -6.5486  -6.4226  -6.3827  -6.3048  -6.2962
    -5.9518  -5.9306  -5.8984  -5.8637  -5.2518  -5.2273  -5.2005  -5.1518
    -4.9941  -4.9934  -4.9915  -4.9464  -4.4074  -4.3677  -4.3644  -4.3144
    -4.2131  -4.1698  -4.1277  -4.0582  -3.9450  -3.8485  -3.8270  -3.6811
    -3.6614  -3.6387  -3.5265  -3.5070  -3.4403  -3.4211  -3.3788  -3.3629
    -3.3084  -3.2617  -3.2605  -3.2257  -3.0700  -3.0284  -2.9778  -2.9701
    -2.7970  -2.7748  -2.7135  -2.7026  -2.6386  -2.6040  -2.5935  -2.5324
    -2.5263  -2.4730  -2.4647  -2.4134  -2.3727  -2.2821  -2.2055  -2.1317
    -2.0189  -1.9641  -1.9612  -1.9024  -1.8530  -1.8446  -1.7789  -1.7714
    -1.6797  -1.6586  -1.6561  -1.6054  -1.6036  -1.5990  -1.5908  -1.5493
    -1.5471  -1.5132  -1.5105  -1.3024  -1.1011  -1.0813  -1.0654  -1.0605
    -0.8798  -0.8657  -0.7980  -0.7885  -0.6960  -0.6272  -0.4367  -0.4021
     3.3489   3.3585   3.3839   3.4030   4.1285   4.1606   4.1747   4.1815
     4.6881   4.6926   4.7654   4.7724   6.2520   6.5221   6.5499   6.7776
     6.7811   6.9893   6.9906   7.0039   7.4494   7.5084   7.5369   7.5430
     7.6250   7.6722   7.7283   7.7665   7.7813   7.9344   7.9816   7.9892
     8.0442

          k =-0.5000-0.3440-0.1519 (124272 PWs)   bands (ev):

   -25.4172 -25.4170 -25.4170 -25.4168 -22.8633 -22.8633 -22.8632 -22.8632
   -20.7543 -20.7542 -20.7539 -20.7538 -19.0412 -19.0409 -19.0384 -19.0382
   -18.1161 -18.1161 -18.1147 -18.1146 -16.0397 -16.0397 -16.0362 -16.0362
   -14.0135 -14.0135 -13.9969 -13.9969 -13.8652 -13.8651 -13.8615 -13.8614
   -11.8356 -11.8356 -11.8159 -11.8158 -11.1506 -11.1506 -11.1361 -11.1360
   -11.0032 -11.0031 -10.9909 -10.9908 -10.8706 -10.8706 -10.8559 -10.8559
   -10.1678 -10.1676 -10.1522 -10.1521  -9.4476  -9.4475  -9.4449  -9.4449
    -8.3558  -8.3557  -8.3528  -8.3528  -8.1293  -8.1293  -8.0799  -8.0799
    -7.6582  -7.6581  -7.6288  -7.6288  -7.0742  -7.0741  -6.9480  -6.9480
    -6.6243  -6.6243  -6.5440  -6.5439  -6.3999  -6.3998  -6.3222  -6.3221
    -5.9348  -5.9348  -5.8760  -5.8760  -5.2460  -5.2459  -5.1974  -5.1974
    -4.9915  -4.9915  -4.9663  -4.9662  -4.3752  -4.3752  -4.3300  -4.3300
    -4.1961  -4.1960  -4.1177  -4.1177  -3.8197  -3.8196  -3.7702  -3.7702
    -3.6396  -3.6395  -3.5471  -3.5471  -3.4377  -3.4377  -3.3811  -3.3811
    -3.2939  -3.2937  -3.2244  -3.2243  -3.0502  -3.0501  -2.9749  -2.9749
    -2.7796  -2.7796  -2.7481  -2.7479  -2.6071  -2.6071  -2.5769  -2.5767
    -2.4678  -2.4678  -2.3601  -2.3600  -2.3039  -2.3039  -2.2276  -2.2276
    -1.9844  -1.9843  -1.9687  -1.9686  -1.8578  -1.8577  -1.7783  -1.7783
    -1.6837  -1.6836  -1.6322  -1.6321  -1.6185  -1.6185  -1.5753  -1.5752
    -1.4669  -1.4667  -1.4472  -1.4471  -1.0858  -1.0857  -1.0710  -1.0709
    -0.8264  -0.8263  -0.8206  -0.8205  -0.5695  -0.5694  -0.5295  -0.5295
     3.3683   3.3684   3.3873   3.3874   4.1563   4.1564   4.1652   4.1653
     4.7028   4.7030   4.7557   4.7559   6.4634   6.4635   6.5181   6.5181
     6.9632   6.9633   7.0058   7.0059   7.4221   7.4221   7.5023   7.5023
     7.6397   7.6398   7.8057   7.8058   7.8167   7.8168   7.8807   7.8807
     8.1863

          k =-0.5000-0.3440-0.5771 (124284 PWs)   bands (ev):

   -25.4172 -25.4172 -25.4168 -25.4168 -22.8635 -22.8635 -22.8630 -22.8630
   -20.7543 -20.7542 -20.7539 -20.7538 -19.0416 -19.0416 -19.0377 -19.0377
   -18.1161 -18.1161 -18.1147 -18.1147 -16.0399 -16.0399 -16.0361 -16.0361
   -14.0196 -14.0195 -13.9854 -13.9853 -13.8793 -13.8792 -13.8516 -13.8515
   -11.8461 -11.8461 -11.8135 -11.8135 -11.1448 -11.1448 -11.1097 -11.1097
   -11.0050 -11.0050 -10.9800 -10.9799 -10.9078 -10.9078 -10.8694 -10.8694
   -10.1555 -10.1555 -10.1265 -10.1265  -9.4783  -9.4783  -9.4524  -9.4524
    -8.3660  -8.3660  -8.2972  -8.2972  -8.1658  -8.1658  -8.0603  -8.0603
    -7.6708  -7.6708  -7.6210  -7.6209  -7.0568  -7.0568  -6.9576  -6.9576
    -6.6504  -6.6504  -6.5425  -6.5425  -6.4052  -6.4051  -6.3065  -6.3064
    -5.9417  -5.9417  -5.8735  -5.8735  -5.2473  -5.2473  -5.1619  -5.1619
    -5.0012  -5.0011  -4.9636  -4.9636  -4.4001  -4.4001  -4.3290  -4.3290
    -4.1911  -4.1911  -4.0956  -4.0956  -3.8956  -3.8956  -3.7625  -3.7625
    -3.6554  -3.6554  -3.4880  -3.4879  -3.4042  -3.4041  -3.3874  -3.3874
    -3.3261  -3.3259  -3.2239  -3.2239  -3.0596  -3.0596  -2.9829  -2.9829
    -2.7967  -2.7967  -2.6846  -2.6846  -2.6253  -2.6253  -2.5425  -2.5425
    -2.4864  -2.4864  -2.4575  -2.4574  -2.3071  -2.3070  -2.2360  -2.2359
    -1.9971  -1.9970  -1.9297  -1.9296  -1.8291  -1.8290  -1.7911  -1.7911
    -1.6710  -1.6710  -1.6210  -1.6209  -1.6053  -1.6052  -1.5664  -1.5663
    -1.5106  -1.5105  -1.3875  -1.3874  -1.0995  -1.0995  -1.0562  -1.0562
    -0.8293  -0.8293  -0.8120  -0.8120  -0.5884  -0.5883  -0.5240  -0.5240
     3.3484   3.3484   3.3984   3.3985   4.1438   4.1439   4.1772   4.1773
     4.6908   4.6910   4.7676   4.7678   6.4027   6.4027   6.6560   6.6560
     6.7693   6.7694   7.0976   7.0976   7.3665   7.3666   7.5756   7.5757
     7.7009   7.7009   7.8057   7.8058   7.8515   7.8515   8.0355   8.0355
     8.1434

     highest occupied, lowest unoccupied level (ev):    -0.3965    3.3410

!    total energy              =   -1592.34388100 Ry
     Harris-Foulkes estimate   =   -1592.34388100 Ry
     estimated scf accuracy    <          9.7E-09 Ry

     total all-electron energy =     -6031.684844 Ry

     The total energy is the sum of the following terms:

     one-electron contribution =   -1063.19337162 Ry
     hartree contribution      =     650.27098050 Ry
     xc contribution           =    -345.01742058 Ry
     ewald contribution        =    -372.79291990 Ry
     Dispersion Correction     =      -0.48914129 Ry
     one-center paw contrib.   =    -461.12200812 Ry

     convergence has been achieved in  17 iterations

     Forces acting on atoms (cartesian axes, Ry/au):

     atom    1 type  4   force =     0.00026974   -0.00048558   -0.00041540
     atom    2 type  4   force =    -0.00028987   -0.00042575    0.00028309
     atom    3 type  4   force =    -0.00026974    0.00048558    0.00041540
     atom    4 type  4   force =     0.00028987    0.00042575   -0.00028309
     atom    5 type  4   force =    -0.00030944   -0.00006723    0.00050860
     atom    6 type  4   force =     0.00040781    0.00005745   -0.00060504
     atom    7 type  4   force =     0.00030944    0.00006723   -0.00050860
     atom    8 type  4   force =    -0.00040781   -0.00005745    0.00060504
     atom    9 type  2   force =    -0.00021643   -0.00008122    0.00034302
     atom   10 type  2   force =     0.00019810   -0.00008672   -0.00031898
     atom   11 type  2   force =     0.00021643    0.00008122   -0.00034302
     atom   12 type  2   force =    -0.00019810    0.00008672    0.00031898
     atom   13 type  2   force =     0.00009845    0.00020236    0.00006318
     atom   14 type  2   force =    -0.00008749    0.00019525   -0.00006971
     atom   15 type  2   force =    -0.00009845   -0.00020236   -0.00006318
     atom   16 type  2   force =     0.00008749   -0.00019525    0.00006971
     atom   17 type  2   force =    -0.00011251   -0.00005270   -0.00017785
     atom   18 type  2   force =     0.00010612   -0.00005455    0.00018518
     atom   19 type  2   force =     0.00011251    0.00005270    0.00017785
     atom   20 type  2   force =    -0.00010612    0.00005455   -0.00018518
     atom   21 type  2   force =    -0.00029496   -0.00022177    0.00002440
     atom   22 type  2   force =     0.00029997   -0.00025425   -0.00003675
     atom   23 type  2   force =     0.00029496    0.00022177   -0.00002440
     atom   24 type  2   force =    -0.00029997    0.00025425    0.00003675
     atom   25 type  2   force =     0.00082297   -0.00049855   -0.00020210
     atom   26 type  2   force =    -0.00082690   -0.00050107    0.00018602
     atom   27 type  2   force =    -0.00082297    0.00049855    0.00020210
     atom   28 type  2   force =     0.00082690    0.00050107   -0.00018602
     atom   29 type  2   force =    -0.00024461   -0.00003994    0.00024448
     atom   30 type  2   force =     0.00015741   -0.00023302   -0.00001556
     atom   31 type  2   force =     0.00024461    0.00003994   -0.00024448
     atom   32 type  2   force =    -0.00015741    0.00023302    0.00001556
     atom   33 type  1   force =    -0.00001832    0.00009166    0.00052576
     atom   34 type  1   force =     0.00004343    0.00014741   -0.00052867
     atom   35 type  1   force =     0.00001832   -0.00009166   -0.00052576
     atom   36 type  1   force =    -0.00004343   -0.00014741    0.00052867
     atom   37 type  1   force =    -0.00054530   -0.00020295    0.00012956
     atom   38 type  1   force =     0.00056910   -0.00019166   -0.00013492
     atom   39 type  1   force =     0.00054530    0.00020295   -0.00012956
     atom   40 type  1   force =    -0.00056910    0.00019166    0.00013492
     atom   41 type  3   force =     0.00026125   -0.00025668   -0.00061015
     atom   42 type  3   force =    -0.00025589   -0.00026044    0.00061702
     atom   43 type  3   force =    -0.00026125    0.00025668    0.00061015
     atom   44 type  3   force =     0.00025589    0.00026044   -0.00061702
     atom   45 type  1   force =     0.00003128   -0.00007702   -0.00018294
     atom   46 type  1   force =    -0.00008493   -0.00008171    0.00016254
     atom   47 type  1   force =    -0.00003128    0.00007702    0.00018294
     atom   48 type  1   force =     0.00008493    0.00008171   -0.00016254
     atom   49 type  3   force =     0.00070861    0.00012149    0.00033465
     atom   50 type  3   force =    -0.00070989    0.00012484   -0.00033207
     atom   51 type  3   force =    -0.00070861   -0.00012149   -0.00033465
     atom   52 type  3   force =     0.00070989   -0.00012484    0.00033207
     atom   53 type  3   force =     0.00022716   -0.00022502    0.00049323
     atom   54 type  3   force =    -0.00022021   -0.00022432   -0.00048637
     atom   55 type  3   force =    -0.00022716    0.00022502   -0.00049323
     atom   56 type  3   force =     0.00022021    0.00022432    0.00048637
     atom   57 type  3   force =    -0.00023567   -0.00011971   -0.00050822
     atom   58 type  3   force =     0.00023737   -0.00011988    0.00051037
     atom   59 type  3   force =     0.00023567    0.00011971    0.00050822
     atom   60 type  3   force =    -0.00023737    0.00011988   -0.00051037
     atom   61 type  1   force =     0.00033696   -0.00016966   -0.00000335
     atom   62 type  1   force =    -0.00035066   -0.00017909    0.00000489
     atom   63 type  1   force =    -0.00033696    0.00016966    0.00000335
     atom   64 type  1   force =     0.00035066    0.00017909   -0.00000489
     atom   65 type  3   force =    -0.00001393    0.00010997   -0.00025977
     atom   66 type  3   force =     0.00002301    0.00011010    0.00026255
     atom   67 type  3   force =     0.00001393   -0.00010997    0.00025977
     atom   68 type  3   force =    -0.00002301   -0.00011010   -0.00026255
     atom   69 type  3   force =    -0.00007121    0.00026541   -0.00011478
     atom   70 type  3   force =     0.00007857    0.00026883    0.00011730
     atom   71 type  3   force =     0.00007121   -0.00026541    0.00011478
     atom   72 type  3   force =    -0.00007857   -0.00026883   -0.00011730
     atom   73 type  3   force =     0.00065549   -0.00004477   -0.00008189
     atom   74 type  3   force =    -0.00065493   -0.00004337    0.00008006
     atom   75 type  3   force =    -0.00065549    0.00004477    0.00008189
     atom   76 type  3   force =     0.00065493    0.00004337   -0.00008006
     atom   77 type  1   force =    -0.00011255    0.00001023   -0.00046838
     atom   78 type  1   force =     0.00013400   -0.00000399    0.00048590
     atom   79 type  1   force =     0.00011255   -0.00001023    0.00046838
     atom   80 type  1   force =    -0.00013400    0.00000399   -0.00048590
     atom   81 type  3   force =     0.00054954   -0.00014928   -0.00006406
     atom   82 type  3   force =    -0.00054511   -0.00014326    0.00006257
     atom   83 type  3   force =    -0.00054954    0.00014928    0.00006406
     atom   84 type  3   force =     0.00054511    0.00014326   -0.00006257
     atom   85 type  1   force =    -0.00016457   -0.00030999   -0.00006737
     atom   86 type  1   force =     0.00014501   -0.00030279    0.00004545
     atom   87 type  1   force =     0.00016457    0.00030999    0.00006737
     atom   88 type  1   force =    -0.00014501    0.00030279   -0.00004545
     atom   89 type  3   force =    -0.00015205    0.00031320   -0.00009667
     atom   90 type  3   force =     0.00015177    0.00031486    0.00009893
     atom   91 type  3   force =     0.00015205   -0.00031320    0.00009667
     atom   92 type  3   force =    -0.00015177   -0.00031486   -0.00009893
     atom   93 type  3   force =     0.00011529   -0.00032898    0.00035396
     atom   94 type  3   force =    -0.00010982   -0.00033101   -0.00035209
     atom   95 type  3   force =    -0.00011529    0.00032898   -0.00035396
     atom   96 type  3   force =     0.00010982    0.00033101    0.00035209
     atom   97 type  3   force =    -0.00013710    0.00041190   -0.00017779
     atom   98 type  3   force =     0.00012955    0.00041003    0.00018189
     atom   99 type  3   force =     0.00013710   -0.00041190    0.00017779
     atom  100 type  3   force =    -0.00012955   -0.00041003   -0.00018189
     atom  101 type  1   force =    -0.00002751   -0.00000031   -0.00029317
     atom  102 type  1   force =     0.00002109    0.00000136    0.00028077
     atom  103 type  1   force =     0.00002751    0.00000031    0.00029317
     atom  104 type  1   force =    -0.00002109   -0.00000136   -0.00028077
     atom  105 type  3   force =    -0.00017603    0.00017657    0.00002736
     atom  106 type  3   force =     0.00017671    0.00018112   -0.00002731
     atom  107 type  3   force =     0.00017603   -0.00017657   -0.00002736
     atom  108 type  3   force =    -0.00017671   -0.00018112    0.00002731
     atom  109 type  3   force =     0.00051844   -0.00047029    0.00010415
     atom  110 type  3   force =    -0.00051402   -0.00047110   -0.00010829
     atom  111 type  3   force =    -0.00051844    0.00047029   -0.00010415
     atom  112 type  3   force =     0.00051402    0.00047110    0.00010829
     atom  113 type  3   force =    -0.00048026   -0.00079403    0.00065617
     atom  114 type  3   force =     0.00048204   -0.00079536   -0.00065093
     atom  115 type  3   force =     0.00048026    0.00079403   -0.00065617
     atom  116 type  3   force =    -0.00048204    0.00079536    0.00065093

     Total force =     0.005942     Total SCF correction =     0.000083


     Computing stress (Cartesian axis) and pressure

          total   stress  (Ry/bohr**3)                   (kbar)     P=   -4.38
  -0.00003112  -0.00000004   0.00000628         -4.58     -0.01      0.92
  -0.00000004  -0.00002962   0.00000001         -0.01     -4.36      0.00
   0.00000628   0.00000001  -0.00002853          0.92      0.00     -4.20


     Writing output data file scf.save
 
     init_run     :     57.83s CPU     60.05s WALL (       1 calls)
     electrons    :   1932.75s CPU   2012.12s WALL (       1 calls)
     forces       :     27.29s CPU     27.56s WALL (       1 calls)
     stress       :    180.39s CPU    180.85s WALL (       1 calls)

     Called by init_run:
     wfcinit      :     43.79s CPU     45.82s WALL (       1 calls)
     potinit      :      4.93s CPU      4.96s WALL (       1 calls)

     Called by electrons:
     c_bands      :   1727.33s CPU   1796.14s WALL (      17 calls)
     sum_band     :    185.91s CPU    194.50s WALL (      17 calls)
     v_of_rho     :      2.79s CPU      3.01s WALL (      18 calls)
     newd         :      6.55s CPU      8.22s WALL (      18 calls)
     PAW_pot      :      9.29s CPU      9.30s WALL (      18 calls)
     mix_rho      :      0.72s CPU      0.80s WALL (      17 calls)

     Called by c_bands:
     init_us_2    :     13.12s CPU     13.17s WALL (     296 calls)
     cegterg      :   1680.90s CPU   1749.48s WALL (     136 calls)

     Called by sum_band:
     sum_band:bec :      0.11s CPU      0.11s WALL (     136 calls)
     addusdens    :      6.98s CPU      8.57s WALL (      17 calls)

     Called by *egterg:
     h_psi        :    988.52s CPU   1040.84s WALL (     659 calls)
     s_psi        :    180.33s CPU    180.36s WALL (     659 calls)
     g_psi        :      6.56s CPU      6.56s WALL (     515 calls)
     cdiaghg      :     99.20s CPU     99.24s WALL (     651 calls)

     Called by h_psi:
     h_psi:pot    :    980.65s CPU   1032.78s WALL (     659 calls)
     h_psi:calbec :    167.10s CPU    167.41s WALL (     659 calls)
     vloc_psi     :    633.33s CPU    685.11s WALL (     659 calls)
     add_vuspsi   :    180.21s CPU    180.26s WALL (     659 calls)

     General routines
     calbec       :    239.84s CPU    240.35s WALL (     835 calls)
     fft          :      1.60s CPU      1.94s WALL (     258 calls)
     fftw         :    677.33s CPU    734.70s WALL (  185784 calls)
 
     Parallel routines
     fft_scatter  :    124.98s CPU    177.43s WALL (  186042 calls)
 
     PWSCF        : 36m52.17s CPU    39m 1.61s WALL

 
   This run was terminated on:   9:45:25  21Dec2017            

=------------------------------------------------------------------------------=
   JOB DONE.
=------------------------------------------------------------------------------=
