
     Program PWSCF v.6.1 (svn rev. 13369) starts on 20Dec2017 at 18:24:18 

     This program is part of the open-source Quantum ESPRESSO suite
     for quantum simulation of materials; please cite
         "P. Giannozzi et al., J. Phys.:Condens. Matter 21 395502 (2009);
          URL http://www.quantum-espresso.org", 
     in publications or presentations arising from this work. More details at
     http://www.quantum-espresso.org/quote

     Parallel version (MPI), running on     8 processors
     R & G space division:  proc/nbgrp/npool/nimage =       8
     Waiting for input...
     Reading input from standard input

     Current dimensions of program PWSCF are:
     Max number of different atomic species (ntypx) = 10
     Max number of k-points (npk) =  40000
     Max angular momentum in pseudopotentials (lmaxx) =  3
               file C.pbe-n-kjpaw_psl.0.1.UPF: wavefunction(s)  2P renormalized
               file N.pbe-n-kjpaw_psl.0.1.UPF: wavefunction(s)  2P renormalized
               file H.pbe-kjpaw_psl.0.1.UPF: wavefunction(s)  1S renormalized
               file O.pbe-n-kjpaw_psl.0.1.UPF: wavefunction(s)  2P renormalized

     -------------------------------------
     Parameters for Dispersion Correction:
     -------------------------------------
       atom      VdW radius       C_6     

        C          2.744         60.710
        N          2.640         42.670
        H          1.892          4.857
        O          2.536         24.284

     Subspace diagonalization in iterative solution of the eigenvalue problem:
     a serial algorithm will be used

 
     Parallelization info
     --------------------
     sticks:   dense  smooth     PW     G-vecs:    dense   smooth      PW
     Min        1352    1352    356               131992   131992   17896
     Max        1353    1353    357               131995   131995   17898
     Sum       10819   10819   2851              1055947  1055947  143175
 


     bravais-lattice index     =            0
     lattice parameter (alat)  =      18.2961  a.u.
     unit-cell volume          =    7816.3875 (a.u.)^3
     number of atoms/cell      =          124
     number of atomic types    =            4
     number of electrons       =       448.00
     number of Kohn-Sham states=          268
     kinetic-energy cutoff     =     100.0000  Ry
     charge density cutoff     =     400.0000  Ry
     convergence threshold     =      1.0E-08
     mixing beta               =       0.5000
     number of iterations used =            8  plain     mixing
     Exchange-correlation      =  SLA  PW   PBX  PBC ( 1  4  3  4 0 0)

     celldm(1)=  18.296139  celldm(2)=   0.000000  celldm(3)=   0.000000
     celldm(4)=   0.000000  celldm(5)=   0.000000  celldm(6)=   0.000000

     crystal axes: (cart. coord. in units of alat)
               a(1) = (   1.000000   0.000000   0.000000 )  
               a(2) = (   0.002746   1.014952   0.000000 )  
               a(3) = (   0.031720   0.012077   1.257425 )  

     reciprocal axes: (cart. coord. in units 2 pi/alat)
               b(1) = (  1.000000 -0.002705 -0.025201 )  
               b(2) = (  0.000000  0.985268 -0.009463 )  
               b(3) = (  0.000000  0.000000  0.795276 )  


     PseudoPot. # 1 for  C read from file:
     /scratch/ahofstet/pseudo/C.pbe-n-kjpaw_psl.0.1.UPF
     MD5 check sum: 430fe95172b1e11ef3f8ed03bac87931
     Pseudo is Projector augmented-wave + core cor, Zval =  4.0
     Generated using "atomic" code by A. Dal Corso  v.5.0.99 svn rev. 10869
     Shape of augmentation charge: BESSEL
     Using radial grid of 1073 points,  4 beta functions with: 
                l(1) =   0
                l(2) =   0
                l(3) =   1
                l(4) =   1
     Q(r) pseudized with 0 coefficients 


     PseudoPot. # 2 for  N read from file:
     /scratch/ahofstet/pseudo/N.pbe-n-kjpaw_psl.0.1.UPF
     MD5 check sum: f73187c8b701007e77325f868c9291d7
     Pseudo is Projector augmented-wave + core cor, Zval =  5.0
     Generated using "atomic" code by A. Dal Corso  v.5.0.99 svn rev. 10869
     Shape of augmentation charge: PSQ
     Using radial grid of 1085 points,  4 beta functions with: 
                l(1) =   0
                l(2) =   0
                l(3) =   1
                l(4) =   1
     Q(r) pseudized with 0 coefficients 


     PseudoPot. # 3 for  H read from file:
     /scratch/ahofstet/pseudo/H.pbe-kjpaw_psl.0.1.UPF
     MD5 check sum: 94e484f906d9e9773b2f6e52662335b2
     Pseudo is Projector augmented-wave, Zval =  1.0
     Generated using "atomic" code by A. Dal Corso  v.5.0.99 svn rev. 10869
     Shape of augmentation charge: PSQ
     Using radial grid of  929 points,  2 beta functions with: 
                l(1) =   0
                l(2) =   0
     Q(r) pseudized with 0 coefficients 


     PseudoPot. # 4 for  O read from file:
     /scratch/ahofstet/pseudo/O.pbe-n-kjpaw_psl.0.1.UPF
     MD5 check sum: 3f94a2996a3169367d6eb21d9b593f20
     Pseudo is Projector augmented-wave + core cor, Zval =  6.0
     Generated using "atomic" code by A. Dal Corso  v.5.0.99 svn rev. 10869
     Shape of augmentation charge: BESSEL
     Using radial grid of 1095 points,  4 beta functions with: 
                l(1) =   0
                l(2) =   0
                l(3) =   1
                l(4) =   1
     Q(r) pseudized with 0 coefficients 


     atomic species   valence    mass     pseudopotential
        C              4.00    12.01070      C( 1.00)
        N              5.00    14.00670      N( 1.00)
        H              1.00     1.00794      H( 1.00)
        O              6.00    15.99940      O( 1.00)

      2 Sym. Ops., with inversion, found



   Cartesian axes

     site n.     atom                  positions (alat units)
         1           O   tau(   1) = (   0.7046020   0.1614978   0.1556703  )
         2           O   tau(   2) = (   0.3298641   0.8655309   1.1017550  )
         3           O   tau(   3) = (   0.2901664   0.3610017   0.8781736  )
         4           O   tau(   4) = (   0.7442998   0.6660270   0.3792517  )
         5           O   tau(   5) = (   0.5692359   0.0491476   0.2994752  )
         6           O   tau(   6) = (   0.4652303   0.9778811   0.9579500  )
         7           N   tau(   7) = (   0.6533297   0.1905283   0.5001338  )
         8           N   tau(   8) = (   0.3811365   0.8365004   0.7572915  )
         9           N   tau(   9) = (   0.6584697   0.1397470   0.2752948  )
        10           N   tau(  10) = (   0.3759964   0.8872817   0.9821305  )
        11           O   tau(  11) = (   0.5013986   0.4138155   0.8129118  )
        12           O   tau(  12) = (   0.5330676   0.6132132   0.4445135  )
        13           N   tau(  13) = (   0.7114709   0.2228909   0.3733837  )
        14           N   tau(  14) = (   0.3229953   0.8041378   0.8840416  )
        15           N   tau(  15) = (   0.3989902   0.3353079   0.8095750  )
        16           N   tau(  16) = (   0.6354760   0.6917208   0.4478502  )
        17           N   tau(  17) = (   0.3926511   0.2190327   0.7358023  )
        18           N   tau(  18) = (   0.6418151   0.8079960   0.5216230  )
        19           N   tau(  19) = (   0.5345432   0.2477777   0.5397299  )
        20           N   tau(  20) = (   0.4999230   0.7792510   0.7176954  )
        21           N   tau(  21) = (   0.5161579   0.1975695   0.6662691  )
        22           N   tau(  22) = (   0.5183083   0.8294592   0.5911561  )
        23           C   tau(  23) = (   0.7091508   0.1063270   0.5976960  )
        24           C   tau(  24) = (   0.3253154   0.9207017   0.6597293  )
        25           C   tau(  25) = (   0.6194198   0.1111223   0.7073388  )
        26           C   tau(  26) = (   0.4150464   0.9159064   0.5500865  )
        27           H   tau(  27) = (   0.6175675   0.0582394   0.8058969  )
        28           H   tau(  28) = (   0.4168987   0.9687893   0.4515283  )
        29           H   tau(  29) = (   0.8038725   0.0499609   0.5807408  )
        30           H   tau(  30) = (   0.2305937   0.9770678   0.6766844  )
        31           O   tau(  31) = (   0.8548366   0.2146816   1.0917967  )
        32           O   tau(  32) = (   0.1796295   0.8123471   0.1656285  )
        33           O   tau(  33) = (   0.8488904   0.4236973   1.0031017  )
        34           O   tau(  34) = (   0.1855757   0.6033314   0.2543236  )
        35           O   tau(  35) = (   0.1761125   0.1036617   0.4655592  )
        36           O   tau(  36) = (   0.8583537   0.9233670   0.7918660  )
        37           O   tau(  37) = (   0.0113384   0.0664417   0.3136480  )
        38           O   tau(  38) = (   1.0231278   0.9605870   0.9437772  )
        39           N   tau(  39) = (   0.1289474   0.1105947   0.3441015  )
        40           N   tau(  40) = (   0.9055188   0.9164340   0.9133237  )
        41           N   tau(  41) = (   0.1540526   0.1724752   0.1226939  )
        42           N   tau(  42) = (   0.8804136   0.8545535   1.1347314  )
        43           N   tau(  43) = (   0.9074006   0.3310156   1.0750749  )
        44           N   tau(  44) = (   0.1270656   0.6960131   0.1823504  )
        45           N   tau(  45) = (   0.2142424   0.1709285   0.2527014  )
        46           N   tau(  46) = (   0.8202238   0.8561002   1.0047239  )
        47           N   tau(  47) = (   1.0278355   0.3709305   1.1292622  )
        48           N   tau(  48) = (   0.0066307   0.6560982   0.1281631  )
        49           N   tau(  49) = (   0.0859801   0.2661509   1.2074595  )
        50           N   tau(  50) = (   0.9484861   0.7608778   0.0499658  )
        51           N   tau(  51) = (   0.0772861   0.2794975   0.0828949  )
        52           N   tau(  52) = (   0.9571801   0.7475312   1.1745304  )
        53           C   tau(  53) = (   0.1456278   0.1466835   1.1626377  )
        54           C   tau(  54) = (   0.8888383   0.8803452   0.0947876  )
        55           C   tau(  55) = (   0.1792721   0.0811427   0.0188129  )
        56           C   tau(  56) = (   0.8551941   0.9458860   1.2386124  )
        57           H   tau(  57) = (   0.2400560  -0.0113979   0.0326797  )
        58           H   tau(  58) = (   0.7944102   1.0384266   1.2247455  )
        59           H   tau(  59) = (   0.1356031   0.1101940   1.0576073  )
        60           H   tau(  60) = (   0.8988631   0.9168347   0.1998180  )
        61           N   tau(  61) = (   0.2757361   0.5656970   1.1821112  )
        62           N   tau(  62) = (   0.7587301   0.4613317   0.0753141  )
        63           N   tau(  63) = (   0.3893330   0.4330165   0.1274546  )
        64           N   tau(  64) = (   0.6451332   0.5940122   1.1299706  )
        65           N   tau(  65) = (   0.5043887   0.2769479   1.2347686  )
        66           N   tau(  66) = (   0.5300774   0.7500808   0.0226567  )
        67           N   tau(  67) = (   0.5285665   0.2366313   1.0971985  )
        68           N   tau(  68) = (   0.5058996   0.7903974   0.1602267  )
        69           N   tau(  69) = (   0.3517073   0.4452676   1.1560555  )
        70           N   tau(  70) = (   0.6827588   0.5817611   0.1013697  )
        71           N   tau(  71) = (   0.4650317   0.3719158   0.2347193  )
        72           N   tau(  72) = (   0.5694344   0.6551129   1.0227059  )
        73           C   tau(  73) = (   0.3953285   0.3780343   0.0006784  )
        74           C   tau(  74) = (   0.6391377   0.6489944   1.2567468  )
        75           H   tau(  75) = (   0.5024341   0.4488212   0.2970270  )
        76           H   tau(  76) = (   0.5320321   0.5782075   0.9603983  )
        77           H   tau(  77) = (   0.3111249   0.5020730   0.1483110  )
        78           H   tau(  78) = (   0.7233413   0.5249557   1.1091142  )
        79           H   tau(  79) = (   0.5002867   0.1353342   1.0843565  )
        80           H   tau(  80) = (   0.5341795   0.8916945   0.1730688  )
        81           H   tau(  81) = (   0.3557353   0.4027322   1.0587925  )
        82           H   tau(  82) = (   0.6787308   0.6242965   0.1986327  )
        83           H   tau(  83) = (   0.6321541   0.2462144   1.0767801  )
        84           H   tau(  84) = (   0.4023121   0.7808143   0.1806452  )
        85           H   tau(  85) = (   0.4009204   0.3082974   0.2903554  )
        86           H   tau(  86) = (   0.6335458   0.7187313   0.9670699  )
        87           H   tau(  87) = (   0.3121830   0.6451078   1.1221321  )
        88           H   tau(  88) = (   0.7222831   0.3819209   0.1352931  )
        89           H   tau(  89) = (   0.1740865   0.5470492   1.1593084  )
        90           H   tau(  90) = (   0.8603797   0.4799795   0.0981169  )
        91           H   tau(  91) = (   0.5386609   0.2345862   0.0548554  )
        92           H   tau(  92) = (   0.4958053   0.7924425   1.2025698  )
        93           N   tau(  93) = (   0.2059567   0.5999514   0.5429438  )
        94           N   tau(  94) = (   0.8285095   0.4270773   0.7144814  )
        95           N   tau(  95) = (   0.2771460   0.4754156   0.5640549  )
        96           N   tau(  96) = (   0.7573202   0.5516131   0.6933703  )
        97           N   tau(  97) = (   0.0406235   0.6433454   0.8721029  )
        98           N   tau(  98) = (   0.9938427   0.3836833   0.3853224  )
        99           N   tau(  99) = (   0.1189938   0.5836845   0.7660044  )
       100           N   tau( 100) = (   0.9154723   0.4433442   0.4914208  )
       101           N   tau( 101) = (   0.0387255   0.7545663   0.6173794  )
       102           N   tau( 102) = (   0.9957407   0.2724624   0.6400458  )
       103           N   tau( 103) = (   0.0214907   0.8002760   0.4807742  )
       104           N   tau( 104) = (   1.0129755   0.2267527   0.7766511  )
       105           C   tau( 105) = (   0.1205030   0.6453405   0.6420921  )
       106           C   tau( 106) = (   0.9139632   0.3816882   0.6153331  )
       107           H   tau( 107) = (   0.1047177   0.7012961   0.9335115  )
       108           H   tau( 108) = (   0.9297484   0.3257326   0.3239137  )
       109           H   tau( 109) = (   0.1942057   0.5115624   0.7872664  )
       110           H   tau( 110) = (   0.8402605   0.5154663   0.4701588  )
       111           H   tau( 111) = (   0.0404371   0.9041886   0.4755053  )
       112           H   tau( 112) = (   0.9940291   0.1228401   0.7819200  )
       113           H   tau( 113) = (   0.9755616   0.7900837   0.6949427  )
       114           H   tau( 114) = (   0.0589046   0.2369450   0.5624826  )
       115           H   tau( 115) = (   0.9216024   0.7803962   0.4505870  )
       116           H   tau( 116) = (   0.1128637   0.2466325   0.8068383  )
       117           H   tau( 117) = (   0.9949708   0.5668591   0.9294275  )
       118           H   tau( 118) = (   0.0394954   0.4601696   0.3279978  )
       119           H   tau( 119) = (   0.2341587   0.4000272   0.5032934  )
       120           H   tau( 120) = (   0.8003075   0.6270015   0.7541318  )
       121           H   tau( 121) = (   0.3777330   0.4902256   0.5355443  )
       122           H   tau( 122) = (   0.6567332   0.5368031   0.7218809  )
       123           H   tau( 123) = (   0.1918915   0.6373644   0.4444089  )
       124           H   tau( 124) = (   0.8425747   0.3896643   0.8130164  )

     number of k points=     8
                       cart. coord. in units 2pi/alat
        k(    1) = (   0.0000000   0.0000000   0.0000000), wk =   0.2500000
        k(    2) = (   0.0000000   0.0000000  -0.3976379), wk =   0.2500000
        k(    3) = (   0.0000000  -0.4926341   0.0047314), wk =   0.2500000
        k(    4) = (   0.0000000  -0.4926341  -0.3929065), wk =   0.2500000
        k(    5) = (  -0.5000000   0.0013526   0.0126003), wk =   0.2500000
        k(    6) = (  -0.5000000   0.0013526  -0.3850377), wk =   0.2500000
        k(    7) = (  -0.5000000  -0.4912815   0.0173317), wk =   0.2500000
        k(    8) = (  -0.5000000  -0.4912815  -0.3803063), wk =   0.2500000

     Dense  grid:  1055947 G-vectors     FFT dimensions: ( 120, 120, 150)

     Estimated max dynamical RAM per process >    1446.02MB

     Estimated total allocated dynamical RAM >   11568.14MB

     Check: negative/imaginary core charge=   -0.000002    0.000000

     Initial potential from superposition of free atoms

     starting charge  447.99868, renormalised to  448.00000
     Starting wfc are  364 randomized atomic wfcs
     Checking if some PAW data can be deallocated... 

     total cpu time spent up to now is       71.0 secs

     per-process dynamical memory:   948.9 Mb

     Self-consistent Calculation

     iteration #  1     ecut=   100.00 Ry     beta=0.50
     Davidson diagonalization with overlap
     ethr =  1.00E-02,  avg # of iterations =  3.0

     total cpu time spent up to now is      262.9 secs

     total energy              =   -2401.98885286 Ry
     Harris-Foulkes estimate   =   -2408.32653807 Ry
     estimated scf accuracy    <      11.90435628 Ry

     iteration #  2     ecut=   100.00 Ry     beta=0.50
     Davidson diagonalization with overlap
     ethr =  2.66E-03,  avg # of iterations =  4.1

     total cpu time spent up to now is      425.1 secs

     total energy              =   -2404.11089500 Ry
     Harris-Foulkes estimate   =   -2405.35729673 Ry
     estimated scf accuracy    <       2.68480293 Ry

     iteration #  3     ecut=   100.00 Ry     beta=0.50
     Davidson diagonalization with overlap
     ethr =  5.99E-04,  avg # of iterations =  7.6

     total cpu time spent up to now is      590.1 secs

     total energy              =   -2404.60277637 Ry
     Harris-Foulkes estimate   =   -2404.84399169 Ry
     estimated scf accuracy    <       0.59135652 Ry

     iteration #  4     ecut=   100.00 Ry     beta=0.50
     Davidson diagonalization with overlap
     ethr =  1.32E-04,  avg # of iterations =  9.0

     total cpu time spent up to now is      758.2 secs

     total energy              =   -2404.69600680 Ry
     Harris-Foulkes estimate   =   -2404.77018396 Ry
     estimated scf accuracy    <       0.20657862 Ry

     iteration #  5     ecut=   100.00 Ry     beta=0.50
     Davidson diagonalization with overlap
     ethr =  4.61E-05,  avg # of iterations =  7.8

     total cpu time spent up to now is      906.7 secs

     total energy              =   -2404.73104536 Ry
     Harris-Foulkes estimate   =   -2404.73941444 Ry
     estimated scf accuracy    <       0.02322636 Ry

     iteration #  6     ecut=   100.00 Ry     beta=0.50
     Davidson diagonalization with overlap
     ethr =  5.18E-06,  avg # of iterations = 11.1

     total cpu time spent up to now is     1125.0 secs

     total energy              =   -2404.73666745 Ry
     Harris-Foulkes estimate   =   -2404.73882301 Ry
     estimated scf accuracy    <       0.00551031 Ry

     iteration #  7     ecut=   100.00 Ry     beta=0.50
     Davidson diagonalization with overlap
     ethr =  1.23E-06,  avg # of iterations =  4.8

     total cpu time spent up to now is     1260.7 secs

     total energy              =   -2404.73776643 Ry
     Harris-Foulkes estimate   =   -2404.73812254 Ry
     estimated scf accuracy    <       0.00107803 Ry

     iteration #  8     ecut=   100.00 Ry     beta=0.50
     Davidson diagonalization with overlap
     ethr =  2.41E-07,  avg # of iterations =  2.6

     total cpu time spent up to now is     1384.7 secs

     total energy              =   -2404.73797507 Ry
     Harris-Foulkes estimate   =   -2404.73800964 Ry
     estimated scf accuracy    <       0.00011831 Ry

     iteration #  9     ecut=   100.00 Ry     beta=0.50
     Davidson diagonalization with overlap
     ethr =  2.64E-08,  avg # of iterations =  3.0

     total cpu time spent up to now is     1544.5 secs

     total energy              =   -2404.73800909 Ry
     Harris-Foulkes estimate   =   -2404.73802872 Ry
     estimated scf accuracy    <       0.00005820 Ry

     iteration # 10     ecut=   100.00 Ry     beta=0.50
     Davidson diagonalization with overlap
     ethr =  1.30E-08,  avg # of iterations =  3.0

     total cpu time spent up to now is     1665.0 secs

     total energy              =   -2404.73801952 Ry
     Harris-Foulkes estimate   =   -2404.73802038 Ry
     estimated scf accuracy    <       0.00000469 Ry

     iteration # 11     ecut=   100.00 Ry     beta=0.50
     Davidson diagonalization with overlap
     ethr =  1.05E-09,  avg # of iterations =  3.0

     total cpu time spent up to now is     1824.3 secs

     total energy              =   -2404.73802071 Ry
     Harris-Foulkes estimate   =   -2404.73802117 Ry
     estimated scf accuracy    <       0.00000133 Ry

     iteration # 12     ecut=   100.00 Ry     beta=0.50
     Davidson diagonalization with overlap
     ethr =  2.97E-10,  avg # of iterations =  3.0

     total cpu time spent up to now is     1951.4 secs

     total energy              =   -2404.73802096 Ry
     Harris-Foulkes estimate   =   -2404.73802104 Ry
     estimated scf accuracy    <       0.00000029 Ry

     iteration # 13     ecut=   100.00 Ry     beta=0.50
     Davidson diagonalization with overlap
     ethr =  6.38E-11,  avg # of iterations =  3.0

     total cpu time spent up to now is     2093.9 secs

     total energy              =   -2404.73802103 Ry
     Harris-Foulkes estimate   =   -2404.73802104 Ry
     estimated scf accuracy    <       0.00000005 Ry

     iteration # 14     ecut=   100.00 Ry     beta=0.50
     Davidson diagonalization with overlap
     ethr =  1.04E-11,  avg # of iterations =  3.0

     total cpu time spent up to now is     2221.3 secs

     End of self-consistent calculation

          k = 0.0000 0.0000 0.0000 (132013 PWs)   bands (ev):

   -23.6802 -23.6755 -23.5793 -23.5726 -23.4825 -23.4801 -23.4664 -23.4637
   -22.2536 -22.2528 -22.2309 -22.2125 -19.2882 -19.1647 -19.1625 -19.1330
   -19.1235 -19.1050 -19.0953 -19.0350 -18.7290 -18.7237 -18.6127 -18.6108
   -18.5244 -18.5220 -18.5116 -18.5060 -17.5314 -17.4683 -17.4598 -17.4215
   -17.3978 -17.3286 -17.3240 -17.2823 -16.7926 -16.7916 -16.7354 -16.7294
   -14.5132 -14.4999 -14.4489 -14.4488 -14.3961 -14.3427 -14.3383 -14.3081
   -14.1248 -14.0746 -13.9903 -13.9401 -12.3705 -12.3338 -12.3229 -12.2996
   -12.2379 -12.2196 -12.1919 -12.1616 -11.2246 -11.2175 -11.1850 -11.1558
   -10.2595 -10.2471 -10.1903 -10.1857  -8.6416  -8.6248  -8.5742  -8.5358
    -8.1559  -8.0397  -8.0270  -7.9859  -7.9519  -7.9162  -7.8499  -7.7986
    -7.4631  -7.3960  -7.3472  -7.3452  -7.2940  -7.2558  -7.2472  -7.1609
    -6.9067  -6.8386  -6.7862  -6.7648  -6.7002  -6.6389  -6.5431  -6.5399
    -6.4116  -6.3498  -6.1976  -6.1071  -6.0833  -6.0476  -6.0202  -5.9529
    -5.9155  -5.8838  -5.8255  -5.8235  -5.7282  -5.7281  -5.7061  -5.6212
    -5.6192  -5.5422  -5.4344  -5.4173  -5.3783  -5.2789  -5.2777  -5.2580
    -5.2008  -5.1680  -5.1232  -5.1175  -5.0716  -5.0316  -5.0270  -5.0150
    -5.0056  -4.9796  -4.9354  -4.8956  -4.8733  -4.8683  -4.8611  -4.8412
    -4.7999  -4.7789  -4.7716  -4.7415  -4.7258  -4.6605  -4.6550  -4.5974
    -4.5885  -4.5308  -4.5000  -4.4728  -3.3300  -3.1869  -3.1447  -3.0655
    -2.7985  -2.7318  -2.4291  -2.4035  -1.9611  -1.8485  -1.8404  -1.8188
    -1.6688  -1.5805  -1.5729  -1.5416  -0.9209  -0.8515  -0.8445  -0.8172
    -0.7390  -0.6027  -0.5079  -0.4511  -0.4508  -0.3773  -0.3496  -0.3265
    -0.3140  -0.2713  -0.2436  -0.2271  -0.1646  -0.1585  -0.1349  -0.1157
    -0.1002  -0.0862   0.0452   0.0730   0.1018   0.1395   0.2600   0.3206
     0.4824   0.4889   0.5106   0.5458   0.5547   0.6004   0.6154   0.6531
     0.6618   0.6905   0.7108   0.7537   0.8003   0.8108   0.8435   0.8620
     0.8726   0.8977   0.9442   0.9583   0.9760   0.9817   1.0922   1.1529
     1.1775   1.1889   1.1947   1.2612   1.3216   1.3737   1.4741   1.5272
     4.3518   4.4814   4.5707   4.5765   4.8878   4.9647   4.9913   5.0311
     5.1445   5.1573   5.1981   5.2732   5.9848   6.0526   6.1496   6.3645
     6.7874   6.8474   6.9824   7.0068   7.3263   7.6001   7.8979   8.0247
     8.0726   8.2596   8.3469   8.3755   8.4857   8.5370   8.7270   8.7412
     8.8039   8.9295   8.9448   9.0482   9.1303   9.1931   9.2691   9.3324
     9.4101   9.6088   9.6275   9.7341

          k = 0.0000 0.0000-0.3976 (132050 PWs)   bands (ev):

   -23.6801 -23.6755 -23.5793 -23.5727 -23.4826 -23.4800 -23.4663 -23.4639
   -22.2534 -22.2529 -22.2311 -22.2125 -19.2917 -19.1796 -19.1575 -19.1309
   -19.1254 -19.0975 -19.0895 -19.0299 -18.7338 -18.7216 -18.6145 -18.6134
   -18.5256 -18.5215 -18.5106 -18.5044 -17.5308 -17.4682 -17.4604 -17.4222
   -17.3972 -17.3285 -17.3248 -17.2827 -16.7932 -16.7894 -16.7353 -16.7296
   -14.5124 -14.5004 -14.4498 -14.4494 -14.3964 -14.3424 -14.3386 -14.3108
   -14.1201 -14.0717 -13.9903 -13.9410 -12.3713 -12.3340 -12.3237 -12.3033
   -12.2366 -12.2201 -12.1995 -12.1654 -11.2145 -11.2113 -11.1819 -11.1526
   -10.2548 -10.2471 -10.1932 -10.1850  -8.6523  -8.6412  -8.5832  -8.5749
    -8.1133  -8.0801  -7.9927  -7.9898  -7.9398  -7.8957  -7.8354  -7.7890
    -7.4432  -7.4151  -7.4113  -7.3312  -7.2738  -7.2505  -7.2238  -7.1619
    -6.8872  -6.8712  -6.7861  -6.7710  -6.6917  -6.6269  -6.6031  -6.5365
    -6.4065  -6.3275  -6.2023  -6.1463  -6.1329  -6.0372  -5.9619  -5.9380
    -5.8977  -5.8729  -5.7969  -5.7925  -5.7624  -5.7288  -5.6691  -5.6493
    -5.5760  -5.5743  -5.4581  -5.3900  -5.3504  -5.3375  -5.3043  -5.2151
    -5.2104  -5.1890  -5.1697  -5.1287  -5.0757  -5.0672  -5.0249  -5.0128
    -4.9717  -4.9619  -4.9210  -4.8992  -4.8695  -4.8672  -4.8651  -4.8471
    -4.8070  -4.7872  -4.7778  -4.7344  -4.7012  -4.6701  -4.6666  -4.5994
    -4.5582  -4.5542  -4.4862  -4.4595  -3.3350  -3.2295  -3.1011  -3.0679
    -2.7791  -2.7563  -2.4234  -2.4011  -1.9654  -1.8541  -1.8292  -1.8118
    -1.6746  -1.5796  -1.5654  -1.5424  -0.9316  -0.8719  -0.8165  -0.8118
    -0.7166  -0.6114  -0.4945  -0.4774  -0.4599  -0.4115  -0.3954  -0.3390
    -0.2835  -0.2808  -0.2563  -0.2399  -0.1652  -0.1529  -0.1025  -0.1013
    -0.0807  -0.0311   0.0633   0.0775   0.1513   0.1661   0.1966   0.2957
     0.4385   0.4490   0.4668   0.5024   0.5946   0.6047   0.6513   0.6605
     0.6645   0.7087   0.7291   0.7622   0.7835   0.7888   0.8594   0.8665
     0.8858   0.9188   0.9243   0.9404   0.9538   0.9905   1.1330   1.1365
     1.1566   1.1764   1.2456   1.2694   1.2741   1.3922   1.4798   1.5291
     4.3584   4.4897   4.5587   4.5749   4.9047   4.9538   4.9891   5.0414
     5.1099   5.1571   5.2286   5.2633   5.9883   6.0545   6.1495   6.3612
     6.7874   6.8343   6.9750   7.0003   7.3980   7.4492   7.9058   7.9857
     8.0899   8.1658   8.4797   8.5090   8.5634   8.5684   8.6067   8.7986
     8.8850   8.9208   9.0895   9.0935   9.2213   9.2409   9.3689   9.3907
     9.4317   9.5068   9.5159   9.5370

          k = 0.0000-0.4926 0.0047 (131944 PWs)   bands (ev):

   -23.6787 -23.6770 -23.5775 -23.5744 -23.4822 -23.4805 -23.4660 -23.4642
   -22.2542 -22.2522 -22.2320 -22.2115 -19.2887 -19.1638 -19.1637 -19.1308
   -19.1256 -19.1019 -19.0986 -19.0345 -18.7301 -18.7228 -18.6145 -18.6094
   -18.5246 -18.5210 -18.5114 -18.5054 -17.5316 -17.4705 -17.4571 -17.4216
   -17.3979 -17.3322 -17.3216 -17.2825 -16.7942 -16.7899 -16.7377 -16.7265
   -14.5129 -14.5015 -14.4521 -14.4496 -14.3937 -14.3403 -14.3398 -14.3108
   -14.1213 -14.0739 -13.9872 -13.9408 -12.3689 -12.3359 -12.3227 -12.3002
   -12.2417 -12.2181 -12.1917 -12.1627 -11.2269 -11.2211 -11.1746 -11.1581
   -10.2578 -10.2505 -10.1910 -10.1844  -8.6394  -8.6222  -8.5619  -8.5500
    -8.1531  -8.0340  -8.0099  -7.9959  -7.9640  -7.9180  -7.8541  -7.7969
    -7.4669  -7.3905  -7.3413  -7.3334  -7.2688  -7.2593  -7.2557  -7.1526
    -6.9090  -6.8547  -6.8217  -6.7608  -6.7304  -6.6174  -6.6023  -6.4833
    -6.4145  -6.3130  -6.1920  -6.1798  -6.0864  -6.0065  -6.0033  -5.9271
    -5.8888  -5.8472  -5.8384  -5.7956  -5.7931  -5.7592  -5.7075  -5.6185
    -5.6155  -5.5437  -5.4819  -5.4076  -5.3187  -5.3185  -5.2913  -5.2244
    -5.2104  -5.1770  -5.1450  -5.1163  -5.0835  -5.0521  -5.0306  -5.0214
    -4.9979  -4.9470  -4.9419  -4.9110  -4.8992  -4.8601  -4.8431  -4.8393
    -4.8275  -4.8065  -4.7335  -4.7098  -4.6796  -4.6663  -4.6542  -4.6266
    -4.5979  -4.5507  -4.4753  -4.4577  -3.3335  -3.1757  -3.1495  -3.0433
    -2.8208  -2.7400  -2.4275  -2.3674  -1.9110  -1.8787  -1.8510  -1.8199
    -1.6656  -1.6168  -1.5650  -1.5298  -0.9028  -0.8840  -0.8275  -0.8147
    -0.6784  -0.5571  -0.5486  -0.4935  -0.4453  -0.4160  -0.4033  -0.3615
    -0.3521  -0.2921  -0.2701  -0.1827  -0.1664  -0.1534  -0.1298  -0.0965
    -0.0581  -0.0375   0.0501   0.0537   0.0720   0.1629   0.2111   0.3463
     0.4741   0.4839   0.5220   0.5358   0.5703   0.5913   0.6324   0.6491
     0.6674   0.6981   0.7553   0.7636   0.8237   0.8380   0.8392   0.8541
     0.8918   0.9215   0.9343   0.9386   0.9869   0.9915   1.0721   1.1335
     1.1468   1.1667   1.2009   1.2302   1.3115   1.3802   1.4751   1.5356
     4.3856   4.4468   4.5302   4.6005   4.9464   4.9465   4.9882   5.0034
     5.1277   5.1848   5.2138   5.2588   5.9880   6.0565   6.1423   6.3414
     6.7604   6.8730   6.9602   7.0246   7.3696   7.7717   7.8368   7.8874
     7.9954   8.2278   8.2985   8.3739   8.4801   8.6628   8.6991   8.8331
     8.9128   8.9269   9.0171   9.0447   9.0651   9.2119   9.2460   9.3325
     9.3800   9.5170   9.5603   9.7502

          k = 0.0000-0.4926-0.3929 (131922 PWs)   bands (ev):

   -23.6786 -23.6770 -23.5775 -23.5744 -23.4824 -23.4803 -23.4659 -23.4644
   -22.2540 -22.2523 -22.2321 -22.2115 -19.2904 -19.1829 -19.1578 -19.1291
   -19.1241 -19.1042 -19.0847 -19.0298 -18.7281 -18.7272 -18.6147 -18.6124
   -18.5253 -18.5204 -18.5094 -18.5063 -17.5308 -17.4713 -17.4574 -17.4220
   -17.3969 -17.3327 -17.3218 -17.2826 -16.7926 -16.7902 -16.7365 -16.7288
   -14.5111 -14.5013 -14.4490 -14.4490 -14.3951 -14.3417 -14.3389 -14.3130
   -14.1205 -14.0715 -13.9897 -13.9418 -12.3714 -12.3373 -12.3218 -12.3007
   -12.2404 -12.2190 -12.1989 -12.1644 -11.2148 -11.2123 -11.1863 -11.1484
   -10.2516 -10.2506 -10.1941 -10.1845  -8.6499  -8.6465  -8.5997  -8.5509
    -8.0921  -8.0685  -8.0156  -8.0046  -7.9531  -7.8780  -7.8359  -7.7880
    -7.4632  -7.4062  -7.3760  -7.3421  -7.2656  -7.2521  -7.2371  -7.1518
    -6.8616  -6.8304  -6.8042  -6.7928  -6.6972  -6.6944  -6.6128  -6.5203
    -6.4230  -6.3188  -6.1614  -6.1508  -6.0615  -6.0453  -6.0257  -5.9696
    -5.8975  -5.8660  -5.7921  -5.7707  -5.7500  -5.7221  -5.7013  -5.6471
    -5.5959  -5.5649  -5.4790  -5.4326  -5.3438  -5.2855  -5.2338  -5.2329
    -5.2131  -5.1921  -5.1912  -5.1535  -5.0764  -5.0546  -5.0470  -5.0299
    -5.0121  -4.9857  -4.9076  -4.9018  -4.8585  -4.8467  -4.8154  -4.8122
    -4.7934  -4.7873  -4.7509  -4.7257  -4.7197  -4.6813  -4.6812  -4.6152
    -4.6031  -4.5144  -4.4927  -4.4737  -3.3290  -3.1726  -3.1604  -3.0604
    -2.7707  -2.7632  -2.4136  -2.3787  -1.9103  -1.8734  -1.8611  -1.8166
    -1.6693  -1.6157  -1.5550  -1.5327  -0.9007  -0.8744  -0.8416  -0.8363
    -0.6896  -0.5661  -0.5131  -0.5051  -0.4462  -0.3925  -0.3764  -0.3728
    -0.3245  -0.3004  -0.2538  -0.2213  -0.1860  -0.1524  -0.0932  -0.0883
    -0.0766  -0.0563   0.0119   0.0459   0.0991   0.1818   0.2506   0.3178
     0.4208   0.4481   0.4854   0.5383   0.5580   0.6308   0.6595   0.6622
     0.7011   0.7060   0.7645   0.7705   0.7861   0.8290   0.8616   0.8763
     0.8974   0.9045   0.9216   0.9375   0.9531   1.0179   1.0906   1.1024
     1.1373   1.1679   1.2008   1.2698   1.2880   1.3875   1.4851   1.5355
     4.3935   4.4507   4.5264   4.5950   4.9544   4.9657   4.9767   5.0065
     5.0986   5.1804   5.2248   5.2564   5.9894   6.0548   6.1460   6.3462
     6.7576   6.8639   6.9527   7.0174   7.4478   7.5399   7.8019   7.9246
     8.0600   8.2658   8.3707   8.3790   8.6316   8.6562   8.7153   8.8118
     8.9280   8.9768   9.1106   9.1196   9.1876   9.2063   9.2674   9.2694
     9.3613   9.4110   9.4436   9.5505

          k =-0.5000 0.0014 0.0126 (131990 PWs)   bands (ev):

   -23.6801 -23.6755 -23.5793 -23.5726 -23.4823 -23.4800 -23.4664 -23.4642
   -22.2535 -22.2530 -22.2310 -22.2125 -19.2852 -19.1726 -19.1553 -19.1353
   -19.1277 -19.1076 -19.0907 -19.0346 -18.7273 -18.7249 -18.6136 -18.6076
   -18.5221 -18.5170 -18.5140 -18.5102 -17.5271 -17.4708 -17.4600 -17.4275
   -17.3938 -17.3278 -17.3239 -17.2836 -16.7934 -16.7928 -16.7357 -16.7295
   -14.5125 -14.4984 -14.4491 -14.4477 -14.3965 -14.3443 -14.3363 -14.3084
   -14.1233 -14.0743 -13.9891 -13.9408 -12.3725 -12.3345 -12.3190 -12.3037
   -12.2410 -12.2197 -12.1892 -12.1649 -11.2248 -11.2180 -11.1827 -11.1539
   -10.2573 -10.2494 -10.1919 -10.1849  -8.6359  -8.6274  -8.5723  -8.5443
    -8.1260  -8.1036  -8.0014  -7.9718  -7.9644  -7.9205  -7.8490  -7.8046
    -7.4396  -7.4035  -7.3526  -7.3171  -7.2761  -7.2499  -7.2394  -7.1688
    -6.8940  -6.8649  -6.8449  -6.7774  -6.6702  -6.6505  -6.5810  -6.5245
    -6.4667  -6.2715  -6.1157  -6.0940  -6.0916  -6.0549  -6.0332  -5.9852
    -5.9077  -5.8398  -5.7944  -5.7866  -5.7436  -5.7042  -5.6963  -5.6496
    -5.6250  -5.5678  -5.4826  -5.3862  -5.3443  -5.3400  -5.2687  -5.2375
    -5.2310  -5.2113  -5.1137  -5.1049  -5.0881  -5.0861  -5.0462  -5.0241
    -4.9998  -4.9658  -4.9550  -4.9128  -4.8792  -4.8690  -4.8535  -4.8304
    -4.7932  -4.7817  -4.7461  -4.7147  -4.6885  -4.6713  -4.6505  -4.6164
    -4.6126  -4.5391  -4.5153  -4.4581  -3.2940  -3.1554  -3.1245  -3.0726
    -2.7965  -2.7631  -2.4231  -2.4022  -1.9719  -1.8635  -1.8228  -1.8193
    -1.6369  -1.5824  -1.5739  -1.5405  -0.8887  -0.8518  -0.8331  -0.8313
    -0.7146  -0.5995  -0.4895  -0.4540  -0.4221  -0.3885  -0.3804  -0.3469
    -0.3310  -0.3240  -0.2830  -0.2205  -0.1850  -0.1584  -0.1521  -0.1307
    -0.0931  -0.0666   0.0455   0.0603   0.1082   0.1694   0.2265   0.3360
     0.4497   0.4747   0.5135   0.5394   0.5702   0.5830   0.6395   0.6729
     0.6804   0.7148   0.7447   0.7587   0.7862   0.7891   0.8142   0.8497
     0.8680   0.9167   0.9671   0.9687   0.9961   1.0244   1.0813   1.1197
     1.1601   1.1860   1.2238   1.2715   1.2821   1.3804   1.4746   1.5252
     4.3709   4.4990   4.5467   4.5645   4.8688   5.0136   5.0274   5.0474
     5.0943   5.1586   5.1900   5.2096   5.9658   6.0540   6.1580   6.3859
     6.7853   6.8643   6.9753   7.0135   7.5698   7.6236   7.9367   7.9913
     8.0295   8.0875   8.1761   8.2825   8.4423   8.5889   8.7130   8.7721
     8.8765   8.9755   8.9961   9.0370   9.1397   9.1923   9.2283   9.3211
     9.3498   9.4247   9.6007   9.6825

          k =-0.5000 0.0014-0.3850 (131986 PWs)   bands (ev):

   -23.6801 -23.6755 -23.5792 -23.5726 -23.4825 -23.4797 -23.4667 -23.4641
   -22.2534 -22.2529 -22.2311 -22.2125 -19.2893 -19.1775 -19.1649 -19.1299
   -19.1248 -19.0949 -19.0937 -19.0292 -18.7296 -18.7248 -18.6147 -18.6111
   -18.5217 -18.5163 -18.5148 -18.5085 -17.5271 -17.4710 -17.4603 -17.4255
   -17.3960 -17.3279 -17.3245 -17.2838 -16.7941 -16.7913 -16.7351 -16.7296
   -14.5108 -14.4990 -14.4491 -14.4480 -14.3976 -14.3437 -14.3391 -14.3105
   -14.1189 -14.0713 -13.9898 -13.9405 -12.3737 -12.3343 -12.3213 -12.3062
   -12.2390 -12.2198 -12.1969 -12.1690 -11.2135 -11.2108 -11.1797 -11.1537
   -10.2552 -10.2471 -10.1932 -10.1855  -8.6583  -8.6339  -8.5861  -8.5726
    -8.1240  -8.0817  -8.0023  -7.9829  -7.9337  -7.8943  -7.8196  -7.8099
    -7.4412  -7.4334  -7.3641  -7.3205  -7.2671  -7.2605  -7.2255  -7.1541
    -6.9140  -6.8658  -6.8373  -6.7470  -6.7265  -6.6186  -6.5981  -6.5175
    -6.4562  -6.2700  -6.1927  -6.1468  -6.0394  -6.0262  -5.9907  -5.9766
    -5.9320  -5.8054  -5.7919  -5.7826  -5.7439  -5.7167  -5.6856  -5.6543
    -5.5961  -5.5337  -5.4674  -5.4092  -5.3649  -5.3354  -5.2885  -5.2450
    -5.2306  -5.2115  -5.1691  -5.1360  -5.1166  -5.0664  -5.0639  -5.0151
    -5.0081  -4.9568  -4.9361  -4.8971  -4.8829  -4.8664  -4.8326  -4.8046
    -4.7973  -4.7841  -4.7405  -4.7103  -4.7015  -4.6768  -4.6650  -4.6246
    -4.5994  -4.5505  -4.4745  -4.4712  -3.2977  -3.1623  -3.1426  -3.0533
    -2.8064  -2.7513  -2.4262  -2.3945  -1.9715  -1.8615  -1.8253  -1.8158
    -1.6364  -1.5753  -1.5628  -1.5495  -0.9024  -0.8469  -0.8304  -0.8055
    -0.7209  -0.5906  -0.4926  -0.4791  -0.4592  -0.4309  -0.3970  -0.3504
    -0.3196  -0.3033  -0.2949  -0.2408  -0.1586  -0.1406  -0.1393  -0.1197
    -0.0532  -0.0498   0.0425   0.1093   0.1116   0.1871   0.2243   0.2843
     0.4184   0.4364   0.4666   0.5175   0.5615   0.6029   0.6613   0.6763
     0.6938   0.7267   0.7410   0.7699   0.7728   0.8210   0.8292   0.8353
     0.8943   0.9310   0.9404   0.9579   0.9998   1.0063   1.1018   1.1134
     1.1610   1.1663   1.2335   1.2368   1.3149   1.3918   1.4793   1.5252
     4.3741   4.4961   4.5516   4.5651   4.8776   5.0152   5.0175   5.0326
     5.1072   5.1673   5.1808   5.2089   5.9689   6.0571   6.1529   6.3811
     6.7852   6.8577   6.9712   7.0086   7.5953   7.6098   7.6914   7.7913
     8.2406   8.2446   8.2723   8.4738   8.5933   8.6310   8.6407   8.7738
     8.8202   8.8220   9.0958   9.1592   9.1631   9.1738   9.1842   9.2878
     9.3371   9.3722   9.4900   9.6062

          k =-0.5000-0.4913 0.0173 (132022 PWs)   bands (ev):

   -23.6786 -23.6770 -23.5775 -23.5744 -23.4820 -23.4803 -23.4660 -23.4646
   -22.2541 -22.2524 -22.2320 -22.2115 -19.2857 -19.1725 -19.1566 -19.1378
   -19.1256 -19.1012 -19.0963 -19.0335 -18.7338 -18.7186 -18.6154 -18.6061
   -18.5228 -18.5160 -18.5134 -18.5096 -17.5273 -17.4731 -17.4573 -17.4278
   -17.3938 -17.3316 -17.3216 -17.2838 -16.7949 -16.7913 -16.7379 -16.7266
   -14.5116 -14.4999 -14.4511 -14.4487 -14.3945 -14.3404 -14.3381 -14.3120
   -14.1216 -14.0742 -13.9865 -13.9408 -12.3709 -12.3366 -12.3189 -12.3040
   -12.2444 -12.2185 -12.1891 -12.1657 -11.2183 -11.2176 -11.1849 -11.1569
   -10.2539 -10.2527 -10.1928 -10.1835  -8.6321  -8.6280  -8.5730  -8.5410
    -8.1146  -8.0943  -8.0026  -7.9855  -7.9639  -7.9202  -7.8394  -7.8075
    -7.4456  -7.4088  -7.3923  -7.3272  -7.2917  -7.2437  -7.2411  -7.1618
    -6.8838  -6.8327  -6.7818  -6.7790  -6.7619  -6.6674  -6.5600  -6.5040
    -6.3664  -6.3437  -6.1961  -6.0783  -6.0654  -6.0591  -6.0231  -5.9499
    -5.8658  -5.8197  -5.7986  -5.7785  -5.7477  -5.7064  -5.6953  -5.6280
    -5.6224  -5.5804  -5.4913  -5.4140  -5.3715  -5.3461  -5.3059  -5.2406
    -5.2148  -5.2054  -5.1783  -5.1555  -5.0819  -5.0782  -5.0723  -5.0117
    -4.9859  -4.9713  -4.9196  -4.9064  -4.8875  -4.8704  -4.8565  -4.8265
    -4.8054  -4.7582  -4.7557  -4.7198  -4.7003  -4.6802  -4.6661  -4.5902
    -4.5380  -4.5256  -4.4943  -4.4934  -3.2900  -3.1895  -3.1231  -3.0364
    -2.7949  -2.7582  -2.4230  -2.4121  -1.8804  -1.8767  -1.8502  -1.8271
    -1.6446  -1.6063  -1.5538  -1.5409  -0.8674  -0.8632  -0.8371  -0.8228
    -0.6687  -0.5827  -0.5144  -0.4979  -0.4507  -0.4340  -0.4209  -0.3932
    -0.3366  -0.3144  -0.2799  -0.2115  -0.1903  -0.1385  -0.1237  -0.0989
    -0.0968  -0.0213   0.0473   0.0483   0.0902   0.1584   0.2034   0.3354
     0.4427   0.4773   0.5345   0.5466   0.5561   0.6049   0.6294   0.6790
     0.7156   0.7310   0.7352   0.7582   0.8002   0.8259   0.8408   0.8688
     0.8784   0.9242   0.9280   0.9798   1.0027   1.0214   1.0706   1.1304
     1.1329   1.1499   1.1870   1.2681   1.2790   1.3734   1.4726   1.5287
     4.4078   4.4639   4.5205   4.5739   4.9415   4.9646   5.0087   5.0415
     5.1156   5.1674   5.1750   5.2140   5.9582   6.0535   6.1552   6.3794
     6.7723   6.8771   6.9469   7.0306   7.4882   7.6594   7.9703   8.0113
     8.1760   8.2710   8.2777   8.3003   8.3638   8.4075   8.5993   8.7323
     8.7798   8.9046   8.9920   9.0903   9.1772   9.2076   9.3767   9.3952
     9.3974   9.5516   9.6271   9.6694

          k =-0.5000-0.4913-0.3803 (132020 PWs)   bands (ev):

   -23.6786 -23.6769 -23.5775 -23.5744 -23.4823 -23.4800 -23.4662 -23.4645
   -22.2541 -22.2523 -22.2321 -22.2115 -19.2877 -19.1820 -19.1643 -19.1321
   -19.1228 -19.0966 -19.0905 -19.0288 -18.7314 -18.7231 -18.6160 -18.6089
   -18.5194 -18.5170 -18.5142 -18.5100 -17.5271 -17.4741 -17.4573 -17.4252
   -17.3955 -17.3322 -17.3216 -17.2837 -16.7935 -16.7919 -16.7366 -16.7286
   -14.5089 -14.5008 -14.4499 -14.4472 -14.3957 -14.3406 -14.3388 -14.3125
   -14.1205 -14.0714 -13.9897 -13.9418 -12.3735 -12.3374 -12.3200 -12.3038
   -12.2426 -12.2188 -12.1965 -12.1678 -11.2164 -11.2080 -11.1869 -11.1469
   -10.2514 -10.2504 -10.1933 -10.1848  -8.6511  -8.6405  -8.6058  -8.5536
    -8.0947  -8.0598  -8.0217  -8.0048  -7.9550  -7.8791  -7.8201  -7.7985
    -7.4750  -7.4113  -7.3502  -7.3446  -7.2895  -7.2585  -7.2325  -7.1519
    -6.9350  -6.8426  -6.7893  -6.7525  -6.7037  -6.6610  -6.5928  -6.5305
    -6.3760  -6.3542  -6.1520  -6.0840  -6.0583  -6.0390  -6.0294  -5.9694
    -5.9426  -5.7937  -5.7825  -5.7708  -5.7407  -5.6992  -5.6818  -5.6417
    -5.6126  -5.5608  -5.4642  -5.4105  -5.3942  -5.3523  -5.3225  -5.2753
    -5.2241  -5.2024  -5.1481  -5.1300  -5.1266  -5.0981  -5.0967  -5.0264
    -4.9824  -4.9403  -4.8989  -4.8805  -4.8803  -4.8483  -4.8482  -4.7934
    -4.7857  -4.7782  -4.7640  -4.7243  -4.7116  -4.6746  -4.6718  -4.6417
    -4.5538  -4.5253  -4.4911  -4.4833  -3.2949  -3.1677  -3.1444  -3.0604
    -2.7704  -2.7424  -2.4290  -2.4119  -1.8814  -1.8685  -1.8593  -1.8212
    -1.6545  -1.6174  -1.5439  -1.5240  -0.8823  -0.8550  -0.8546  -0.8339
    -0.6733  -0.5507  -0.5030  -0.4948  -0.4451  -0.4388  -0.4180  -0.3882
    -0.3415  -0.3164  -0.2948  -0.2307  -0.1434  -0.1339  -0.1280  -0.0973
    -0.0810  -0.0531   0.0081   0.0172   0.1227   0.1902   0.2561   0.3063
     0.4102   0.4366   0.4770   0.5525   0.5551   0.5954   0.6601   0.6805
     0.7190   0.7537   0.7594   0.7789   0.7987   0.8179   0.8710   0.8722
     0.8949   0.9118   0.9334   0.9400   0.9978   1.0079   1.0831   1.1317
     1.1432   1.1504   1.1948   1.2018   1.3186   1.3837   1.4797   1.5271
     4.4107   4.4628   4.5218   4.5770   4.9391   4.9859   5.0075   5.0264
     5.1046   5.1767   5.1795   5.2024   5.9555   6.0527   6.1555   6.3905
     6.7637   6.8776   6.9419   7.0278   7.4407   7.6069   7.9097   8.0715
     8.0878   8.2714   8.2947   8.4263   8.5146   8.5216   8.5890   8.7018
     8.8748   8.9415   9.0440   9.0705   9.1786   9.2617   9.2803   9.3135
     9.3182   9.4405   9.5001   9.5931

     highest occupied, lowest unoccupied level (ev):     1.5356    4.3518

!    total energy              =   -2404.73802103 Ry
     Harris-Foulkes estimate   =   -2404.73802104 Ry
     estimated scf accuracy    <          6.6E-09 Ry

     total all-electron energy =     -9066.994984 Ry

     The total energy is the sum of the following terms:

     one-electron contribution =   -1266.71448547 Ry
     hartree contribution      =     816.16072008 Ry
     xc contribution           =    -481.39321013 Ry
     ewald contribution        =    -809.69195024 Ry
     Dispersion Correction     =      -0.58644220 Ry
     one-center paw contrib.   =    -662.51265307 Ry

     convergence has been achieved in  14 iterations

     Forces acting on atoms (cartesian axes, Ry/au):

     atom    1 type  4   force =     0.00008564    0.00007666   -0.00006248
     atom    2 type  4   force =    -0.00008564   -0.00007666    0.00006248
     atom    3 type  4   force =    -0.00035127   -0.00026859    0.00013085
     atom    4 type  4   force =     0.00035127    0.00026859   -0.00013085
     atom    5 type  4   force =     0.00060249    0.00046338   -0.00016176
     atom    6 type  4   force =    -0.00060249   -0.00046338    0.00016176
     atom    7 type  2   force =    -0.00082073   -0.00029483   -0.00047541
     atom    8 type  2   force =     0.00082073    0.00029483    0.00047541
     atom    9 type  2   force =    -0.00012802   -0.00015257   -0.00007731
     atom   10 type  2   force =     0.00012802    0.00015257    0.00007731
     atom   11 type  4   force =    -0.00055875   -0.00068775    0.00017932
     atom   12 type  4   force =     0.00055875    0.00068775   -0.00017932
     atom   13 type  2   force =    -0.00011537    0.00024235    0.00039003
     atom   14 type  2   force =     0.00011537   -0.00024235   -0.00039003
     atom   15 type  2   force =     0.00056270   -0.00031709   -0.00057787
     atom   16 type  2   force =    -0.00056270    0.00031709    0.00057787
     atom   17 type  2   force =    -0.00039823    0.00064152    0.00034820
     atom   18 type  2   force =     0.00039823   -0.00064152   -0.00034820
     atom   19 type  2   force =     0.00007049   -0.00002470    0.00022412
     atom   20 type  2   force =    -0.00007049    0.00002470   -0.00022412
     atom   21 type  2   force =     0.00045459    0.00046746    0.00050479
     atom   22 type  2   force =    -0.00045459   -0.00046746   -0.00050479
     atom   23 type  1   force =     0.00066714    0.00056155    0.00046925
     atom   24 type  1   force =    -0.00066714   -0.00056155   -0.00046925
     atom   25 type  1   force =    -0.00059941   -0.00026193   -0.00019070
     atom   26 type  1   force =     0.00059941    0.00026193    0.00019070
     atom   27 type  3   force =     0.00003033    0.00000080   -0.00049507
     atom   28 type  3   force =    -0.00003033   -0.00000080    0.00049507
     atom   29 type  3   force =     0.00075073   -0.00027150   -0.00016791
     atom   30 type  3   force =    -0.00075073    0.00027150    0.00016791
     atom   31 type  4   force =     0.00021318    0.00041621    0.00006248
     atom   32 type  4   force =    -0.00021318   -0.00041621   -0.00006248
     atom   33 type  4   force =     0.00055276   -0.00002686    0.00002375
     atom   34 type  4   force =    -0.00055276    0.00002686   -0.00002375
     atom   35 type  4   force =     0.00008491    0.00015108   -0.00067852
     atom   36 type  4   force =    -0.00008491   -0.00015108    0.00067852
     atom   37 type  4   force =     0.00016217   -0.00037230   -0.00025792
     atom   38 type  4   force =    -0.00016217    0.00037230    0.00025792
     atom   39 type  2   force =     0.00027164    0.00023430    0.00013668
     atom   40 type  2   force =    -0.00027164   -0.00023430   -0.00013668
     atom   41 type  2   force =    -0.00029900   -0.00067954    0.00000195
     atom   42 type  2   force =     0.00029900    0.00067954   -0.00000195
     atom   43 type  2   force =    -0.00007650    0.00005145    0.00044829
     atom   44 type  2   force =     0.00007650   -0.00005145   -0.00044829
     atom   45 type  2   force =    -0.00005217   -0.00030165    0.00021757
     atom   46 type  2   force =     0.00005217    0.00030165   -0.00021757
     atom   47 type  2   force =    -0.00038356    0.00000730    0.00006726
     atom   48 type  2   force =     0.00038356   -0.00000730   -0.00006726
     atom   49 type  2   force =    -0.00044075   -0.00031450    0.00047224
     atom   50 type  2   force =     0.00044075    0.00031450   -0.00047224
     atom   51 type  2   force =     0.00042001    0.00022628   -0.00024522
     atom   52 type  2   force =    -0.00042001   -0.00022628    0.00024522
     atom   53 type  1   force =    -0.00012792   -0.00039608   -0.00049743
     atom   54 type  1   force =     0.00012792    0.00039608    0.00049743
     atom   55 type  1   force =     0.00001898    0.00049239    0.00049759
     atom   56 type  1   force =    -0.00001898   -0.00049239   -0.00049759
     atom   57 type  3   force =    -0.00018293   -0.00066216   -0.00007360
     atom   58 type  3   force =     0.00018293    0.00066216    0.00007360
     atom   59 type  3   force =    -0.00003104   -0.00028669   -0.00032272
     atom   60 type  3   force =     0.00003104    0.00028669    0.00032272
     atom   61 type  2   force =    -0.00054416    0.00033280    0.00061909
     atom   62 type  2   force =     0.00054416   -0.00033280   -0.00061909
     atom   63 type  2   force =    -0.00089565    0.00039719   -0.00023656
     atom   64 type  2   force =     0.00089565   -0.00039719    0.00023656
     atom   65 type  2   force =     0.00054852    0.00092308    0.00029570
     atom   66 type  2   force =    -0.00054852   -0.00092308   -0.00029570
     atom   67 type  2   force =     0.00043692   -0.00012168    0.00101670
     atom   68 type  2   force =    -0.00043692    0.00012168   -0.00101670
     atom   69 type  2   force =    -0.00049600    0.00020353   -0.00044881
     atom   70 type  2   force =     0.00049600   -0.00020353    0.00044881
     atom   71 type  2   force =    -0.00056060    0.00028748    0.00009116
     atom   72 type  2   force =     0.00056060   -0.00028748   -0.00009116
     atom   73 type  1   force =    -0.00051941   -0.00055364   -0.00064898
     atom   74 type  1   force =     0.00051941    0.00055364    0.00064898
     atom   75 type  3   force =     0.00040004   -0.00016115   -0.00014298
     atom   76 type  3   force =    -0.00040004    0.00016115    0.00014298
     atom   77 type  3   force =     0.00088555   -0.00039623   -0.00012713
     atom   78 type  3   force =    -0.00088555    0.00039623    0.00012713
     atom   79 type  3   force =     0.00023231    0.00036494    0.00016974
     atom   80 type  3   force =    -0.00023231   -0.00036494   -0.00016974
     atom   81 type  3   force =    -0.00030985   -0.00038328   -0.00019719
     atom   82 type  3   force =     0.00030985    0.00038328    0.00019719
     atom   83 type  3   force =    -0.00011234   -0.00030354   -0.00068673
     atom   84 type  3   force =     0.00011234    0.00030354    0.00068673
     atom   85 type  3   force =     0.00036096    0.00026571    0.00023840
     atom   86 type  3   force =    -0.00036096   -0.00026571   -0.00023840
     atom   87 type  3   force =     0.00031530   -0.00012260   -0.00007289
     atom   88 type  3   force =    -0.00031530    0.00012260    0.00007289
     atom   89 type  3   force =     0.00043630   -0.00022829   -0.00024563
     atom   90 type  3   force =    -0.00043630    0.00022829    0.00024563
     atom   91 type  3   force =     0.00015647   -0.00025138   -0.00050393
     atom   92 type  3   force =    -0.00015647    0.00025138    0.00050393
     atom   93 type  2   force =     0.00034550    0.00024326   -0.00023740
     atom   94 type  2   force =    -0.00034550   -0.00024326    0.00023740
     atom   95 type  2   force =    -0.00051026    0.00022187   -0.00040665
     atom   96 type  2   force =     0.00051026   -0.00022187    0.00040665
     atom   97 type  2   force =    -0.00054451    0.00040075    0.00019217
     atom   98 type  2   force =     0.00054451   -0.00040075   -0.00019217
     atom   99 type  2   force =     0.00051205    0.00014196    0.00036987
     atom  100 type  2   force =    -0.00051205   -0.00014196   -0.00036987
     atom  101 type  2   force =     0.00012761    0.00009879    0.00011141
     atom  102 type  2   force =    -0.00012761   -0.00009879   -0.00011141
     atom  103 type  2   force =    -0.00051540   -0.00010252    0.00018371
     atom  104 type  2   force =     0.00051540    0.00010252   -0.00018371
     atom  105 type  1   force =    -0.00106290   -0.00067284   -0.00032015
     atom  106 type  1   force =     0.00106290    0.00067284    0.00032015
     atom  107 type  3   force =     0.00014297    0.00030775   -0.00030230
     atom  108 type  3   force =    -0.00014297   -0.00030775    0.00030230
     atom  109 type  3   force =     0.00026188    0.00028142    0.00031590
     atom  110 type  3   force =    -0.00026188   -0.00028142   -0.00031590
     atom  111 type  3   force =    -0.00036435   -0.00043133   -0.00043247
     atom  112 type  3   force =     0.00036435    0.00043133    0.00043247
     atom  113 type  3   force =     0.00016743    0.00016610   -0.00054313
     atom  114 type  3   force =    -0.00016743   -0.00016610    0.00054313
     atom  115 type  3   force =    -0.00028335    0.00055639    0.00058190
     atom  116 type  3   force =     0.00028335   -0.00055639   -0.00058190
     atom  117 type  3   force =     0.00027286   -0.00073991    0.00007824
     atom  118 type  3   force =    -0.00027286    0.00073991   -0.00007824
     atom  119 type  3   force =    -0.00000047   -0.00023623   -0.00037822
     atom  120 type  3   force =     0.00000047    0.00023623    0.00037822
     atom  121 type  3   force =    -0.00046640   -0.00050238    0.00034646
     atom  122 type  3   force =     0.00046640    0.00050238   -0.00034646
     atom  123 type  3   force =    -0.00005860    0.00005710   -0.00025726
     atom  124 type  3   force =     0.00005860   -0.00005710    0.00025726

     Total force =     0.007602     Total SCF correction =     0.000165


     Computing stress (Cartesian axis) and pressure

          total   stress  (Ry/bohr**3)                   (kbar)     P=   -1.61
  -0.00002021  -0.00001483  -0.00000107         -2.97     -2.18     -0.16
  -0.00001483  -0.00001101  -0.00000066         -2.18     -1.62     -0.10
  -0.00000107  -0.00000066  -0.00000172         -0.16     -0.10     -0.25


     Writing output data file scf.save
 
     init_run     :     67.46s CPU     70.50s WALL (       1 calls)
     electrons    :   2056.71s CPU   2150.36s WALL (       1 calls)
     forces       :     33.50s CPU     33.87s WALL (       1 calls)
     stress       :    277.12s CPU    277.60s WALL (       1 calls)

     Called by init_run:
     wfcinit      :     53.41s CPU     56.29s WALL (       1 calls)
     potinit      :      4.95s CPU      4.98s WALL (       1 calls)

     Called by electrons:
     c_bands      :   1849.61s CPU   1930.53s WALL (      14 calls)
     sum_band     :    192.38s CPU    203.63s WALL (      14 calls)
     v_of_rho     :      2.04s CPU      2.26s WALL (      15 calls)
     newd         :      5.29s CPU      6.56s WALL (      15 calls)
     PAW_pot      :      6.80s CPU      6.81s WALL (      15 calls)
     mix_rho      :      0.52s CPU      0.57s WALL (      14 calls)

     Called by c_bands:
     init_us_2    :     12.94s CPU     13.00s WALL (     248 calls)
     cegterg      :   1803.25s CPU   1883.91s WALL (     112 calls)

     Called by sum_band:
     sum_band:bec :      0.13s CPU      0.14s WALL (     112 calls)
     addusdens    :      5.62s CPU      6.84s WALL (      14 calls)

     Called by *egterg:
     h_psi        :    966.23s CPU   1029.87s WALL (     664 calls)
     s_psi        :    203.02s CPU    203.06s WALL (     664 calls)
     g_psi        :      5.74s CPU      5.74s WALL (     544 calls)
     cdiaghg      :    149.90s CPU    149.98s WALL (     656 calls)

     Called by h_psi:
     h_psi:pot    :    958.50s CPU   1021.99s WALL (     664 calls)
     h_psi:calbec :    198.04s CPU    198.55s WALL (     664 calls)
     vloc_psi     :    556.97s CPU    619.88s WALL (     664 calls)
     add_vuspsi   :    203.50s CPU    203.55s WALL (     664 calls)

     General routines
     calbec       :    301.43s CPU    302.25s WALL (     816 calls)
     fft          :      2.99s CPU      3.36s WALL (     219 calls)
     fftw         :    598.69s CPU    670.01s WALL (  192976 calls)
 
     Parallel routines
     fft_scatter  :    117.10s CPU    182.80s WALL (  193195 calls)
 
     PWSCF        : 40m51.23s CPU    43m30.25s WALL

 
   This run was terminated on:  19: 7:48  20Dec2017            

=------------------------------------------------------------------------------=
   JOB DONE.
=------------------------------------------------------------------------------=
