
     Program PWSCF v.6.1 (svn rev. 13369) starts on 13Nov2017 at 12:24: 3 

     This program is part of the open-source Quantum ESPRESSO suite
     for quantum simulation of materials; please cite
         "P. Giannozzi et al., J. Phys.:Condens. Matter 21 395502 (2009);
          URL http://www.quantum-espresso.org", 
     in publications or presentations arising from this work. More details at
     http://www.quantum-espresso.org/quote

     Parallel version (MPI), running on     8 processors
     R & G space division:  proc/nbgrp/npool/nimage =       8
     Waiting for input...
     Reading input from standard input

     Current dimensions of program PWSCF are:
     Max number of different atomic species (ntypx) = 10
     Max number of k-points (npk) =  40000
     Max angular momentum in pseudopotentials (lmaxx) =  3
               file C.pbe-n-kjpaw_psl.0.1.UPF: wavefunction(s)  2P renormalized
               file N.pbe-n-kjpaw_psl.0.1.UPF: wavefunction(s)  2P renormalized
               file H.pbe-kjpaw_psl.0.1.UPF: wavefunction(s)  1S renormalized
               file O.pbe-n-kjpaw_psl.0.1.UPF: wavefunction(s)  2P renormalized

     -------------------------------------
     Parameters for Dispersion Correction:
     -------------------------------------
       atom      VdW radius       C_6     

        C          2.744         60.710
        N          2.640         42.670
        H          1.892          4.857
        O          2.536         24.284

     Subspace diagonalization in iterative solution of the eigenvalue problem:
     a serial algorithm will be used

 
     Parallelization info
     --------------------
     sticks:   dense  smooth     PW     G-vecs:    dense   smooth      PW
     Min        2351    2351    624               193656   193656   26493
     Max        2352    2352    625               193659   193659   26494
     Sum       18811   18811   4999              1549253  1549253  211951
 


     bravais-lattice index     =            0
     lattice parameter (alat)  =      18.8425  a.u.
     unit-cell volume          =   11468.9689 (a.u.)^3
     number of atoms/cell      =          160
     number of atomic types    =            4
     number of electrons       =       480.00
     number of Kohn-Sham states=          288
     kinetic-energy cutoff     =     100.0000  Ry
     charge density cutoff     =     400.0000  Ry
     convergence threshold     =      1.0E-08
     mixing beta               =       0.5000
     number of iterations used =            8  plain     mixing
     Exchange-correlation      =  SLA  PW   PBX  PBC ( 1  4  3  4 0 0)

     celldm(1)=  18.842459  celldm(2)=   0.000000  celldm(3)=   0.000000
     celldm(4)=   0.000000  celldm(5)=   0.000000  celldm(6)=   0.000000

     crystal axes: (cart. coord. in units of alat)
               a(1) = (   1.000000   0.000000   0.000000 )  
               a(2) = (   0.000000   1.667335   0.000000 )  
               a(3) = (  -0.455647   0.000000   1.028226 )  

     reciprocal axes: (cart. coord. in units 2 pi/alat)
               b(1) = (  1.000000  0.000000  0.443139 )  
               b(2) = (  0.000000  0.599759  0.000000 )  
               b(3) = (  0.000000  0.000000  0.972549 )  


     PseudoPot. # 1 for  C read from file:
     /scratch/ahofstet/pseudo/C.pbe-n-kjpaw_psl.0.1.UPF
     MD5 check sum: 430fe95172b1e11ef3f8ed03bac87931
     Pseudo is Projector augmented-wave + core cor, Zval =  4.0
     Generated using "atomic" code by A. Dal Corso  v.5.0.99 svn rev. 10869
     Shape of augmentation charge: BESSEL
     Using radial grid of 1073 points,  4 beta functions with: 
                l(1) =   0
                l(2) =   0
                l(3) =   1
                l(4) =   1
     Q(r) pseudized with 0 coefficients 


     PseudoPot. # 2 for  N read from file:
     /scratch/ahofstet/pseudo/N.pbe-n-kjpaw_psl.0.1.UPF
     MD5 check sum: f73187c8b701007e77325f868c9291d7
     Pseudo is Projector augmented-wave + core cor, Zval =  5.0
     Generated using "atomic" code by A. Dal Corso  v.5.0.99 svn rev. 10869
     Shape of augmentation charge: PSQ
     Using radial grid of 1085 points,  4 beta functions with: 
                l(1) =   0
                l(2) =   0
                l(3) =   1
                l(4) =   1
     Q(r) pseudized with 0 coefficients 


     PseudoPot. # 3 for  H read from file:
     /scratch/ahofstet/pseudo/H.pbe-kjpaw_psl.0.1.UPF
     MD5 check sum: 94e484f906d9e9773b2f6e52662335b2
     Pseudo is Projector augmented-wave, Zval =  1.0
     Generated using "atomic" code by A. Dal Corso  v.5.0.99 svn rev. 10869
     Shape of augmentation charge: PSQ
     Using radial grid of  929 points,  2 beta functions with: 
                l(1) =   0
                l(2) =   0
     Q(r) pseudized with 0 coefficients 


     PseudoPot. # 4 for  O read from file:
     /scratch/ahofstet/pseudo/O.pbe-n-kjpaw_psl.0.1.UPF
     MD5 check sum: 3f94a2996a3169367d6eb21d9b593f20
     Pseudo is Projector augmented-wave + core cor, Zval =  6.0
     Generated using "atomic" code by A. Dal Corso  v.5.0.99 svn rev. 10869
     Shape of augmentation charge: BESSEL
     Using radial grid of 1095 points,  4 beta functions with: 
                l(1) =   0
                l(2) =   0
                l(3) =   1
                l(4) =   1
     Q(r) pseudized with 0 coefficients 


     atomic species   valence    mass     pseudopotential
        C              4.00    12.01070      C( 1.00)
        N              5.00    14.00670      N( 1.00)
        H              1.00     1.00794      H( 1.00)
        O              6.00    15.99940      O( 1.00)

      2 Sym. Ops., with inversion, found
          (note:  2 additional sym.ops. were found but ignored
           their fractional translations are incommensurate with FFT grid)


   Cartesian axes

     site n.     atom                  positions (alat units)
         1           C   tau(   1) = (   0.1797049   0.7472851   0.3193732  )
         2           C   tau(   2) = (   0.0924716   1.5809528   0.1947399  )
         3           C   tau(   3) = (   0.3646480   0.9200501   0.7088530  )
         4           C   tau(   4) = (   0.4518813   0.0863825   0.8334864  )
         5           C   tau(   5) = (   0.1246227   0.7753406   0.1970695  )
         6           C   tau(   6) = (   0.1475537   1.6090083   0.3170436  )
         7           C   tau(   7) = (   0.4197301   0.8919946   0.8311567  )
         8           C   tau(   8) = (   0.3967991   0.0583270   0.7111826  )
         9           C   tau(   9) = (   0.2231368   0.8501259   0.1235275  )
        10           C   tau(  10) = (   0.0490396   0.0164583   0.3905857  )
        11           C   tau(  11) = (   0.3212161   0.8172094   0.9046988  )
        12           C   tau(  12) = (   0.4953132   1.6508770   0.6376406  )
        13           C   tau(  13) = (   0.3320209   0.8632140   0.2057996  )
        14           C   tau(  14) = (  -0.0598445   0.0295463   0.3083136  )
        15           C   tau(  15) = (   0.2123319   0.8041213   0.8224267  )
        16           C   tau(  16) = (   0.6041974   1.6377890   0.7199127  )
        17           C   tau(  17) = (   0.4669110   0.9269886   0.1911249  )
        18           C   tau(  18) = (   0.8052654   0.0933209   0.3229883  )
        19           C   tau(  19) = (   0.0774418   0.7403467   0.8371014  )
        20           C   tau(  20) = (  -0.2609125   1.5740144   0.7052380  )
        21           C   tau(  21) = (   0.5799764   0.8332233   0.2198611  )
        22           C   tau(  22) = (   0.6922000   1.6668909   0.2942520  )
        23           C   tau(  23) = (  -0.0356236   0.8341120   0.8083652  )
        24           C   tau(  24) = (  -0.1478472   0.0004443   0.7339742  )
        25           C   tau(  25) = (   0.6818519   0.8346183   0.3112486  )
        26           C   tau(  26) = (   0.5903245   1.6682860   0.2028645  )
        27           C   tau(  27) = (  -0.1374990   0.8327169   0.7169777  )
        28           C   tau(  28) = (  -0.0459717  -0.0009507   0.8253617  )
        29           C   tau(  29) = (   0.7563810   0.7135088   0.2910725  )
        30           C   tau(  30) = (   0.5157954   1.5471764   0.2230406  )
        31           C   tau(  31) = (  -0.2120282   0.9538265   0.7371537  )
        32           C   tau(  32) = (   0.0285574   0.1201588   0.8051856  )
        33           C   tau(  33) = (   0.6953471   0.6453981   0.1890939  )
        34           C   tau(  34) = (   0.5768293   1.4790657   0.3250192  )
        35           C   tau(  35) = (  -0.1509943   1.0219372   0.8391323  )
        36           C   tau(  36) = (  -0.0324764   0.1882696   0.7032070  )
        37           C   tau(  37) = (   0.7212708   0.5135524   0.1223360  )
        38           C   tau(  38) = (   0.5509056   1.3472201   0.3917771  )
        39           C   tau(  39) = (  -0.1769180   1.1537828   0.9058902  )
        40           C   tau(  40) = (  -0.0065528   0.3201152   0.6364491  )
        41           C   tau(  41) = (   0.6029211   0.4218044   0.1250816  )
        42           C   tau(  42) = (   0.6692554   1.2554721   0.3890315  )
        43           C   tau(  43) = (  -0.0585682   1.2455308   0.9031446  )
        44           C   tau(  44) = (  -0.1249025   0.4118632   0.6391947  )
        45           C   tau(  45) = (   0.5181877   0.3758018   0.0277670  )
        46           C   tau(  46) = (   0.7539887   1.2094695   0.4863462  )
        47           C   tau(  47) = (   0.0261652   1.2915334   1.0004593  )
        48           C   tau(  48) = (  -0.2096359   0.4578658   0.5418801  )
        49           C   tau(  49) = (   0.4145918   0.3019139   0.0944933  )
        50           C   tau(  50) = (  -0.1424153   1.1355816   0.4196198  )
        51           C   tau(  51) = (   0.1297611   1.3654214   0.9337330  )
        52           C   tau(  52) = (   0.6867682   0.5317537   0.6086064  )
        53           C   tau(  53) = (   0.4426885   0.3075349   0.2283929  )
        54           C   tau(  54) = (   0.8294879   1.1412026   0.2857203  )
        55           C   tau(  55) = (   0.1016643   1.3598003   0.7998334  )
        56           C   tau(  56) = (  -0.2851350   0.5261327   0.7425060  )
        57           C   tau(  57) = (   0.3720747   0.2566774   0.3503827  )
        58           C   tau(  58) = (   0.9001018   1.0903450   0.1637304  )
        59           C   tau(  59) = (   0.1722782   1.4106579   0.6778435  )
        60           C   tau(  60) = (  -0.3557489   0.5769903   0.8644959  )
        61           C   tau(  61) = (   0.3274453   0.3675606   0.4408336  )
        62           C   tau(  62) = (   0.9447311   1.2012282   0.0732795  )
        63           C   tau(  63) = (   0.2169075   1.2997747   0.5873926  )
        64           C   tau(  64) = (  -0.4003782   0.4661070   0.9549467  )
        65           C   tau(  65) = (   0.3623116   0.4064905   0.5674149  )
        66           C   tau(  66) = (   0.4542177   1.2401581   0.9749244  )
        67           C   tau(  67) = (   0.1820412   1.2608448   0.4608113  )
        68           C   tau(  68) = (   0.0901352   0.4271772   0.0533018  )
        69           C   tau(  69) = (   0.2939445   0.5305540   0.5925621  )
        70           C   tau(  70) = (   0.5225847   1.3642216   0.9497773  )
        71           C   tau(  71) = (   0.2504083   1.1367813   0.4356642  )
        72           C   tau(  72) = (   0.0217681   0.3031136   0.0784489  )
        73           C   tau(  73) = (   0.2211157   0.5588670   0.4799520  )
        74           C   tau(  74) = (   0.0510607   1.3925346   0.0341611  )
        75           C   tau(  75) = (   0.3232371   1.1084683   0.5482742  )
        76           C   tau(  76) = (   0.4932921   0.2748007   0.9940651  )
        77           C   tau(  77) = (   0.1319187   0.6722397   0.4400677  )
        78           C   tau(  78) = (   0.1402577   1.5059073   0.0740454  )
        79           C   tau(  79) = (   0.4124342   0.9950956   0.5881586  )
        80           C   tau(  80) = (   0.4040951   0.1614280   0.9541808  )
        81           O   tau(  81) = (   0.3064884   0.8007480   0.3260740  )
        82           O   tau(  82) = (  -0.0343120   1.6344156   0.1880392  )
        83           O   tau(  83) = (   0.2378644   0.8665873   0.7021523  )
        84           O   tau(  84) = (   0.5786648   0.0329197   0.8401871  )
        85           O   tau(  85) = (   0.5867320   0.7178482   0.1444815  )
        86           O   tau(  86) = (   0.6854445   1.5515159   0.3696317  )
        87           O   tau(  87) = (  -0.0423791   0.9494870   0.8837448  )
        88           O   tau(  88) = (  -0.1410916   0.1158194   0.6585946  )
        89           O   tau(  89) = (   0.5583713   0.3801756   0.2487884  )
        90           O   tau(  90) = (   0.7138051   1.2138432   0.2653247  )
        91           O   tau(  91) = (  -0.0140184   1.2871597   0.7794378  )
        92           O   tau(  92) = (  -0.1694523   0.4534921   0.7629016  )
        93           O   tau(  93) = (   0.2399351   0.4595733   0.3863353  )
        94           O   tau(  94) = (   0.0322414   1.2932410   0.1277778  )
        95           O   tau(  95) = (   0.3044178   1.2077619   0.6418910  )
        96           O   tau(  96) = (   0.5121115   0.3740943   0.9004484  )
        97           H   tau(  97) = (   0.0256127   0.7449673   0.1633655  )
        98           H   tau(  98) = (   0.2465637   1.5786350   0.3507476  )
        99           H   tau(  99) = (   0.5187401   0.9223679   0.8648607  )
       100           H   tau( 100) = (   0.2977892   0.0887003   0.6774786  )
       101           H   tau( 101) = (   0.2153643   0.8873819   0.0214996  )
       102           H   tau( 102) = (   0.0568121   0.0537142   0.4926135  )
       103           H   tau( 103) = (   0.3289886   0.7799534   1.0067267  )
       104           H   tau( 104) = (   0.4875407   1.6136210   0.5356127  )
       105           H   tau( 105) = (   0.4776250   1.0123044   0.2607641  )
       106           H   tau( 106) = (   0.7945514   0.1786368   0.2533490  )
       107           H   tau( 107) = (   0.0667278   0.6550308   0.7674621  )
       108           H   tau( 108) = (  -0.2501986   1.4886985   0.7748772  )
       109           H   tau( 109) = (   0.4740161   0.9672822   0.0886092  )
       110           H   tau( 110) = (   0.7981603   0.1336145   0.4255039  )
       111           H   tau( 111) = (   0.0703367   0.7000531   0.9396170  )
       112           H   tau( 112) = (  -0.2538075   1.5337207   0.6027223  )
       113           H   tau( 113) = (   0.7024938   0.9135717   0.3832981  )
       114           H   tau( 114) = (   0.5696826   0.0799041   0.1308150  )
       115           H   tau( 115) = (  -0.1581410   0.7537636   0.6449281  )
       116           H   tau( 116) = (  -0.0253298   1.5874312   0.8974112  )
       117           H   tau( 117) = (   0.8427953   0.6796510   0.3475570  )
       118           H   tau( 118) = (   0.4293811   1.5133186   0.1665561  )
       119           H   tau( 119) = (  -0.2984424   0.9876843   0.6806693  )
       120           H   tau( 120) = (   0.1149717   0.1540167   0.8616701  )
       121           H   tau( 121) = (   0.8090178   0.4676895   0.1712229  )
       122           H   tau( 122) = (   0.4631586   1.3013571   0.3428903  )
       123           H   tau( 123) = (  -0.2646649   1.1996458   0.8570034  )
       124           H   tau( 124) = (   0.0811942   0.3659781   0.6853360  )
       125           H   tau( 125) = (   0.7497921   0.5277278   0.0163693  )
       126           H   tau( 126) = (   0.5223843   1.3613954   0.4977438  )
       127           H   tau( 127) = (  -0.2054393   1.1396075   1.0118570  )
       128           H   tau( 128) = (   0.0219686   0.3059398   0.5304824  )
       129           H   tau( 129) = (   0.0701244   0.3959654   0.9493436  )
       130           H   tau( 130) = (   0.7464049   1.2296331   0.5929957  )
       131           H   tau( 131) = (   0.4742284   1.2713698   0.0788826  )
       132           H   tau( 132) = (  -0.2020520   0.4377022   0.4352305  )
       133           H   tau( 133) = (   0.3289509   0.2527506   0.0487318  )
       134           H   tau( 134) = (  -0.0567744   1.0864183   0.4653813  )
       135           H   tau( 135) = (   0.2154020   1.4145846   0.9794945  )
       136           H   tau( 136) = (   0.6011273   0.5809170   0.5628449  )
       137           H   tau( 137) = (   0.2863358   0.1959700   0.3160027  )
       138           H   tau( 138) = (  -0.0141594   1.0296376   0.1981104  )
       139           H   tau( 139) = (   0.2580170   1.4713653   0.7122235  )
       140           H   tau( 140) = (   0.5585122   0.6376977   0.8301159  )
       141           H   tau( 141) = (   0.4378017   0.1897835   0.4088204  )
       142           H   tau( 142) = (   0.8343747   1.0234512   0.1052927  )
       143           H   tau( 143) = (   0.1065511   1.4775518   0.6194058  )
       144           H   tau( 144) = (  -0.2900219   0.6438841   0.9229335  )
       145           H   tau( 145) = (   0.4311741   0.3548934   0.6340652  )
       146           H   tau( 146) = (   0.3853552   1.1885611   0.9082742  )
       147           H   tau( 147) = (   0.1131788   1.3124418   0.3941611  )
       148           H   tau( 148) = (   0.1589977   0.4787742   0.1199520  )
       149           H   tau( 149) = (   0.3001804   0.5925036   0.6819843  )
       150           H   tau( 150) = (   0.5163488   1.4261712   0.8603550  )
       151           H   tau( 151) = (   0.2441724   1.0748317   0.3462419  )
       152           H   tau( 152) = (   0.0280040   0.2411641   0.1678712  )
       153           H   tau( 153) = (   0.1234978   0.7402690   0.5265410  )
       154           H   tau( 154) = (   0.1486786   1.5739366  -0.0124278  )
       155           H   tau( 155) = (   0.4208550   0.9270663   0.5016853  )
       156           H   tau( 156) = (   0.3956742   0.0933987   1.0406541  )
       157           H   tau( 157) = (   0.0306291   0.6343384   0.4180061  )
       158           H   tau( 158) = (   0.2415474   1.4680061   0.0961070  )
       159           H   tau( 159) = (   0.5137238   1.0329968   0.6102201  )
       160           H   tau( 160) = (   0.3028055   0.1993292   0.9321192  )

     number of k points=     8
                       cart. coord. in units 2pi/alat
        k(    1) = (   0.0000000   0.0000000   0.0000000), wk =   0.2500000
        k(    2) = (   0.0000000   0.0000000  -0.4862743), wk =   0.2500000
        k(    3) = (   0.0000000  -0.2998797   0.0000000), wk =   0.2500000
        k(    4) = (   0.0000000  -0.2998797  -0.4862743), wk =   0.2500000
        k(    5) = (  -0.5000000   0.0000000  -0.2215695), wk =   0.2500000
        k(    6) = (  -0.5000000   0.0000000  -0.7078438), wk =   0.2500000
        k(    7) = (  -0.5000000  -0.2998797  -0.2215695), wk =   0.2500000
        k(    8) = (  -0.5000000  -0.2998797  -0.7078438), wk =   0.2500000

     Dense  grid:  1549253 G-vectors     FFT dimensions: ( 120, 216, 135)

     Estimated max dynamical RAM per process >    2300.69MB

     Estimated total allocated dynamical RAM >   18405.54MB

     Check: negative/imaginary core charge=   -0.000002    0.000000

     Initial potential from superposition of free atoms

     starting charge  479.99604, renormalised to  480.00000
     Starting wfc are  448 randomized atomic wfcs
     Checking if some PAW data can be deallocated... 

     total cpu time spent up to now is      187.8 secs

     per-process dynamical memory:  1489.3 Mb

     Self-consistent Calculation

     iteration #  1     ecut=   100.00 Ry     beta=0.50
     Davidson diagonalization with overlap
     ethr =  1.00E-02,  avg # of iterations =  4.0

     total cpu time spent up to now is      766.4 secs

     total energy              =   -2214.13227665 Ry
     Harris-Foulkes estimate   =   -2223.11648164 Ry
     estimated scf accuracy    <      16.91511273 Ry

     iteration #  2     ecut=   100.00 Ry     beta=0.50
     Davidson diagonalization with overlap
     ethr =  3.52E-03,  avg # of iterations =  2.0

     total cpu time spent up to now is     1041.8 secs

     total energy              =   -2213.95482024 Ry
     Harris-Foulkes estimate   =   -2215.45756381 Ry
     estimated scf accuracy    <       2.68487939 Ry

     iteration #  3     ecut=   100.00 Ry     beta=0.50
     Davidson diagonalization with overlap
     ethr =  5.59E-04,  avg # of iterations =  5.0

     total cpu time spent up to now is     1733.0 secs

     total energy              =   -2216.61885494 Ry
     Harris-Foulkes estimate   =   -2217.90437885 Ry
     estimated scf accuracy    <       3.44256125 Ry

     iteration #  4     ecut=   100.00 Ry     beta=0.50
     Davidson diagonalization with overlap
     ethr =  5.59E-04,  avg # of iterations =  1.0

     total cpu time spent up to now is     2001.2 secs

     total energy              =   -2215.93498604 Ry
     Harris-Foulkes estimate   =   -2216.77410876 Ry
     estimated scf accuracy    <       1.18760104 Ry

     iteration #  5     ecut=   100.00 Ry     beta=0.50
     Davidson diagonalization with overlap
     ethr =  2.47E-04,  avg # of iterations =  5.0

     total cpu time spent up to now is     2654.6 secs

     total energy              =   -2216.80656613 Ry
     Harris-Foulkes estimate   =   -2217.28878174 Ry
     estimated scf accuracy    <       1.43050536 Ry

     iteration #  6     ecut=   100.00 Ry     beta=0.50
     Davidson diagonalization with overlap
     ethr =  2.47E-04,  avg # of iterations =  1.0

     total cpu time spent up to now is     2922.5 secs

     total energy              =   -2216.45492884 Ry
     Harris-Foulkes estimate   =   -2216.83693993 Ry
     estimated scf accuracy    <       0.62284947 Ry

     iteration #  7     ecut=   100.00 Ry     beta=0.50
     Davidson diagonalization with overlap
     ethr =  1.30E-04,  avg # of iterations =  5.8

     total cpu time spent up to now is     3489.3 secs

     total energy              =   -2216.77435249 Ry
     Harris-Foulkes estimate   =   -2216.82391255 Ry
     estimated scf accuracy    <       0.14196652 Ry

     iteration #  8     ecut=   100.00 Ry     beta=0.50
     Davidson diagonalization with overlap
     ethr =  2.96E-05,  avg # of iterations =  1.5

     total cpu time spent up to now is     3759.1 secs

     total energy              =   -2216.74380086 Ry
     Harris-Foulkes estimate   =   -2216.77816969 Ry
     estimated scf accuracy    <       0.05985901 Ry

     iteration #  9     ecut=   100.00 Ry     beta=0.50
     Davidson diagonalization with overlap
     ethr =  1.25E-05,  avg # of iterations =  6.8

     total cpu time spent up to now is     4334.3 secs

     total energy              =   -2216.77563726 Ry
     Harris-Foulkes estimate   =   -2216.78036439 Ry
     estimated scf accuracy    <       0.01222360 Ry

     iteration # 10     ecut=   100.00 Ry     beta=0.50
     Davidson diagonalization with overlap
     ethr =  2.55E-06,  avg # of iterations =  1.6

     total cpu time spent up to now is     4604.9 secs

     total energy              =   -2216.77380995 Ry
     Harris-Foulkes estimate   =   -2216.77608784 Ry
     estimated scf accuracy    <       0.00431744 Ry

     iteration # 11     ecut=   100.00 Ry     beta=0.50
     Davidson diagonalization with overlap
     ethr =  8.99E-07,  avg # of iterations =  5.0

     total cpu time spent up to now is     5104.1 secs

     total energy              =   -2216.77631477 Ry
     Harris-Foulkes estimate   =   -2216.77652961 Ry
     estimated scf accuracy    <       0.00062844 Ry

     iteration # 12     ecut=   100.00 Ry     beta=0.50
     Davidson diagonalization with overlap
     ethr =  1.31E-07,  avg # of iterations =  2.0

     total cpu time spent up to now is     5378.6 secs

     total energy              =   -2216.77621414 Ry
     Harris-Foulkes estimate   =   -2216.77634358 Ry
     estimated scf accuracy    <       0.00027313 Ry

     iteration # 13     ecut=   100.00 Ry     beta=0.50
     Davidson diagonalization with overlap
     ethr =  5.69E-08,  avg # of iterations =  3.2

     total cpu time spent up to now is     5833.5 secs

     total energy              =   -2216.77633403 Ry
     Harris-Foulkes estimate   =   -2216.77633697 Ry
     estimated scf accuracy    <       0.00001460 Ry

     iteration # 14     ecut=   100.00 Ry     beta=0.50
     Davidson diagonalization with overlap
     ethr =  3.04E-09,  avg # of iterations =  3.9

     total cpu time spent up to now is     6200.3 secs

     total energy              =   -2216.77633425 Ry
     Harris-Foulkes estimate   =   -2216.77633842 Ry
     estimated scf accuracy    <       0.00001020 Ry

     iteration # 15     ecut=   100.00 Ry     beta=0.50
     Davidson diagonalization with overlap
     ethr =  2.12E-09,  avg # of iterations =  2.0

     total cpu time spent up to now is     6477.1 secs

     total energy              =   -2216.77633309 Ry
     Harris-Foulkes estimate   =   -2216.77633498 Ry
     estimated scf accuracy    <       0.00000302 Ry

     iteration # 16     ecut=   100.00 Ry     beta=0.50
     Davidson diagonalization with overlap
     ethr =  6.29E-10,  avg # of iterations =  4.0

     total cpu time spent up to now is     7035.1 secs

     total energy              =   -2216.77633535 Ry
     Harris-Foulkes estimate   =   -2216.77633610 Ry
     estimated scf accuracy    <       0.00000194 Ry

     iteration # 17     ecut=   100.00 Ry     beta=0.50
     Davidson diagonalization with overlap
     ethr =  4.04E-10,  avg # of iterations =  1.0

     total cpu time spent up to now is     7301.7 secs

     total energy              =   -2216.77633484 Ry
     Harris-Foulkes estimate   =   -2216.77633541 Ry
     estimated scf accuracy    <       0.00000076 Ry

     iteration # 18     ecut=   100.00 Ry     beta=0.50
     Davidson diagonalization with overlap
     ethr =  1.59E-10,  avg # of iterations =  4.0

     total cpu time spent up to now is     7862.8 secs

     total energy              =   -2216.77633541 Ry
     Harris-Foulkes estimate   =   -2216.77633600 Ry
     estimated scf accuracy    <       0.00000186 Ry

     iteration # 19     ecut=   100.00 Ry     beta=0.50
     Davidson diagonalization with overlap
     ethr =  1.59E-10,  avg # of iterations =  1.0

     total cpu time spent up to now is     8129.8 secs

     total energy              =   -2216.77633502 Ry
     Harris-Foulkes estimate   =   -2216.77633545 Ry
     estimated scf accuracy    <       0.00000082 Ry

     iteration # 20     ecut=   100.00 Ry     beta=0.50
     Davidson diagonalization with overlap
     ethr =  1.59E-10,  avg # of iterations =  4.0

     total cpu time spent up to now is     8602.4 secs

     total energy              =   -2216.77633543 Ry
     Harris-Foulkes estimate   =   -2216.77633547 Ry
     estimated scf accuracy    <       0.00000014 Ry

     iteration # 21     ecut=   100.00 Ry     beta=0.50
     Davidson diagonalization with overlap
     ethr =  2.83E-11,  avg # of iterations =  1.0

     total cpu time spent up to now is     8869.0 secs

     total energy              =   -2216.77633539 Ry
     Harris-Foulkes estimate   =   -2216.77633544 Ry
     estimated scf accuracy    <       0.00000007 Ry

     iteration # 22     ecut=   100.00 Ry     beta=0.50
     Davidson diagonalization with overlap
     ethr =  1.49E-11,  avg # of iterations =  3.4

     total cpu time spent up to now is     9320.6 secs

     End of self-consistent calculation

          k = 0.0000 0.0000 0.0000 (193547 PWs)   bands (ev):

   -21.8950 -21.8940 -21.8832 -21.8831 -21.8034 -21.8028 -21.8005 -21.7997
   -21.7331 -21.7321 -21.7304 -21.7301 -21.6507 -21.6506 -21.6503 -21.6495
   -14.6616 -14.6547 -14.6340 -14.6191 -14.1933 -14.1759 -14.1742 -14.1642
   -14.1584 -14.1526 -14.1328 -14.1197 -13.9460 -13.9003 -13.8914 -13.8703
   -13.8479 -13.8356 -13.8354 -13.8045 -13.7147 -13.6983 -13.6830 -13.6799
   -13.6759 -13.6678 -13.6570 -13.6346 -12.8108 -12.7812 -12.7702 -12.7604
   -12.2600 -12.2293 -12.2270 -12.2190 -10.7950 -10.7948 -10.7829 -10.7807
   -10.7591 -10.7548 -10.7493 -10.7301  -9.6306  -9.6228  -9.6193  -9.5940
    -9.0112  -8.9903  -8.9847  -8.9733  -8.9632  -8.9512  -8.9464  -8.9265
    -8.8674  -8.8520  -8.8251  -8.7995  -8.7496  -8.7388  -8.7370  -8.7160
    -7.9523  -7.9413  -7.8778  -7.8544  -7.6373  -7.6124  -7.5176  -7.5147
    -7.5082  -7.4890  -7.4812  -7.4689  -7.4382  -7.3775  -7.2146  -7.2105
    -7.0353  -7.0258  -7.0086  -6.9064  -6.4956  -6.4783  -6.4778  -6.4432
    -6.4337  -6.4231  -6.4060  -6.3930  -6.2264  -6.1782  -6.1509  -6.0457
    -5.6022  -5.5428  -5.4404  -5.4299  -5.3731  -5.3597  -5.2959  -5.2958
    -5.2778  -5.2583  -5.2184  -5.2074  -5.1528  -5.1508  -5.1195  -5.1042
    -4.9193  -4.8743  -4.8464  -4.8387  -4.8343  -4.8171  -4.7543  -4.7151
    -4.7119  -4.6687  -4.6674  -4.6146  -4.2852  -4.2517  -4.2461  -4.2119
    -4.1779  -4.1510  -4.1472  -4.1237  -4.0954  -4.0474  -4.0450  -4.0359
    -4.0170  -3.9867  -3.9845  -3.9625  -3.9596  -3.9502  -3.9067  -3.9021
    -3.8828  -3.8758  -3.8056  -3.7750  -3.7565  -3.7053  -3.6893  -3.6753
    -3.5282  -3.5091  -3.4796  -3.4669  -3.4599  -3.4546  -3.4445  -3.4379
    -3.3875  -3.3748  -3.3316  -3.3186  -3.3133  -3.3077  -3.2790  -3.2446
    -3.2367  -3.2190  -3.2109  -3.1860  -3.1756  -3.1275  -3.1038  -3.0773
    -3.0584  -2.9855  -2.9774  -2.8772  -2.8484  -2.8253  -2.7994  -2.7048
    -2.6852  -2.6515  -2.6233  -2.5854  -2.4935  -2.4454  -2.4112  -2.3751
    -0.9833  -0.9776  -0.9601  -0.9566  -0.9386  -0.9195  -0.9193  -0.9082
    -0.8320  -0.8212  -0.8000  -0.7826  -0.7030  -0.6959  -0.6757  -0.6701
     0.3022   0.3611   0.3684   0.4581   0.5497   0.5628   0.5854   0.5922
     0.6285   0.6292   0.6708   0.6709   0.8588   0.9363   0.9475   0.9964
     4.7381   4.7396   4.8100   4.8741   4.9121   5.0332   5.0391   5.0670
     5.0900   5.1319   5.1345   5.1376   5.3251   5.3605   5.3884   5.4220
     5.5238   5.7844   5.9158   6.0207   6.1459   6.1693   6.1970   6.2346
     6.3515   6.3697   6.3786   6.4639   6.4917   6.5381   6.5865   6.5894
     6.6757   6.7008   6.7144   6.7528   6.8744   6.9586   6.9612   6.9860
     6.9919   7.0953   7.1296   7.1845   7.1871   7.2183   7.2947   7.3305

          k = 0.0000 0.0000-0.4863 (193612 PWs)   bands (ev):

   -21.8894 -21.8894 -21.8887 -21.8887 -21.8030 -21.8030 -21.7998 -21.7998
   -21.7321 -21.7321 -21.7307 -21.7307 -21.6507 -21.6507 -21.6499 -21.6499
   -14.6481 -14.6481 -14.6371 -14.6371 -14.1842 -14.1842 -14.1728 -14.1728
   -14.1578 -14.1578 -14.1205 -14.1205 -13.9300 -13.9300 -13.8794 -13.8794
   -13.8303 -13.8303 -13.8250 -13.8250 -13.6948 -13.6948 -13.6838 -13.6838
   -13.6725 -13.6725 -13.6555 -13.6555 -12.7858 -12.7858 -12.7757 -12.7757
   -12.2436 -12.2436 -12.2243 -12.2243 -10.7875 -10.7875 -10.7762 -10.7762
   -10.7601 -10.7601 -10.7490 -10.7490  -9.6218  -9.6218  -9.6120  -9.6120
    -9.0057  -9.0057  -8.9722  -8.9722  -8.9589  -8.9589  -8.9438  -8.9438
    -8.8550  -8.8550  -8.8272  -8.8272  -8.7336  -8.7336  -8.7212  -8.7212
    -7.9137  -7.9137  -7.8994  -7.8994  -7.5754  -7.5754  -7.5569  -7.5569
    -7.4653  -7.4653  -7.4450  -7.4450  -7.3610  -7.3610  -7.3504  -7.3504
    -7.0131  -7.0131  -6.9644  -6.9644  -6.5066  -6.5066  -6.4666  -6.4666
    -6.4151  -6.4151  -6.3832  -6.3832  -6.1944  -6.1944  -6.1146  -6.1146
    -5.4986  -5.4986  -5.4304  -5.4304  -5.3814  -5.3814  -5.3438  -5.3438
    -5.2869  -5.2869  -5.1998  -5.1998  -5.1402  -5.1402  -5.1205  -5.1205
    -4.9311  -4.9311  -4.8936  -4.8936  -4.7840  -4.7840  -4.7291  -4.7291
    -4.6711  -4.6711  -4.6478  -4.6478  -4.2755  -4.2755  -4.2414  -4.2414
    -4.1597  -4.1597  -4.1022  -4.1022  -4.0725  -4.0725  -4.0497  -4.0497
    -4.0189  -4.0189  -3.9502  -3.9502  -3.9465  -3.9465  -3.8918  -3.8918
    -3.8779  -3.8779  -3.8370  -3.8370  -3.7284  -3.7284  -3.6775  -3.6775
    -3.5116  -3.5116  -3.4924  -3.4924  -3.4439  -3.4439  -3.4200  -3.4200
    -3.3660  -3.3660  -3.3163  -3.3163  -3.2976  -3.2976  -3.2554  -3.2554
    -3.2104  -3.2104  -3.1768  -3.1768  -3.1360  -3.1360  -3.0676  -3.0676
    -3.0308  -3.0308  -2.9954  -2.9954  -2.7968  -2.7968  -2.7944  -2.7944
    -2.6552  -2.6552  -2.6395  -2.6395  -2.4416  -2.4416  -2.4353  -2.4353
    -0.9903  -0.9903  -0.9581  -0.9581  -0.9197  -0.9196  -0.8941  -0.8941
    -0.8311  -0.8311  -0.8095  -0.8095  -0.6940  -0.6940  -0.6730  -0.6730
     0.3284   0.3284   0.4133   0.4133   0.5674   0.5674   0.5737   0.5737
     0.6412   0.6412   0.6539   0.6539   0.8994   0.8994   0.9751   0.9751
     4.8042   4.8042   4.8358   4.8358   4.9639   4.9639   5.0211   5.0211
     5.0864   5.0864   5.1727   5.1727   5.3255   5.3255   5.4005   5.4005
     5.7943   5.7943   5.8715   5.8715   6.1976   6.1976   6.2412   6.2412
     6.3345   6.3346   6.3423   6.3423   6.4516   6.4516   6.5222   6.5222
     6.6491   6.6491   6.8967   6.8967   6.9199   6.9199   6.9624   6.9624
     7.0153   7.0153   7.0978   7.0978   7.1542   7.1542   7.2989   7.2990

          k = 0.0000-0.2999 0.0000 (193728 PWs)   bands (ev):

   -21.8945 -21.8945 -21.8831 -21.8831 -21.8031 -21.8031 -21.8001 -21.8001
   -21.7326 -21.7326 -21.7302 -21.7302 -21.6506 -21.6506 -21.6500 -21.6500
   -14.6591 -14.6591 -14.6256 -14.6256 -14.1876 -14.1876 -14.1595 -14.1595
   -14.1523 -14.1523 -14.1392 -14.1392 -13.9221 -13.9221 -13.8704 -13.8704
   -13.8570 -13.8570 -13.8117 -13.8117 -13.7098 -13.7098 -13.6835 -13.6835
   -13.6700 -13.6700 -13.6439 -13.6439 -12.7984 -12.7984 -12.7626 -12.7626
   -12.2461 -12.2461 -12.2217 -12.2217 -10.7904 -10.7904 -10.7834 -10.7834
   -10.7606 -10.7606 -10.7390 -10.7390  -9.6293  -9.6293  -9.6040  -9.6040
    -9.0019  -9.0019  -8.9687  -8.9687  -8.9648  -8.9648  -8.9406  -8.9406
    -8.8600  -8.8600  -8.8105  -8.8105  -8.7448  -8.7448  -8.7249  -8.7249
    -7.9485  -7.9485  -7.8638  -7.8638  -7.6261  -7.6261  -7.5137  -7.5137
    -7.4987  -7.4987  -7.4888  -7.4888  -7.3945  -7.3945  -7.2140  -7.2140
    -7.0384  -7.0384  -6.9512  -6.9512  -6.4882  -6.4882  -6.4646  -6.4646
    -6.4242  -6.4242  -6.3979  -6.3979  -6.2038  -6.2038  -6.0980  -6.0980
    -5.5724  -5.5724  -5.4254  -5.4254  -5.3577  -5.3577  -5.3286  -5.3286
    -5.2477  -5.2477  -5.1824  -5.1824  -5.1594  -5.1594  -5.1288  -5.1288
    -4.9271  -4.9271  -4.8581  -4.8581  -4.8278  -4.8278  -4.7247  -4.7247
    -4.6825  -4.6825  -4.6224  -4.6224  -4.2784  -4.2784  -4.2256  -4.2256
    -4.1575  -4.1575  -4.1353  -4.1353  -4.0555  -4.0555  -4.0337  -4.0337
    -4.0093  -4.0093  -3.9787  -3.9787  -3.9428  -3.9428  -3.9062  -3.9062
    -3.8725  -3.8725  -3.8117  -3.8117  -3.7267  -3.7267  -3.6971  -3.6971
    -3.5217  -3.5217  -3.4707  -3.4707  -3.4558  -3.4558  -3.4367  -3.4367
    -3.3882  -3.3882  -3.3295  -3.3295  -3.2929  -3.2929  -3.2737  -3.2737
    -3.2347  -3.2347  -3.1736  -3.1736  -3.1663  -3.1663  -3.1091  -3.1091
    -2.9823  -2.9823  -2.9602  -2.9602  -2.8183  -2.8183  -2.7678  -2.7678
    -2.6502  -2.6502  -2.6134  -2.6134  -2.4712  -2.4712  -2.3883  -2.3883
    -0.9856  -0.9856  -0.9475  -0.9475  -0.9332  -0.9332  -0.9135  -0.9135
    -0.8369  -0.8369  -0.7813  -0.7813  -0.6992  -0.6992  -0.6744  -0.6744
     0.3314   0.3314   0.4036   0.4036   0.5679   0.5679   0.6027   0.6027
     0.6245   0.6245   0.6505   0.6505   0.9095   0.9095   0.9690   0.9690
     4.7590   4.7590   4.8041   4.8041   4.9923   4.9923   5.0349   5.0349
     5.1226   5.1226   5.1504   5.1504   5.3086   5.3086   5.4303   5.4303
     5.6308   5.6308   5.9824   5.9824   6.1252   6.1252   6.2395   6.2395
     6.3715   6.3715   6.4250   6.4250   6.5204   6.5204   6.5391   6.5391
     6.7123   6.7123   6.7721   6.7721   6.8764   6.8764   7.0245   7.0245
     7.0949   7.0949   7.1340   7.1340   7.2187   7.2187   7.2746   7.2746

          k = 0.0000-0.2999-0.4863 (193624 PWs)   bands (ev):

   -21.8892 -21.8892 -21.8889 -21.8889 -21.8029 -21.8029 -21.7999 -21.7999
   -21.7320 -21.7320 -21.7308 -21.7308 -21.6505 -21.6505 -21.6501 -21.6501
   -14.6482 -14.6482 -14.6370 -14.6370 -14.1843 -14.1843 -14.1721 -14.1721
   -14.1471 -14.1471 -14.1354 -14.1354 -13.9061 -13.9061 -13.9009 -13.9009
   -13.8305 -13.8305 -13.8235 -13.8235 -13.6929 -13.6929 -13.6887 -13.6887
   -13.6635 -13.6635 -13.6616 -13.6616 -12.7835 -12.7835 -12.7778 -12.7778
   -12.2353 -12.2353 -12.2328 -12.2328 -10.7812 -10.7812 -10.7786 -10.7786
   -10.7571 -10.7571 -10.7559 -10.7559  -9.6190  -9.6190  -9.6147  -9.6147
    -9.0012  -9.0012  -8.9739  -8.9739  -8.9550  -8.9550  -8.9522  -8.9522
    -8.8540  -8.8540  -8.8273  -8.8273  -8.7290  -8.7290  -8.7250  -8.7250
    -7.9100  -7.9100  -7.9033  -7.9033  -7.5689  -7.5689  -7.5646  -7.5646
    -7.4649  -7.4649  -7.4448  -7.4448  -7.3569  -7.3569  -7.3537  -7.3537
    -6.9915  -6.9915  -6.9874  -6.9874  -6.5061  -6.5061  -6.4687  -6.4687
    -6.4047  -6.4047  -6.3915  -6.3915  -6.1601  -6.1601  -6.1494  -6.1494
    -5.4885  -5.4885  -5.4399  -5.4399  -5.3794  -5.3794  -5.3635  -5.3635
    -5.2252  -5.2252  -5.2116  -5.2116  -5.1457  -5.1457  -5.1372  -5.1372
    -4.9444  -4.9444  -4.9362  -4.9362  -4.7411  -4.7411  -4.7093  -4.7093
    -4.6734  -4.6734  -4.6595  -4.6595  -4.2780  -4.2780  -4.2472  -4.2472
    -4.1465  -4.1465  -4.1137  -4.1137  -4.0767  -4.0767  -4.0628  -4.0628
    -3.9794  -3.9794  -3.9617  -3.9617  -3.9323  -3.9323  -3.9027  -3.9027
    -3.8874  -3.8874  -3.8282  -3.8282  -3.7097  -3.7097  -3.7029  -3.7029
    -3.5033  -3.5033  -3.5001  -3.5001  -3.4418  -3.4418  -3.4214  -3.4214
    -3.3623  -3.3623  -3.3384  -3.3384  -3.3006  -3.3006  -3.2501  -3.2501
    -3.1955  -3.1955  -3.1780  -3.1780  -3.1304  -3.1304  -3.0751  -3.0751
    -3.0313  -3.0313  -2.9928  -2.9928  -2.7969  -2.7969  -2.7964  -2.7964
    -2.6560  -2.6560  -2.6381  -2.6381  -2.4404  -2.4404  -2.4360  -2.4360
    -0.9906  -0.9906  -0.9574  -0.9574  -0.9162  -0.9162  -0.8987  -0.8987
    -0.8350  -0.8350  -0.8042  -0.8042  -0.6933  -0.6933  -0.6742  -0.6742
     0.3484   0.3484   0.3839   0.3839   0.5851   0.5851   0.5962   0.5962
     0.6162   0.6162   0.6395   0.6395   0.9372   0.9372   0.9459   0.9459
     4.8234   4.8235   4.8286   4.8286   4.9380   4.9380   5.0187   5.0187
     5.1147   5.1147   5.1544   5.1544   5.3300   5.3300   5.4116   5.4116
     5.8291   5.8291   5.8508   5.8508   6.1009   6.1009   6.2006   6.2006
     6.3499   6.3499   6.4247   6.4247   6.4959   6.4959   6.5105   6.5105
     6.6814   6.6814   6.7596   6.7596   6.9572   6.9572   6.9867   6.9867
     7.0748   7.0748   7.1314   7.1314   7.2198   7.2199   7.2941   7.2941

          k =-0.5000 0.0000-0.2216 (193688 PWs)   bands (ev):

   -21.8944 -21.8944 -21.8830 -21.8830 -21.8032 -21.8032 -21.8002 -21.8002
   -21.7317 -21.7317 -21.7311 -21.7311 -21.6507 -21.6507 -21.6499 -21.6499
   -14.6540 -14.6540 -14.6214 -14.6214 -14.2056 -14.2056 -14.1810 -14.1810
   -14.1517 -14.1517 -14.1340 -14.1340 -13.8929 -13.8929 -13.8814 -13.8814
   -13.8488 -13.8488 -13.8190 -13.8190 -13.7010 -13.7010 -13.6744 -13.6744
   -13.6652 -13.6652 -13.6520 -13.6520 -12.8008 -12.8008 -12.7701 -12.7701
   -12.2548 -12.2548 -12.2266 -12.2266 -10.7860 -10.7860 -10.7641 -10.7641
   -10.7525 -10.7525 -10.7321 -10.7321  -9.6438  -9.6438  -9.6160  -9.6160
    -9.0392  -9.0392  -9.0318  -9.0318  -8.9376  -8.9376  -8.8717  -8.8717
    -8.8609  -8.8609  -8.8287  -8.8287  -8.7393  -8.7393  -8.7129  -8.7129
    -7.9140  -7.9140  -7.8826  -7.8826  -7.5490  -7.5490  -7.5434  -7.5434
    -7.4835  -7.4835  -7.4620  -7.4620  -7.3598  -7.3598  -7.3508  -7.3508
    -7.0795  -7.0795  -6.9637  -6.9637  -6.4409  -6.4409  -6.4311  -6.4311
    -6.4135  -6.4135  -6.4071  -6.4071  -6.1736  -6.1736  -6.1311  -6.1311
    -5.5912  -5.5912  -5.4179  -5.4179  -5.3759  -5.3759  -5.3221  -5.3221
    -5.2610  -5.2610  -5.2433  -5.2433  -5.1401  -5.1401  -5.0891  -5.0891
    -4.9257  -4.9257  -4.8800  -4.8800  -4.8664  -4.8664  -4.7928  -4.7928
    -4.6727  -4.6727  -4.6333  -4.6333  -4.2284  -4.2284  -4.1848  -4.1848
    -4.1322  -4.1322  -4.0626  -4.0626  -4.0341  -4.0341  -4.0191  -4.0191
    -3.9965  -3.9965  -3.9325  -3.9325  -3.9121  -3.9121  -3.8898  -3.8898
    -3.8466  -3.8466  -3.8294  -3.8294  -3.7396  -3.7396  -3.6597  -3.6597
    -3.5759  -3.5759  -3.4900  -3.4900  -3.4570  -3.4570  -3.4223  -3.4223
    -3.4140  -3.4140  -3.3673  -3.3673  -3.3381  -3.3381  -3.2652  -3.2652
    -3.2040  -3.2040  -3.1820  -3.1820  -3.1604  -3.1604  -3.1251  -3.1251
    -3.0212  -3.0212  -2.9907  -2.9907  -2.8358  -2.8358  -2.7696  -2.7696
    -2.6444  -2.6444  -2.6335  -2.6335  -2.4724  -2.4724  -2.3955  -2.3955
    -0.9941  -0.9941  -0.9549  -0.9549  -0.9459  -0.9459  -0.9227  -0.9227
    -0.8273  -0.8273  -0.7901  -0.7901  -0.6548  -0.6548  -0.6291  -0.6291
     0.3413   0.3413   0.4174   0.4174   0.5818   0.5818   0.5945   0.5945
     0.6264   0.6264   0.6493   0.6493   0.9114   0.9114   0.9335   0.9335
     4.7884   4.7884   4.8841   4.8841   4.9094   4.9094   5.0018   5.0018
     5.0950   5.0950   5.1326   5.1326   5.2854   5.2854   5.3749   5.3749
     5.8638   5.8638   5.9852   5.9852   6.0447   6.0447   6.2817   6.2817
     6.3996   6.3996   6.4413   6.4413   6.4832   6.4832   6.5852   6.5852
     6.6451   6.6451   6.6964   6.6964   6.8181   6.8181   6.8751   6.8751
     6.9679   6.9679   6.9933   6.9933   7.1515   7.1515   7.2703   7.2703

          k =-0.5000 0.0000-0.7078 (193610 PWs)   bands (ev):

   -21.8893 -21.8889 -21.8889 -21.8886 -21.8032 -21.8029 -21.8006 -21.7995
   -21.7321 -21.7318 -21.7312 -21.7304 -21.6513 -21.6511 -21.6500 -21.6488
   -14.6444 -14.6413 -14.6396 -14.6259 -14.2207 -14.1994 -14.1849 -14.1753
   -14.1590 -14.1408 -14.1353 -14.1236 -13.9017 -13.8904 -13.8832 -13.8695
   -13.8460 -13.8457 -13.8314 -13.8259 -13.7064 -13.7007 -13.6970 -13.6790
   -13.6763 -13.6632 -13.6340 -13.6242 -12.7911 -12.7902 -12.7851 -12.7748
   -12.2552 -12.2422 -12.2371 -12.2290 -10.7833 -10.7690 -10.7682 -10.7638
   -10.7552 -10.7520 -10.7405 -10.7362  -9.6411  -9.6379  -9.6259  -9.6154
    -9.0370  -9.0361  -9.0347  -9.0311  -8.9565  -8.9130  -8.9069  -8.8735
    -8.8635  -8.8366  -8.8335  -8.8296  -8.7308  -8.7308  -8.7263  -8.7062
    -7.9141  -7.9056  -7.8942  -7.8896  -7.5863  -7.5844  -7.5501  -7.5418
    -7.4852  -7.4841  -7.4653  -7.4464  -7.4356  -7.4184  -7.2108  -7.2020
    -7.0595  -7.0582  -7.0251  -7.0056  -6.4724  -6.4672  -6.4582  -6.4460
    -6.4160  -6.4049  -6.3810  -6.3321  -6.2008  -6.1988  -6.1096  -6.0857
    -5.5424  -5.4739  -5.4640  -5.4391  -5.4170  -5.4053  -5.3679  -5.3214
    -5.3125  -5.2974  -5.2150  -5.2041  -5.1270  -5.1218  -5.1156  -5.0838
    -4.9934  -4.9451  -4.9269  -4.8925  -4.8329  -4.7970  -4.7733  -4.7633
    -4.7342  -4.6419  -4.6414  -4.6197  -4.2019  -4.1987  -4.1965  -4.1953
    -4.1406  -4.1074  -4.1031  -4.0794  -4.0549  -4.0418  -4.0032  -4.0005
    -3.9741  -3.9528  -3.9336  -3.9334  -3.9247  -3.9177  -3.9112  -3.8799
    -3.8797  -3.8782  -3.8384  -3.7936  -3.7350  -3.6953  -3.6607  -3.6318
    -3.5934  -3.5592  -3.4958  -3.4652  -3.4616  -3.4562  -3.4430  -3.4224
    -3.4077  -3.3875  -3.3780  -3.3718  -3.3419  -3.2872  -3.2815  -3.2676
    -3.2520  -3.2487  -3.2211  -3.2203  -3.2148  -3.1282  -3.1147  -3.1091
    -3.1012  -3.0861  -2.9865  -2.9582  -2.8353  -2.8043  -2.7454  -2.7360
    -2.6426  -2.6379  -2.6000  -2.5965  -2.4547  -2.4418  -2.4112  -2.4078
    -1.0020  -0.9999  -0.9703  -0.9573  -0.9486  -0.9182  -0.8979  -0.8860
    -0.8794  -0.8579  -0.8077  -0.7612  -0.6724  -0.6353  -0.6343  -0.6127
     0.3482   0.3656   0.3719   0.4146   0.5737   0.5883   0.6049   0.6083
     0.6197   0.6341   0.6434   0.6437   0.8650   0.9168   0.9435   0.9540
     4.7378   4.8551   4.8915   4.9233   4.9609   4.9609   5.0163   5.0189
     5.1011   5.1259   5.1291   5.1460   5.1566   5.2207   5.2972   5.4300
     5.7931   5.8061   6.0970   6.1475   6.1932   6.2239   6.2344   6.2654
     6.2940   6.3041   6.3148   6.4276   6.4378   6.4514   6.4539   6.4585
     6.5635   6.6370   6.6610   6.7419   6.8077   6.8614   6.8703   6.9084
     6.9182   7.0053   7.0780   7.1410   7.1472   7.1744   7.2887   7.2923

          k =-0.5000-0.2999-0.2216 (193720 PWs)   bands (ev):

   -21.8944 -21.8944 -21.8830 -21.8830 -21.8032 -21.8032 -21.8002 -21.8002
   -21.7316 -21.7316 -21.7312 -21.7312 -21.6505 -21.6505 -21.6501 -21.6501
   -14.6539 -14.6539 -14.6215 -14.6215 -14.2056 -14.2056 -14.1813 -14.1813
   -14.1487 -14.1487 -14.1368 -14.1368 -13.8949 -13.8949 -13.8804 -13.8804
   -13.8479 -13.8479 -13.8178 -13.8178 -13.7022 -13.7022 -13.6696 -13.6696
   -13.6665 -13.6665 -13.6553 -13.6553 -12.7994 -12.7994 -12.7713 -12.7713
   -12.2522 -12.2522 -12.2293 -12.2293 -10.7827 -10.7827 -10.7637 -10.7637
   -10.7600 -10.7600 -10.7283 -10.7283  -9.6429  -9.6429  -9.6170  -9.6170
    -9.0372  -9.0372  -9.0335  -9.0335  -8.9354  -8.9354  -8.8757  -8.8757
    -8.8615  -8.8615  -8.8299  -8.8299  -8.7293  -8.7293  -8.7193  -8.7193
    -7.9153  -7.9153  -7.8813  -7.8813  -7.5627  -7.5627  -7.5177  -7.5177
    -7.4958  -7.4958  -7.4612  -7.4612  -7.3688  -7.3688  -7.3429  -7.3429
    -7.0700  -7.0700  -6.9750  -6.9750  -6.4387  -6.4387  -6.4277  -6.4277
    -6.4207  -6.4207  -6.4053  -6.4053  -6.1564  -6.1564  -6.1426  -6.1426
    -5.5874  -5.5874  -5.4256  -5.4256  -5.3789  -5.3789  -5.3053  -5.3053
    -5.2955  -5.2955  -5.2177  -5.2177  -5.1343  -5.1343  -5.1080  -5.1080
    -4.9297  -4.9297  -4.8887  -4.8887  -4.8662  -4.8662  -4.7601  -4.7601
    -4.6615  -4.6615  -4.6602  -4.6602  -4.2276  -4.2276  -4.1871  -4.1871
    -4.1118  -4.1118  -4.0853  -4.0853  -4.0273  -4.0273  -4.0144  -4.0144
    -3.9806  -3.9806  -3.9221  -3.9221  -3.9121  -3.9121  -3.9098  -3.9098
    -3.8597  -3.8597  -3.8219  -3.8219  -3.7175  -3.7175  -3.6825  -3.6825
    -3.5736  -3.5736  -3.4860  -3.4860  -3.4849  -3.4849  -3.4254  -3.4254
    -3.4053  -3.4053  -3.3595  -3.3595  -3.3392  -3.3392  -3.2579  -3.2579
    -3.2044  -3.2044  -3.1815  -3.1815  -3.1599  -3.1599  -3.1297  -3.1297
    -3.0178  -3.0178  -2.9922  -2.9922  -2.8340  -2.8340  -2.7687  -2.7687
    -2.6464  -2.6464  -2.6352  -2.6352  -2.4707  -2.4707  -2.3954  -2.3954
    -0.9929  -0.9929  -0.9555  -0.9555  -0.9467  -0.9467  -0.9249  -0.9249
    -0.8183  -0.8183  -0.7971  -0.7971  -0.6507  -0.6507  -0.6327  -0.6327
     0.3486   0.3486   0.4176   0.4176   0.5547   0.5547   0.5727   0.5727
     0.6521   0.6521   0.6689   0.6689   0.9093   0.9093   0.9315   0.9315
     4.8127   4.8127   4.8312   4.8312   4.9414   4.9414   5.0283   5.0283
     5.0539   5.0539   5.1427   5.1427   5.2917   5.2917   5.3676   5.3676
     5.9280   5.9280   5.9518   5.9518   6.0573   6.0573   6.1700   6.1700
     6.3166   6.3166   6.4859   6.4859   6.5173   6.5173   6.6348   6.6348
     6.6775   6.6775   6.7976   6.7976   6.8083   6.8083   6.9065   6.9065
     6.9220   6.9220   6.9957   6.9957   7.1345   7.1346   7.2616   7.2617

          k =-0.5000-0.2999-0.7078 (193724 PWs)   bands (ev):

   -21.8891 -21.8891 -21.8887 -21.8887 -21.8031 -21.8031 -21.8000 -21.8000
   -21.7320 -21.7320 -21.7308 -21.7308 -21.6512 -21.6512 -21.6494 -21.6494
   -14.6445 -14.6445 -14.6311 -14.6311 -14.2151 -14.2151 -14.1722 -14.1722
   -14.1503 -14.1503 -14.1323 -14.1323 -13.8972 -13.8972 -13.8729 -13.8729
   -13.8508 -13.8508 -13.8256 -13.8256 -13.6995 -13.6995 -13.6929 -13.6929
   -13.6688 -13.6688 -13.6293 -13.6293 -12.7893 -12.7893 -12.7811 -12.7811
   -12.2463 -12.2463 -12.2355 -12.2355 -10.7769 -10.7769 -10.7644 -10.7644
   -10.7557 -10.7557 -10.7370 -10.7370  -9.6397  -9.6397  -9.6205  -9.6205
    -9.0387  -9.0387  -9.0303  -9.0303  -8.9387  -8.9387  -8.8921  -8.8921
    -8.8488  -8.8488  -8.8287  -8.8287  -8.7302  -8.7302  -8.7156  -8.7156
    -7.9129  -7.9129  -7.8889  -7.8889  -7.5871  -7.5871  -7.5346  -7.5346
    -7.4840  -7.4840  -7.4795  -7.4795  -7.4145  -7.4145  -7.2053  -7.2053
    -7.0420  -7.0420  -7.0343  -7.0343  -6.4693  -6.4693  -6.4506  -6.4506
    -6.3965  -6.3965  -6.3727  -6.3727  -6.1946  -6.1946  -6.1005  -6.1005
    -5.4952  -5.4952  -5.4396  -5.4396  -5.4318  -5.4318  -5.3567  -5.3567
    -5.3113  -5.3113  -5.2001  -5.2001  -5.1202  -5.1202  -5.1029  -5.1029
    -4.9787  -4.9787  -4.9078  -4.9078  -4.8136  -4.8136  -4.7463  -4.7463
    -4.7044  -4.7044  -4.6323  -4.6323  -4.2094  -4.2094  -4.1816  -4.1816
    -4.1135  -4.1135  -4.0864  -4.0864  -4.0696  -4.0696  -4.0000  -4.0000
    -3.9617  -3.9617  -3.9393  -3.9393  -3.9005  -3.9005  -3.8878  -3.8878
    -3.8691  -3.8691  -3.8424  -3.8424  -3.7012  -3.7012  -3.6575  -3.6575
    -3.5798  -3.5798  -3.4935  -3.4935  -3.4559  -3.4559  -3.4341  -3.4341
    -3.3877  -3.3877  -3.3830  -3.3830  -3.3240  -3.3240  -3.2760  -3.2760
    -3.2475  -3.2475  -3.2177  -3.2177  -3.1576  -3.1576  -3.1221  -3.1221
    -3.0828  -3.0828  -2.9775  -2.9775  -2.8086  -2.8086  -2.7546  -2.7546
    -2.6200  -2.6200  -2.6150  -2.6150  -2.4463  -2.4463  -2.4097  -2.4097
    -0.9993  -0.9993  -0.9674  -0.9673  -0.9334  -0.9334  -0.8887  -0.8887
    -0.8749  -0.8749  -0.7799  -0.7798  -0.6575  -0.6575  -0.6192  -0.6192
     0.3588   0.3588   0.4028   0.4028   0.5401   0.5401   0.5882   0.5882
     0.6582   0.6582   0.6633   0.6633   0.8868   0.8868   0.9496   0.9496
     4.7795   4.7795   4.9157   4.9157   4.9596   4.9596   5.0501   5.0501
     5.0894   5.0894   5.1346   5.1346   5.1874   5.1874   5.3662   5.3662
     5.8867   5.8867   5.9589   5.9589   6.1742   6.1743   6.2483   6.2483
     6.3341   6.3341   6.4049   6.4049   6.4828   6.4828   6.4879   6.4879
     6.6194   6.6194   6.6952   6.6952   6.7999   6.7999   6.9516   6.9516
     6.9645   6.9645   7.0623   7.0624   7.2105   7.2129   7.2742   7.2765

     highest occupied, lowest unoccupied level (ev):     0.9964    4.7378

!    total energy              =   -2216.77633542 Ry
     Harris-Foulkes estimate   =   -2216.77633542 Ry
     estimated scf accuracy    <          1.1E-09 Ry

     total all-electron energy =     -8579.454450 Ry

     The total energy is the sum of the following terms:

     one-electron contribution =   -1459.71625991 Ry
     hartree contribution      =     899.71954797 Ry
     xc contribution           =    -494.85267180 Ry
     ewald contribution        =    -476.85695442 Ry
     Dispersion Correction     =      -0.61812090 Ry
     one-center paw contrib.   =    -684.45187637 Ry

     convergence has been achieved in  22 iterations

     Forces acting on atoms (cartesian axes, Ry/au):

     atom    1 type  1   force =    -0.00006980   -0.00010901    0.00004680
     atom    2 type  1   force =     0.00006886   -0.00010850   -0.00004630
     atom    3 type  1   force =     0.00006980    0.00010901   -0.00004680
     atom    4 type  1   force =    -0.00006886    0.00010850    0.00004630
     atom    5 type  1   force =    -0.00064936   -0.00043642    0.00037463
     atom    6 type  1   force =     0.00065036   -0.00043669   -0.00037137
     atom    7 type  1   force =     0.00064936    0.00043642   -0.00037463
     atom    8 type  1   force =    -0.00065036    0.00043669    0.00037137
     atom    9 type  1   force =     0.00006037    0.00009992   -0.00049643
     atom   10 type  1   force =    -0.00005906    0.00010073    0.00049126
     atom   11 type  1   force =    -0.00006037   -0.00009992    0.00049643
     atom   12 type  1   force =     0.00005906   -0.00010073   -0.00049126
     atom   13 type  1   force =     0.00055551    0.00005074    0.00019470
     atom   14 type  1   force =    -0.00055709    0.00005034   -0.00019222
     atom   15 type  1   force =    -0.00055551   -0.00005074   -0.00019470
     atom   16 type  1   force =     0.00055709   -0.00005034    0.00019222
     atom   17 type  1   force =    -0.00087703   -0.00027281    0.00064681
     atom   18 type  1   force =     0.00087808   -0.00027233   -0.00065276
     atom   19 type  1   force =     0.00087703    0.00027281   -0.00064681
     atom   20 type  1   force =    -0.00087808    0.00027233    0.00065276
     atom   21 type  1   force =     0.00000635   -0.00094687   -0.00000071
     atom   22 type  1   force =    -0.00000612   -0.00094614    0.00000742
     atom   23 type  1   force =    -0.00000635    0.00094687    0.00000071
     atom   24 type  1   force =     0.00000612    0.00094614   -0.00000742
     atom   25 type  1   force =    -0.00023180    0.00014110   -0.00021617
     atom   26 type  1   force =     0.00023187    0.00014140    0.00021916
     atom   27 type  1   force =     0.00023180   -0.00014110    0.00021617
     atom   28 type  1   force =    -0.00023187   -0.00014140   -0.00021916
     atom   29 type  1   force =     0.00018959   -0.00083965   -0.00055108
     atom   30 type  1   force =    -0.00018868   -0.00084050    0.00054467
     atom   31 type  1   force =    -0.00018959    0.00083965    0.00055108
     atom   32 type  1   force =     0.00018868    0.00084050   -0.00054467
     atom   33 type  1   force =    -0.00057624   -0.00021077   -0.00026836
     atom   34 type  1   force =     0.00057452   -0.00021087    0.00027363
     atom   35 type  1   force =     0.00057624    0.00021077    0.00026836
     atom   36 type  1   force =    -0.00057452    0.00021087   -0.00027363
     atom   37 type  1   force =     0.00021694   -0.00015713    0.00065139
     atom   38 type  1   force =    -0.00021700   -0.00015676   -0.00065708
     atom   39 type  1   force =    -0.00021694    0.00015713   -0.00065139
     atom   40 type  1   force =     0.00021700    0.00015676    0.00065708
     atom   41 type  1   force =    -0.00042828    0.00093412   -0.00026278
     atom   42 type  1   force =     0.00042589    0.00093453    0.00025545
     atom   43 type  1   force =     0.00042828   -0.00093412    0.00026278
     atom   44 type  1   force =    -0.00042589   -0.00093453   -0.00025545
     atom   45 type  1   force =    -0.00017256    0.00019643   -0.00027561
     atom   46 type  1   force =     0.00017448    0.00019585    0.00027868
     atom   47 type  1   force =     0.00017256   -0.00019643    0.00027561
     atom   48 type  1   force =    -0.00017448   -0.00019585   -0.00027868
     atom   49 type  1   force =    -0.00021066   -0.00027289    0.00017490
     atom   50 type  1   force =     0.00021213   -0.00027285   -0.00017911
     atom   51 type  1   force =     0.00021066    0.00027289   -0.00017490
     atom   52 type  1   force =    -0.00021213    0.00027285    0.00017911
     atom   53 type  1   force =     0.00033166    0.00017519    0.00010858
     atom   54 type  1   force =    -0.00033014    0.00017530   -0.00011110
     atom   55 type  1   force =    -0.00033166   -0.00017519   -0.00010858
     atom   56 type  1   force =     0.00033014   -0.00017530    0.00011110
     atom   57 type  1   force =     0.00010921   -0.00005091    0.00027199
     atom   58 type  1   force =    -0.00010760   -0.00005048   -0.00027477
     atom   59 type  1   force =    -0.00010921    0.00005091   -0.00027199
     atom   60 type  1   force =     0.00010760    0.00005048    0.00027477
     atom   61 type  1   force =    -0.00026276   -0.00026445   -0.00056058
     atom   62 type  1   force =     0.00026134   -0.00026499    0.00056340
     atom   63 type  1   force =     0.00026276    0.00026445    0.00056058
     atom   64 type  1   force =    -0.00026134    0.00026499   -0.00056340
     atom   65 type  1   force =     0.00046113    0.00004462    0.00027892
     atom   66 type  1   force =    -0.00045966    0.00004498   -0.00027498
     atom   67 type  1   force =    -0.00046113   -0.00004462   -0.00027892
     atom   68 type  1   force =     0.00045966   -0.00004498    0.00027498
     atom   69 type  1   force =    -0.00017046   -0.00002850    0.00003017
     atom   70 type  1   force =     0.00016985   -0.00002833   -0.00002634
     atom   71 type  1   force =     0.00017046    0.00002850   -0.00003017
     atom   72 type  1   force =    -0.00016985    0.00002833    0.00002634
     atom   73 type  1   force =     0.00007774    0.00054459   -0.00004848
     atom   74 type  1   force =    -0.00007698    0.00054429    0.00005188
     atom   75 type  1   force =    -0.00007774   -0.00054459    0.00004848
     atom   76 type  1   force =     0.00007698   -0.00054429   -0.00005188
     atom   77 type  1   force =     0.00020894    0.00022988   -0.00012602
     atom   78 type  1   force =    -0.00020858    0.00023000    0.00013222
     atom   79 type  1   force =    -0.00020894   -0.00022988    0.00012602
     atom   80 type  1   force =     0.00020858   -0.00023000   -0.00013222
     atom   81 type  4   force =    -0.00019267   -0.00008427    0.00011205
     atom   82 type  4   force =     0.00019269   -0.00008333   -0.00011300
     atom   83 type  4   force =     0.00019267    0.00008427   -0.00011205
     atom   84 type  4   force =    -0.00019269    0.00008333    0.00011300
     atom   85 type  4   force =    -0.00052690    0.00026740    0.00014419
     atom   86 type  4   force =     0.00052745    0.00026690   -0.00014611
     atom   87 type  4   force =     0.00052690   -0.00026740   -0.00014419
     atom   88 type  4   force =    -0.00052745   -0.00026690    0.00014611
     atom   89 type  4   force =    -0.00036201    0.00029990   -0.00045765
     atom   90 type  4   force =     0.00036213    0.00029948    0.00045616
     atom   91 type  4   force =     0.00036201   -0.00029990    0.00045765
     atom   92 type  4   force =    -0.00036213   -0.00029948   -0.00045616
     atom   93 type  4   force =     0.00044054    0.00000096    0.00022132
     atom   94 type  4   force =    -0.00043982    0.00000023   -0.00022094
     atom   95 type  4   force =    -0.00044054   -0.00000096   -0.00022132
     atom   96 type  4   force =     0.00043982   -0.00000023    0.00022094
     atom   97 type  3   force =     0.00025945   -0.00021086    0.00049029
     atom   98 type  3   force =    -0.00025957   -0.00021086   -0.00049039
     atom   99 type  3   force =    -0.00025945    0.00021086   -0.00049029
     atom  100 type  3   force =     0.00025957    0.00021086    0.00049039
     atom  101 type  3   force =     0.00018238    0.00047890    0.00004553
     atom  102 type  3   force =    -0.00018242    0.00047873   -0.00004555
     atom  103 type  3   force =    -0.00018238   -0.00047890   -0.00004553
     atom  104 type  3   force =     0.00018242   -0.00047873    0.00004555
     atom  105 type  3   force =    -0.00008028    0.00018063   -0.00044149
     atom  106 type  3   force =     0.00008028    0.00018071    0.00044150
     atom  107 type  3   force =     0.00008028   -0.00018063    0.00044149
     atom  108 type  3   force =    -0.00008028   -0.00018071   -0.00044150
     atom  109 type  3   force =     0.00001092   -0.00019157    0.00004074
     atom  110 type  3   force =    -0.00001083   -0.00019182   -0.00004094
     atom  111 type  3   force =    -0.00001092    0.00019157   -0.00004074
     atom  112 type  3   force =     0.00001083    0.00019182    0.00004094
     atom  113 type  3   force =    -0.00032500    0.00036794   -0.00043102
     atom  114 type  3   force =     0.00032506    0.00036790    0.00043085
     atom  115 type  3   force =     0.00032500   -0.00036794    0.00043102
     atom  116 type  3   force =    -0.00032506   -0.00036790   -0.00043085
     atom  117 type  3   force =     0.00021585   -0.00024161   -0.00014023
     atom  118 type  3   force =    -0.00021592   -0.00024170    0.00014023
     atom  119 type  3   force =    -0.00021585    0.00024161    0.00014023
     atom  120 type  3   force =     0.00021592    0.00024170   -0.00014023
     atom  121 type  3   force =     0.00063085   -0.00047461   -0.00015875
     atom  122 type  3   force =    -0.00063089   -0.00047460    0.00015869
     atom  123 type  3   force =    -0.00063085    0.00047461    0.00015875
     atom  124 type  3   force =     0.00063089    0.00047460   -0.00015869
     atom  125 type  3   force =    -0.00061688    0.00051374    0.00044515
     atom  126 type  3   force =     0.00061700    0.00051357   -0.00044522
     atom  127 type  3   force =     0.00061688   -0.00051374   -0.00044515
     atom  128 type  3   force =    -0.00061700   -0.00051357    0.00044522
     atom  129 type  3   force =     0.00016766   -0.00014414   -0.00034712
     atom  130 type  3   force =    -0.00016757   -0.00014412    0.00034729
     atom  131 type  3   force =    -0.00016766    0.00014414    0.00034712
     atom  132 type  3   force =     0.00016757    0.00014412   -0.00034729
     atom  133 type  3   force =     0.00012411    0.00039742    0.00013249
     atom  134 type  3   force =    -0.00012402    0.00039743   -0.00013236
     atom  135 type  3   force =    -0.00012411   -0.00039742   -0.00013249
     atom  136 type  3   force =     0.00012402   -0.00039743    0.00013236
     atom  137 type  3   force =    -0.00016066   -0.00013831    0.00035980
     atom  138 type  3   force =     0.00016066   -0.00013829   -0.00035972
     atom  139 type  3   force =     0.00016066    0.00013831   -0.00035980
     atom  140 type  3   force =    -0.00016066    0.00013829    0.00035972
     atom  141 type  3   force =     0.00059040    0.00013496   -0.00024573
     atom  142 type  3   force =    -0.00059036    0.00013502    0.00024585
     atom  143 type  3   force =    -0.00059040   -0.00013496    0.00024573
     atom  144 type  3   force =     0.00059036   -0.00013502   -0.00024585
     atom  145 type  3   force =     0.00007807   -0.00041197   -0.00017460
     atom  146 type  3   force =    -0.00007808   -0.00041193    0.00017442
     atom  147 type  3   force =    -0.00007807    0.00041197    0.00017460
     atom  148 type  3   force =     0.00007808    0.00041193   -0.00017442
     atom  149 type  3   force =    -0.00039671    0.00013726   -0.00000897
     atom  150 type  3   force =     0.00039677    0.00013715    0.00000909
     atom  151 type  3   force =     0.00039671   -0.00013726    0.00000897
     atom  152 type  3   force =    -0.00039677   -0.00013715   -0.00000909
     atom  153 type  3   force =    -0.00005907    0.00038908    0.00018414
     atom  154 type  3   force =     0.00005912    0.00038886   -0.00018403
     atom  155 type  3   force =     0.00005907   -0.00038908   -0.00018414
     atom  156 type  3   force =    -0.00005912   -0.00038886    0.00018403
     atom  157 type  3   force =    -0.00033371    0.00009788    0.00027502
     atom  158 type  3   force =     0.00033357    0.00009791   -0.00027496
     atom  159 type  3   force =     0.00033371   -0.00009788   -0.00027502
     atom  160 type  3   force =    -0.00033357   -0.00009791    0.00027496

     Total force =     0.007554     Total SCF correction =     0.000069


     Computing stress (Cartesian axis) and pressure

          total   stress  (Ry/bohr**3)                   (kbar)     P=   -5.25
  -0.00002857  -0.00000000   0.00000663         -4.20     -0.00      0.98
  -0.00000000  -0.00003721  -0.00000000         -0.00     -5.47     -0.00
   0.00000663  -0.00000000  -0.00004138          0.98     -0.00     -6.09


     Writing output data file scf.save
 
     init_run     :    181.58s CPU    187.15s WALL (       1 calls)
     electrons    :   8857.12s CPU   9133.07s WALL (       1 calls)
     forces       :     86.06s CPU     86.59s WALL (       1 calls)
     stress       :    421.81s CPU    422.60s WALL (       1 calls)

     Called by init_run:
     wfcinit      :    162.99s CPU    168.27s WALL (       1 calls)
     potinit      :      6.72s CPU      6.77s WALL (       1 calls)

     Called by electrons:
     c_bands      :   8081.94s CPU   8318.13s WALL (      22 calls)
     sum_band     :    739.87s CPU    775.30s WALL (      22 calls)
     v_of_rho     :      5.32s CPU      5.84s WALL (      23 calls)
     newd         :     15.34s CPU     19.09s WALL (      23 calls)
     PAW_pot      :     13.74s CPU     13.75s WALL (      23 calls)
     mix_rho      :      1.23s CPU      1.31s WALL (      22 calls)

     Called by c_bands:
     init_us_2    :     28.18s CPU     28.28s WALL (     376 calls)
     cegterg      :   7962.33s CPU   8198.42s WALL (     176 calls)

     Called by sum_band:
     sum_band:bec :      0.30s CPU      0.30s WALL (     176 calls)
     addusdens    :     15.69s CPU     19.25s WALL (      22 calls)

     Called by *egterg:
     h_psi        :   4046.16s CPU   4238.94s WALL (     729 calls)
     s_psi        :   1100.10s CPU   1100.19s WALL (     729 calls)
     g_psi        :     14.87s CPU     14.88s WALL (     545 calls)
     cdiaghg      :    318.07s CPU    318.12s WALL (     721 calls)

     Called by h_psi:
     h_psi:pot    :   4025.75s CPU   4218.25s WALL (     729 calls)
     h_psi:calbec :   1077.85s CPU   1078.94s WALL (     729 calls)
     vloc_psi     :   1847.42s CPU   2038.74s WALL (     729 calls)
     add_vuspsi   :   1100.46s CPU   1100.57s WALL (     729 calls)

     General routines
     calbec       :   1525.75s CPU   1527.27s WALL (     945 calls)
     fft          :      3.39s CPU      4.29s WALL (     323 calls)
     fftw         :   1947.48s CPU   2169.51s WALL (  348128 calls)
 
     Parallel routines
     fft_scatter  :    324.69s CPU    546.75s WALL (  348451 calls)
 
     PWSCF        :     2h39m CPU        2h45m WALL

 
   This run was terminated on:  15: 9:17  13Nov2017            

=------------------------------------------------------------------------------=
   JOB DONE.
=------------------------------------------------------------------------------=
