
     Program PWSCF v.6.1 (svn rev. 13369) starts on  4Nov2017 at  7:17: 3 

     This program is part of the open-source Quantum ESPRESSO suite
     for quantum simulation of materials; please cite
         "P. Giannozzi et al., J. Phys.:Condens. Matter 21 395502 (2009);
          URL http://www.quantum-espresso.org", 
     in publications or presentations arising from this work. More details at
     http://www.quantum-espresso.org/quote

     Parallel version (MPI), running on     8 processors
     R & G space division:  proc/nbgrp/npool/nimage =       8
     Waiting for input...
     Reading input from standard input

     Current dimensions of program PWSCF are:
     Max number of different atomic species (ntypx) = 10
     Max number of k-points (npk) =  40000
     Max angular momentum in pseudopotentials (lmaxx) =  3
               file C.pbe-n-kjpaw_psl.0.1.UPF: wavefunction(s)  2P renormalized
               file N.pbe-n-kjpaw_psl.0.1.UPF: wavefunction(s)  2P renormalized
               file H.pbe-kjpaw_psl.0.1.UPF: wavefunction(s)  1S renormalized
               file O.pbe-n-kjpaw_psl.0.1.UPF: wavefunction(s)  2P renormalized

     -------------------------------------
     Parameters for Dispersion Correction:
     -------------------------------------
       atom      VdW radius       C_6     

        C          2.744         60.710
        N          2.640         42.670
        H          1.892          4.857
        O          2.536         24.284

     Subspace diagonalization in iterative solution of the eigenvalue problem:
     a serial algorithm will be used

 
     Parallelization info
     --------------------
     sticks:   dense  smooth     PW     G-vecs:    dense   smooth      PW
     Min         740     740    196                48417    48417    6605
     Max         741     741    197                48418    48418    6608
     Sum        5925    5925   1569               387337   387337   52845
 


     bravais-lattice index     =            0
     lattice parameter (alat)  =      13.5909  a.u.
     unit-cell volume          =    2866.2228 (a.u.)^3
     number of atoms/cell      =           48
     number of atomic types    =            4
     number of electrons       =       136.00
     number of Kohn-Sham states=           81
     kinetic-energy cutoff     =     100.0000  Ry
     charge density cutoff     =     400.0000  Ry
     convergence threshold     =      1.0E-08
     mixing beta               =       0.5000
     number of iterations used =            8  plain     mixing
     Exchange-correlation      =  SLA  PW   PBX  PBC ( 1  4  3  4 0 0)

     celldm(1)=  13.590910  celldm(2)=   0.000000  celldm(3)=   0.000000
     celldm(4)=   0.000000  celldm(5)=   0.000000  celldm(6)=   0.000000

     crystal axes: (cart. coord. in units of alat)
               a(1) = (   1.000000   0.000000   0.000000 )  
               a(2) = (  -0.331098   1.006448   0.000000 )  
               a(3) = (  -0.122545  -0.535170   1.134418 )  

     reciprocal axes: (cart. coord. in units 2 pi/alat)
               b(1) = (  1.000000  0.328977  0.263222 )  
               b(2) = (  0.000000  0.993594  0.468736 )  
               b(3) = (  0.000000  0.000000  0.881509 )  


     PseudoPot. # 1 for  C read from file:
     /scratch/ahofstet/pseudo/C.pbe-n-kjpaw_psl.0.1.UPF
     MD5 check sum: 430fe95172b1e11ef3f8ed03bac87931
     Pseudo is Projector augmented-wave + core cor, Zval =  4.0
     Generated using "atomic" code by A. Dal Corso  v.5.0.99 svn rev. 10869
     Shape of augmentation charge: BESSEL
     Using radial grid of 1073 points,  4 beta functions with: 
                l(1) =   0
                l(2) =   0
                l(3) =   1
                l(4) =   1
     Q(r) pseudized with 0 coefficients 


     PseudoPot. # 2 for  N read from file:
     /scratch/ahofstet/pseudo/N.pbe-n-kjpaw_psl.0.1.UPF
     MD5 check sum: f73187c8b701007e77325f868c9291d7
     Pseudo is Projector augmented-wave + core cor, Zval =  5.0
     Generated using "atomic" code by A. Dal Corso  v.5.0.99 svn rev. 10869
     Shape of augmentation charge: PSQ
     Using radial grid of 1085 points,  4 beta functions with: 
                l(1) =   0
                l(2) =   0
                l(3) =   1
                l(4) =   1
     Q(r) pseudized with 0 coefficients 


     PseudoPot. # 3 for  H read from file:
     /scratch/ahofstet/pseudo/H.pbe-kjpaw_psl.0.1.UPF
     MD5 check sum: 94e484f906d9e9773b2f6e52662335b2
     Pseudo is Projector augmented-wave, Zval =  1.0
     Generated using "atomic" code by A. Dal Corso  v.5.0.99 svn rev. 10869
     Shape of augmentation charge: PSQ
     Using radial grid of  929 points,  2 beta functions with: 
                l(1) =   0
                l(2) =   0
     Q(r) pseudized with 0 coefficients 


     PseudoPot. # 4 for  O read from file:
     /scratch/ahofstet/pseudo/O.pbe-n-kjpaw_psl.0.1.UPF
     MD5 check sum: 3f94a2996a3169367d6eb21d9b593f20
     Pseudo is Projector augmented-wave + core cor, Zval =  6.0
     Generated using "atomic" code by A. Dal Corso  v.5.0.99 svn rev. 10869
     Shape of augmentation charge: BESSEL
     Using radial grid of 1095 points,  4 beta functions with: 
                l(1) =   0
                l(2) =   0
                l(3) =   1
                l(4) =   1
     Q(r) pseudized with 0 coefficients 


     atomic species   valence    mass     pseudopotential
        C              4.00    12.01070      C( 1.00)
        N              5.00    14.00670      N( 1.00)
        H              1.00     1.00794      H( 1.00)
        O              6.00    15.99940      O( 1.00)

      2 Sym. Ops., with inversion, found



   Cartesian axes

     site n.     atom                  positions (alat units)
         1           O   tau(   1) = (   0.0533112  -0.2843432   0.8150037  )
         2           O   tau(   2) = (   0.4930461   0.7556204   0.3194143  )
         3           N   tau(   3) = (  -0.0929931   0.7471844   0.0702416  )
         4           N   tau(   4) = (   0.6393505  -0.2759073   1.0641764  )
         5           N   tau(   5) = (   0.6967705   0.1169773   0.9089142  )
         6           N   tau(   6) = (  -0.1504132   0.3542998   0.2255038  )
         7           N   tau(   7) = (   0.6590691   0.4505896   0.6416055  )
         8           N   tau(   8) = (  -0.1127118   0.0206876   0.4928125  )
         9           C   tau(   9) = (  -0.2571845   0.2558593   1.0264030  )
        10           C   tau(  10) = (   0.8035419   0.2154178   0.1080150  )
        11           C   tau(  11) = (  -0.2511557   0.4444523   0.9704915  )
        12           C   tau(  12) = (   0.7975130   0.0268248   0.1639265  )
        13           C   tau(  13) = (   0.1226839  -0.4251407   1.0999398  )
        14           C   tau(  14) = (   0.4236734   0.8964178   0.0344782  )
        15           C   tau(  15) = (   0.2872850   0.0671541   0.1489365  )
        16           C   tau(  16) = (   0.2590723   0.4041231   0.9854815  )
        17           C   tau(  17) = (  -0.0481648   0.8819146   0.1921572  )
        18           C   tau(  18) = (   0.5945221  -0.4106374   0.9422609  )
        19           C   tau(  19) = (  -0.2946720   0.5305771   0.7938705  )
        20           C   tau(  20) = (   0.8410294  -0.0592999   0.3405475  )
        21           C   tau(  21) = (   0.1104806  -0.2405365   1.0035639  )
        22           C   tau(  22) = (   0.4358767   0.7118137   0.1308541  )
        23           C   tau(  23) = (   0.0011916   0.8198236   0.3844286  )
        24           C   tau(  24) = (   0.5451657  -0.3485465   0.7499894  )
        25           C   tau(  25) = (   0.3312914   0.2099356   0.2941661  )
        26           C   tau(  26) = (   0.2150659   0.2613416   0.8402519  )
        27           H   tau(  27) = (   0.0061155  -0.1474688   1.0655123  )
        28           H   tau(  28) = (   0.5402418   0.6187459   0.0689057  )
        29           H   tau(  29) = (   0.2461903  -0.1693434   0.9975796  )
        30           H   tau(  30) = (   0.3001671   0.6406206   0.1368384  )
        31           H   tau(  31) = (   0.6870045  -0.0177273   0.9570958  )
        32           H   tau(  32) = (  -0.1406472   0.4890045   0.1773222  )
        33           H   tau(  33) = (   0.6821483   0.1484653   0.7715616  )
        34           H   tau(  34) = (  -0.1357910   0.3228119   0.3628564  )
        35           H   tau(  35) = (   0.6317568   0.5453395   0.5381445  )
        36           H   tau(  36) = (  -0.0853995  -0.0740623   0.5962735  )
        37           H   tau(  37) = (   0.0064559   0.6679357   0.3931695  )
        38           H   tau(  38) = (   0.5399014  -0.1966585   0.7412485  )
        39           H   tau(  39) = (   0.2300583  -0.1349020   0.4861168  )
        40           H   tau(  40) = (   0.3162990   0.6061791   0.6483012  )
        41           H   tau(  41) = (   0.4681950  -0.1302912   0.4254942  )
        42           H   tau(  42) = (   0.0781623   0.6015683   0.7089238  )
        43           H   tau(  43) = (   0.4685155   0.1863282   0.3577822  )
        44           H   tau(  44) = (   0.0778418   0.2849490   0.7766358  )
        45           H   tau(  45) = (   0.3306391   0.3505530   0.2350260  )
        46           H   tau(  46) = (   0.2157182   0.1207241   0.8993920  )
        47           H   tau(  47) = (   0.2272452   0.2050413   0.4064800  )
        48           H   tau(  48) = (   0.3191122   0.2662359   0.7279380  )

     number of k points=    10
                       cart. coord. in units 2pi/alat
        k(    1) = (   0.0000000   0.0000000   0.0000000), wk =   0.1111111
        k(    2) = (   0.0000000   0.0000000  -0.4407546), wk =   0.1111111
        k(    3) = (   0.0000000   0.3311979   0.1562452), wk =   0.2222222
        k(    4) = (   0.0000000   0.3311979  -0.2845095), wk =   0.2222222
        k(    5) = (   0.3333333   0.1096589   0.0877406), wk =   0.2222222
        k(    6) = (   0.3333333   0.1096589  -0.3530141), wk =   0.2222222
        k(    7) = (   0.3333333   0.4408568   0.2439857), wk =   0.2222222
        k(    8) = (   0.3333333   0.4408568  -0.1967689), wk =   0.2222222
        k(    9) = (   0.3333333  -0.2215390  -0.0685046), wk =   0.2222222
        k(   10) = (   0.3333333  -0.2215390  -0.5092592), wk =   0.2222222

     Dense  grid:   387337 G-vectors     FFT dimensions: (  90,  96, 120)

     Estimated max dynamical RAM per process >     199.36MB

     Estimated total allocated dynamical RAM >    1594.89MB

     Check: negative/imaginary core charge=   -0.000002    0.000000

     Initial potential from superposition of free atoms

     starting charge  135.99899, renormalised to  136.00000
     Starting wfc are  126 randomized atomic wfcs
     Checking if some PAW data can be deallocated... 

     total cpu time spent up to now is       14.1 secs

     per-process dynamical memory:   214.3 Mb

     Self-consistent Calculation

     iteration #  1     ecut=   100.00 Ry     beta=0.50
     Davidson diagonalization with overlap
     ethr =  1.00E-02,  avg # of iterations =  3.0

     total cpu time spent up to now is       37.5 secs

     total energy              =    -609.88019831 Ry
     Harris-Foulkes estimate   =    -612.65187743 Ry
     estimated scf accuracy    <       5.25560404 Ry

     iteration #  2     ecut=   100.00 Ry     beta=0.50
     Davidson diagonalization with overlap
     ethr =  3.86E-03,  avg # of iterations =  2.3

     total cpu time spent up to now is       51.3 secs

     total energy              =    -610.23615736 Ry
     Harris-Foulkes estimate   =    -610.56616912 Ry
     estimated scf accuracy    <       0.68094879 Ry

     iteration #  3     ecut=   100.00 Ry     beta=0.50
     Davidson diagonalization with overlap
     ethr =  5.01E-04,  avg # of iterations =  5.0

     total cpu time spent up to now is       77.1 secs

     total energy              =    -610.75235266 Ry
     Harris-Foulkes estimate   =    -611.01882802 Ry
     estimated scf accuracy    <       0.73660976 Ry

     iteration #  4     ecut=   100.00 Ry     beta=0.50
     Davidson diagonalization with overlap
     ethr =  5.01E-04,  avg # of iterations =  1.9

     total cpu time spent up to now is       89.8 secs

     total energy              =    -610.68031716 Ry
     Harris-Foulkes estimate   =    -610.80051321 Ry
     estimated scf accuracy    <       0.20373437 Ry

     iteration #  5     ecut=   100.00 Ry     beta=0.50
     Davidson diagonalization with overlap
     ethr =  1.50E-04,  avg # of iterations =  6.3

     total cpu time spent up to now is      115.9 secs

     total energy              =    -610.80993997 Ry
     Harris-Foulkes estimate   =    -610.86200028 Ry
     estimated scf accuracy    <       0.16899569 Ry

     iteration #  6     ecut=   100.00 Ry     beta=0.50
     Davidson diagonalization with overlap
     ethr =  1.24E-04,  avg # of iterations =  1.0

     total cpu time spent up to now is      128.3 secs

     total energy              =    -610.78514668 Ry
     Harris-Foulkes estimate   =    -610.81476969 Ry
     estimated scf accuracy    <       0.07190634 Ry

     iteration #  7     ecut=   100.00 Ry     beta=0.50
     Davidson diagonalization with overlap
     ethr =  5.29E-05,  avg # of iterations =  5.2

     total cpu time spent up to now is      146.6 secs

     total energy              =    -610.80946136 Ry
     Harris-Foulkes estimate   =    -610.80969386 Ry
     estimated scf accuracy    <       0.00131006 Ry

     iteration #  8     ecut=   100.00 Ry     beta=0.50
     Davidson diagonalization with overlap
     ethr =  9.63E-07,  avg # of iterations =  5.0

     total cpu time spent up to now is      173.7 secs

     total energy              =    -610.80984177 Ry
     Harris-Foulkes estimate   =    -610.81077006 Ry
     estimated scf accuracy    <       0.00190610 Ry

     iteration #  9     ecut=   100.00 Ry     beta=0.50
     Davidson diagonalization with overlap
     ethr =  9.63E-07,  avg # of iterations =  4.6

     total cpu time spent up to now is      188.2 secs

     total energy              =    -610.80998347 Ry
     Harris-Foulkes estimate   =    -610.81005379 Ry
     estimated scf accuracy    <       0.00016016 Ry

     iteration # 10     ecut=   100.00 Ry     beta=0.50
     Davidson diagonalization with overlap
     ethr =  1.18E-07,  avg # of iterations =  5.2

     total cpu time spent up to now is      212.8 secs

     total energy              =    -610.81019378 Ry
     Harris-Foulkes estimate   =    -610.81027065 Ry
     estimated scf accuracy    <       0.00017692 Ry

     iteration # 11     ecut=   100.00 Ry     beta=0.50
     Davidson diagonalization with overlap
     ethr =  1.18E-07,  avg # of iterations =  1.1

     total cpu time spent up to now is      225.2 secs

     total energy              =    -610.81017391 Ry
     Harris-Foulkes estimate   =    -610.81020262 Ry
     estimated scf accuracy    <       0.00004248 Ry

     iteration # 12     ecut=   100.00 Ry     beta=0.50
     Davidson diagonalization with overlap
     ethr =  3.12E-08,  avg # of iterations =  4.1

     total cpu time spent up to now is      248.8 secs

     total energy              =    -610.81021337 Ry
     Harris-Foulkes estimate   =    -610.81024388 Ry
     estimated scf accuracy    <       0.00008511 Ry

     iteration # 13     ecut=   100.00 Ry     beta=0.50
     Davidson diagonalization with overlap
     ethr =  3.12E-08,  avg # of iterations =  1.1

     total cpu time spent up to now is      261.2 secs

     total energy              =    -610.81019892 Ry
     Harris-Foulkes estimate   =    -610.81021578 Ry
     estimated scf accuracy    <       0.00003137 Ry

     iteration # 14     ecut=   100.00 Ry     beta=0.50
     Davidson diagonalization with overlap
     ethr =  2.31E-08,  avg # of iterations =  4.0

     total cpu time spent up to now is      283.3 secs

     total energy              =    -610.81021772 Ry
     Harris-Foulkes estimate   =    -610.81022129 Ry
     estimated scf accuracy    <       0.00001097 Ry

     iteration # 15     ecut=   100.00 Ry     beta=0.50
     Davidson diagonalization with overlap
     ethr =  8.06E-09,  avg # of iterations =  1.0

     total cpu time spent up to now is      295.7 secs

     total energy              =    -610.81021522 Ry
     Harris-Foulkes estimate   =    -610.81021797 Ry
     estimated scf accuracy    <       0.00000480 Ry

     iteration # 16     ecut=   100.00 Ry     beta=0.50
     Davidson diagonalization with overlap
     ethr =  3.53E-09,  avg # of iterations =  4.0

     total cpu time spent up to now is      317.3 secs

     total energy              =    -610.81021791 Ry
     Harris-Foulkes estimate   =    -610.81021851 Ry
     estimated scf accuracy    <       0.00000179 Ry

     iteration # 17     ecut=   100.00 Ry     beta=0.50
     Davidson diagonalization with overlap
     ethr =  1.31E-09,  avg # of iterations =  1.0

     total cpu time spent up to now is      329.7 secs

     total energy              =    -610.81021762 Ry
     Harris-Foulkes estimate   =    -610.81021795 Ry
     estimated scf accuracy    <       0.00000075 Ry

     iteration # 18     ecut=   100.00 Ry     beta=0.50
     Davidson diagonalization with overlap
     ethr =  5.52E-10,  avg # of iterations =  4.0

     total cpu time spent up to now is      350.1 secs

     total energy              =    -610.81021796 Ry
     Harris-Foulkes estimate   =    -610.81021798 Ry
     estimated scf accuracy    <       0.00000005 Ry

     iteration # 19     ecut=   100.00 Ry     beta=0.50
     Davidson diagonalization with overlap
     ethr =  3.84E-11,  avg # of iterations =  1.2

     total cpu time spent up to now is      362.6 secs

     total energy              =    -610.81021795 Ry
     Harris-Foulkes estimate   =    -610.81021796 Ry
     estimated scf accuracy    <       0.00000002 Ry

     iteration # 20     ecut=   100.00 Ry     beta=0.50
     Davidson diagonalization with overlap
     ethr =  1.32E-11,  avg # of iterations =  4.0

     total cpu time spent up to now is      384.9 secs

     End of self-consistent calculation

          k = 0.0000 0.0000 0.0000 ( 48393 PWs)   bands (ev):

   -20.4228 -20.4043 -17.5260 -17.3975 -15.6939 -15.6501 -15.3963 -15.3522
   -13.9442 -13.8848 -12.8444 -12.8118 -11.4245 -11.3092 -11.1811 -11.0829
    -9.9754  -9.8510  -9.1130  -8.9690  -8.4711  -8.3023  -7.4337  -7.1233
    -6.7084  -6.6371  -6.2443  -6.1305  -5.7468  -5.5656  -5.5192  -5.4718
    -5.2800  -5.0599  -4.3470  -4.2640  -4.0876  -4.0795  -3.8725  -3.7395
    -3.5604  -3.2710  -3.1805  -2.9975  -2.9008  -2.8696  -2.8440  -2.7877
    -2.7226  -2.6049  -2.5451  -2.2279  -2.1735  -1.8963  -1.8571  -1.7819
    -0.9649  -0.5837  -0.5146  -0.4287  -0.1757   0.0600   0.1682   0.4713
     0.4898   0.6147   1.4866   1.7009   4.6221   4.6778   5.2306   5.7401
     6.3888   6.7488   6.8859   7.2625   7.4656   7.9553   8.0270   8.4989
     8.5728

          k = 0.0000 0.0000-0.4408 ( 48418 PWs)   bands (ev):

   -20.4181 -20.4089 -17.5246 -17.3993 -15.7369 -15.6101 -15.3969 -15.3481
   -13.9353 -13.8908 -12.8494 -12.7802 -11.4049 -11.3834 -11.1450 -11.1260
    -9.9695  -9.8824  -9.0646  -9.0114  -8.3942  -8.3561  -7.2805  -7.1577
    -6.6874  -6.6609  -6.2490  -6.1032  -5.7699  -5.6027  -5.4857  -5.4343
    -5.2651  -5.1445  -4.4276  -4.3571  -4.0379  -4.0260  -3.7575  -3.7511
    -3.7091  -3.3257  -3.2739  -3.1136  -2.9439  -2.8953  -2.7358  -2.6887
    -2.6770  -2.6159  -2.5181  -2.2172  -2.0607  -1.9309  -1.8575  -1.7238
    -1.0016  -0.5949  -0.4314  -0.3605  -0.2178   0.0824   0.2205   0.4310
     0.4512   0.5423   1.4262   1.7895   4.5248   4.6401   5.3681   5.7181
     6.3796   6.8059   6.8277   7.1072   7.5822   7.9430   8.3561   8.3783
     8.5436

          k = 0.0000 0.3312 0.1562 ( 48409 PWs)   bands (ev):

   -20.4219 -20.4048 -17.5048 -17.4232 -15.6892 -15.6655 -15.4009 -15.3310
   -13.9402 -13.8941 -12.8337 -12.8080 -11.3843 -11.3340 -11.1703 -11.1009
    -9.9898  -9.8483  -9.1332  -9.0309  -8.4271  -8.3508  -7.3058  -7.1704
    -6.7155  -6.6208  -6.2203  -6.1248  -5.7921  -5.6729  -5.4568  -5.4196
    -5.1437  -5.0661  -4.4886  -4.3042  -4.0914  -4.0369  -3.8187  -3.6722
    -3.6338  -3.3480  -3.0806  -3.0371  -2.9551  -2.8457  -2.8059  -2.7644
    -2.7327  -2.6753  -2.5790  -2.1810  -2.0493  -1.9800  -1.8499  -1.7577
    -1.0557  -0.6278  -0.5368  -0.3616  -0.0899   0.0398   0.1062   0.4130
     0.5440   0.5605   1.3714   1.8178   4.6354   4.7415   5.4944   5.7450
     6.6211   6.7530   6.8800   7.2824   7.4514   7.7737   7.8838   7.9395
     8.2360

          k = 0.0000 0.3312-0.2845 ( 48434 PWs)   bands (ev):

   -20.4184 -20.4083 -17.5035 -17.4248 -15.7230 -15.6309 -15.3814 -15.3518
   -13.9320 -13.8992 -12.8481 -12.7799 -11.4528 -11.3138 -11.1507 -11.1063
    -9.9593  -9.8928  -9.1544  -8.9390  -8.4757  -8.3081  -7.2682  -7.2275
    -6.7084  -6.6496  -6.2421  -6.0828  -5.8451  -5.6737  -5.4650  -5.3870
    -5.1756  -5.0882  -4.3858  -4.2467  -4.0554  -4.0306  -3.8432  -3.6527
    -3.6239  -3.3506  -3.2644  -3.1358  -2.8995  -2.8559  -2.7978  -2.7457
    -2.7073  -2.5945  -2.5866  -2.2298  -2.0827  -1.9760  -1.8376  -1.7640
    -1.0898  -0.6627  -0.4393  -0.3187  -0.1238   0.0223   0.1369   0.4204
     0.5374   0.5748   1.4410   1.7699   4.5682   4.7547   5.5082   5.7365
     6.6427   6.7419   6.8936   7.1984   7.3557   7.4911   8.1381   8.3110
     8.4605

          k = 0.3333 0.1097 0.0877 ( 48426 PWs)   bands (ev):

   -20.4217 -20.4051 -17.5173 -17.4069 -15.7061 -15.6403 -15.3962 -15.3492
   -13.9337 -13.9026 -12.8481 -12.7962 -11.4119 -11.3215 -11.1797 -11.0915
   -10.0538  -9.7846  -9.1393  -8.9786  -8.4277  -8.3429  -7.3961  -7.0978
    -6.7352  -6.5965  -6.3155  -6.0333  -5.6533  -5.6061  -5.4497  -5.3810
    -5.1994  -5.0859  -4.4456  -4.3743  -4.2015  -4.1294  -3.8856  -3.5805
    -3.5238  -3.3389  -3.1889  -3.0941  -2.9545  -2.9161  -2.8594  -2.7764
    -2.7381  -2.5846  -2.4977  -2.2722  -2.1440  -1.9006  -1.8863  -1.7413
    -0.9103  -0.6757  -0.6320  -0.3333  -0.1682   0.0538   0.1536   0.4703
     0.5086   0.5749   1.5654   1.6858   4.5443   4.8263   5.2645   5.7071
     6.7091   6.8756   6.9003   7.3766   7.4081   7.9311   8.1070   8.3229
     8.6865

          k = 0.3333 0.1097-0.3530 ( 48369 PWs)   bands (ev):

   -20.4189 -20.4078 -17.5163 -17.4083 -15.7447 -15.6006 -15.3958 -15.3480
   -13.9271 -13.9048 -12.8651 -12.7738 -11.3993 -11.3752 -11.1466 -11.1238
    -9.9828  -9.8756  -9.1159  -8.9440  -8.4559  -8.2941  -7.2805  -7.2158
    -6.7081  -6.6310  -6.3010  -6.0625  -5.7039  -5.5855  -5.4518  -5.3774
    -5.2171  -5.1499  -4.4125  -4.2603  -4.1709  -4.0746  -3.8390  -3.7276
    -3.5631  -3.3091  -3.1309  -3.0640  -3.0211  -2.9633  -2.9207  -2.7377
    -2.7095  -2.6072  -2.4700  -2.3358  -2.1387  -1.9888  -1.8225  -1.7512
    -0.9137  -0.6671  -0.5356  -0.2896  -0.1914   0.0117   0.2402   0.4521
     0.5128   0.5708   1.5096   1.7163   4.4845   4.7850   5.3699   5.6554
     6.6674   6.7724   6.9480   7.4284   7.4750   7.9527   8.0653   8.3172
     8.6447

          k = 0.3333 0.4409 0.2440 ( 48396 PWs)   bands (ev):

   -20.4212 -20.4052 -17.5019 -17.4258 -15.6987 -15.6565 -15.4007 -15.3312
   -13.9301 -13.9073 -12.8490 -12.7938 -11.3904 -11.3419 -11.1854 -11.0755
    -9.9846  -9.8575  -9.1093  -9.0394  -8.4412  -8.3558  -7.3197  -7.1554
    -6.7027  -6.6551  -6.2517  -6.0579  -5.6362  -5.5699  -5.5256  -5.3529
    -5.2233  -5.0321  -4.5201  -4.3141  -4.1787  -4.1227  -3.8261  -3.6582
    -3.4922  -3.3102  -3.1112  -3.0816  -3.0207  -2.9368  -2.8506  -2.7962
    -2.6922  -2.6658  -2.5194  -2.2676  -2.1197  -1.9445  -1.8552  -1.7370
    -0.9892  -0.6945  -0.6061  -0.3223  -0.1038   0.0595   0.1113   0.4299
     0.5110   0.5516   1.4375   1.7789   4.5911   4.8743   5.5034   5.6617
     6.7214   6.8672   7.0064   7.4612   7.5843   7.6681   8.0356   8.1132
     8.3877

          k = 0.3333 0.4409-0.1968 ( 48390 PWs)   bands (ev):

   -20.4186 -20.4077 -17.5006 -17.4275 -15.7251 -15.6297 -15.3805 -15.3522
   -13.9230 -13.9118 -12.8558 -12.7744 -11.4466 -11.3072 -11.1488 -11.1264
    -9.9487  -9.9090  -9.1238  -8.9646  -8.4811  -8.3031  -7.2860  -7.2088
    -6.7019  -6.6783  -6.2487  -6.0474  -5.6670  -5.5642  -5.5362  -5.3694
    -5.1816  -5.1351  -4.3436  -4.2994  -4.1736  -4.0872  -3.8978  -3.6299
    -3.4486  -3.3219  -3.1756  -3.1199  -3.0624  -2.9292  -2.8468  -2.7855
    -2.7089  -2.6190  -2.5160  -2.3548  -2.0810  -2.0080  -1.8103  -1.7702
    -1.0078  -0.7304  -0.5182  -0.2765  -0.1070   0.0463   0.1281   0.4225
     0.5274   0.5503   1.5259   1.7216   4.5658   4.8246   5.5406   5.6203
     6.7154   6.8930   7.1512   7.4223   7.4635   7.5484   7.9174   8.2077
     8.5069

          k = 0.3333-0.2215-0.0685 ( 48379 PWs)   bands (ev):

   -20.4218 -20.4046 -17.5116 -17.4152 -15.6918 -15.6603 -15.4017 -15.3347
   -13.9357 -13.8983 -12.8431 -12.8106 -11.4028 -11.3436 -11.1996 -11.0455
    -9.9417  -9.8781  -9.1056  -9.0164  -8.4801  -8.3193  -7.3515  -7.1937
    -6.7107  -6.6370  -6.2235  -6.1213  -5.6895  -5.5978  -5.4536  -5.3990
    -5.1866  -5.0667  -4.3708  -4.2568  -4.1952  -4.1518  -3.8297  -3.6831
    -3.5165  -3.2566  -3.0911  -3.0401  -2.9968  -2.9399  -2.8812  -2.8316
    -2.7286  -2.6049  -2.5040  -2.3201  -2.1386  -1.9811  -1.8506  -1.7872
    -0.9520  -0.7313  -0.5303  -0.3517  -0.0869   0.0318   0.1078   0.4303
     0.5103   0.5934   1.4739   1.7036   4.6173   4.8727   5.3783   5.7019
     6.6846   6.8764   7.0434   7.4012   7.5057   7.9018   7.9694   8.3414
     8.5242

          k = 0.3333-0.2215-0.5093 ( 48434 PWs)   bands (ev):

   -20.4181 -20.4083 -17.5098 -17.4172 -15.7182 -15.6383 -15.3813 -15.3526
   -13.9284 -13.9046 -12.8478 -12.7757 -11.4313 -11.3236 -11.1759 -11.1136
    -9.9528  -9.9020  -9.1425  -8.9734  -8.4120  -8.3564  -7.2593  -7.1689
    -6.7051  -6.6414  -6.1980  -6.1259  -5.7190  -5.6038  -5.4637  -5.3882
    -5.2090  -5.0931  -4.4532  -4.3636  -4.1737  -4.0527  -3.8553  -3.6243
    -3.4815  -3.3252  -3.2063  -3.0699  -3.0065  -2.9296  -2.8375  -2.7631
    -2.7426  -2.6205  -2.5125  -2.3847  -2.0172  -1.9701  -1.8416  -1.7424
    -1.0101  -0.7403  -0.4815  -0.2979  -0.1326   0.0575   0.1254   0.3559
     0.5304   0.5544   1.5375   1.7462   4.5820   4.7941   5.4192   5.6760
     6.6615   6.8884   6.9637   7.4696   7.6250   7.9420   7.9860   8.1321
     8.6158

     highest occupied, lowest unoccupied level (ev):     1.8178    4.4845

!    total energy              =    -610.81021796 Ry
     Harris-Foulkes estimate   =    -610.81021797 Ry
     estimated scf accuracy    <          7.2E-09 Ry

     total all-electron energy =     -2356.050540 Ry

     The total energy is the sum of the following terms:

     one-electron contribution =    -339.90254401 Ry
     hartree contribution      =     221.99341969 Ry
     xc contribution           =    -137.82796338 Ry
     ewald contribution        =    -166.40169675 Ry
     Dispersion Correction     =      -0.23635399 Ry
     one-center paw contrib.   =    -188.43507951 Ry

     convergence has been achieved in  20 iterations

     Forces acting on atoms (cartesian axes, Ry/au):

     atom    1 type  4   force =     0.00029259   -0.00013183   -0.00167647
     atom    2 type  4   force =    -0.00029259    0.00013183    0.00167647
     atom    3 type  2   force =    -0.00094073   -0.00481454    0.00041736
     atom    4 type  2   force =     0.00094073    0.00481454   -0.00041736
     atom    5 type  2   force =     0.00026943    0.00233740   -0.00235179
     atom    6 type  2   force =    -0.00026943   -0.00233740    0.00235179
     atom    7 type  2   force =    -0.00155723    0.00151530    0.00036398
     atom    8 type  2   force =     0.00155723   -0.00151530   -0.00036398
     atom    9 type  1   force =     0.00247791    0.00113553   -0.00115000
     atom   10 type  1   force =    -0.00247791   -0.00113553    0.00115000
     atom   11 type  1   force =    -0.00284629   -0.00214370    0.00216171
     atom   12 type  1   force =     0.00284629    0.00214370   -0.00216171
     atom   13 type  1   force =    -0.00036873    0.00281210   -0.00079489
     atom   14 type  1   force =     0.00036873   -0.00281210    0.00079489
     atom   15 type  1   force =     0.00110353   -0.00451558    0.00282288
     atom   16 type  1   force =    -0.00110353    0.00451558   -0.00282288
     atom   17 type  1   force =     0.00033128    0.00354527   -0.00191279
     atom   18 type  1   force =    -0.00033128   -0.00354527    0.00191279
     atom   19 type  1   force =     0.00007846    0.00096110   -0.00348162
     atom   20 type  1   force =    -0.00007846   -0.00096110    0.00348162
     atom   21 type  1   force =     0.00133345   -0.00479696    0.00002951
     atom   22 type  1   force =    -0.00133345    0.00479696   -0.00002951
     atom   23 type  1   force =    -0.00246148   -0.00061250    0.00161145
     atom   24 type  1   force =     0.00246148    0.00061250   -0.00161145
     atom   25 type  1   force =    -0.00057546    0.00081415    0.00051417
     atom   26 type  1   force =     0.00057546   -0.00081415   -0.00051417
     atom   27 type  3   force =    -0.00119703    0.00119368    0.00067565
     atom   28 type  3   force =     0.00119703   -0.00119368   -0.00067565
     atom   29 type  3   force =    -0.00048034   -0.00015571    0.00035232
     atom   30 type  3   force =     0.00048034    0.00015571   -0.00035232
     atom   31 type  3   force =    -0.00037850   -0.00047198    0.00013030
     atom   32 type  3   force =     0.00037850    0.00047198   -0.00013030
     atom   33 type  3   force =    -0.00057208   -0.00066841   -0.00022035
     atom   34 type  3   force =     0.00057208    0.00066841    0.00022035
     atom   35 type  3   force =     0.00046840   -0.00085795   -0.00059924
     atom   36 type  3   force =    -0.00046840    0.00085795    0.00059924
     atom   37 type  3   force =     0.00016280   -0.00034974    0.00025990
     atom   38 type  3   force =    -0.00016280    0.00034974   -0.00025990
     atom   39 type  3   force =     0.00089354    0.00034666    0.00006464
     atom   40 type  3   force =    -0.00089354   -0.00034666   -0.00006464
     atom   41 type  3   force =     0.00111037    0.00067984    0.00117656
     atom   42 type  3   force =    -0.00111037   -0.00067984   -0.00117656
     atom   43 type  3   force =     0.00037897    0.00102240    0.00016505
     atom   44 type  3   force =    -0.00037897   -0.00102240   -0.00016505
     atom   45 type  3   force =     0.00034024   -0.00024626    0.00091566
     atom   46 type  3   force =    -0.00034024    0.00024626   -0.00091566
     atom   47 type  3   force =     0.00044178    0.00056890    0.00034789
     atom   48 type  3   force =    -0.00044178   -0.00056890   -0.00034789

     Total force =     0.019247     Total SCF correction =     0.000137


     Computing stress (Cartesian axis) and pressure

          total   stress  (Ry/bohr**3)                   (kbar)     P=   -6.69
  -0.00006543  -0.00000166   0.00002139         -9.63     -0.24      3.15
  -0.00000166  -0.00006461   0.00001922         -0.24     -9.50      2.83
   0.00002139   0.00001922  -0.00000636          3.15      2.83     -0.94


     Writing output data file scf.save
 
     init_run     :     12.73s CPU     13.44s WALL (       1 calls)
     electrons    :    353.25s CPU    370.93s WALL (       1 calls)
     forces       :      6.48s CPU      6.54s WALL (       1 calls)
     stress       :     18.86s CPU     18.88s WALL (       1 calls)

     Called by init_run:
     wfcinit      :      6.89s CPU      7.32s WALL (       1 calls)
     potinit      :      2.07s CPU      2.11s WALL (       1 calls)

     Called by electrons:
     c_bands      :    305.12s CPU    320.88s WALL (      20 calls)
     sum_band     :     39.60s CPU     41.23s WALL (      20 calls)
     v_of_rho     :      1.37s CPU      1.50s WALL (      21 calls)
     newd         :      2.36s CPU      2.45s WALL (      21 calls)
     PAW_pot      :      4.32s CPU      4.33s WALL (      21 calls)
     mix_rho      :      0.31s CPU      0.33s WALL (      20 calls)

     Called by c_bands:
     init_us_2    :      3.52s CPU      3.52s WALL (     430 calls)
     cegterg      :    293.76s CPU    309.45s WALL (     200 calls)

     Called by sum_band:
     sum_band:bec :      0.03s CPU      0.03s WALL (     200 calls)
     addusdens    :      2.49s CPU      2.56s WALL (      20 calls)

     Called by *egterg:
     h_psi        :    206.13s CPU    219.25s WALL (     860 calls)
     s_psi        :     20.77s CPU     20.77s WALL (     860 calls)
     g_psi        :      1.66s CPU      1.65s WALL (     650 calls)
     cdiaghg      :     14.25s CPU     14.31s WALL (     850 calls)

     Called by h_psi:
     h_psi:pot    :    204.46s CPU    217.56s WALL (     860 calls)
     h_psi:calbec :     19.12s CPU     19.24s WALL (     860 calls)
     vloc_psi     :    164.65s CPU    177.62s WALL (     860 calls)
     add_vuspsi   :     20.70s CPU     20.70s WALL (     860 calls)

     General routines
     calbec       :     26.71s CPU     26.88s WALL (    1110 calls)
     fft          :      0.73s CPU      1.07s WALL (     297 calls)
     fftw         :    175.18s CPU    188.83s WALL (  115190 calls)
 
     Parallel routines
     fft_scatter  :     36.94s CPU     45.15s WALL (  115487 calls)
 
     PWSCF        :  6m34.71s CPU     6m54.10s WALL

 
   This run was terminated on:   7:23:57   4Nov2017            

=------------------------------------------------------------------------------=
   JOB DONE.
=------------------------------------------------------------------------------=
