
     Program PWSCF v.6.1 (svn rev. 13369) starts on 21Dec2017 at  5:17:41 

     This program is part of the open-source Quantum ESPRESSO suite
     for quantum simulation of materials; please cite
         "P. Giannozzi et al., J. Phys.:Condens. Matter 21 395502 (2009);
          URL http://www.quantum-espresso.org", 
     in publications or presentations arising from this work. More details at
     http://www.quantum-espresso.org/quote

     Parallel version (MPI), running on     8 processors
     R & G space division:  proc/nbgrp/npool/nimage =       8
     Waiting for input...
     Reading input from standard input

     Current dimensions of program PWSCF are:
     Max number of different atomic species (ntypx) = 10
     Max number of k-points (npk) =  40000
     Max angular momentum in pseudopotentials (lmaxx) =  3
               file C.pbe-n-kjpaw_psl.0.1.UPF: wavefunction(s)  2P renormalized
               file N.pbe-n-kjpaw_psl.0.1.UPF: wavefunction(s)  2P renormalized
               file H.pbe-kjpaw_psl.0.1.UPF: wavefunction(s)  1S renormalized
               file O.pbe-n-kjpaw_psl.0.1.UPF: wavefunction(s)  2P renormalized

     -------------------------------------
     Parameters for Dispersion Correction:
     -------------------------------------
       atom      VdW radius       C_6     

        C          2.744         60.710
        N          2.640         42.670
        H          1.892          4.857
        O          2.536         24.284

     Subspace diagonalization in iterative solution of the eigenvalue problem:
     a serial algorithm will be used

 
     Parallelization info
     --------------------
     sticks:   dense  smooth     PW     G-vecs:    dense   smooth      PW
     Min        1724    1724    450               183433   183433   24660
     Max        1725    1725    451               183437   183437   24663
     Sum       13797   13797   3607              1467471  1467471  197291
 


     bravais-lattice index     =            0
     lattice parameter (alat)  =      20.2376  a.u.
     unit-cell volume          =   10862.4113 (a.u.)^3
     number of atoms/cell      =          160
     number of atomic types    =            4
     number of electrons       =       576.00
     number of Kohn-Sham states=          345
     kinetic-energy cutoff     =     100.0000  Ry
     charge density cutoff     =     400.0000  Ry
     convergence threshold     =      1.0E-08
     mixing beta               =       0.5000
     number of iterations used =            8  plain     mixing
     Exchange-correlation      =  SLA  PW   PBX  PBC ( 1  4  3  4 0 0)

     celldm(1)=  20.237644  celldm(2)=   0.000000  celldm(3)=   0.000000
     celldm(4)=   0.000000  celldm(5)=   0.000000  celldm(6)=   0.000000

     crystal axes: (cart. coord. in units of alat)
               a(1) = (   1.000000   0.000000   0.000000 )  
               a(2) = (   0.000000   1.058650   0.000000 )  
               a(3) = (   0.000000   0.000000   1.237924 )  

     reciprocal axes: (cart. coord. in units 2 pi/alat)
               b(1) = (  1.000000  0.000000  0.000000 )  
               b(2) = (  0.000000  0.944599  0.000000 )  
               b(3) = (  0.000000  0.000000  0.807804 )  


     PseudoPot. # 1 for  C read from file:
     /scratch/ahofstet/pseudo/C.pbe-n-kjpaw_psl.0.1.UPF
     MD5 check sum: 430fe95172b1e11ef3f8ed03bac87931
     Pseudo is Projector augmented-wave + core cor, Zval =  4.0
     Generated using "atomic" code by A. Dal Corso  v.5.0.99 svn rev. 10869
     Shape of augmentation charge: BESSEL
     Using radial grid of 1073 points,  4 beta functions with: 
                l(1) =   0
                l(2) =   0
                l(3) =   1
                l(4) =   1
     Q(r) pseudized with 0 coefficients 


     PseudoPot. # 2 for  N read from file:
     /scratch/ahofstet/pseudo/N.pbe-n-kjpaw_psl.0.1.UPF
     MD5 check sum: f73187c8b701007e77325f868c9291d7
     Pseudo is Projector augmented-wave + core cor, Zval =  5.0
     Generated using "atomic" code by A. Dal Corso  v.5.0.99 svn rev. 10869
     Shape of augmentation charge: PSQ
     Using radial grid of 1085 points,  4 beta functions with: 
                l(1) =   0
                l(2) =   0
                l(3) =   1
                l(4) =   1
     Q(r) pseudized with 0 coefficients 


     PseudoPot. # 3 for  H read from file:
     /scratch/ahofstet/pseudo/H.pbe-kjpaw_psl.0.1.UPF
     MD5 check sum: 94e484f906d9e9773b2f6e52662335b2
     Pseudo is Projector augmented-wave, Zval =  1.0
     Generated using "atomic" code by A. Dal Corso  v.5.0.99 svn rev. 10869
     Shape of augmentation charge: PSQ
     Using radial grid of  929 points,  2 beta functions with: 
                l(1) =   0
                l(2) =   0
     Q(r) pseudized with 0 coefficients 


     PseudoPot. # 4 for  O read from file:
     /scratch/ahofstet/pseudo/O.pbe-n-kjpaw_psl.0.1.UPF
     MD5 check sum: 3f94a2996a3169367d6eb21d9b593f20
     Pseudo is Projector augmented-wave + core cor, Zval =  6.0
     Generated using "atomic" code by A. Dal Corso  v.5.0.99 svn rev. 10869
     Shape of augmentation charge: BESSEL
     Using radial grid of 1095 points,  4 beta functions with: 
                l(1) =   0
                l(2) =   0
                l(3) =   1
                l(4) =   1
     Q(r) pseudized with 0 coefficients 


     atomic species   valence    mass     pseudopotential
        C              4.00    12.01070      C( 1.00)
        N              5.00    14.00670      N( 1.00)
        H              1.00     1.00794      H( 1.00)
        O              6.00    15.99940      O( 1.00)

     No symmetry found
          (note:  1 additional sym.ops. were found but ignored
           their fractional translations are incommensurate with FFT grid)


   Cartesian axes

     site n.     atom                  positions (alat units)
         1           C   tau(   1) = (   0.2910817   0.8717144   0.0214934  )
         2           C   tau(   2) = (   0.2089497   0.1869127   0.6403126  )
         3           C   tau(   3) = (   0.7910817   0.7162605   1.2164306  )
         4           C   tau(   4) = (   0.7089497   0.3424123   0.5976115  )
         5           O   tau(   5) = (   0.1768654   0.6901204   0.0790138  )
         6           O   tau(   6) = (   0.3231374   0.3685115   0.6978611  )
         7           O   tau(   7) = (   0.6768654   0.8978545   1.1589102  )
         8           O   tau(   8) = (   0.8231374   0.1608135   0.5400630  )
         9           N   tau(   9) = (   0.2492049   0.7336580   0.0016168  )
        10           N   tau(  10) = (   0.2508289   0.3249750   0.6204679  )
        11           N   tau(  11) = (   0.7492049   0.8543170   1.2363072  )
        12           N   tau(  12) = (   0.7508289   0.2043500   0.6174562  )
        13           O   tau(  13) = (   0.2974619   0.6775046   1.1522506  )
        14           O   tau(  14) = (   0.2025618   0.3811357   0.5331594  )
        15           O   tau(  15) = (   0.7974619   0.9104703   0.0856735  )
        16           O   tau(  16) = (   0.7025618   0.1481893   0.7047646  )
        17           N   tau(  17) = (   0.2968684   0.9275748   1.1270547  )
        18           N   tau(  18) = (   0.2032222   0.1310401   0.5079610  )
        19           N   tau(  19) = (   0.7968684   0.6604002   0.1108694  )
        20           N   tau(  20) = (   0.7032222   0.3982849   0.7299630  )
        21           C   tau(  21) = (   0.2026720   0.9419468   0.1056806  )
        22           C   tau(  22) = (   0.2973123   0.1167057   0.7245829  )
        23           C   tau(  23) = (   0.7026720   0.6460281   1.1322434  )
        24           C   tau(  24) = (   0.7973123   0.4126193   0.5133412  )
        25           N   tau(  25) = (   0.1036056   0.9918492   0.0606236  )
        26           N   tau(  26) = (   0.3963964   0.0667890   0.6795708  )
        27           N   tau(  27) = (   0.6036056   0.5961257   1.1773004  )
        28           N   tau(  28) = (   0.8963964   0.4625360   0.5583533  )
        29           O   tau(  29) = (   0.2046734   0.9092337   1.0607210  )
        30           O   tau(  30) = (   0.2954395   0.1493979   0.4416548  )
        31           O   tau(  31) = (   0.7046734   0.6787412   0.1772030  )
        32           O   tau(  32) = (   0.7954395   0.3799271   0.7962692  )
        33           C   tau(  33) = (   0.2542115   0.9465021   0.2357749  )
        34           C   tau(  34) = (   0.2457118   0.1122008   0.8546589  )
        35           C   tau(  35) = (   0.7542115   0.6414729   1.0021492  )
        36           C   tau(  36) = (   0.7457118   0.4171242   0.3832651  )
        37           O   tau(  37) = (   0.3893809   0.9878556   1.0982009  )
        38           O   tau(  38) = (   0.1107317   0.0707489   0.4790778  )
        39           O   tau(  39) = (   0.8893809   0.6001193   0.1397231  )
        40           O   tau(  40) = (   0.6107317   0.4585761   0.7588462  )
        41           C   tau(  41) = (   0.3737570   0.8665143   0.2305117  )
        42           C   tau(  42) = (   0.1261597   0.1921759   0.8492717  )
        43           C   tau(  43) = (   0.8737570   0.7214606   1.0074124  )
        44           C   tau(  44) = (   0.6261597   0.3371491   0.3886523  )
        45           O   tau(  45) = (   0.0354461   1.0582743   0.1472990  )
        46           O   tau(  46) = (   0.4645346   0.0003864   0.7662778  )
        47           O   tau(  47) = (   0.5354461   0.5297006   1.0906250  )
        48           O   tau(  48) = (   0.9645346   0.5289386   0.4716462  )
        49           C   tau(  49) = (   0.4142957   0.8713830   0.0927931  )
        50           C   tau(  50) = (   0.0856969   0.1872513   0.7115327  )
        51           C   tau(  51) = (   0.9142957   0.7165919   1.1451309  )
        52           C   tau(  52) = (   0.5856969   0.3420737   0.5263913  )
        53           C   tau(  53) = (   0.2923534   0.7168199   0.6408369  )
        54           C   tau(  54) = (   0.2076415   0.3418094   0.0219407  )
        55           C   tau(  55) = (   0.7923534   0.8711551   0.5970871  )
        56           C   tau(  56) = (   0.7076415   0.1875156   1.2159834  )
        57           O   tau(  57) = (   0.3921123   0.5999736   0.4810975  )
        58           O   tau(  58) = (   0.1078627   0.4586551   1.1001265  )
        59           O   tau(  59) = (   0.8921123   0.9880013   0.7568265  )
        60           O   tau(  60) = (   0.6078627   0.0706699   0.1377975  )
        61           N   tau(  61) = (   0.2996198   0.6609068   0.5085340  )
        62           N   tau(  62) = (   0.2003644   0.3977141   1.1275528  )
        63           N   tau(  63) = (   0.7996198   0.9270682   0.7293901  )
        64           N   tau(  64) = (   0.7003644   0.1316109   0.1103712  )
        65           N   tau(  65) = (   0.2488435   0.8543178   0.6205839  )
        66           N   tau(  66) = (   0.2511554   0.2043135   0.0016815  )
        67           N   tau(  67) = (   0.7488435   0.7336572   0.6173401  )
        68           N   tau(  68) = (   0.7511554   0.3250115   1.2362425  )
        69           O   tau(  69) = (   0.2082277   0.6793290   0.4410861  )
        70           O   tau(  70) = (   0.2917402   0.3792925   1.0600975  )
        71           O   tau(  71) = (   0.7082277   0.9086460   0.7968379  )
        72           O   tau(  72) = (   0.7917402   0.1500324   0.1778265  )
        73           C   tau(  73) = (   0.2044428   0.6452069   0.7244010  )
        74           C   tau(  74) = (   0.2955668   0.4134366   0.1054630  )
        75           C   tau(  75) = (   0.7044428   0.9427681   0.5135231  )
        76           C   tau(  76) = (   0.7955668   0.1158884   1.1324611  )
        77           N   tau(  77) = (   0.1059497   0.5944692   0.6789873  )
        78           N   tau(  78) = (   0.3940623   0.4641635   0.0600353  )
        79           N   tau(  79) = (   0.6059497   0.9935057   0.5589368  )
        80           N   tau(  80) = (   0.8940623   0.0651614   1.1778888  )
        81           C   tau(  81) = (   0.2556862   0.6407026   0.8546636  )
        82           C   tau(  82) = (   0.2443422   0.4179735   0.2357237  )
        83           C   tau(  83) = (   0.7556862   0.9472724   0.3832604  )
        84           C   tau(  84) = (   0.7443422   0.1113514   1.0022004  )
        85           O   tau(  85) = (   0.2984283   0.9114841   0.5347048  )
        86           O   tau(  86) = (   0.2015877   0.1471469   1.1537260  )
        87           O   tau(  87) = (   0.7984283   0.6764908   0.7032192  )
        88           O   tau(  88) = (   0.7015877   0.3821781   0.0841980  )
        89           O   tau(  89) = (   0.1741469   0.8965901   0.6964148  )
        90           O   tau(  90) = (   0.3258579   0.1620457   0.0775201  )
        91           O   tau(  91) = (   0.6741469   0.6913848   0.5415092  )
        92           O   tau(  92) = (   0.8258579   0.3672793   1.1604040  )
        93           C   tau(  93) = (   0.3727022   0.7242747   0.8504342  )
        94           C   tau(  94) = (   0.1273268   0.3343992   0.2315521  )
        95           C   tau(  95) = (   0.8727022   0.8637003   0.3874899  )
        96           C   tau(  96) = (   0.6273268   0.1949258   1.0063720  )
        97           O   tau(  97) = (   0.0386118   0.5269423   0.7654815  )
        98           O   tau(  98) = (   0.4614004   0.5317030   0.1465194  )
        99           O   tau(  99) = (   0.5386118   1.0610327   0.4724426  )
       100           O   tau( 100) = (   0.9614004  -0.0023780   1.0914047  )
       101           C   tau( 101) = (   0.4149655   0.7192641   0.7132530  )
       102           C   tau( 102) = (   0.0850408   0.3393742   0.0943762  )
       103           C   tau( 103) = (   0.9149655   0.8687109   0.5246710  )
       104           C   tau( 104) = (   0.5850408   0.1899507   1.1435478  )
       105           H   tau( 105) = (   0.2738844   1.0442934   0.2606979  )
       106           H   tau( 106) = (   0.2260415   0.0144184   0.8796232  )
       107           H   tau( 107) = (   0.7738844   0.5436816   0.9772261  )
       108           H   tau( 108) = (   0.7260415   0.5149066   0.3583008  )
       109           H   tau( 109) = (   0.1852025   0.9128336   0.3037787  )
       110           H   tau( 110) = (   0.3146817   0.1459216   0.9226779  )
       111           H   tau( 111) = (   0.6852025   0.6751414   0.9341454  )
       112           H   tau( 112) = (   0.8146817   0.3834034   0.3152461  )
       113           H   tau( 113) = (   0.4467204   0.9030576   0.2922675  )
       114           H   tau( 114) = (   0.0531645   0.1556561   0.9110059  )
       115           H   tau( 115) = (   0.9467204   0.6849174   0.9456566  )
       116           H   tau( 116) = (   0.5531645   0.3736689   0.3269182  )
       117           H   tau( 117) = (   0.3535644   0.7698511   0.2581602  )
       118           H   tau( 118) = (   0.1463305   0.2888500   0.8769010  )
       119           H   tau( 119) = (   0.8535644   0.8181239   0.9797638  )
       120           H   tau( 120) = (   0.6463305   0.2404750   0.3610230  )
       121           H   tau( 121) = (   0.4760888   0.7953870   0.0629277  )
       122           H   tau( 122) = (   0.0239141   0.2632354   0.6816170  )
       123           H   tau( 123) = (   0.9760888   0.7925880   1.1749963  )
       124           H   tau( 124) = (   0.5239141   0.2660896   0.5563071  )
       125           H   tau( 125) = (   0.9665244   0.0336096   0.0942131  )
       126           H   tau( 126) = (   0.5334681   1.0250465   0.7132124  )
       127           H   tau( 127) = (   0.4665244   0.4957154   1.1437109  )
       128           H   tau( 128) = (   0.0334681   0.5629284   0.5247117  )
       129           H   tau( 129) = (   0.4600674   0.9607549   0.0715227  )
       130           H   tau( 130) = (   0.0399422   0.0978679   0.6902792  )
       131           H   tau( 131) = (   0.9600674   0.6272201   1.1664014  )
       132           H   tau( 132) = (   0.5399422   0.4314571   0.5476449  )
       133           H   tau( 133) = (   0.1855066   0.6710786   0.9229726  )
       134           H   tau( 134) = (   0.3145335   0.3876240   0.3040323  )
       135           H   tau( 135) = (   0.6855066   0.9168963   0.3149514  )
       136           H   tau( 136) = (   0.8145335   0.1417010   0.9338918  )
       137           H   tau( 137) = (   0.2788637   0.5433653   0.8783961  )
       138           H   tau( 138) = (   0.2211614   0.5153149   0.2594326  )
       139           H   tau( 139) = (   0.7788637   1.0446097   0.3595280  )
       140           H   tau( 140) = (   0.7211614   0.0140101   0.9784914  )
       141           H   tau( 141) = (   0.3491675   0.8205975   0.8766280  )
       142           H   tau( 142) = (   0.1508651   0.2380826   0.2577637  )
       143           H   tau( 143) = (   0.8491675   0.7673774   0.3612961  )
       144           H   tau( 144) = (   0.6508651   0.2912424   0.9801603  )
       145           H   tau( 145) = (   0.4459015   0.6909703   0.9136928  )
       146           H   tau( 146) = (   0.0541408   0.3677219   0.2948158  )
       147           H   tau( 147) = (   0.9459015   0.8970047   0.3242313  )
       148           H   tau( 148) = (   0.5541408   0.1616031   0.9431083  )
       149           H   tau( 149) = (   0.4754201   0.7963516   0.6835175  )
       150           H   tau( 150) = (   0.0245814   0.2622802   0.0646655  )
       151           H   tau( 151) = (   0.9754201   0.7916233   0.5544065  )
       152           H   tau( 152) = (   0.5245814   0.2670448   1.1732586  )
       153           H   tau( 153) = (   0.9692507   0.4932598   0.7127821  )
       154           H   tau( 154) = (   0.5307627   0.5653835   0.0938204  )
       155           H   tau( 155) = (   0.4692507   0.0360652   0.5251419  )
       156           H   tau( 156) = (   0.0307627   1.0225915   1.1441036  )
       157           H   tau( 157) = (   0.4626450   0.6306457   0.6929185  )
       158           H   tau( 158) = (   0.0373585   0.4279886   0.0740294  )
       159           H   tau( 159) = (   0.9626450   0.9573292   0.5450055  )
       160           H   tau( 160) = (   0.5373585   0.1013363   1.1638947  )

     number of k points=     8
                       cart. coord. in units 2pi/alat
        k(    1) = (   0.0000000   0.0000000   0.0000000), wk =   0.2500000
        k(    2) = (   0.0000000   0.0000000  -0.4039020), wk =   0.2500000
        k(    3) = (   0.0000000  -0.4722996   0.0000000), wk =   0.2500000
        k(    4) = (   0.0000000  -0.4722996  -0.4039020), wk =   0.2500000
        k(    5) = (  -0.5000000   0.0000000   0.0000000), wk =   0.2500000
        k(    6) = (  -0.5000000   0.0000000  -0.4039020), wk =   0.2500000
        k(    7) = (  -0.5000000  -0.4722996   0.0000000), wk =   0.2500000
        k(    8) = (  -0.5000000  -0.4722996  -0.4039020), wk =   0.2500000

     Dense  grid:  1467471 G-vectors     FFT dimensions: ( 135, 144, 160)

     Estimated max dynamical RAM per process >    2553.91MB

     Estimated total allocated dynamical RAM >   20431.28MB

     Check: negative/imaginary core charge=   -0.000002    0.000000

     Initial potential from superposition of free atoms

     starting charge  575.99757, renormalised to  576.00000
     Starting wfc are  472 randomized atomic wfcs
     Checking if some PAW data can be deallocated... 

     total cpu time spent up to now is      194.4 secs

     per-process dynamical memory:  1596.0 Mb

     Self-consistent Calculation

     iteration #  1     ecut=   100.00 Ry     beta=0.50
     Davidson diagonalization with overlap
     ethr =  1.00E-02,  avg # of iterations =  4.1

     total cpu time spent up to now is      892.5 secs

     total energy              =   -3139.88266408 Ry
     Harris-Foulkes estimate   =   -3149.18274451 Ry
     estimated scf accuracy    <      16.78317706 Ry

     iteration #  2     ecut=   100.00 Ry     beta=0.50
     Davidson diagonalization with overlap
     ethr =  2.91E-03,  avg # of iterations =  5.1

     total cpu time spent up to now is     1405.5 secs

     total energy              =   -3142.62533933 Ry
     Harris-Foulkes estimate   =   -3145.02878386 Ry
     estimated scf accuracy    <       5.09278155 Ry

     iteration #  3     ecut=   100.00 Ry     beta=0.50
     Davidson diagonalization with overlap
     ethr =  8.84E-04,  avg # of iterations =  4.8

     total cpu time spent up to now is     1900.5 secs

     total energy              =   -3143.78129831 Ry
     Harris-Foulkes estimate   =   -3144.11775925 Ry
     estimated scf accuracy    <       0.83782383 Ry

     iteration #  4     ecut=   100.00 Ry     beta=0.50
     Davidson diagonalization with overlap
     ethr =  1.45E-04,  avg # of iterations =  6.8

     total cpu time spent up to now is     2377.4 secs

     total energy              =   -3143.88600528 Ry
     Harris-Foulkes estimate   =   -3143.97338476 Ry
     estimated scf accuracy    <       0.20617927 Ry

     iteration #  5     ecut=   100.00 Ry     beta=0.50
     Davidson diagonalization with overlap
     ethr =  3.58E-05,  avg # of iterations =  8.2

     total cpu time spent up to now is     2925.8 secs

     total energy              =   -3143.92475686 Ry
     Harris-Foulkes estimate   =   -3143.97219175 Ry
     estimated scf accuracy    <       0.14039692 Ry

     iteration #  6     ecut=   100.00 Ry     beta=0.50
     Davidson diagonalization with overlap
     ethr =  2.44E-05,  avg # of iterations =  2.0

     total cpu time spent up to now is     3286.7 secs

     total energy              =   -3143.94633590 Ry
     Harris-Foulkes estimate   =   -3143.94928246 Ry
     estimated scf accuracy    <       0.00742751 Ry

     iteration #  7     ecut=   100.00 Ry     beta=0.50
     Davidson diagonalization with overlap
     ethr =  1.29E-06,  avg # of iterations =  9.8

     total cpu time spent up to now is     4101.1 secs

     total energy              =   -3143.94941920 Ry
     Harris-Foulkes estimate   =   -3143.95011880 Ry
     estimated scf accuracy    <       0.00190812 Ry

     iteration #  8     ecut=   100.00 Ry     beta=0.50
     Davidson diagonalization with overlap
     ethr =  3.31E-07,  avg # of iterations =  2.2

     total cpu time spent up to now is     4465.5 secs

     total energy              =   -3143.94963762 Ry
     Harris-Foulkes estimate   =   -3143.94979466 Ry
     estimated scf accuracy    <       0.00042380 Ry

     iteration #  9     ecut=   100.00 Ry     beta=0.50
     Davidson diagonalization with overlap
     ethr =  7.36E-08,  avg # of iterations =  4.0

     total cpu time spent up to now is     4994.8 secs

     total energy              =   -3143.94975596 Ry
     Harris-Foulkes estimate   =   -3143.94987015 Ry
     estimated scf accuracy    <       0.00040314 Ry

     iteration # 10     ecut=   100.00 Ry     beta=0.50
     Davidson diagonalization with overlap
     ethr =  7.00E-08,  avg # of iterations =  2.0

     total cpu time spent up to now is     5342.9 secs

     total energy              =   -3143.94978110 Ry
     Harris-Foulkes estimate   =   -3143.94980486 Ry
     estimated scf accuracy    <       0.00004562 Ry

     iteration # 11     ecut=   100.00 Ry     beta=0.50
     Davidson diagonalization with overlap
     ethr =  7.92E-09,  avg # of iterations =  4.0

     total cpu time spent up to now is     5969.3 secs

     total energy              =   -3143.94980606 Ry
     Harris-Foulkes estimate   =   -3143.94981603 Ry
     estimated scf accuracy    <       0.00003117 Ry

     iteration # 12     ecut=   100.00 Ry     beta=0.50
     Davidson diagonalization with overlap
     ethr =  5.41E-09,  avg # of iterations =  2.0

     total cpu time spent up to now is     6319.2 secs

     total energy              =   -3143.94980592 Ry
     Harris-Foulkes estimate   =   -3143.94980929 Ry
     estimated scf accuracy    <       0.00001042 Ry

     iteration # 13     ecut=   100.00 Ry     beta=0.50
     Davidson diagonalization with overlap
     ethr =  1.81E-09,  avg # of iterations =  3.6

     total cpu time spent up to now is     6789.3 secs

     total energy              =   -3143.94980884 Ry
     Harris-Foulkes estimate   =   -3143.94980895 Ry
     estimated scf accuracy    <       0.00000051 Ry

     iteration # 14     ecut=   100.00 Ry     beta=0.50
     Davidson diagonalization with overlap
     ethr =  8.93E-11,  avg # of iterations =  3.6

     total cpu time spent up to now is     7299.7 secs

     total energy              =   -3143.94980898 Ry
     Harris-Foulkes estimate   =   -3143.94980902 Ry
     estimated scf accuracy    <       0.00000012 Ry

     iteration # 15     ecut=   100.00 Ry     beta=0.50
     Davidson diagonalization with overlap
     ethr =  2.09E-11,  avg # of iterations =  3.0

     total cpu time spent up to now is     7700.6 secs

     total energy              =   -3143.94980899 Ry
     Harris-Foulkes estimate   =   -3143.94980902 Ry
     estimated scf accuracy    <       0.00000009 Ry

     iteration # 16     ecut=   100.00 Ry     beta=0.50
     Davidson diagonalization with overlap
     ethr =  1.63E-11,  avg # of iterations =  2.0

     total cpu time spent up to now is     8053.3 secs

     total energy              =   -3143.94980900 Ry
     Harris-Foulkes estimate   =   -3143.94980901 Ry
     estimated scf accuracy    <       0.00000001 Ry

     iteration # 17     ecut=   100.00 Ry     beta=0.50
     Davidson diagonalization with overlap
     ethr =  2.41E-12,  avg # of iterations =  3.6

     total cpu time spent up to now is     8607.6 secs

     End of self-consistent calculation

          k = 0.0000 0.0000 0.0000 (183391 PWs)   bands (ev):

   -24.9929 -24.9917 -24.9892 -24.9881 -24.9667 -24.9657 -24.9639 -24.9629
   -24.6607 -24.6594 -24.6575 -24.6561 -24.6334 -24.6321 -24.6310 -24.6297
   -21.1292 -21.1285 -21.1238 -21.1231 -20.8603 -20.8593 -20.8593 -20.8584
   -20.5412 -20.5400 -20.5383 -20.5373 -20.5352 -20.5339 -20.5312 -20.5300
   -20.4062 -20.4047 -20.4019 -20.4012 -20.4009 -20.4002 -20.3987 -20.3980
   -16.3468 -16.3413 -16.3057 -16.3050 -16.3029 -16.2959 -16.2807 -16.2678
   -14.6095 -14.6017 -14.5286 -14.5273 -14.4265 -14.4253 -14.4077 -14.4021
   -13.2421 -13.2145 -13.1883 -13.1811 -13.1776 -13.1576 -13.1555 -13.1538
   -10.9522 -10.9381 -10.9294 -10.9219 -10.9214 -10.9137 -10.8996 -10.8874
   -10.8073 -10.7855 -10.7735 -10.7719 -10.7560 -10.7389 -10.7312 -10.7211
    -9.5463  -9.5256  -9.5198  -9.4794  -9.4524  -9.4505  -9.4422  -9.4289
    -8.4350  -8.4265  -8.4240  -8.3389  -8.3166  -8.2758  -8.2652  -8.2096
    -7.9944  -7.9324  -7.9207  -7.8905  -7.8702  -7.8669  -7.8138  -7.7832
    -7.7184  -7.7133  -7.7040  -7.6976  -7.6860  -7.6593  -7.6547  -7.6392
    -7.1667  -7.1198  -7.1185  -7.0929  -7.0355  -7.0014  -6.9939  -6.8956
    -6.7930  -6.7383  -6.6969  -6.6736  -6.6686  -6.6432  -6.6414  -6.6215
    -6.5506  -6.5093  -6.4970  -6.4813  -6.4789  -6.4778  -6.4631  -6.4608
    -6.4507  -6.4227  -6.3930  -6.3842  -6.3544  -6.3448  -6.3140  -6.2641
    -6.2482  -6.2475  -6.2431  -6.2287  -6.2188  -6.1933  -6.1832  -6.1765
    -6.1426  -6.1282  -6.1170  -6.0822  -5.0991  -5.0595  -5.0092  -4.9664
    -4.9400  -4.9279  -4.8781  -4.8568  -4.7584  -4.7447  -4.7366  -4.7031
    -4.1828  -4.1575  -4.1498  -4.1358  -4.1204  -4.0784  -4.0676  -4.0459
    -4.0379  -3.9825  -3.9365  -3.9334  -3.8629  -3.8496  -3.8170  -3.7905
    -3.5545  -3.5182  -3.5050  -3.4984  -3.4966  -3.4850  -3.4728  -3.4543
    -3.2392  -3.2039  -3.1650  -3.1465  -3.0612  -3.0508  -3.0221  -3.0136
    -2.8452  -2.8223  -2.7948  -2.7343  -2.6195  -2.6185  -2.5754  -2.5540
    -2.2302  -2.2183  -2.1185  -2.1100  -2.1031  -2.0920  -2.0540  -2.0466
    -2.0156  -1.9258  -1.8926  -1.8266  -1.8185  -1.8176  -1.8096  -1.7647
    -1.7007  -1.6894  -1.6725  -1.6647  -1.6344  -1.6219  -1.6196  -1.6172
    -1.5852  -1.5668  -1.5341  -1.4736  -1.4361  -1.4206  -1.4170  -1.4104
    -1.3227  -1.2382  -1.2335  -1.2214  -1.1838  -1.1798  -1.1428  -1.1417
    -1.1249  -1.1086  -1.0488  -1.0416  -1.0241  -0.9993  -0.9871  -0.9677
    -0.9475  -0.9273  -0.8353  -0.7764  -0.7426  -0.7314  -0.7275  -0.7176
    -0.6677  -0.5912  -0.5490  -0.5448  -0.5417  -0.5325  -0.5309  -0.5207
    -0.5194  -0.5168  -0.4796  -0.4271   0.1029   0.1039   0.1223   0.1263
     0.2011   0.2561   0.2686   0.3193   0.3430   0.3514   0.3663   0.3872
     2.9014   2.9790   2.9915   3.0496   3.0515   3.0687   3.0872   3.0932
     3.1017   3.1395   3.1430   3.1492   3.1556   3.1930   3.1965   3.2135
     4.5696   4.5714   4.5842   4.6030   4.6291   4.6506   4.6598   4.7054
     6.3977   6.8663   7.1708   7.2830   7.3102   7.3497   7.3677   7.4891
     7.5007   7.5057   7.6865   7.7237   7.7323   7.7836   7.8145   7.8172
     7.9563   7.9864   8.0356   8.0740   8.1259   8.1261   8.1406   8.2060
     8.3324   8.3589   8.4307   8.4406   8.5599   8.5662   8.5699   8.6607
     8.7027

          k = 0.0000 0.0000-0.4039 (183432 PWs)   bands (ev):

   -24.9928 -24.9918 -24.9891 -24.9881 -24.9667 -24.9657 -24.9639 -24.9629
   -24.6607 -24.6594 -24.6574 -24.6562 -24.6334 -24.6322 -24.6310 -24.6298
   -21.1292 -21.1285 -21.1238 -21.1231 -20.8602 -20.8594 -20.8593 -20.8585
   -20.5411 -20.5398 -20.5384 -20.5375 -20.5351 -20.5338 -20.5311 -20.5302
   -20.4059 -20.4050 -20.4018 -20.4011 -20.4010 -20.4000 -20.3988 -20.3980
   -16.3445 -16.3437 -16.3052 -16.3044 -16.3003 -16.2996 -16.2746 -16.2739
   -14.6061 -14.6053 -14.5284 -14.5276 -14.4263 -14.4255 -14.4054 -14.4045
   -13.2023 -13.2017 -13.1851 -13.1848 -13.1808 -13.1803 -13.1687 -13.1684
   -10.9451 -10.9439 -10.9186 -10.9172 -10.9133 -10.9124 -10.9091 -10.9083
   -10.7945 -10.7937 -10.7670 -10.7664 -10.7449 -10.7444 -10.7338 -10.7331
    -9.5032  -9.5027  -9.4927  -9.4923  -9.4735  -9.4731  -9.4587  -9.4582
    -8.4278  -8.4272  -8.3916  -8.3910  -8.2944  -8.2939  -8.2380  -8.2375
    -7.9334  -7.9328  -7.8821  -7.8813  -7.8735  -7.8730  -7.8337  -7.8330
    -7.7157  -7.7147  -7.7088  -7.7081  -7.6760  -7.6752  -7.6464  -7.6453
    -7.1423  -7.1411  -7.1068  -7.1059  -7.0156  -7.0147  -6.9501  -6.9492
    -6.7711  -6.7704  -6.6816  -6.6808  -6.6594  -6.6593  -6.6287  -6.6285
    -6.5027  -6.5024  -6.4983  -6.4983  -6.4804  -6.4792  -6.4490  -6.4483
    -6.4363  -6.4353  -6.4224  -6.4215  -6.3307  -6.3297  -6.2996  -6.2989
    -6.2591  -6.2588  -6.2389  -6.2386  -6.2123  -6.2118  -6.1839  -6.1830
    -6.1322  -6.1315  -6.0837  -6.0830  -5.0434  -5.0428  -5.0387  -5.0381
    -4.9015  -4.9010  -4.8898  -4.8893  -4.7463  -4.7454  -4.7193  -4.7186
    -4.1667  -4.1658  -4.1023  -4.1019  -4.0877  -4.0867  -4.0810  -4.0804
    -4.0117  -4.0110  -3.9750  -3.9744  -3.8458  -3.8449  -3.8144  -3.8137
    -3.5383  -3.5379  -3.5118  -3.5115  -3.4743  -3.4739  -3.4683  -3.4679
    -3.2077  -3.2066  -3.1737  -3.1728  -3.0594  -3.0591  -3.0178  -3.0177
    -2.8109  -2.8103  -2.7856  -2.7851  -2.5863  -2.5857  -2.5826  -2.5822
    -2.1859  -2.1849  -2.1810  -2.1801  -2.0683  -2.0677  -2.0575  -2.0567
    -1.9654  -1.9646  -1.8919  -1.8909  -1.8119  -1.8114  -1.7943  -1.7937
    -1.7014  -1.7009  -1.6499  -1.6496  -1.6471  -1.6469  -1.6185  -1.6185
    -1.5557  -1.5547  -1.5056  -1.5049  -1.4222  -1.4217  -1.3907  -1.3904
    -1.2540  -1.2533  -1.2325  -1.2323  -1.1788  -1.1781  -1.1734  -1.1733
    -1.1446  -1.1441  -1.0312  -1.0308  -1.0036  -1.0030  -0.9737  -0.9732
    -0.9418  -0.9416  -0.8008  -0.7998  -0.7355  -0.7348  -0.7300  -0.7292
    -0.6108  -0.6103  -0.5690  -0.5681  -0.5392  -0.5376  -0.5281  -0.5277
    -0.5229  -0.5224  -0.4546  -0.4541   0.1140   0.1147   0.1152   0.1160
     0.2232   0.2241   0.3018   0.3027   0.3574   0.3580   0.3654   0.3661
     2.9398   2.9406   3.0202   3.0212   3.0643   3.0651   3.0901   3.0909
     3.1161   3.1172   3.1459   3.1467   3.1730   3.1739   3.2041   3.2052
     4.5770   4.5775   4.5824   4.5829   4.6413   4.6414   4.6810   4.6817
     6.5653   6.5657   7.3040   7.3043   7.4125   7.4127   7.4667   7.4668
     7.5595   7.5602   7.6229   7.6231   7.7625   7.7628   7.8312   7.8315
     7.9128   7.9132   8.0356   8.0359   8.1152   8.1157   8.1394   8.1405
     8.2941   8.2948   8.3376   8.3383   8.5945   8.5948   8.6101   8.6103
     8.7373

          k = 0.0000-0.4723 0.0000 (183420 PWs)   bands (ev):

   -24.9814 -24.9804 -24.9791 -24.9783 -24.9782 -24.9772 -24.9756 -24.9748
   -24.6474 -24.6462 -24.6455 -24.6447 -24.6446 -24.6434 -24.6425 -24.6415
   -21.1266 -21.1264 -21.1259 -21.1257 -20.8599 -20.8597 -20.8590 -20.8588
   -20.5413 -20.5402 -20.5385 -20.5377 -20.5345 -20.5333 -20.5313 -20.5304
   -20.4048 -20.4040 -20.4031 -20.4026 -20.4008 -20.3999 -20.3986 -20.3979
   -16.3246 -16.3238 -16.3227 -16.3220 -16.2909 -16.2906 -16.2868 -16.2866
   -14.5708 -14.5705 -14.5653 -14.5650 -14.4150 -14.4146 -14.4129 -14.4125
   -13.2225 -13.2225 -13.1998 -13.1998 -13.1589 -13.1587 -13.1542 -13.1541
   -10.9411 -10.9411 -10.9275 -10.9272 -10.9132 -10.9127 -10.8987 -10.8985
   -10.7933 -10.7928 -10.7783 -10.7780 -10.7433 -10.7429 -10.7300 -10.7297
    -9.5410  -9.5410  -9.5035  -9.5034  -9.4502  -9.4501  -9.4322  -9.4320
    -8.4293  -8.4293  -8.3971  -8.3970  -8.2724  -8.2723  -8.2459  -8.2458
    -7.9577  -7.9576  -7.9025  -7.9023  -7.8235  -7.8235  -7.8114  -7.8113
    -7.7392  -7.7391  -7.7261  -7.7260  -7.6638  -7.6638  -7.6542  -7.6541
    -7.1473  -7.1471  -7.1225  -7.1225  -6.9852  -6.9851  -6.9316  -6.9316
    -6.7400  -6.7399  -6.7170  -6.7169  -6.6717  -6.6715  -6.6458  -6.6456
    -6.5149  -6.5148  -6.4934  -6.4934  -6.4845  -6.4843  -6.4603  -6.4603
    -6.4179  -6.4177  -6.4087  -6.4086  -6.3396  -6.3393  -6.3207  -6.3206
    -6.2362  -6.2361  -6.2175  -6.2167  -6.2077  -6.2076  -6.1830  -6.1827
    -6.1149  -6.1146  -6.1121  -6.1119  -5.0717  -5.0717  -4.9838  -4.9838
    -4.9456  -4.9455  -4.8718  -4.8718  -4.7425  -4.7423  -4.7183  -4.7182
    -4.1940  -4.1940  -4.1539  -4.1536  -4.1033  -4.1031  -4.0406  -4.0406
    -3.9953  -3.9953  -3.9347  -3.9347  -3.8665  -3.8665  -3.8013  -3.8012
    -3.5223  -3.5223  -3.5181  -3.5179  -3.4677  -3.4676  -3.4582  -3.4582
    -3.1351  -3.1346  -3.1310  -3.1307  -3.1257  -3.1248  -3.0870  -3.0868
    -2.8310  -2.8310  -2.7689  -2.7688  -2.6210  -2.6210  -2.5599  -2.5598
    -2.2218  -2.2214  -2.1058  -2.1057  -2.0727  -2.0721  -2.0628  -2.0626
    -1.9383  -1.9381  -1.9227  -1.9226  -1.8376  -1.8375  -1.8068  -1.8066
    -1.6768  -1.6767  -1.6472  -1.6469  -1.6290  -1.6290  -1.6122  -1.6121
    -1.5142  -1.5141  -1.5061  -1.5060  -1.4708  -1.4707  -1.4385  -1.4385
    -1.2360  -1.2359  -1.2303  -1.2303  -1.1701  -1.1699  -1.1579  -1.1578
    -1.1475  -1.1473  -1.0822  -1.0822  -1.0165  -1.0164  -0.9697  -0.9695
    -0.8737  -0.8737  -0.8529  -0.8528  -0.7453  -0.7452  -0.6981  -0.6979
    -0.5864  -0.5863  -0.5725  -0.5723  -0.5530  -0.5530  -0.5219  -0.5212
    -0.5187  -0.5182  -0.4575  -0.4574   0.1028   0.1028   0.1224   0.1225
     0.2712   0.2714   0.3058   0.3059   0.3263   0.3265   0.3521   0.3521
     2.9590   2.9592   3.0068   3.0070   3.0321   3.0321   3.0721   3.0722
     3.1512   3.1518   3.1525   3.1531   3.1822   3.1822   3.2024   3.2025
     4.5714   4.5717   4.6090   4.6094   4.6121   4.6123   4.6863   4.6866
     6.6735   6.6735   7.1099   7.1100   7.4180   7.4181   7.5308   7.5309
     7.5642   7.5643   7.6153   7.6155   7.7035   7.7037   7.7580   7.7580
     7.9636   7.9637   8.0005   8.0006   8.0841   8.0844   8.3066   8.3067
     8.3391   8.3392   8.5265   8.5268   8.5643   8.5645   8.6995   8.6996
     8.7065

          k = 0.0000-0.4723-0.4039 (183504 PWs)   bands (ev):

   -24.9814 -24.9804 -24.9792 -24.9784 -24.9782 -24.9772 -24.9757 -24.9748
   -24.6474 -24.6460 -24.6457 -24.6447 -24.6446 -24.6433 -24.6426 -24.6416
   -21.1266 -21.1264 -21.1259 -21.1257 -20.8598 -20.8597 -20.8590 -20.8589
   -20.5412 -20.5400 -20.5388 -20.5378 -20.5345 -20.5332 -20.5314 -20.5305
   -20.4046 -20.4036 -20.4035 -20.4027 -20.4008 -20.3997 -20.3987 -20.3979
   -16.3242 -16.3234 -16.3224 -16.3217 -16.2900 -16.2892 -16.2890 -16.2883
   -14.5694 -14.5685 -14.5674 -14.5665 -14.4147 -14.4139 -14.4137 -14.4128
   -13.1938 -13.1932 -13.1929 -13.1924 -13.1755 -13.1750 -13.1749 -13.1743
   -10.9322 -10.9316 -10.9310 -10.9303 -10.9111 -10.9098 -10.9081 -10.9070
   -10.7847 -10.7838 -10.7811 -10.7804 -10.7422 -10.7414 -10.7355 -10.7348
    -9.5016  -9.5011  -9.5002  -9.4999  -9.4656  -9.4651  -9.4651  -9.4647
    -8.4121  -8.4116  -8.4112  -8.4106  -8.2651  -8.2646  -8.2622  -8.2617
    -7.9013  -7.9007  -7.8981  -7.8974  -7.8436  -7.8428  -7.8389  -7.8382
    -7.7364  -7.7355  -7.7354  -7.7345  -7.6610  -7.6600  -7.6600  -7.6589
    -7.1343  -7.1332  -7.1319  -7.1310  -6.9597  -6.9587  -6.9582  -6.9574
    -6.7332  -6.7323  -6.7305  -6.7297  -6.6645  -6.6638  -6.6605  -6.6596
    -6.5059  -6.5053  -6.5029  -6.5020  -6.4522  -6.4513  -6.4473  -6.4464
    -6.4244  -6.4239  -6.4193  -6.4186  -6.3417  -6.3408  -6.3372  -6.3364
    -6.2362  -6.2357  -6.2354  -6.2348  -6.2047  -6.2034  -6.1956  -6.1947
    -6.1019  -6.1015  -6.1012  -6.1009  -5.0354  -5.0349  -5.0337  -5.0332
    -4.9080  -4.9073  -4.9001  -4.8995  -4.7296  -4.7288  -4.7256  -4.7249
    -4.1653  -4.1647  -4.1625  -4.1616  -4.0793  -4.0787  -4.0785  -4.0776
    -3.9774  -3.9773  -3.9769  -3.9768  -3.8293  -3.8285  -3.8283  -3.8276
    -3.5180  -3.5177  -3.5156  -3.5152  -3.4677  -3.4674  -3.4652  -3.4648
    -3.1383  -3.1376  -3.1334  -3.1324  -3.1073  -3.1064  -3.1053  -3.1048
    -2.7987  -2.7985  -2.7983  -2.7980  -2.5864  -2.5859  -2.5858  -2.5853
    -2.1789  -2.1785  -2.1777  -2.1776  -2.0506  -2.0497  -2.0464  -2.0457
    -1.9386  -1.9381  -1.9371  -1.9363  -1.8350  -1.8347  -1.8346  -1.8342
    -1.6597  -1.6596  -1.6576  -1.6573  -1.6213  -1.6210  -1.6207  -1.6205
    -1.5018  -1.5013  -1.5010  -1.5003  -1.4502  -1.4494  -1.4472  -1.4468
    -1.2062  -1.2058  -1.2045  -1.2042  -1.1947  -1.1947  -1.1943  -1.1942
    -1.1252  -1.1246  -1.1195  -1.1190  -0.9839  -0.9835  -0.9825  -0.9823
    -0.8674  -0.8666  -0.8661  -0.8651  -0.7244  -0.7235  -0.7214  -0.7203
    -0.5694  -0.5686  -0.5680  -0.5670  -0.5439  -0.5432  -0.5418  -0.5413
    -0.5014  -0.5003  -0.4964  -0.4955   0.1129   0.1137   0.1144   0.1152
     0.2873   0.2882   0.2916   0.2924   0.3377   0.3386   0.3402   0.3409
     2.9871   2.9881   2.9893   2.9901   3.0453   3.0463   3.0478   3.0487
     3.1515   3.1524   3.1526   3.1534   3.1904   3.1914   3.1918   3.1929
     4.5788   4.5797   4.5808   4.5811   4.6568   4.6570   4.6585   4.6593
     6.8324   6.8328   6.8350   6.8353   7.4999   7.5001   7.5028   7.5030
     7.7300   7.7301   7.7303   7.7304   7.7794   7.7798   7.7934   7.7940
     7.9011   7.9014   7.9105   7.9108   8.0765   8.0767   8.0828   8.0830
     8.4053   8.4059   8.4059   8.4066   8.5792   8.5794   8.5814   8.5817
     8.8461

          k =-0.5000 0.0000 0.0000 (183288 PWs)   bands (ev):

   -24.9910 -24.9910 -24.9899 -24.9899 -24.9653 -24.9653 -24.9643 -24.9643
   -24.6591 -24.6591 -24.6578 -24.6577 -24.6322 -24.6322 -24.6309 -24.6309
   -21.1265 -21.1265 -21.1258 -21.1258 -20.8597 -20.8597 -20.8589 -20.8589
   -20.5386 -20.5386 -20.5371 -20.5371 -20.5348 -20.5348 -20.5337 -20.5337
   -20.4048 -20.4048 -20.4035 -20.4035 -20.3990 -20.3990 -20.3979 -20.3979
   -16.3316 -16.3316 -16.3274 -16.3274 -16.2874 -16.2874 -16.2774 -16.2774
   -14.5693 -14.5693 -14.5656 -14.5656 -14.4158 -14.4158 -14.4128 -14.4128
   -13.2291 -13.2291 -13.1838 -13.1838 -13.1701 -13.1701 -13.1520 -13.1520
   -10.9392 -10.9392 -10.9383 -10.9383 -10.9260 -10.9260 -10.9031 -10.9031
   -10.8039 -10.8039 -10.7660 -10.7660 -10.7305 -10.7305 -10.7154 -10.7154
    -9.5348  -9.5348  -9.5021  -9.5021  -9.4509  -9.4509  -9.4394  -9.4394
    -8.4416  -8.4416  -8.3885  -8.3885  -8.2815  -8.2815  -8.2417  -8.2417
    -7.9570  -7.9570  -7.9032  -7.9032  -7.8786  -7.8786  -7.8000  -7.8000
    -7.7073  -7.7073  -7.6992  -7.6992  -7.6420  -7.6420  -7.6260  -7.6260
    -7.1247  -7.1247  -7.1129  -7.1129  -7.0510  -7.0510  -6.9635  -6.9635
    -6.8064  -6.8064  -6.7508  -6.7508  -6.6474  -6.6474  -6.6123  -6.6123
    -6.5558  -6.5558  -6.4946  -6.4946  -6.4775  -6.4775  -6.4735  -6.4735
    -6.4178  -6.4178  -6.3412  -6.3412  -6.3276  -6.3276  -6.2733  -6.2733
    -6.2691  -6.2691  -6.2498  -6.2498  -6.1966  -6.1966  -6.1565  -6.1565
    -6.1221  -6.1221  -6.1101  -6.1100  -5.0314  -5.0314  -5.0036  -5.0036
    -4.9225  -4.9225  -4.9035  -4.9035  -4.7481  -4.7480  -4.7219  -4.7219
    -4.1357  -4.1357  -4.1293  -4.1293  -4.1194  -4.1194  -4.0293  -4.0293
    -3.9998  -3.9998  -3.9446  -3.9446  -3.8477  -3.8477  -3.8365  -3.8365
    -3.5202  -3.5202  -3.5118  -3.5118  -3.5073  -3.5073  -3.4834  -3.4834
    -3.2577  -3.2577  -3.1971  -3.1971  -3.0187  -3.0187  -3.0130  -3.0130
    -2.8032  -2.8032  -2.7952  -2.7951  -2.6083  -2.6083  -2.5635  -2.5635
    -2.1868  -2.1868  -2.1172  -2.1172  -2.1029  -2.1029  -2.0871  -2.0871
    -1.9257  -1.9257  -1.9228  -1.9228  -1.7876  -1.7876  -1.7805  -1.7805
    -1.6700  -1.6700  -1.6663  -1.6663  -1.6308  -1.6308  -1.6292  -1.6292
    -1.5792  -1.5792  -1.5036  -1.5036  -1.4364  -1.4364  -1.4317  -1.4317
    -1.2418  -1.2418  -1.2381  -1.2381  -1.1579  -1.1579  -1.1500  -1.1500
    -1.1021  -1.1021  -1.1015  -1.1014  -1.0091  -1.0091  -0.9764  -0.9764
    -0.8486  -0.8486  -0.8171  -0.8171  -0.7516  -0.7516  -0.7446  -0.7446
    -0.6051  -0.6051  -0.5694  -0.5694  -0.5336  -0.5336  -0.5187  -0.5187
    -0.5127  -0.5127  -0.5049  -0.5049   0.1110   0.1110   0.1188   0.1188
     0.2454   0.2454   0.2760   0.2760   0.3611   0.3611   0.3691   0.3691
     2.9497   2.9497   3.0158   3.0158   3.0639   3.0639   3.0689   3.0689
     3.1237   3.1237   3.1394   3.1394   3.1969   3.1969   3.2048   3.2048
     4.5905   4.5905   4.6011   4.6012   4.6337   4.6337   4.6494   4.6494
     6.6447   6.6447   7.0996   7.0996   7.3466   7.3467   7.3663   7.3663
     7.5337   7.5337   7.6243   7.6243   7.7148   7.7148   7.9621   7.9621
     8.0312   8.0312   8.1291   8.1292   8.1752   8.1752   8.2063   8.2064
     8.2721   8.2721   8.4204   8.4204   8.6362   8.6362   8.6544   8.6544
     8.8180

          k =-0.5000 0.0000-0.4039 (183488 PWs)   bands (ev):

   -24.9909 -24.9909 -24.9900 -24.9900 -24.9653 -24.9653 -24.9644 -24.9643
   -24.6590 -24.6590 -24.6578 -24.6578 -24.6322 -24.6322 -24.6310 -24.6310
   -21.1265 -21.1265 -21.1258 -21.1258 -20.8597 -20.8597 -20.8589 -20.8589
   -20.5384 -20.5384 -20.5372 -20.5372 -20.5348 -20.5348 -20.5338 -20.5338
   -20.4047 -20.4046 -20.4037 -20.4037 -20.3989 -20.3989 -20.3980 -20.3980
   -16.3299 -16.3299 -16.3291 -16.3291 -16.2828 -16.2828 -16.2821 -16.2821
   -14.5679 -14.5679 -14.5671 -14.5671 -14.4147 -14.4147 -14.4139 -14.4139
   -13.1947 -13.1947 -13.1939 -13.1939 -13.1741 -13.1741 -13.1732 -13.1732
   -10.9332 -10.9332 -10.9311 -10.9311 -10.9233 -10.9233 -10.9210 -10.9210
   -10.7851 -10.7851 -10.7817 -10.7817 -10.7243 -10.7243 -10.7212 -10.7212
    -9.4907  -9.4907  -9.4901  -9.4901  -9.4756  -9.4756  -9.4751  -9.4751
    -8.4163  -8.4163  -8.4150  -8.4150  -8.2641  -8.2641  -8.2626  -8.2626
    -7.9110  -7.9110  -7.9087  -7.9087  -7.8526  -7.8526  -7.8511  -7.8511
    -7.7080  -7.7080  -7.7070  -7.7070  -7.6357  -7.6357  -7.6342  -7.6342
    -7.1192  -7.1192  -7.1182  -7.1182  -7.0076  -7.0076  -7.0066  -7.0066
    -6.7827  -6.7827  -6.7804  -6.7804  -6.6292  -6.6292  -6.6262  -6.6262
    -6.5270  -6.5270  -6.5239  -6.5239  -6.4784  -6.4784  -6.4773  -6.4772
    -6.3735  -6.3735  -6.3714  -6.3714  -6.3044  -6.3044  -6.3035  -6.3035
    -6.2624  -6.2624  -6.2615  -6.2615  -6.1769  -6.1769  -6.1759  -6.1759
    -6.1148  -6.1148  -6.1139  -6.1139  -5.0123  -5.0123  -5.0112  -5.0112
    -4.9174  -4.9174  -4.9167  -4.9167  -4.7361  -4.7361  -4.7352  -4.7352
    -4.1271  -4.1271  -4.1262  -4.1262  -4.0630  -4.0630  -4.0620  -4.0620
    -3.9827  -3.9827  -3.9811  -3.9811  -3.8531  -3.8531  -3.8508  -3.8508
    -3.5195  -3.5195  -3.5166  -3.5166  -3.4978  -3.4978  -3.4958  -3.4958
    -3.2272  -3.2272  -3.2253  -3.2253  -3.0163  -3.0163  -3.0149  -3.0149
    -2.7951  -2.7951  -2.7927  -2.7927  -2.5857  -2.5857  -2.5851  -2.5851
    -2.1470  -2.1470  -2.1448  -2.1448  -2.1089  -2.1089  -2.1062  -2.1062
    -1.9166  -1.9166  -1.9151  -1.9151  -1.7995  -1.7995  -1.7985  -1.7985
    -1.6680  -1.6680  -1.6673  -1.6673  -1.6306  -1.6306  -1.6284  -1.6284
    -1.5362  -1.5362  -1.5351  -1.5351  -1.4212  -1.4212  -1.4206  -1.4206
    -1.2201  -1.2201  -1.2189  -1.2189  -1.1929  -1.1929  -1.1917  -1.1917
    -1.0979  -1.0979  -1.0935  -1.0935  -0.9858  -0.9858  -0.9845  -0.9845
    -0.8280  -0.8280  -0.8261  -0.8261  -0.7575  -0.7575  -0.7559  -0.7559
    -0.5801  -0.5801  -0.5790  -0.5790  -0.5299  -0.5299  -0.5294  -0.5294
    -0.5168  -0.5168  -0.5153  -0.5153   0.1164   0.1164   0.1171   0.1171
     0.2587   0.2587   0.2607   0.2607   0.3649   0.3649   0.3670   0.3670
     2.9827   2.9827   2.9838   2.9838   3.0686   3.0686   3.0697   3.0697
     3.1297   3.1297   3.1307   3.1307   3.1985   3.1985   3.1995   3.1995
     4.5943   4.5943   4.5969   4.5969   4.6379   4.6379   4.6410   4.6410
     6.8158   6.8158   6.8214   6.8214   7.4241   7.4241   7.4268   7.4269
     7.5669   7.5669   7.5678   7.5678   7.9688   7.9688   7.9752   7.9752
     8.0369   8.0369   8.0460   8.0460   8.1025   8.1025   8.1121   8.1121
     8.3541   8.3541   8.3583   8.3583   8.5752   8.5752   8.5767   8.5767
     8.7161

          k =-0.5000-0.4723 0.0000 (183468 PWs)   bands (ev):

   -24.9799 -24.9799 -24.9789 -24.9789 -24.9773 -24.9773 -24.9765 -24.9765
   -24.6462 -24.6461 -24.6448 -24.6448 -24.6440 -24.6440 -24.6430 -24.6430
   -21.1265 -21.1265 -21.1258 -21.1257 -20.8598 -20.8597 -20.8590 -20.8589
   -20.5381 -20.5381 -20.5369 -20.5369 -20.5350 -20.5350 -20.5342 -20.5342
   -20.4047 -20.4047 -20.4038 -20.4038 -20.3988 -20.3988 -20.3979 -20.3979
   -16.3217 -16.3217 -16.3206 -16.3206 -16.2917 -16.2917 -16.2909 -16.2909
   -14.5633 -14.5633 -14.5624 -14.5624 -14.4188 -14.4188 -14.4180 -14.4180
   -13.2126 -13.2126 -13.2107 -13.2107 -13.1571 -13.1571 -13.1546 -13.1546
   -10.9385 -10.9385 -10.9379 -10.9379 -10.9150 -10.9150 -10.9127 -10.9127
   -10.7884 -10.7884 -10.7845 -10.7845 -10.7228 -10.7228 -10.7219 -10.7219
    -9.5233  -9.5233  -9.5221  -9.5221  -9.4436  -9.4436  -9.4425  -9.4425
    -8.4185  -8.4185  -8.4174  -8.4174  -8.2586  -8.2586  -8.2574  -8.2574
    -7.9250  -7.9250  -7.9224  -7.9224  -7.8294  -7.8294  -7.8269  -7.8269
    -7.7309  -7.7309  -7.7291  -7.7291  -7.6255  -7.6255  -7.6244  -7.6244
    -7.1177  -7.1177  -7.1164  -7.1164  -7.0183  -7.0183  -7.0171  -7.0171
    -6.7500  -6.7500  -6.7493  -6.7493  -6.6627  -6.6627  -6.6615  -6.6615
    -6.5160  -6.5160  -6.5144  -6.5144  -6.4688  -6.4688  -6.4660  -6.4660
    -6.3928  -6.3928  -6.3908  -6.3908  -6.3186  -6.3186  -6.3167  -6.3167
    -6.2479  -6.2479  -6.2467  -6.2467  -6.1743  -6.1743  -6.1701  -6.1701
    -6.1080  -6.1080  -6.1057  -6.1057  -5.0201  -5.0201  -5.0167  -5.0167
    -4.9128  -4.9128  -4.9124  -4.9124  -4.7348  -4.7348  -4.7312  -4.7312
    -4.1366  -4.1366  -4.1344  -4.1344  -4.0727  -4.0727  -4.0720  -4.0720
    -3.9963  -3.9963  -3.9949  -3.9949  -3.8345  -3.8345  -3.8301  -3.8301
    -3.5054  -3.5054  -3.5048  -3.5048  -3.4842  -3.4842  -3.4825  -3.4825
    -3.2015  -3.2015  -3.2002  -3.2002  -3.0567  -3.0567  -3.0543  -3.0543
    -2.7999  -2.7999  -2.7985  -2.7985  -2.5864  -2.5864  -2.5849  -2.5849
    -2.1527  -2.1527  -2.1504  -2.1504  -2.0895  -2.0895  -2.0868  -2.0868
    -1.9041  -1.9041  -1.9024  -1.9024  -1.8487  -1.8487  -1.8459  -1.8459
    -1.6535  -1.6535  -1.6514  -1.6514  -1.6155  -1.6155  -1.6136  -1.6136
    -1.5131  -1.5131  -1.5121  -1.5121  -1.4653  -1.4653  -1.4642  -1.4642
    -1.2193  -1.2193  -1.2161  -1.2161  -1.1569  -1.1569  -1.1546  -1.1546
    -1.1291  -1.1291  -1.1246  -1.1246  -0.9825  -0.9825  -0.9774  -0.9774
    -0.8299  -0.8298  -0.8283  -0.8283  -0.7641  -0.7641  -0.7613  -0.7613
    -0.5719  -0.5719  -0.5676  -0.5676  -0.5346  -0.5346  -0.5340  -0.5340
    -0.5124  -0.5124  -0.5111  -0.5111   0.1139   0.1139   0.1156   0.1156
     0.2925   0.2925   0.2983   0.2983   0.3331   0.3331   0.3346   0.3346
     2.9878   2.9878   2.9903   2.9903   3.0504   3.0504   3.0531   3.0531
     3.1319   3.1319   3.1329   3.1329   3.2086   3.2086   3.2097   3.2097
     4.5989   4.5990   4.5999   4.5999   4.6337   4.6338   4.6368   4.6368
     6.8937   6.8937   6.8986   6.8986   7.2894   7.2894   7.2935   7.2935
     7.6731   7.6731   7.6732   7.6732   7.7716   7.7716   7.7747   7.7747
     7.9275   7.9275   7.9309   7.9309   8.3503   8.3503   8.3568   8.3568
     8.4186   8.4186   8.4231   8.4231   8.5992   8.5992   8.6012   8.6012
     8.7963

          k =-0.5000-0.4723-0.4039 (183480 PWs)   bands (ev):

   -24.9799 -24.9799 -24.9788 -24.9788 -24.9774 -24.9774 -24.9765 -24.9765
   -24.6461 -24.6461 -24.6447 -24.6447 -24.6441 -24.6440 -24.6430 -24.6430
   -21.1265 -21.1265 -21.1258 -21.1257 -20.8598 -20.8597 -20.8590 -20.8589
   -20.5381 -20.5381 -20.5368 -20.5368 -20.5352 -20.5352 -20.5342 -20.5342
   -20.4047 -20.4047 -20.4037 -20.4037 -20.3988 -20.3988 -20.3980 -20.3980
   -16.3210 -16.3210 -16.3203 -16.3203 -16.2922 -16.2922 -16.2914 -16.2914
   -14.5633 -14.5633 -14.5625 -14.5625 -14.4189 -14.4188 -14.4180 -14.4180
   -13.1911 -13.1911 -13.1904 -13.1904 -13.1776 -13.1776 -13.1768 -13.1768
   -10.9306 -10.9306 -10.9294 -10.9294 -10.9225 -10.9225 -10.9213 -10.9213
   -10.7842 -10.7842 -10.7832 -10.7832 -10.7249 -10.7249 -10.7241 -10.7241
    -9.4874  -9.4874  -9.4869  -9.4869  -9.4811  -9.4811  -9.4807  -9.4807
    -8.4148  -8.4148  -8.4142  -8.4142  -8.2644  -8.2644  -8.2638  -8.2638
    -7.8759  -7.8759  -7.8751  -7.8751  -7.8677  -7.8677  -7.8670  -7.8670
    -7.7337  -7.7337  -7.7327  -7.7327  -7.6283  -7.6283  -7.6272  -7.6272
    -7.1137  -7.1137  -7.1126  -7.1126  -7.0179  -7.0179  -7.0170  -7.0170
    -6.7505  -6.7505  -6.7497  -6.7497  -6.6712  -6.6711  -6.6705  -6.6705
    -6.5070  -6.5070  -6.5062  -6.5062  -6.4635  -6.4635  -6.4624  -6.4624
    -6.3887  -6.3887  -6.3880  -6.3880  -6.3270  -6.3270  -6.3261  -6.3261
    -6.2513  -6.2513  -6.2506  -6.2506  -6.1726  -6.1726  -6.1717  -6.1717
    -6.1064  -6.1064  -6.1056  -6.1056  -5.0115  -5.0115  -5.0109  -5.0109
    -4.9167  -4.9167  -4.9161  -4.9161  -4.7354  -4.7354  -4.7346  -4.7346
    -4.1179  -4.1179  -4.1169  -4.1169  -4.0889  -4.0889  -4.0881  -4.0881
    -3.9850  -3.9850  -3.9845  -3.9845  -3.8474  -3.8474  -3.8464  -3.8464
    -3.5009  -3.5009  -3.5004  -3.5004  -3.4893  -3.4893  -3.4889  -3.4889
    -3.2037  -3.2037  -3.2025  -3.2025  -3.0540  -3.0540  -3.0530  -3.0530
    -2.7935  -2.7935  -2.7929  -2.7929  -2.5856  -2.5856  -2.5851  -2.5851
    -2.1249  -2.1249  -2.1237  -2.1237  -2.1217  -2.1217  -2.1209  -2.1209
    -1.9036  -1.9036  -1.9030  -1.9030  -1.8563  -1.8563  -1.8557  -1.8557
    -1.6404  -1.6404  -1.6397  -1.6397  -1.6223  -1.6223  -1.6215  -1.6215
    -1.5018  -1.5018  -1.5012  -1.5012  -1.4612  -1.4612  -1.4606  -1.4606
    -1.2074  -1.2074  -1.2073  -1.2073  -1.1890  -1.1890  -1.1881  -1.1881
    -1.1071  -1.1071  -1.1068  -1.1068  -0.9816  -0.9816  -0.9811  -0.9811
    -0.8332  -0.8332  -0.8322  -0.8322  -0.7555  -0.7555  -0.7549  -0.7549
    -0.5708  -0.5708  -0.5700  -0.5700  -0.5448  -0.5448  -0.5434  -0.5434
    -0.5118  -0.5118  -0.5113  -0.5113   0.1159   0.1159   0.1166   0.1166
     0.2972   0.2972   0.2980   0.2980   0.3317   0.3317   0.3325   0.3325
     3.0053   3.0053   3.0062   3.0062   3.0353   3.0353   3.0363   3.0363
     3.1325   3.1325   3.1334   3.1334   3.2075   3.2075   3.2085   3.2085
     4.6019   4.6019   4.6026   4.6026   4.6299   4.6299   4.6306   4.6307
     6.9900   6.9900   6.9905   6.9905   7.1368   7.1368   7.1372   7.1372
     7.7122   7.7122   7.7124   7.7124   7.7742   7.7742   7.7746   7.7746
     8.1496   8.1496   8.1501   8.1501   8.1678   8.1678   8.1685   8.1685
     8.5072   8.5072   8.5082   8.5082   8.5394   8.5395   8.5396   8.5396
     8.8314

     highest occupied, lowest unoccupied level (ev):     0.3872    2.9014

!    total energy              =   -3143.94980901 Ry
     Harris-Foulkes estimate   =   -3143.94980901 Ry
     estimated scf accuracy    <          4.7E-09 Ry

     total all-electron energy =    -11759.560546 Ry

     The total energy is the sum of the following terms:

     one-electron contribution =   -1910.55191627 Ry
     hartree contribution      =    1179.75576646 Ry
     xc contribution           =    -629.09855230 Ry
     ewald contribution        =    -937.56274173 Ry
     Dispersion Correction     =      -0.70315482 Ry
     one-center paw contrib.   =    -845.78921034 Ry

     convergence has been achieved in  17 iterations

     Forces acting on atoms (cartesian axes, Ry/au):

     atom    1 type  1   force =     0.00004954   -0.00023769   -0.00029704
     atom    2 type  1   force =    -0.00003864    0.00022435   -0.00016460
     atom    3 type  1   force =     0.00004322    0.00023853    0.00029765
     atom    4 type  1   force =    -0.00004443   -0.00022326    0.00016374
     atom    5 type  4   force =     0.00024395    0.00033392   -0.00095519
     atom    6 type  4   force =     0.00005091   -0.00016168   -0.00064253
     atom    7 type  4   force =     0.00024576   -0.00033502    0.00095627
     atom    8 type  4   force =     0.00005646    0.00015847    0.00063758
     atom    9 type  2   force =     0.00001381   -0.00070451   -0.00011910
     atom   10 type  2   force =    -0.00052125    0.00074362   -0.00080950
     atom   11 type  2   force =     0.00001353    0.00070413    0.00011743
     atom   12 type  2   force =    -0.00052278   -0.00074360    0.00081286
     atom   13 type  4   force =    -0.00047541    0.00069039    0.00037532
     atom   14 type  4   force =     0.00066667   -0.00089918    0.00072597
     atom   15 type  4   force =    -0.00047386   -0.00068799   -0.00037326
     atom   16 type  4   force =     0.00066963    0.00090292   -0.00073018
     atom   17 type  2   force =     0.00067829    0.00025983   -0.00063075
     atom   18 type  2   force =    -0.00048414   -0.00015455   -0.00066510
     atom   19 type  2   force =     0.00068003   -0.00026048    0.00062994
     atom   20 type  2   force =    -0.00048306    0.00015420    0.00066594
     atom   21 type  1   force =    -0.00029580   -0.00039110   -0.00012961
     atom   22 type  1   force =     0.00038630    0.00032899   -0.00025279
     atom   23 type  1   force =    -0.00030166    0.00039057    0.00012950
     atom   24 type  1   force =     0.00038043   -0.00032978    0.00025309
     atom   25 type  2   force =     0.00020742    0.00016278   -0.00001186
     atom   26 type  2   force =    -0.00029378   -0.00011960    0.00003533
     atom   27 type  2   force =     0.00020727   -0.00016256    0.00001443
     atom   28 type  2   force =    -0.00029375    0.00012000   -0.00003825
     atom   29 type  4   force =     0.00028871    0.00037506    0.00002790
     atom   30 type  4   force =    -0.00035577   -0.00039475    0.00008689
     atom   31 type  4   force =     0.00028567   -0.00037452   -0.00002580
     atom   32 type  4   force =    -0.00035830    0.00039524   -0.00008865
     atom   33 type  1   force =    -0.00008161    0.00018328    0.00008928
     atom   34 type  1   force =     0.00007369   -0.00017062   -0.00002705
     atom   35 type  1   force =    -0.00008528   -0.00018305   -0.00008982
     atom   36 type  1   force =     0.00007032    0.00017070    0.00002760
     atom   37 type  4   force =    -0.00030278   -0.00058714   -0.00001869
     atom   38 type  4   force =     0.00021789    0.00052846   -0.00004646
     atom   39 type  4   force =    -0.00030765    0.00058914    0.00001723
     atom   40 type  4   force =     0.00021432   -0.00052749    0.00004709
     atom   41 type  1   force =     0.00000841    0.00027341    0.00006512
     atom   42 type  1   force =    -0.00001916   -0.00027532    0.00019668
     atom   43 type  1   force =     0.00000581   -0.00027274   -0.00006459
     atom   44 type  1   force =    -0.00002138    0.00027584   -0.00019735
     atom   45 type  4   force =     0.00010632    0.00009100   -0.00014873
     atom   46 type  4   force =    -0.00011039   -0.00009056   -0.00016744
     atom   47 type  4   force =     0.00010621   -0.00009258    0.00014533
     atom   48 type  4   force =    -0.00011094    0.00008864    0.00017209
     atom   49 type  1   force =    -0.00012017    0.00038587   -0.00001770
     atom   50 type  1   force =     0.00010728   -0.00037322    0.00010353
     atom   51 type  1   force =    -0.00011599   -0.00038555    0.00001817
     atom   52 type  1   force =     0.00011147    0.00037326   -0.00010389
     atom   53 type  1   force =    -0.00031512   -0.00018810   -0.00015014
     atom   54 type  1   force =     0.00031954    0.00017188   -0.00029387
     atom   55 type  1   force =    -0.00031713    0.00018753    0.00015066
     atom   56 type  1   force =     0.00031708   -0.00017236    0.00029349
     atom   57 type  4   force =    -0.00000366    0.00071671   -0.00010131
     atom   58 type  4   force =     0.00017393   -0.00082771   -0.00005410
     atom   59 type  4   force =    -0.00000193   -0.00071623    0.00010060
     atom   60 type  4   force =     0.00017142    0.00082513    0.00005642
     atom   61 type  2   force =    -0.00019746   -0.00095336   -0.00020757
     atom   62 type  2   force =    -0.00013864    0.00109650   -0.00016159
     atom   63 type  2   force =    -0.00019798    0.00095308    0.00020751
     atom   64 type  2   force =    -0.00013654   -0.00109578    0.00016190
     atom   65 type  2   force =     0.00027479    0.00064596   -0.00004814
     atom   66 type  2   force =    -0.00009976   -0.00063755    0.00016671
     atom   67 type  2   force =     0.00027620   -0.00064653    0.00004879
     atom   68 type  2   force =    -0.00009734    0.00063750   -0.00016829
     atom   69 type  4   force =     0.00055861   -0.00019787    0.00067889
     atom   70 type  4   force =    -0.00042205    0.00016592    0.00057480
     atom   71 type  4   force =     0.00055808    0.00019757   -0.00068004
     atom   72 type  4   force =    -0.00042591   -0.00016700   -0.00057615
     atom   73 type  1   force =    -0.00027116    0.00016787    0.00021466
     atom   74 type  1   force =     0.00033019   -0.00013662    0.00024260
     atom   75 type  1   force =    -0.00026285   -0.00016690   -0.00021475
     atom   76 type  1   force =     0.00033834    0.00013763   -0.00024265
     atom   77 type  2   force =     0.00013559    0.00015828    0.00038016
     atom   78 type  2   force =    -0.00019181   -0.00019558    0.00039363
     atom   79 type  2   force =     0.00013614   -0.00015902   -0.00037800
     atom   80 type  2   force =    -0.00019134    0.00019493   -0.00039549
     atom   81 type  1   force =     0.00028706   -0.00008406    0.00011798
     atom   82 type  1   force =    -0.00029221    0.00008649    0.00024025
     atom   83 type  1   force =     0.00028799    0.00008373   -0.00011816
     atom   84 type  1   force =    -0.00029143   -0.00008694   -0.00023989
     atom   85 type  4   force =    -0.00037374   -0.00066894   -0.00000435
     atom   86 type  4   force =     0.00030764    0.00060274   -0.00011342
     atom   87 type  4   force =    -0.00037599    0.00066939    0.00000229
     atom   88 type  4   force =     0.00030423   -0.00060157    0.00011705
     atom   89 type  4   force =     0.00035980    0.00008492   -0.00062705
     atom   90 type  4   force =    -0.00046195   -0.00003349   -0.00071893
     atom   91 type  4   force =     0.00036068   -0.00008531    0.00062663
     atom   92 type  4   force =    -0.00046369    0.00003180    0.00072237
     atom   93 type  1   force =     0.00018198    0.00032993   -0.00033992
     atom   94 type  1   force =    -0.00016519   -0.00033803   -0.00039735
     atom   95 type  1   force =     0.00017724   -0.00033030    0.00034031
     atom   96 type  1   force =    -0.00016989    0.00033751    0.00039731
     atom   97 type  4   force =    -0.00040170    0.00011701   -0.00012243
     atom   98 type  4   force =     0.00042471   -0.00010277   -0.00010734
     atom   99 type  4   force =    -0.00040256   -0.00011536    0.00011873
     atom  100 type  4   force =     0.00042416    0.00010411    0.00011016
     atom  101 type  1   force =    -0.00010395    0.00019049   -0.00074312
     atom  102 type  1   force =     0.00009170   -0.00018104   -0.00076669
     atom  103 type  1   force =    -0.00010252   -0.00019053    0.00074471
     atom  104 type  1   force =     0.00009319    0.00018090    0.00076521
     atom  105 type  3   force =     0.00043882    0.00026312    0.00015512
     atom  106 type  3   force =    -0.00043866   -0.00025496    0.00015039
     atom  107 type  3   force =     0.00043865   -0.00026311   -0.00015517
     atom  108 type  3   force =    -0.00043883    0.00025496   -0.00015030
     atom  109 type  3   force =     0.00007022    0.00001152    0.00021062
     atom  110 type  3   force =    -0.00008356   -0.00000915    0.00020876
     atom  111 type  3   force =     0.00006996   -0.00001133   -0.00021094
     atom  112 type  3   force =    -0.00008381    0.00000931   -0.00020838
     atom  113 type  3   force =     0.00017343   -0.00023205    0.00017154
     atom  114 type  3   force =    -0.00017730    0.00023839    0.00015705
     atom  115 type  3   force =     0.00017363    0.00023196   -0.00017167
     atom  116 type  3   force =    -0.00017704   -0.00023853   -0.00015680
     atom  117 type  3   force =    -0.00015523    0.00019016   -0.00028903
     atom  118 type  3   force =     0.00014352   -0.00018487   -0.00029695
     atom  119 type  3   force =    -0.00015544   -0.00019035    0.00028912
     atom  120 type  3   force =     0.00014330    0.00018474    0.00029692
     atom  121 type  3   force =    -0.00030942   -0.00025468   -0.00005732
     atom  122 type  3   force =     0.00031271    0.00024638   -0.00007318
     atom  123 type  3   force =    -0.00030933    0.00025463    0.00005719
     atom  124 type  3   force =     0.00031284   -0.00024643    0.00007335
     atom  125 type  3   force =    -0.00033641   -0.00016218    0.00033463
     atom  126 type  3   force =     0.00034660    0.00016003    0.00034597
     atom  127 type  3   force =    -0.00033596    0.00016238   -0.00033507
     atom  128 type  3   force =     0.00034721   -0.00015974   -0.00034534
     atom  129 type  3   force =     0.00038018   -0.00020651    0.00015801
     atom  130 type  3   force =    -0.00037889    0.00020361    0.00014350
     atom  131 type  3   force =     0.00038018    0.00020652   -0.00015805
     atom  132 type  3   force =    -0.00037888   -0.00020365   -0.00014342
     atom  133 type  3   force =    -0.00007671    0.00014346    0.00022667
     atom  134 type  3   force =     0.00008008   -0.00013971    0.00022770
     atom  135 type  3   force =    -0.00007695   -0.00014358   -0.00022691
     atom  136 type  3   force =     0.00007977    0.00013956   -0.00022728
     atom  137 type  3   force =    -0.00022551   -0.00034471   -0.00011595
     atom  138 type  3   force =     0.00023067    0.00035363   -0.00011576
     atom  139 type  3   force =    -0.00022576    0.00034468    0.00011598
     atom  140 type  3   force =     0.00023044   -0.00035362    0.00011586
     atom  141 type  3   force =    -0.00034502   -0.00022012   -0.00012981
     atom  142 type  3   force =     0.00035399    0.00022006   -0.00013030
     atom  143 type  3   force =    -0.00034495    0.00021982    0.00012988
     atom  144 type  3   force =     0.00035409   -0.00022027    0.00013033
     atom  145 type  3   force =     0.00018450   -0.00043102   -0.00007629
     atom  146 type  3   force =    -0.00018337    0.00043776   -0.00007896
     atom  147 type  3   force =     0.00018471    0.00043116    0.00007613
     atom  148 type  3   force =    -0.00018328   -0.00043770    0.00007909
     atom  149 type  3   force =     0.00044645    0.00011155    0.00009729
     atom  150 type  3   force =    -0.00043867   -0.00011121    0.00010024
     atom  151 type  3   force =     0.00044627   -0.00011137   -0.00009725
     atom  152 type  3   force =    -0.00043876    0.00011127   -0.00010028
     atom  153 type  3   force =     0.00028716    0.00033116   -0.00015249
     atom  154 type  3   force =    -0.00029328   -0.00033620   -0.00015927
     atom  155 type  3   force =     0.00028741   -0.00033133    0.00015225
     atom  156 type  3   force =    -0.00029319    0.00033611    0.00015942
     atom  157 type  3   force =    -0.00000656    0.00026224    0.00007023
     atom  158 type  3   force =     0.00000711   -0.00026786    0.00006674
     atom  159 type  3   force =    -0.00000645   -0.00026238   -0.00007017
     atom  160 type  3   force =     0.00000725    0.00026780   -0.00006678

     Total force =     0.007376     Total SCF correction =     0.000141


     Computing stress (Cartesian axis) and pressure

          total   stress  (Ry/bohr**3)                   (kbar)     P=   -3.67
  -0.00001857   0.00000000   0.00000000         -2.73      0.00      0.00
   0.00000000  -0.00002621   0.00000025          0.00     -3.86      0.04
   0.00000000   0.00000025  -0.00003001          0.00      0.04     -4.42


     Writing output data file scf.save
 
     init_run     :    188.08s CPU    193.65s WALL (       1 calls)
     electrons    :   8192.64s CPU   8413.47s WALL (       1 calls)
     forces       :     95.57s CPU     96.08s WALL (       1 calls)
     stress       :    512.04s CPU    512.98s WALL (       1 calls)

     Called by init_run:
     wfcinit      :    178.05s CPU    183.38s WALL (       1 calls)
     potinit      :      3.68s CPU      3.72s WALL (       1 calls)

     Called by electrons:
     c_bands      :   7447.78s CPU   7637.24s WALL (      17 calls)
     sum_band     :    718.12s CPU    746.33s WALL (      17 calls)
     v_of_rho     :      4.02s CPU      4.36s WALL (      18 calls)
     newd         :     10.63s CPU     13.47s WALL (      18 calls)
     PAW_pot      :     11.18s CPU     11.19s WALL (      18 calls)
     mix_rho      :      1.06s CPU      1.11s WALL (      17 calls)

     Called by c_bands:
     init_us_2    :     23.83s CPU     24.03s WALL (     296 calls)
     cegterg      :   7343.85s CPU   7532.85s WALL (     136 calls)

     Called by sum_band:
     sum_band:bec :      0.34s CPU      0.34s WALL (     136 calls)
     addusdens    :     11.16s CPU     13.74s WALL (      17 calls)

     Called by *egterg:
     h_psi        :   3612.98s CPU   3758.72s WALL (     711 calls)
     s_psi        :    978.03s CPU    978.34s WALL (     711 calls)
     g_psi        :     11.93s CPU     11.94s WALL (     567 calls)
     cdiaghg      :    493.90s CPU    494.04s WALL (     703 calls)

     Called by h_psi:
     h_psi:pot    :   3594.72s CPU   3739.99s WALL (     711 calls)
     h_psi:calbec :    962.42s CPU    963.80s WALL (     711 calls)
     vloc_psi     :   1654.48s CPU   1797.97s WALL (     711 calls)
     add_vuspsi   :    977.82s CPU    978.22s WALL (     711 calls)

     General routines
     calbec       :   1410.12s CPU   1412.05s WALL (     887 calls)
     fft          :      2.80s CPU      3.39s WALL (     258 calls)
     fftw         :   1719.73s CPU   1887.38s WALL (  304440 calls)
 
     Parallel routines
     fft_scatter  :    378.55s CPU    545.87s WALL (  304698 calls)
 
     PWSCF        :     2h30m CPU        2h35m WALL

 
   This run was terminated on:   7:52:58  21Dec2017            

=------------------------------------------------------------------------------=
   JOB DONE.
=------------------------------------------------------------------------------=
