
     Program PWSCF v.6.1 (svn rev. 13369) starts on  4Nov2017 at 13:56:35 

     This program is part of the open-source Quantum ESPRESSO suite
     for quantum simulation of materials; please cite
         "P. Giannozzi et al., J. Phys.:Condens. Matter 21 395502 (2009);
          URL http://www.quantum-espresso.org", 
     in publications or presentations arising from this work. More details at
     http://www.quantum-espresso.org/quote

     Parallel version (MPI), running on     8 processors
     R & G space division:  proc/nbgrp/npool/nimage =       8
     Waiting for input...
     Reading input from standard input

     Current dimensions of program PWSCF are:
     Max number of different atomic species (ntypx) = 10
     Max number of k-points (npk) =  40000
     Max angular momentum in pseudopotentials (lmaxx) =  3
               file C.pbe-n-kjpaw_psl.0.1.UPF: wavefunction(s)  2P renormalized
               file N.pbe-n-kjpaw_psl.0.1.UPF: wavefunction(s)  2P renormalized
               file H.pbe-kjpaw_psl.0.1.UPF: wavefunction(s)  1S renormalized
               file O.pbe-n-kjpaw_psl.0.1.UPF: wavefunction(s)  2P renormalized

     -------------------------------------
     Parameters for Dispersion Correction:
     -------------------------------------
       atom      VdW radius       C_6     

        C          2.744         60.710
        N          2.640         42.670
        H          1.892          4.857
        O          2.536         24.284

     Subspace diagonalization in iterative solution of the eigenvalue problem:
     a serial algorithm will be used

 
     Parallelization info
     --------------------
     sticks:   dense  smooth     PW     G-vecs:    dense   smooth      PW
     Min        1361    1361    355                76464    76464   10314
     Max        1362    1362    356                76465    76465   10316
     Sum       10891   10891   2847               611719   611719   82521
 


     bravais-lattice index     =            0
     lattice parameter (alat)  =      17.1228  a.u.
     unit-cell volume          =    4527.9368 (a.u.)^3
     number of atoms/cell      =           72
     number of atomic types    =            4
     number of electrons       =       240.00
     number of Kohn-Sham states=          144
     kinetic-energy cutoff     =     100.0000  Ry
     charge density cutoff     =     400.0000  Ry
     convergence threshold     =      1.0E-08
     mixing beta               =       0.5000
     number of iterations used =            8  plain     mixing
     Exchange-correlation      =  SLA  PW   PBX  PBC ( 1  4  3  4 0 0)

     celldm(1)=  17.122808  celldm(2)=   0.000000  celldm(3)=   0.000000
     celldm(4)=   0.000000  celldm(5)=   0.000000  celldm(6)=   0.000000

     crystal axes: (cart. coord. in units of alat)
               a(1) = (   1.000000   0.000000   0.000000 )  
               a(2) = (   0.000000   1.165655   0.000000 )  
               a(3) = (  -0.384265   0.000000   0.773758 )  

     reciprocal axes: (cart. coord. in units 2 pi/alat)
               b(1) = (  1.000000  0.000000  0.496622 )  
               b(2) = (  0.000000  0.857887  0.000000 )  
               b(3) = (  0.000000  0.000000  1.292393 )  


     PseudoPot. # 1 for  C read from file:
     /scratch/ahofstet/pseudo/C.pbe-n-kjpaw_psl.0.1.UPF
     MD5 check sum: 430fe95172b1e11ef3f8ed03bac87931
     Pseudo is Projector augmented-wave + core cor, Zval =  4.0
     Generated using "atomic" code by A. Dal Corso  v.5.0.99 svn rev. 10869
     Shape of augmentation charge: BESSEL
     Using radial grid of 1073 points,  4 beta functions with: 
                l(1) =   0
                l(2) =   0
                l(3) =   1
                l(4) =   1
     Q(r) pseudized with 0 coefficients 


     PseudoPot. # 2 for  N read from file:
     /scratch/ahofstet/pseudo/N.pbe-n-kjpaw_psl.0.1.UPF
     MD5 check sum: f73187c8b701007e77325f868c9291d7
     Pseudo is Projector augmented-wave + core cor, Zval =  5.0
     Generated using "atomic" code by A. Dal Corso  v.5.0.99 svn rev. 10869
     Shape of augmentation charge: PSQ
     Using radial grid of 1085 points,  4 beta functions with: 
                l(1) =   0
                l(2) =   0
                l(3) =   1
                l(4) =   1
     Q(r) pseudized with 0 coefficients 


     PseudoPot. # 3 for  H read from file:
     /scratch/ahofstet/pseudo/H.pbe-kjpaw_psl.0.1.UPF
     MD5 check sum: 94e484f906d9e9773b2f6e52662335b2
     Pseudo is Projector augmented-wave, Zval =  1.0
     Generated using "atomic" code by A. Dal Corso  v.5.0.99 svn rev. 10869
     Shape of augmentation charge: PSQ
     Using radial grid of  929 points,  2 beta functions with: 
                l(1) =   0
                l(2) =   0
     Q(r) pseudized with 0 coefficients 


     PseudoPot. # 4 for  O read from file:
     /scratch/ahofstet/pseudo/O.pbe-n-kjpaw_psl.0.1.UPF
     MD5 check sum: 3f94a2996a3169367d6eb21d9b593f20
     Pseudo is Projector augmented-wave + core cor, Zval =  6.0
     Generated using "atomic" code by A. Dal Corso  v.5.0.99 svn rev. 10869
     Shape of augmentation charge: BESSEL
     Using radial grid of 1095 points,  4 beta functions with: 
                l(1) =   0
                l(2) =   0
                l(3) =   1
                l(4) =   1
     Q(r) pseudized with 0 coefficients 


     atomic species   valence    mass     pseudopotential
        C              4.00    12.01070      C( 1.00)
        N              5.00    14.00670      N( 1.00)
        H              1.00     1.00794      H( 1.00)
        O              6.00    15.99940      O( 1.00)

      2 Sym. Ops., with inversion, found



   Cartesian axes

     site n.     atom                  positions (alat units)
         1           C   tau(   1) = (   0.8970175   0.2858458   0.2029822  )
         2           C   tau(   2) = (  -0.0891338   0.8686935   0.1838984  )
         3           C   tau(   3) = (  -0.2812828   0.8798092   0.5707761  )
         4           C   tau(   4) = (   0.7048685   0.2969615   0.5898600  )
         5           C   tau(   5) = (   0.8848788   0.4517894   0.2215145  )
         6           C   tau(   6) = (  -0.0769901   1.0346101   0.1653426  )
         7           C   tau(   7) = (  -0.2691441   0.7138656   0.5522438  )
         8           C   tau(   8) = (   0.6927248   0.1310449   0.6084157  )
         9           H   tau(   9) = (   0.7792583   0.1072955   0.1995476  )
        10           H   tau(  10) = (   0.0286382   0.6901291   0.1873158  )
        11           H   tau(  11) = (  -0.1635236   1.0583595   0.5742107  )
        12           H   tau(  12) = (   0.5870965   0.4755259   0.5864425  )
        13           H   tau(  13) = (   0.0666244   0.5156570   0.3295513  )
        14           H   tau(  14) = (   0.7412190   1.0984615   0.0573569  )
        15           H   tau(  15) = (   0.5491103   0.6499980   0.4442070  )
        16           H   tau(  16) = (  -0.1254843   0.0671935   0.7164014  )
        17           H   tau(  17) = (   0.8234221   0.4956296   0.1260312  )
        18           H   tau(  18) = (  -0.0155108   1.0784660   0.2608018  )
        19           H   tau(  19) = (  -0.2076874   0.6700254   0.6477272  )
        20           H   tau(  20) = (   0.6312455   0.0871890   0.5129565  )
        21           H   tau(  21) = (   0.8185759   0.4741920   0.3207683  )
        22           H   tau(  22) = (  -0.0107118   1.0570084   0.0660634  )
        23           H   tau(  23) = (  -0.2028412   0.6914630   0.4529900  )
        24           H   tau(  24) = (   0.6264465   0.1086466   0.7076949  )
        25           O   tau(  25) = (   0.7686061   0.2186480   0.2208457  )
        26           O   tau(  26) = (   0.0392981   0.8014572   0.1660063  )
        27           O   tau(  27) = (  -0.1528714   0.9470070   0.5529126  )
        28           O   tau(  28) = (   0.5764366   0.3641978   0.6077520  )
        29           O   tau(  29) = (   0.0124508   0.2202004   0.1733316  )
        30           O   tau(  30) = (   0.7954520   0.8030246   0.2135814  )
        31           O   tau(  31) = (   0.6032839   0.9454546   0.6004267  )
        32           O   tau(  32) = (  -0.1797173   0.3626304   0.5601770  )
        33           O   tau(  33) = (   0.0250324   0.5211927   0.2271453  )
        34           O   tau(  34) = (   0.7828539   1.1040129   0.1597354  )
        35           O   tau(  35) = (   0.5907023   0.6444623   0.5466130  )
        36           O   tau(  36) = (  -0.1671192   0.0616421   0.6140229  )
        37           C   tau(  37) = (   0.3914612   0.0745755   0.2077050  )
        38           C   tau(  38) = (   0.4164973   0.6573870   0.1791139  )
        39           C   tau(  39) = (   0.2242735   1.0910795   0.5660534  )
        40           C   tau(  40) = (   0.1992374   0.5082680   0.5946444  )
        41           C   tau(  41) = (   0.3706406   0.2376569   0.2416763  )
        42           C   tau(  42) = (   0.4372640   0.8204841   0.1451885  )
        43           C   tau(  43) = (   0.2450941   0.9279981   0.5320820  )
        44           C   tau(  44) = (   0.1784707   0.3451709   0.6285698  )
        45           H   tau(  45) = (   0.4894520   1.0647608   0.2821001  )
        46           H   tau(  46) = (   0.3184758   0.4819263   0.1047431  )
        47           H   tau(  47) = (   0.1262827   0.1008942   0.4916582  )
        48           H   tau(  48) = (   0.2972589   0.6837287   0.6690153  )
        49           H   tau(  49) = (   0.1798398   0.2916642   0.1494757  )
        50           H   tau(  50) = (   0.6280585   0.8744691   0.2374196  )
        51           H   tau(  51) = (   0.4358949   0.8739908   0.6242826  )
        52           H   tau(  52) = (  -0.0123238   0.2911859   0.5363387  )
        53           H   tau(  53) = (   0.3187526   0.2470804   0.3513610  )
        54           H   tau(  54) = (   0.4891199   0.8299682   0.0354949  )
        55           H   tau(  55) = (   0.2969821   0.9185746   0.4223973  )
        56           H   tau(  56) = (   0.1266148   0.3356868   0.7382634  )
        57           H   tau(  57) = (   0.4805411   0.2890961   0.2493708  )
        58           H   tau(  58) = (   0.3273394   0.8718870   0.1375448  )
        59           H   tau(  59) = (   0.1351936   0.8765589   0.5243875  )
        60           H   tau(  60) = (   0.2883953   0.2937680   0.6362135  )
        61           O   tau(  61) = (   0.4705769   0.0073096   0.3104468  )
        62           O   tau(  62) = (   0.3373493   0.5901272   0.0763853  )
        63           O   tau(  63) = (   0.1451578   1.1583454   0.4633115  )
        64           O   tau(  64) = (   0.2783854   0.5755278   0.6973730  )
        65           O   tau(  65) = (   0.3413088   0.0117173   0.0983392  )
        66           O   tau(  66) = (   0.4666818   0.5945106   0.2884514  )
        67           O   tau(  67) = (   0.2744259   1.1539377   0.6754191  )
        68           O   tau(  68) = (   0.1490529   0.5711444   0.4853069  )
        69           O   tau(  69) = (   0.2875238   0.3118330   0.1321932  )
        70           O   tau(  70) = (   0.5203694   0.8946467   0.2546866  )
        71           O   tau(  71) = (   0.3282109   0.8538220   0.6415651  )
        72           O   tau(  72) = (   0.0953653   0.2710083   0.5190717  )

     number of k points=     8
                       cart. coord. in units 2pi/alat
        k(    1) = (   0.0000000   0.0000000   0.0000000), wk =   0.1666667
        k(    2) = (   0.0000000   0.0000000   0.4307977), wk =   0.3333333
        k(    3) = (   0.0000000  -0.4289434   0.0000000), wk =   0.1666667
        k(    4) = (   0.0000000  -0.4289434   0.4307977), wk =   0.3333333
        k(    5) = (  -0.5000000   0.0000000  -0.2483109), wk =   0.1666667
        k(    6) = (  -0.5000000   0.0000000   0.1824868), wk =   0.3333333
        k(    7) = (  -0.5000000  -0.4289434  -0.2483109), wk =   0.1666667
        k(    8) = (  -0.5000000  -0.4289434   0.1824868), wk =   0.3333333

     Dense  grid:   611719 G-vectors     FFT dimensions: ( 120, 128,  96)

     Estimated max dynamical RAM per process >     470.74MB

     Estimated total allocated dynamical RAM >    3765.91MB

     Check: negative/imaginary core charge=   -0.000003    0.000000

     Initial potential from superposition of free atoms

     starting charge  239.99899, renormalised to  240.00000
     Starting wfc are  192 randomized atomic wfcs
     Checking if some PAW data can be deallocated... 

     total cpu time spent up to now is       25.1 secs

     per-process dynamical memory:   334.2 Mb

     Self-consistent Calculation

     iteration #  1     ecut=   100.00 Ry     beta=0.50
     Davidson diagonalization with overlap
     ethr =  1.00E-02,  avg # of iterations =  4.0

     total cpu time spent up to now is       93.6 secs

     total energy              =   -1331.91072956 Ry
     Harris-Foulkes estimate   =   -1335.51916896 Ry
     estimated scf accuracy    <       6.61886342 Ry

     iteration #  2     ecut=   100.00 Ry     beta=0.50
     Davidson diagonalization with overlap
     ethr =  2.76E-03,  avg # of iterations =  2.1

     total cpu time spent up to now is      137.4 secs

     total energy              =   -1333.14121659 Ry
     Harris-Foulkes estimate   =   -1333.60722927 Ry
     estimated scf accuracy    <       1.02221590 Ry

     iteration #  3     ecut=   100.00 Ry     beta=0.50
     Davidson diagonalization with overlap
     ethr =  4.26E-04,  avg # of iterations =  6.9

     total cpu time spent up to now is      192.9 secs

     total energy              =   -1333.35896400 Ry
     Harris-Foulkes estimate   =   -1333.43367340 Ry
     estimated scf accuracy    <       0.20579338 Ry

     iteration #  4     ecut=   100.00 Ry     beta=0.50
     Davidson diagonalization with overlap
     ethr =  8.57E-05,  avg # of iterations =  4.5

     total cpu time spent up to now is      232.3 secs

     total energy              =   -1333.37709013 Ry
     Harris-Foulkes estimate   =   -1333.39226558 Ry
     estimated scf accuracy    <       0.04291565 Ry

     iteration #  5     ecut=   100.00 Ry     beta=0.50
     Davidson diagonalization with overlap
     ethr =  1.79E-05,  avg # of iterations =  6.9

     total cpu time spent up to now is      296.3 secs

     total energy              =   -1333.38833675 Ry
     Harris-Foulkes estimate   =   -1333.39219219 Ry
     estimated scf accuracy    <       0.01056392 Ry

     iteration #  6     ecut=   100.00 Ry     beta=0.50
     Davidson diagonalization with overlap
     ethr =  4.40E-06,  avg # of iterations =  2.2

     total cpu time spent up to now is      330.9 secs

     total energy              =   -1333.38771873 Ry
     Harris-Foulkes estimate   =   -1333.38915972 Ry
     estimated scf accuracy    <       0.00226103 Ry

     iteration #  7     ecut=   100.00 Ry     beta=0.50
     Davidson diagonalization with overlap
     ethr =  9.42E-07,  avg # of iterations =  5.2

     total cpu time spent up to now is      404.0 secs

     total energy              =   -1333.38955654 Ry
     Harris-Foulkes estimate   =   -1333.39060148 Ry
     estimated scf accuracy    <       0.00330103 Ry

     iteration #  8     ecut=   100.00 Ry     beta=0.50
     Davidson diagonalization with overlap
     ethr =  9.42E-07,  avg # of iterations =  1.0

     total cpu time spent up to now is      437.4 secs

     total energy              =   -1333.38887222 Ry
     Harris-Foulkes estimate   =   -1333.38963631 Ry
     estimated scf accuracy    <       0.00140355 Ry

     iteration #  9     ecut=   100.00 Ry     beta=0.50
     Davidson diagonalization with overlap
     ethr =  5.85E-07,  avg # of iterations =  3.1

     total cpu time spent up to now is      492.4 secs

     total energy              =   -1333.38957471 Ry
     Harris-Foulkes estimate   =   -1333.38962671 Ry
     estimated scf accuracy    <       0.00025092 Ry

     iteration # 10     ecut=   100.00 Ry     beta=0.50
     Davidson diagonalization with overlap
     ethr =  1.05E-07,  avg # of iterations =  1.0

     total cpu time spent up to now is      525.9 secs

     total energy              =   -1333.38950081 Ry
     Harris-Foulkes estimate   =   -1333.38957966 Ry
     estimated scf accuracy    <       0.00015056 Ry

     iteration # 11     ecut=   100.00 Ry     beta=0.50
     Davidson diagonalization with overlap
     ethr =  6.27E-08,  avg # of iterations =  3.0

     total cpu time spent up to now is      577.4 secs

     total energy              =   -1333.38955076 Ry
     Harris-Foulkes estimate   =   -1333.38955188 Ry
     estimated scf accuracy    <       0.00000614 Ry

     iteration # 12     ecut=   100.00 Ry     beta=0.50
     Davidson diagonalization with overlap
     ethr =  2.56E-09,  avg # of iterations =  1.2

     total cpu time spent up to now is      611.0 secs

     total energy              =   -1333.38954910 Ry
     Harris-Foulkes estimate   =   -1333.38955105 Ry
     estimated scf accuracy    <       0.00000387 Ry

     iteration # 13     ecut=   100.00 Ry     beta=0.50
     Davidson diagonalization with overlap
     ethr =  1.61E-09,  avg # of iterations =  3.0

     total cpu time spent up to now is      660.4 secs

     total energy              =   -1333.38955010 Ry
     Harris-Foulkes estimate   =   -1333.38955011 Ry
     estimated scf accuracy    <       0.00000004 Ry

     iteration # 14     ecut=   100.00 Ry     beta=0.50
     Davidson diagonalization with overlap
     ethr =  1.70E-11,  avg # of iterations =  3.0

     total cpu time spent up to now is      712.4 secs

     End of self-consistent calculation

          k = 0.0000 0.0000 0.0000 ( 76489 PWs)   bands (ev):

   -21.5216 -21.4386 -21.4235 -21.4113 -21.3859 -21.3836 -21.3628 -21.3201
   -19.9208 -19.8064 -19.7555 -19.6534 -19.6079 -19.5769 -19.5573 -19.5475
   -19.1005 -19.0815 -19.0362 -19.0320 -19.0264 -18.9843 -18.9375 -18.8498
   -12.1376 -12.1218 -12.0973 -12.0197 -11.8755 -11.8704 -11.7670 -11.7543
    -9.0213  -8.9807  -8.9093  -8.8932  -8.8404  -8.7375  -8.6629  -8.6249
    -7.3285  -7.2389  -7.1606  -7.1043  -6.9509  -6.8757  -6.7193  -6.4753
    -6.3250  -6.3103  -6.2394  -6.2088  -6.0906  -6.0763  -5.9803  -5.9136
    -5.8399  -5.8177  -5.7961  -5.7759  -5.6804  -5.6153  -5.4618  -5.4612
    -5.1959  -5.1474  -5.1039  -5.1002  -5.0168  -5.0160  -4.9664  -4.6982
    -4.2617  -4.2518  -4.1765  -4.1505  -4.1446  -4.0662  -4.0636  -3.9404
    -3.4133  -3.3961  -3.3048  -3.2033  -3.0578  -2.9407  -2.9238  -2.8856
    -2.4012  -2.2937  -2.2762  -2.1702  -2.1500  -1.9720  -1.9590  -1.7754
    -1.6915  -1.6241  -1.5610  -1.5526  -1.5117  -1.4162  -1.4087  -1.3596
    -1.0843  -1.0504  -1.0449  -0.9901  -0.9301  -0.9160  -0.8604  -0.8431
    -0.4572  -0.4229  -0.3571  -0.3366  -0.3163  -0.2730  -0.2504  -0.1471
     4.8377   4.9534   5.0129   5.0267   5.0987   5.1934   5.3276   5.3499
     5.9417   6.9457   6.9587   7.0774   7.4498   7.5769   7.7696   8.0143
     8.4142   8.4245   8.4386   8.7758   8.7898   8.8229   8.9922   9.1264

          k = 0.0000 0.0000 0.4308 ( 76458 PWs)   bands (ev):

   -21.4990 -21.4567 -21.4167 -21.4052 -21.4035 -21.3845 -21.3533 -21.3299
   -19.8969 -19.8395 -19.7428 -19.6958 -19.5901 -19.5735 -19.5471 -19.5360
   -19.0915 -19.0901 -19.0708 -19.0700 -18.9846 -18.9616 -18.9134 -18.8672
   -12.1297 -12.1258 -12.0885 -12.0453 -11.8540 -11.8497 -11.7850 -11.7774
    -9.0087  -8.9871  -8.9522  -8.9513  -8.7757  -8.7395  -8.6412  -8.6271
    -7.2726  -7.2664  -7.1897  -7.1238  -6.8789  -6.7827  -6.7275  -6.5197
    -6.2872  -6.2622  -6.2000  -6.1901  -6.1367  -6.0951  -6.0757  -6.0178
    -5.7642  -5.6970  -5.6940  -5.6499  -5.5831  -5.5589  -5.5180  -5.4438
    -5.3014  -5.2919  -5.2074  -5.1637  -5.0492  -5.0169  -4.9166  -4.7895
    -4.3308  -4.3047  -4.1585  -4.1333  -4.1330  -4.0789  -4.0405  -3.9900
    -3.4495  -3.4179  -3.3427  -3.2805  -3.0204  -2.9422  -2.9284  -2.9251
    -2.4074  -2.3453  -2.3187  -2.2800  -2.0210  -1.9321  -1.9079  -1.8158
    -1.5741  -1.5589  -1.5114  -1.5024  -1.4957  -1.4402  -1.3892  -1.3762
    -1.1091  -1.0985  -1.0008  -0.9790  -0.9505  -0.9259  -0.8003  -0.7535
    -0.4408  -0.4003  -0.3810  -0.3651  -0.2756  -0.2424  -0.2057  -0.1646
     4.8150   4.8750   5.0191   5.0882   5.0910   5.1709   5.2912   5.2953
     6.2761   6.9741   7.0002   7.1157   7.1158   7.6346   7.7391   7.7925
     8.1162   8.2587   8.3861   8.4342   8.5337   8.7114   9.1483   9.1542

          k = 0.0000-0.4289 0.0000 ( 76452 PWs)   bands (ev):

   -21.4785 -21.4780 -21.4093 -21.4084 -21.3887 -21.3877 -21.3532 -21.3526
   -19.7998 -19.7995 -19.6993 -19.6987 -19.6598 -19.6594 -19.5763 -19.5756
   -19.0740 -19.0739 -19.0308 -19.0307 -18.9865 -18.9861 -18.9076 -18.9072
   -12.0170 -12.0158 -12.0016 -12.0005 -11.9451 -11.9450 -11.8886 -11.8885
    -8.9308  -8.9306  -8.8255  -8.8254  -8.7872  -8.7871  -8.7304  -8.7304
    -7.2273  -7.2270  -7.1335  -7.1334  -6.9101  -6.9096  -6.6752  -6.6752
    -6.3027  -6.3016  -6.2797  -6.2795  -6.0825  -6.0819  -6.0059  -6.0058
    -5.8204  -5.8204  -5.7663  -5.7661  -5.6933  -5.6931  -5.5073  -5.5072
    -5.1768  -5.1764  -5.0412  -5.0410  -4.9475  -4.9473  -4.8911  -4.8908
    -4.3099  -4.3097  -4.1214  -4.1213  -4.0721  -4.0719  -3.8690  -3.8689
    -3.3128  -3.3127  -3.2524  -3.2524  -3.1361  -3.1358  -3.1081  -3.1079
    -2.2204  -2.2201  -2.1081  -2.1078  -1.9710  -1.9708  -1.9364  -1.9362
    -1.6178  -1.6178  -1.5523  -1.5518  -1.4584  -1.4584  -1.4030  -1.4027
    -1.0287  -1.0284  -1.0058  -1.0052  -0.9648  -0.9646  -0.8442  -0.8440
    -0.4851  -0.4850  -0.3888  -0.3888  -0.3329  -0.3324  -0.2473  -0.2467
     4.9070   4.9081   5.0765   5.0766   5.1340   5.1344   5.2730   5.2735
     6.2510   6.2514   7.3799   7.3806   7.5993   7.6002   7.8634   7.8635
     8.2517   8.2519   8.3848   8.3849   8.9104   8.9105   9.0830   9.0831

          k = 0.0000-0.4289 0.4308 ( 76496 PWs)   bands (ev):

   -21.4596 -21.4591 -21.4245 -21.4238 -21.3901 -21.3895 -21.3560 -21.3553
   -19.7926 -19.7922 -19.7112 -19.7109 -19.6597 -19.6591 -19.5733 -19.5727
   -19.0865 -19.0859 -19.0217 -19.0210 -18.9782 -18.9778 -18.9098 -18.9094
   -12.0207 -12.0194 -11.9879 -11.9864 -11.9456 -11.9448 -11.9044 -11.9041
    -8.9404  -8.9402  -8.8708  -8.8707  -8.7788  -8.7785  -8.6923  -8.6920
    -7.2167  -7.2163  -7.1268  -7.1267  -6.8574  -6.8570  -6.6965  -6.6962
    -6.2941  -6.2929  -6.2234  -6.2231  -6.1144  -6.1139  -6.0723  -6.0720
    -5.7518  -5.7516  -5.6642  -5.6640  -5.6116  -5.6115  -5.5136  -5.5134
    -5.2594  -5.2590  -5.1938  -5.1937  -4.9718  -4.9714  -4.9161  -4.9159
    -4.2552  -4.2550  -4.1387  -4.1384  -4.0615  -4.0612  -3.9347  -3.9346
    -3.4032  -3.4030  -3.2640  -3.2637  -3.1352  -3.1350  -3.1169  -3.1167
    -2.1778  -2.1772  -2.1347  -2.1343  -2.0142  -2.0140  -1.9205  -1.9198
    -1.5487  -1.5486  -1.4951  -1.4947  -1.4508  -1.4507  -1.4003  -1.3998
    -1.0379  -1.0374  -1.0104  -1.0097  -0.9132  -0.9130  -0.8328  -0.8326
    -0.4650  -0.4646  -0.4069  -0.4065  -0.2862  -0.2857  -0.2418  -0.2413
     4.9158   4.9169   5.0506   5.0520   5.1181   5.1188   5.2241   5.2246
     6.5353   6.5356   7.2276   7.2279   7.4131   7.4136   7.6924   7.6929
     8.0915   8.0919   8.6253   8.6258   8.8087   8.8094   9.0781   9.0785

          k =-0.5000 0.0000-0.2483 ( 76518 PWs)   bands (ev):

   -21.4937 -21.4508 -21.4418 -21.4141 -21.3864 -21.3716 -21.3698 -21.3206
   -19.8254 -19.8208 -19.8180 -19.7733 -19.5530 -19.5457 -19.5354 -19.5349
   -19.1242 -19.1070 -19.0956 -19.0656 -18.9510 -18.9213 -18.9095 -18.8881
   -12.1420 -12.0996 -12.0875 -12.0844 -11.8744 -11.8487 -11.7693 -11.7610
    -9.0665  -8.9984  -8.9738  -8.9468  -8.6926  -8.6867  -8.6670  -8.6410
    -7.3544  -7.2286  -7.2239  -7.1313  -6.8181  -6.7548  -6.7428  -6.6168
    -6.3006  -6.2967  -6.2223  -6.1967  -6.0792  -5.9912  -5.9718  -5.9245
    -5.7721  -5.7334  -5.6897  -5.5717  -5.5468  -5.4575  -5.4405  -5.4175
    -5.3633  -5.3557  -5.3000  -5.1976  -5.0683  -5.0560  -4.9758  -4.8739
    -4.2149  -4.2030  -4.2011  -4.1326  -4.0965  -4.0751  -4.0646  -4.0316
    -3.4556  -3.4358  -3.3858  -3.2702  -3.0470  -2.9948  -2.9410  -2.9343
    -2.4344  -2.4217  -2.3700  -2.2894  -2.0700  -1.9456  -1.8181  -1.8007
    -1.6781  -1.6450  -1.5557  -1.5291  -1.4252  -1.3785  -1.3719  -1.3330
    -1.1760  -1.0634  -1.0619  -1.0068  -0.8969  -0.8246  -0.7914  -0.6741
    -0.4802  -0.4153  -0.3582  -0.3265  -0.2587  -0.2243  -0.2008  -0.1332
     4.8853   4.9336   4.9908   5.0355   5.1403   5.1668   5.3066   5.3408
     6.1951   6.2816   7.1510   7.1973   7.2420   7.3898   7.8639   7.8956
     8.1143   8.4709   8.5724   8.5739   8.7950   9.0864   9.1254   9.1326

          k =-0.5000 0.0000 0.1825 ( 76476 PWs)   bands (ev):

   -21.4866 -21.4589 -21.4298 -21.4028 -21.4016 -21.3820 -21.3553 -21.3335
   -19.8550 -19.8481 -19.7650 -19.7451 -19.5673 -19.5542 -19.5405 -19.5326
   -19.1255 -19.1148 -19.0675 -19.0384 -18.9860 -18.9517 -18.8964 -18.8807
   -12.1334 -12.1083 -12.0876 -12.0786 -11.8479 -11.8312 -11.7859 -11.7847
    -9.0483  -9.0037  -8.9503  -8.9154  -8.7229  -8.7152  -8.6716  -8.6555
    -7.3538  -7.2711  -7.1034  -7.0685  -6.9610  -6.8238  -6.6113  -6.5981
    -6.2764  -6.2660  -6.2181  -6.1910  -6.1499  -6.0733  -5.9999  -5.9927
    -5.8118  -5.7158  -5.6902  -5.6385  -5.5884  -5.4860  -5.4458  -5.4097
    -5.3370  -5.3366  -5.2010  -5.1618  -5.0597  -4.9807  -4.9476  -4.8457
    -4.2745  -4.2347  -4.2133  -4.1920  -4.1398  -4.1258  -4.0680  -4.0312
    -3.4684  -3.4061  -3.3283  -3.2657  -3.0478  -3.0029  -2.9177  -2.8818
    -2.4170  -2.3777  -2.3365  -2.2809  -1.9781  -1.9295  -1.8842  -1.7993
    -1.5775  -1.5696  -1.5325  -1.4756  -1.4708  -1.4164  -1.4087  -1.3878
    -1.1659  -1.1200  -1.0048  -0.9789  -0.8786  -0.8617  -0.8341  -0.7773
    -0.4354  -0.3731  -0.3433  -0.3242  -0.3042  -0.2514  -0.2276  -0.1638
     4.8956   4.9246   4.9352   5.0462   5.0749   5.1814   5.2583   5.3168
     6.3607   6.7422   6.8712   7.2235   7.4769   7.5777   7.6194   7.8245
     8.0020   8.0809   8.4012   8.6068   8.6966   8.7969   9.1507   9.2485

          k =-0.5000-0.4289-0.2483 ( 76468 PWs)   bands (ev):

   -21.4623 -21.4619 -21.4190 -21.4180 -21.3957 -21.3956 -21.3530 -21.3525
   -19.7845 -19.7845 -19.7058 -19.7057 -19.6716 -19.6714 -19.5765 -19.5765
   -19.0970 -19.0966 -19.0173 -19.0165 -18.9727 -18.9725 -18.9054 -18.9052
   -12.0207 -12.0206 -12.0169 -12.0167 -11.9419 -11.9415 -11.8835 -11.8834
    -8.9973  -8.9972  -8.8240  -8.8239  -8.7883  -8.7882  -8.6688  -8.6688
    -7.1991  -7.1988  -7.1413  -7.1412  -6.9463  -6.9459  -6.6519  -6.6519
    -6.3219  -6.3208  -6.2695  -6.2692  -6.0588  -6.0587  -5.9460  -5.9457
    -5.7211  -5.7210  -5.6433  -5.6430  -5.5658  -5.5657  -5.4025  -5.4022
    -5.3848  -5.3844  -5.2113  -5.2112  -5.0208  -5.0207  -4.9819  -4.9813
    -4.2626  -4.2624  -4.0984  -4.0981  -4.0305  -4.0301  -3.9246  -3.9243
    -3.4672  -3.4668  -3.2691  -3.2689  -3.1869  -3.1868  -3.0755  -3.0755
    -2.3131  -2.3127  -2.1337  -2.1334  -1.9708  -1.9706  -1.9167  -1.9166
    -1.6278  -1.6278  -1.5430  -1.5424  -1.4297  -1.4297  -1.3434  -1.3432
    -1.0871  -1.0865  -0.9571  -0.9570  -0.8733  -0.8729  -0.7802  -0.7801
    -0.5183  -0.5181  -0.3594  -0.3591  -0.2958  -0.2955  -0.1941  -0.1939
     4.9353   4.9361   5.0413   5.0416   5.1663   5.1671   5.2450   5.2456
     6.5442   6.5446   6.5815   6.5820   7.7200   7.7205   8.0074   8.0081
     8.2395   8.2401   8.6176   8.6179   8.9400   8.9401   9.0897   9.0901

          k =-0.5000-0.4289 0.1825 ( 76438 PWs)   bands (ev):

   -21.4520 -21.4516 -21.4249 -21.4243 -21.3958 -21.3954 -21.3580 -21.3575
   -19.7747 -19.7746 -19.7400 -19.7397 -19.6314 -19.6310 -19.5897 -19.5895
   -19.0820 -19.0816 -19.0441 -19.0436 -18.9508 -18.9504 -18.9186 -18.9184
   -12.0184 -12.0174 -12.0062 -12.0047 -11.9369 -11.9360 -11.8982 -11.8979
    -8.9570  -8.9569  -8.8530  -8.8530  -8.7777  -8.7774  -8.6946  -8.6945
    -7.2238  -7.2235  -7.1185  -7.1183  -6.8699  -6.8697  -6.7006  -6.7004
    -6.3190  -6.3180  -6.2132  -6.2125  -6.1069  -6.1065  -6.0308  -6.0305
    -5.7641  -5.7637  -5.6732  -5.6730  -5.5816  -5.5815  -5.4347  -5.4344
    -5.2607  -5.2604  -5.1849  -5.1848  -5.0086  -5.0083  -4.9764  -4.9764
    -4.2272  -4.2270  -4.1618  -4.1615  -4.0513  -4.0508  -3.9872  -3.9872
    -3.4130  -3.4127  -3.2554  -3.2553  -3.1773  -3.1772  -3.0885  -3.0882
    -2.2109  -2.2106  -2.1026  -2.1024  -1.9909  -1.9906  -1.9381  -1.9375
    -1.5530  -1.5528  -1.4986  -1.4984  -1.4365  -1.4364  -1.4008  -1.4004
    -1.0859  -1.0855  -0.9943  -0.9941  -0.8732  -0.8729  -0.8130  -0.8128
    -0.4733  -0.4731  -0.3675  -0.3674  -0.3120  -0.3119  -0.2392  -0.2391
     4.9598   4.9610   5.0470   5.0474   5.0873   5.0882   5.2102   5.2108
     6.6328   6.6333   7.0440   7.0444   7.2487   7.2494   7.9183   7.9189
     8.2938   8.2942   8.6601   8.6604   8.7983   8.7986   8.9972   8.9980

     highest occupied, lowest unoccupied level (ev):    -0.1332    4.8150

!    total energy              =   -1333.38955011 Ry
     Harris-Foulkes estimate   =   -1333.38955011 Ry
     estimated scf accuracy    <          3.7E-09 Ry

     total all-electron energy =     -4869.940452 Ry

     The total energy is the sum of the following terms:

     one-electron contribution =    -698.49727413 Ry
     hartree contribution      =     445.97897808 Ry
     xc contribution           =    -267.28463874 Ry
     ewald contribution        =    -478.63801484 Ry
     Dispersion Correction     =      -0.28155337 Ry
     one-center paw contrib.   =    -334.66704711 Ry

     convergence has been achieved in  14 iterations

     Forces acting on atoms (cartesian axes, Ry/au):

     atom    1 type  1   force =     0.00016608   -0.00013610    0.00033825
     atom    2 type  1   force =     0.00019112   -0.00076847   -0.00036507
     atom    3 type  1   force =    -0.00016608    0.00013610   -0.00033825
     atom    4 type  1   force =    -0.00019112    0.00076847    0.00036507
     atom    5 type  1   force =    -0.00193303    0.00003144    0.00030689
     atom    6 type  1   force =     0.00193744    0.00017890   -0.00040713
     atom    7 type  1   force =     0.00193303   -0.00003144   -0.00030689
     atom    8 type  1   force =    -0.00193744   -0.00017890    0.00040713
     atom    9 type  3   force =    -0.00023311   -0.00028292   -0.00011092
     atom   10 type  3   force =     0.00018680   -0.00043716    0.00014473
     atom   11 type  3   force =     0.00023311    0.00028292    0.00011092
     atom   12 type  3   force =    -0.00018680    0.00043716   -0.00014473
     atom   13 type  3   force =    -0.00100773    0.00006091   -0.00190219
     atom   14 type  3   force =     0.00097251    0.00004662    0.00177879
     atom   15 type  3   force =     0.00100773   -0.00006091    0.00190219
     atom   16 type  3   force =    -0.00097251   -0.00004662   -0.00177879
     atom   17 type  3   force =     0.00128344   -0.00088603    0.00179708
     atom   18 type  3   force =    -0.00127118   -0.00087377   -0.00177561
     atom   19 type  3   force =    -0.00128344    0.00088603   -0.00179708
     atom   20 type  3   force =     0.00127118    0.00087377    0.00177561
     atom   21 type  3   force =     0.00028832    0.00034401   -0.00047057
     atom   22 type  3   force =    -0.00031680    0.00030914    0.00052766
     atom   23 type  3   force =    -0.00028832   -0.00034401    0.00047057
     atom   24 type  3   force =     0.00031680   -0.00030914   -0.00052766
     atom   25 type  4   force =     0.00095526   -0.00023781   -0.00139215
     atom   26 type  4   force =    -0.00132634    0.00030134    0.00139935
     atom   27 type  4   force =    -0.00095526    0.00023781    0.00139215
     atom   28 type  4   force =     0.00132634   -0.00030134   -0.00139935
     atom   29 type  4   force =    -0.00122696   -0.00061012    0.00146066
     atom   30 type  4   force =     0.00130018   -0.00045454   -0.00149096
     atom   31 type  4   force =     0.00122696    0.00061012   -0.00146066
     atom   32 type  4   force =    -0.00130018    0.00045454    0.00149096
     atom   33 type  4   force =     0.00193753    0.00160188   -0.00007659
     atom   34 type  4   force =    -0.00189380    0.00166854    0.00023924
     atom   35 type  4   force =    -0.00193753   -0.00160188    0.00007659
     atom   36 type  4   force =     0.00189380   -0.00166854   -0.00023924
     atom   37 type  1   force =    -0.00074088   -0.00075668   -0.00090487
     atom   38 type  1   force =     0.00061689   -0.00078626    0.00084506
     atom   39 type  1   force =     0.00074088    0.00075668    0.00090487
     atom   40 type  1   force =    -0.00061689    0.00078626   -0.00084506
     atom   41 type  1   force =     0.00092459   -0.00033457    0.00198376
     atom   42 type  1   force =    -0.00098451   -0.00033486   -0.00198028
     atom   43 type  1   force =    -0.00092459    0.00033457   -0.00198376
     atom   44 type  1   force =     0.00098451    0.00033486    0.00198028
     atom   45 type  3   force =     0.00011304   -0.00059477   -0.00011350
     atom   46 type  3   force =    -0.00011828   -0.00058881    0.00010978
     atom   47 type  3   force =    -0.00011304    0.00059477    0.00011350
     atom   48 type  3   force =     0.00011828    0.00058881   -0.00010978
     atom   49 type  3   force =     0.00231449    0.00055028   -0.00008992
     atom   50 type  3   force =    -0.00236849    0.00055653    0.00009800
     atom   51 type  3   force =    -0.00231449   -0.00055028    0.00008992
     atom   52 type  3   force =     0.00236849   -0.00055653   -0.00009800
     atom   53 type  3   force =     0.00055414   -0.00016857   -0.00056435
     atom   54 type  3   force =    -0.00054830   -0.00016951    0.00056228
     atom   55 type  3   force =    -0.00055414    0.00016857    0.00056435
     atom   56 type  3   force =     0.00054830    0.00016951   -0.00056228
     atom   57 type  3   force =    -0.00151036   -0.00002041   -0.00028974
     atom   58 type  3   force =     0.00153891   -0.00004029    0.00027709
     atom   59 type  3   force =     0.00151036    0.00002041    0.00028974
     atom   60 type  3   force =    -0.00153891    0.00004029   -0.00027709
     atom   61 type  4   force =     0.00027700   -0.00013997   -0.00127460
     atom   62 type  4   force =    -0.00022661   -0.00008560    0.00130793
     atom   63 type  4   force =    -0.00027700    0.00013997    0.00127460
     atom   64 type  4   force =     0.00022661    0.00008560   -0.00130793
     atom   65 type  4   force =     0.00022522   -0.00052504    0.00130354
     atom   66 type  4   force =    -0.00018687   -0.00053632   -0.00124329
     atom   67 type  4   force =    -0.00022522    0.00052504   -0.00130354
     atom   68 type  4   force =     0.00018687    0.00053632    0.00124329
     atom   69 type  4   force =    -0.00197764    0.00143343   -0.00140120
     atom   70 type  4   force =     0.00205468    0.00145321    0.00139851
     atom   71 type  4   force =     0.00197764   -0.00143343    0.00140120
     atom   72 type  4   force =    -0.00205468   -0.00145321   -0.00139851

     Total force =     0.015044     Total SCF correction =     0.000109


     Computing stress (Cartesian axis) and pressure

          total   stress  (Ry/bohr**3)                   (kbar)     P=   -7.14
  -0.00005534   0.00000020  -0.00000368         -8.14      0.03     -0.54
   0.00000020  -0.00005787  -0.00000008          0.03     -8.51     -0.01
  -0.00000368  -0.00000008  -0.00003234         -0.54     -0.01     -4.76


     Writing output data file scf.save
 
     init_run     :     23.46s CPU     24.41s WALL (       1 calls)
     electrons    :    656.81s CPU    687.54s WALL (       1 calls)
     forces       :     12.81s CPU     12.91s WALL (       1 calls)
     stress       :     41.73s CPU     41.85s WALL (       1 calls)

     Called by init_run:
     wfcinit      :     16.31s CPU     17.12s WALL (       1 calls)
     potinit      :      2.57s CPU      2.64s WALL (       1 calls)

     Called by electrons:
     c_bands      :    584.83s CPU    610.67s WALL (      14 calls)
     sum_band     :     63.57s CPU     67.65s WALL (      14 calls)
     v_of_rho     :      1.33s CPU      1.48s WALL (      15 calls)
     newd         :      2.64s CPU      3.20s WALL (      15 calls)
     PAW_pot      :      4.09s CPU      4.09s WALL (      15 calls)
     mix_rho      :      0.25s CPU      0.27s WALL (      14 calls)

     Called by c_bands:
     init_us_2    :      3.59s CPU      3.60s WALL (     248 calls)
     cegterg      :    571.50s CPU    597.31s WALL (     112 calls)

     Called by sum_band:
     sum_band:bec :      0.05s CPU      0.05s WALL (     112 calls)
     addusdens    :      2.69s CPU      3.22s WALL (      14 calls)

     Called by *egterg:
     h_psi        :    328.34s CPU    348.67s WALL (     498 calls)
     s_psi        :     60.48s CPU     60.50s WALL (     498 calls)
     g_psi        :      1.78s CPU      1.78s WALL (     378 calls)
     cdiaghg      :     34.03s CPU     34.03s WALL (     490 calls)

     Called by h_psi:
     h_psi:pot    :    325.90s CPU    346.19s WALL (     498 calls)
     h_psi:calbec :     60.20s CPU     60.37s WALL (     498 calls)
     vloc_psi     :    205.24s CPU    225.33s WALL (     498 calls)
     add_vuspsi   :     60.47s CPU     60.48s WALL (     498 calls)

     General routines
     calbec       :     88.35s CPU     88.59s WALL (     650 calls)
     fft          :      0.82s CPU      1.09s WALL (     219 calls)
     fftw         :    220.85s CPU    242.67s WALL (  108478 calls)
 
     Parallel routines
     fft_scatter  :     55.48s CPU     71.58s WALL (  108697 calls)
 
     PWSCF        : 12m21.37s CPU    13m28.40s WALL

 
   This run was terminated on:  14:10: 3   4Nov2017            

=------------------------------------------------------------------------------=
   JOB DONE.
=------------------------------------------------------------------------------=
