
     Program PWSCF v.6.1 (svn rev. 13369) starts on 15Dec2017 at  5:53:27 

     This program is part of the open-source Quantum ESPRESSO suite
     for quantum simulation of materials; please cite
         "P. Giannozzi et al., J. Phys.:Condens. Matter 21 395502 (2009);
          URL http://www.quantum-espresso.org", 
     in publications or presentations arising from this work. More details at
     http://www.quantum-espresso.org/quote

     Parallel version (MPI), running on     8 processors
     R & G space division:  proc/nbgrp/npool/nimage =       8
     Waiting for input...
     Reading input from standard input

     Current dimensions of program PWSCF are:
     Max number of different atomic species (ntypx) = 10
     Max number of k-points (npk) =  40000
     Max angular momentum in pseudopotentials (lmaxx) =  3
               file C.pbe-n-kjpaw_psl.0.1.UPF: wavefunction(s)  2P renormalized
               file N.pbe-n-kjpaw_psl.0.1.UPF: wavefunction(s)  2P renormalized
               file H.pbe-kjpaw_psl.0.1.UPF: wavefunction(s)  1S renormalized
               file O.pbe-n-kjpaw_psl.0.1.UPF: wavefunction(s)  2P renormalized

     -------------------------------------
     Parameters for Dispersion Correction:
     -------------------------------------
       atom      VdW radius       C_6     

        C          2.744         60.710
        N          2.640         42.670
        H          1.892          4.857
        O          2.536         24.284

     Subspace diagonalization in iterative solution of the eigenvalue problem:
     a serial algorithm will be used

 
     Parallelization info
     --------------------
     sticks:   dense  smooth     PW     G-vecs:    dense   smooth      PW
     Min        1632    1632    439                64679    64679    9061
     Max        1633    1633    440                64680    64680    9063
     Sum       13059   13059   3517               517437   517437   72495
 


     bravais-lattice index     =            0
     lattice parameter (alat)  =      28.9657  a.u.
     unit-cell volume          =    3831.6379 (a.u.)^3
     number of atoms/cell      =           80
     number of atomic types    =            4
     number of electrons       =       232.00
     number of Kohn-Sham states=          139
     kinetic-energy cutoff     =     100.0000  Ry
     charge density cutoff     =     400.0000  Ry
     convergence threshold     =      1.0E-08
     mixing beta               =       0.5000
     number of iterations used =            8  plain     mixing
     Exchange-correlation      =  SLA  PW   PBX  PBC ( 1  4  3  4 0 0)

     celldm(1)=  28.965722  celldm(2)=   0.000000  celldm(3)=   0.000000
     celldm(4)=   0.000000  celldm(5)=   0.000000  celldm(6)=   0.000000

     crystal axes: (cart. coord. in units of alat)
               a(1) = (   1.000000   0.000000   0.000000 )  
               a(2) = (   0.000000   0.489105   0.000000 )  
               a(3) = (   0.000000   0.000000   0.322351 )  

     reciprocal axes: (cart. coord. in units 2 pi/alat)
               b(1) = (  1.000000  0.000000  0.000000 )  
               b(2) = (  0.000000  2.044551  0.000000 )  
               b(3) = (  0.000000  0.000000  3.102206 )  


     PseudoPot. # 1 for  C read from file:
     /scratch/ahofstet/pseudo/C.pbe-n-kjpaw_psl.0.1.UPF
     MD5 check sum: 430fe95172b1e11ef3f8ed03bac87931
     Pseudo is Projector augmented-wave + core cor, Zval =  4.0
     Generated using "atomic" code by A. Dal Corso  v.5.0.99 svn rev. 10869
     Shape of augmentation charge: BESSEL
     Using radial grid of 1073 points,  4 beta functions with: 
                l(1) =   0
                l(2) =   0
                l(3) =   1
                l(4) =   1
     Q(r) pseudized with 0 coefficients 


     PseudoPot. # 2 for  N read from file:
     /scratch/ahofstet/pseudo/N.pbe-n-kjpaw_psl.0.1.UPF
     MD5 check sum: f73187c8b701007e77325f868c9291d7
     Pseudo is Projector augmented-wave + core cor, Zval =  5.0
     Generated using "atomic" code by A. Dal Corso  v.5.0.99 svn rev. 10869
     Shape of augmentation charge: PSQ
     Using radial grid of 1085 points,  4 beta functions with: 
                l(1) =   0
                l(2) =   0
                l(3) =   1
                l(4) =   1
     Q(r) pseudized with 0 coefficients 


     PseudoPot. # 3 for  H read from file:
     /scratch/ahofstet/pseudo/H.pbe-kjpaw_psl.0.1.UPF
     MD5 check sum: 94e484f906d9e9773b2f6e52662335b2
     Pseudo is Projector augmented-wave, Zval =  1.0
     Generated using "atomic" code by A. Dal Corso  v.5.0.99 svn rev. 10869
     Shape of augmentation charge: PSQ
     Using radial grid of  929 points,  2 beta functions with: 
                l(1) =   0
                l(2) =   0
     Q(r) pseudized with 0 coefficients 


     PseudoPot. # 4 for  O read from file:
     /scratch/ahofstet/pseudo/O.pbe-n-kjpaw_psl.0.1.UPF
     MD5 check sum: 3f94a2996a3169367d6eb21d9b593f20
     Pseudo is Projector augmented-wave + core cor, Zval =  6.0
     Generated using "atomic" code by A. Dal Corso  v.5.0.99 svn rev. 10869
     Shape of augmentation charge: BESSEL
     Using radial grid of 1095 points,  4 beta functions with: 
                l(1) =   0
                l(2) =   0
                l(3) =   1
                l(4) =   1
     Q(r) pseudized with 0 coefficients 


     atomic species   valence    mass     pseudopotential
        C              4.00    12.01070      C( 1.00)
        N              5.00    14.00670      N( 1.00)
        H              1.00     1.00794      H( 1.00)
        O              6.00    15.99940      O( 1.00)

      4 Sym. Ops. (no inversion) found ( 3 have fractional translation)



   Cartesian axes

     site n.     atom                  positions (alat units)
         1           C   tau(   1) = (   0.5015674   0.3039607   0.2422178  )
         2           C   tau(   2) = (   1.0015674   0.4296967   0.0801335  )
         3           C   tau(   3) = (   0.4984326   0.0594082   0.2413091  )
         4           C   tau(   4) = (  -0.0015674   0.1851442   0.0810422  )
         5           C   tau(   5) = (   0.4109696   0.3352991   0.2118442  )
         6           C   tau(   6) = (   0.9109696   0.3983583   0.1105071  )
         7           C   tau(   7) = (   0.5890304   0.0907466   0.2716827  )
         8           C   tau(   8) = (   0.0890304   0.1538058   0.0506686  )
         9           C   tau(   9) = (   0.3461054   0.2598033   0.2119793  )
        10           C   tau(  10) = (   0.8461054   0.4738540   0.1103720  )
        11           C   tau(  11) = (   0.6538946   0.0152509   0.2715476  )
        12           C   tau(  12) = (   0.1538946   0.2293016   0.0508036  )
        13           C   tau(  13) = (   0.3604655   0.1946794   0.1402204  )
        14           C   tau(  14) = (   0.8604655   0.0498731   0.1821309  )
        15           C   tau(  15) = (   0.6395345   0.4392318   0.0209553  )
        16           C   tau(  16) = (   0.1395345   0.2944255   0.3013960  )
        17           C   tau(  17) = (   0.2970353   0.1195475   0.1490384  )
        18           C   tau(  18) = (   0.7970353   0.1250049   0.1733129  )
        19           C   tau(  19) = (   0.7029647   0.3641000   0.0121372  )
        20           C   tau(  20) = (   0.2029647   0.3695574   0.3102140  )
        21           N   tau(  21) = (   0.4141104   0.3766157   0.1236783  )
        22           N   tau(  22) = (   0.9141104   0.3570417   0.1986729  )
        23           N   tau(  23) = (   0.5858896   0.1320632   0.0374973  )
        24           N   tau(  24) = (   0.0858896   0.1124892   0.2848540  )
        25           N   tau(  25) = (   0.2984018   0.0604322   0.0852303  )
        26           N   tau(  26) = (   0.7984018   0.1841202   0.2371210  )
        27           N   tau(  27) = (   0.7015982   0.3049847   0.0759453  )
        28           N   tau(  28) = (   0.2015982   0.4286727   0.2464059  )
        29           O   tau(  29) = (   0.5655952   0.3105034   0.1922025  )
        30           O   tau(  30) = (   0.0655952   0.4231540   0.1301488  )
        31           O   tau(  31) = (   0.4344048   0.0659509   0.2913244  )
        32           O   tau(  32) = (   0.9344048   0.1786015   0.0310269  )
        33           O   tau(  33) = (   0.2454215   0.1168911   0.2125478  )
        34           O   tau(  34) = (   0.7454215   0.1276614   0.1098034  )
        35           O   tau(  35) = (   0.7545785   0.3614435   0.2709791  )
        36           O   tau(  36) = (   0.2545785   0.3722138   0.0513722  )
        37           O   tau(  37) = (   0.5006873   0.2720029   0.3186890  )
        38           O   tau(  38) = (   1.0006873   0.4616544   0.0036623  )
        39           O   tau(  39) = (   0.4993127   0.0274505   0.1648379  )
        40           O   tau(  40) = (  -0.0006873   0.2171020   0.1575134  )
        41           H   tau(  41) = (   0.3890518   0.3864971   0.2576779  )
        42           H   tau(  42) = (   0.8890518   0.3471603   0.0646734  )
        43           H   tau(  43) = (   0.6109482   0.1419446   0.2258490  )
        44           H   tau(  44) = (   0.1109482   0.1026079   0.0965022  )
        45           H   tau(  45) = (   0.3501653   0.2262648   0.2769658  )
        46           H   tau(  46) = (   0.8501653   0.0182876   0.0453854  )
        47           H   tau(  47) = (   0.6498347   0.4708173   0.2065611  )
        48           H   tau(  48) = (   0.1498347   0.2628401   0.1157902  )
        49           H   tau(  49) = (   0.2802998   0.2862856   0.2051333  )
        50           H   tau(  50) = (   0.7802998   0.4473718   0.1172179  )
        51           H   tau(  51) = (   0.7197002   0.0417332   0.2783936  )
        52           H   tau(  52) = (   0.2197002   0.2028193   0.0439577  )
        53           H   tau(  53) = (   0.4268200   0.1677284   0.1388688  )
        54           H   tau(  54) = (   0.9268200   0.0768241   0.1834825  )
        55           H   tau(  55) = (   0.5731800   0.4122808   0.0223068  )
        56           H   tau(  56) = (   0.0731800   0.3213765   0.3000444  )
        57           H   tau(  57) = (   0.3509593   0.2250630   0.0737512  )
        58           H   tau(  58) = (   0.8509593   0.0194895   0.2486001  )
        59           H   tau(  59) = (   0.6490407   0.4696154   0.0874245  )
        60           H   tau(  60) = (   0.1490407   0.2640419   0.2349268  )
        61           H   tau(  61) = (   0.3471282   0.0626055   0.0391462  )
        62           H   tau(  62) = (   0.8471282   0.1819469   0.2832051  )
        63           H   tau(  63) = (   0.6528718   0.3071580   0.1220294  )
        64           H   tau(  64) = (   0.1528718   0.4264994   0.2003218  )
        65           H   tau(  65) = (   0.2627115   0.0040945   0.0894074  )
        66           H   tau(  66) = (   0.7627115   0.2404579   0.2329438  )
        67           H   tau(  67) = (   0.7372885   0.2486470   0.0717682  )
        68           H   tau(  68) = (   0.2372885   0.4850104   0.2505831  )
        69           H   tau(  69) = (   0.4446648   0.4386460   0.1312934  )
        70           H   tau(  70) = (   0.9446648   0.2950114   0.1910578  )
        71           H   tau(  71) = (   0.5553352   0.1940935   0.0298822  )
        72           H   tau(  72) = (   0.0553352   0.0504589   0.2924691  )
        73           H   tau(  73) = (   0.4486456   0.3373579   0.0791285  )
        74           H   tau(  74) = (   0.9486456   0.3962995   0.2432227  )
        75           H   tau(  75) = (   0.5513544   0.0928055   0.0820471  )
        76           H   tau(  76) = (   0.0513544   0.1517470   0.2403042  )
        77           H   tau(  77) = (   0.3514257   0.3831769   0.0985029  )
        78           H   tau(  78) = (   0.8514257   0.3504804   0.2238483  )
        79           H   tau(  79) = (   0.6485743   0.1386245   0.0626727  )
        80           H   tau(  80) = (   0.1485743   0.1059280   0.2596786  )

     number of k points=    12
                       cart. coord. in units 2pi/alat
        k(    1) = (   0.0000000   0.0000000   0.0000000), wk =   0.0833333
        k(    2) = (   0.0000000   0.0000000   0.7755515), wk =   0.1666667
        k(    3) = (   0.0000000   0.0000000  -1.5511030), wk =   0.0833333
        k(    4) = (   0.0000000   0.6815171   0.0000000), wk =   0.1666667
        k(    5) = (   0.0000000   0.6815171   0.7755515), wk =   0.3333333
        k(    6) = (   0.0000000   0.6815171  -1.5511030), wk =   0.1666667
        k(    7) = (  -0.5000000   0.0000000   0.0000000), wk =   0.0833333
        k(    8) = (  -0.5000000   0.0000000   0.7755515), wk =   0.1666667
        k(    9) = (  -0.5000000   0.0000000  -1.5511030), wk =   0.0833333
        k(   10) = (  -0.5000000   0.6815171   0.0000000), wk =   0.1666667
        k(   11) = (  -0.5000000   0.6815171   0.7755515), wk =   0.3333333
        k(   12) = (  -0.5000000   0.6815171  -1.5511030), wk =   0.1666667

     Dense  grid:   517437 G-vectors     FFT dimensions: ( 192,  96,  60)

     Estimated max dynamical RAM per process >     458.88MB

     Estimated total allocated dynamical RAM >    3671.07MB

     Check: negative/imaginary core charge=   -0.000002    0.000000

     Initial potential from superposition of free atoms

     starting charge  231.99871, renormalised to  232.00000
     Starting wfc are  200 randomized atomic wfcs
     Checking if some PAW data can be deallocated... 

     total cpu time spent up to now is       28.1 secs

     per-process dynamical memory:   356.5 Mb

     Self-consistent Calculation

     iteration #  1     ecut=   100.00 Ry     beta=0.50
     Davidson diagonalization with overlap
     ethr =  1.00E-02,  avg # of iterations =  3.7

     total cpu time spent up to now is      113.6 secs

     total energy              =   -1141.09438056 Ry
     Harris-Foulkes estimate   =   -1145.35013815 Ry
     estimated scf accuracy    <       8.00804161 Ry

     iteration #  2     ecut=   100.00 Ry     beta=0.50
     Davidson diagonalization with overlap
     ethr =  3.45E-03,  avg # of iterations =  2.1

     total cpu time spent up to now is      163.0 secs

     total energy              =   -1142.35304321 Ry
     Harris-Foulkes estimate   =   -1142.69500291 Ry
     estimated scf accuracy    <       0.81452175 Ry

     iteration #  3     ecut=   100.00 Ry     beta=0.50
     Davidson diagonalization with overlap
     ethr =  3.51E-04,  avg # of iterations =  6.8

     total cpu time spent up to now is      253.5 secs

     total energy              =   -1142.71157911 Ry
     Harris-Foulkes estimate   =   -1142.85196069 Ry
     estimated scf accuracy    <       0.36366778 Ry

     iteration #  4     ecut=   100.00 Ry     beta=0.50
     Davidson diagonalization with overlap
     ethr =  1.57E-04,  avg # of iterations =  2.0

     total cpu time spent up to now is      296.1 secs

     total energy              =   -1142.69987132 Ry
     Harris-Foulkes estimate   =   -1142.73968017 Ry
     estimated scf accuracy    <       0.08537471 Ry

     iteration #  5     ecut=   100.00 Ry     beta=0.50
     Davidson diagonalization with overlap
     ethr =  3.68E-05,  avg # of iterations =  6.2

     total cpu time spent up to now is      392.7 secs

     total energy              =   -1142.75738392 Ry
     Harris-Foulkes estimate   =   -1142.80496103 Ry
     estimated scf accuracy    <       0.16096170 Ry

     iteration #  6     ecut=   100.00 Ry     beta=0.50
     Davidson diagonalization with overlap
     ethr =  3.68E-05,  avg # of iterations =  1.0

     total cpu time spent up to now is      433.4 secs

     total energy              =   -1142.73312977 Ry
     Harris-Foulkes estimate   =   -1142.76248704 Ry
     estimated scf accuracy    <       0.06967325 Ry

     iteration #  7     ecut=   100.00 Ry     beta=0.50
     Davidson diagonalization with overlap
     ethr =  3.00E-05,  avg # of iterations =  5.0

     total cpu time spent up to now is      501.3 secs

     total energy              =   -1142.75511118 Ry
     Harris-Foulkes estimate   =   -1142.75504655 Ry
     estimated scf accuracy    <       0.00077124 Ry

     iteration #  8     ecut=   100.00 Ry     beta=0.50
     Davidson diagonalization with overlap
     ethr =  3.32E-07,  avg # of iterations =  6.4

     total cpu time spent up to now is      590.4 secs

     total energy              =   -1142.75480231 Ry
     Harris-Foulkes estimate   =   -1142.75548941 Ry
     estimated scf accuracy    <       0.00140694 Ry

     iteration #  9     ecut=   100.00 Ry     beta=0.50
     Davidson diagonalization with overlap
     ethr =  3.32E-07,  avg # of iterations =  5.0

     total cpu time spent up to now is      646.6 secs

     total energy              =   -1142.75506205 Ry
     Harris-Foulkes estimate   =   -1142.75506368 Ry
     estimated scf accuracy    <       0.00002322 Ry

     iteration # 10     ecut=   100.00 Ry     beta=0.50
     Davidson diagonalization with overlap
     ethr =  1.00E-08,  avg # of iterations =  4.0

     total cpu time spent up to now is      734.5 secs

     total energy              =   -1142.75507388 Ry
     Harris-Foulkes estimate   =   -1142.75509533 Ry
     estimated scf accuracy    <       0.00004300 Ry

     iteration # 11     ecut=   100.00 Ry     beta=0.50
     Davidson diagonalization with overlap
     ethr =  1.00E-08,  avg # of iterations =  4.6

     total cpu time spent up to now is      787.7 secs

     total energy              =   -1142.75508117 Ry
     Harris-Foulkes estimate   =   -1142.75508127 Ry
     estimated scf accuracy    <       0.00000066 Ry

     iteration # 12     ecut=   100.00 Ry     beta=0.50
     Davidson diagonalization with overlap
     ethr =  2.84E-10,  avg # of iterations =  4.0

     total cpu time spent up to now is      878.9 secs

     total energy              =   -1142.75508265 Ry
     Harris-Foulkes estimate   =   -1142.75508290 Ry
     estimated scf accuracy    <       0.00000068 Ry

     iteration # 13     ecut=   100.00 Ry     beta=0.50
     Davidson diagonalization with overlap
     ethr =  2.84E-10,  avg # of iterations =  1.0

     total cpu time spent up to now is      920.1 secs

     total energy              =   -1142.75508259 Ry
     Harris-Foulkes estimate   =   -1142.75508269 Ry
     estimated scf accuracy    <       0.00000018 Ry

     iteration # 14     ecut=   100.00 Ry     beta=0.50
     Davidson diagonalization with overlap
     ethr =  7.60E-11,  avg # of iterations =  4.0

     total cpu time spent up to now is      999.3 secs

     total energy              =   -1142.75508272 Ry
     Harris-Foulkes estimate   =   -1142.75508276 Ry
     estimated scf accuracy    <       0.00000012 Ry

     iteration # 15     ecut=   100.00 Ry     beta=0.50
     Davidson diagonalization with overlap
     ethr =  5.10E-11,  avg # of iterations =  1.0

     total cpu time spent up to now is     1040.6 secs

     total energy              =   -1142.75508270 Ry
     Harris-Foulkes estimate   =   -1142.75508273 Ry
     estimated scf accuracy    <       0.00000005 Ry

     iteration # 16     ecut=   100.00 Ry     beta=0.50
     Davidson diagonalization with overlap
     ethr =  2.11E-11,  avg # of iterations =  3.0

     total cpu time spent up to now is     1111.1 secs

     total energy              =   -1142.75508273 Ry
     Harris-Foulkes estimate   =   -1142.75508273 Ry
     estimated scf accuracy    <       0.00000002 Ry

     iteration # 17     ecut=   100.00 Ry     beta=0.50
     Davidson diagonalization with overlap
     ethr =  6.84E-12,  avg # of iterations =  1.0

     total cpu time spent up to now is     1152.0 secs

     End of self-consistent calculation

          k = 0.0000 0.0000 0.0000 ( 64637 PWs)   bands (ev):

   -18.7595 -18.7476 -18.6254 -18.6236 -18.3134 -18.2965 -18.1864 -18.1831
   -16.4672 -16.4632 -16.3796 -16.3765 -15.8521 -15.8077 -15.7334 -15.7053
   -14.7222 -14.7127 -14.6719 -14.6709 -12.0662 -12.0542 -11.8608 -11.8436
   -10.0267 -10.0049  -9.9057  -9.8775  -8.1082  -8.0993  -7.7693  -7.7637
    -6.7173  -6.7087  -6.5633  -6.3976  -6.0728  -6.0663  -6.0581  -5.9753
    -5.7312  -5.7133  -5.6056  -5.5930  -5.3688  -5.3101  -5.2415  -5.1646
    -4.9443  -4.9050  -4.8395  -4.6831  -4.4595  -4.3919  -4.3159  -4.2075
    -4.0014  -3.9502  -3.9014  -3.8084  -3.7146  -3.5693  -3.3163  -3.2596
    -3.0826  -2.8667  -2.7960  -2.7277  -2.6248  -2.5323  -2.5061  -2.4167
    -2.3678  -2.2219  -2.1618  -2.1218  -2.0218  -2.0076  -1.9067  -1.8535
    -1.5562  -1.4853  -1.4099  -1.3881  -1.3430  -1.2026  -1.1877  -0.9625
    -0.8636  -0.6746  -0.6225  -0.5907  -0.5620  -0.5352  -0.3832  -0.3393
     0.7855   0.7857   0.7905   0.8333   1.0303   1.0550   1.0725   1.0759
     1.2675   1.2787   1.4304   1.4481   1.5851   1.6177   1.6812   1.7039
     1.8137   1.8454   1.9838   1.9926   6.8373   6.8412   7.0773   7.1883
     7.3080   7.3882   7.4940   7.5704   8.2022   8.6770   8.9408   9.5986
    10.0627  10.1099  10.1794  10.2075  10.4465  10.4870  10.5882  10.6100
    10.7959  10.8009  10.8494

          k = 0.0000 0.0000 0.7756 ( 64764 PWs)   bands (ev):

   -18.7208 -18.7143 -18.6038 -18.6031 -18.2845 -18.2749 -18.1931 -18.1916
   -16.5767 -16.5687 -16.3912 -16.3906 -15.8236 -15.7943 -15.6986 -15.6936
   -14.7415 -14.7296 -14.7023 -14.6941 -12.0272 -11.9825 -11.8837 -11.8288
   -10.0472 -10.0324  -9.9462  -9.9444  -8.1379  -7.9781  -7.9187  -7.8155
    -6.7546  -6.6590  -6.4944  -6.4852  -6.3008  -6.1929  -5.9768  -5.9447
    -5.8476  -5.8095  -5.7461  -5.6202  -5.4115  -5.2799  -5.2381  -5.1601
    -5.0260  -4.9481  -4.7967  -4.5675  -4.2759  -4.2477  -4.2044  -4.0358
    -3.9159  -3.9034  -3.8100  -3.7749  -3.5240  -3.4570  -3.4158  -3.3557
    -3.2168  -3.0328  -2.8860  -2.8424  -2.8367  -2.6699  -2.5492  -2.4934
    -2.3384  -2.3305  -2.1959  -2.1843  -1.9015  -1.8865  -1.8177  -1.6924
    -1.6100  -1.5521  -1.4958  -1.4829  -0.9363  -0.8366  -0.7807  -0.7432
    -0.6870  -0.6552  -0.6548  -0.6284  -0.5828  -0.5823  -0.2339  -0.1352
     0.8405   0.8446   0.9763   1.0013   1.1014   1.1185   1.1506   1.2169
     1.2895   1.3508   1.4224   1.5431   1.5598   1.6372   1.6855   1.7486
     1.7913   1.8258   1.9210   1.9368   6.7443   6.7947   6.8632   6.9766
     7.1522   7.3389   7.4343   7.4608   8.2941   8.6922   9.0408   9.4043
     9.7453   9.8546   9.9241  10.0554  10.0710  10.3418  10.3534  10.5058
    10.6933  10.7341  10.7562

          k = 0.0000 0.0000-1.5511 ( 64706 PWs)   bands (ev):

   -18.6787 -18.6787 -18.5823 -18.5823 -18.2284 -18.2284 -18.2266 -18.2266
   -16.6601 -16.6601 -16.4221 -16.4221 -15.7859 -15.7859 -15.6791 -15.6791
   -14.7450 -14.7450 -14.7326 -14.7326 -11.9400 -11.9400 -11.8694 -11.8694
   -10.0600 -10.0600 -10.0006 -10.0006  -8.0757  -8.0757  -7.9045  -7.9045
    -6.7843  -6.7843  -6.4628  -6.4628  -6.2124  -6.2124  -6.0624  -6.0624
    -5.9146  -5.9146  -5.7772  -5.7772  -5.4158  -5.4158  -5.1782  -5.1782
    -4.9571  -4.9571  -4.5322  -4.5322  -4.2182  -4.2182  -3.9929  -3.9929
    -3.9387  -3.9387  -3.6092  -3.6092  -3.4576  -3.4576  -3.3798  -3.3798
    -3.2516  -3.2516  -2.9673  -2.9673  -2.7729  -2.7729  -2.5708  -2.5708
    -2.3915  -2.3915  -2.1616  -2.1616  -1.8578  -1.8578  -1.7337  -1.7337
    -1.6634  -1.6634  -1.5271  -1.5271  -0.8458  -0.8458  -0.7489  -0.7489
    -0.6961  -0.6961  -0.6133  -0.6133   0.0470   0.0470   0.0823   0.0823
     0.8385   0.8385   1.1425   1.1425   1.1877   1.1877   1.3117   1.3117
     1.4506   1.4506   1.4909   1.4909   1.5782   1.5782   1.7174   1.7174
     1.7580   1.7580   1.8653   1.8653   6.6962   6.6962   6.7233   6.7233
     7.0351   7.0351   7.4210   7.4210   8.6898   8.6898   9.0392   9.0392
     9.2643   9.2643   9.5714   9.5714   9.8636   9.8636   9.8881   9.8881
    10.3572  10.3572  11.0656

          k = 0.0000 0.6815 0.0000 ( 64665 PWs)   bands (ev):

   -18.7274 -18.7175 -18.6606 -18.6553 -18.2960 -18.2860 -18.2012 -18.1981
   -16.4439 -16.4392 -16.4002 -16.3961 -15.8167 -15.7892 -15.7521 -15.7430
   -14.7253 -14.7198 -14.6753 -14.6746 -12.0078 -12.0035 -11.8647 -11.8559
   -10.1080 -10.0515  -9.9435  -9.8746  -7.9893  -7.9576  -7.7881  -7.7634
    -6.8424  -6.7442  -6.5627  -6.4400  -6.0795  -6.0593  -5.9782  -5.9670
    -5.8668  -5.8409  -5.6821  -5.6767  -5.2704  -5.2483  -5.1963  -5.1763
    -5.0475  -4.8753  -4.6551  -4.6035  -4.3646  -4.3221  -4.2118  -4.2096
    -4.0651  -3.9568  -3.8122  -3.7946  -3.6061  -3.6030  -3.3404  -3.3302
    -3.1618  -2.9724  -2.9309  -2.8931  -2.6565  -2.6266  -2.5407  -2.4411
    -2.4229  -2.2899  -2.0225  -1.9885  -1.9233  -1.9155  -1.8414  -1.7009
    -1.6097  -1.4950  -1.3603  -1.3052  -1.2745  -1.2529  -1.2064  -1.0918
    -0.7629  -0.7614  -0.6826  -0.6736  -0.6185  -0.5588  -0.3768  -0.3740
     0.6166   0.6189   0.9113   0.9301   1.0605   1.0804   1.1222   1.1339
     1.3114   1.3628   1.4287   1.5037   1.5508   1.6047   1.6436   1.6985
     1.8544   1.8938   1.9368   1.9759   6.8220   6.9553   6.9648   7.1568
     7.3583   7.3723   7.4654   7.5189   8.5563   8.9101   9.0889   9.4035
     9.5269   9.8686  10.0021  10.1122  10.2106  10.3719  10.6054  10.6120
    10.9273  10.9402  11.1005

          k = 0.0000 0.6815 0.7756 ( 64698 PWs)   bands (ev):

   -18.6926 -18.6874 -18.6342 -18.6317 -18.2721 -18.2666 -18.2035 -18.2020
   -16.5327 -16.5265 -16.4411 -16.4376 -15.7887 -15.7671 -15.7255 -15.7184
   -14.7427 -14.7364 -14.7029 -14.6988 -11.9725 -11.9510 -11.8712 -11.8435
   -10.1107 -10.0613  -9.9934  -9.9466  -7.9981  -7.9229  -7.8640  -7.7867
    -6.8449  -6.7021  -6.6128  -6.5254  -6.2425  -6.1751  -6.0839  -5.9679
    -5.9057  -5.8772  -5.7743  -5.5959  -5.3549  -5.3107  -5.1907  -5.1619
    -5.1062  -4.8375  -4.6701  -4.5693  -4.2559  -4.1901  -4.0887  -4.0664
    -3.8669  -3.8603  -3.8002  -3.7251  -3.6154  -3.5243  -3.4054  -3.3395
    -3.2607  -3.2100  -2.8565  -2.7967  -2.7200  -2.6355  -2.5831  -2.4447
    -2.3851  -2.3145  -2.2464  -2.1504  -2.0330  -1.8914  -1.7964  -1.6750
    -1.6203  -1.5697  -1.5110  -1.4269  -0.9300  -0.8825  -0.8176  -0.7710
    -0.7593  -0.7164  -0.6879  -0.6296  -0.5524  -0.4971  -0.2065  -0.1673
     0.8510   0.8819   0.9494   0.9932   1.1041   1.1300   1.1655   1.2355
     1.3250   1.4123   1.4939   1.5600   1.5658   1.6272   1.6650   1.7102
     1.8202   1.8377   1.8846   1.9108   6.7508   6.8097   6.8859   6.9723
     7.2170   7.3286   7.3583   7.3850   8.5870   8.8886   9.1593   9.2825
     9.3790   9.6912   9.9329  10.0209  10.1116  10.2473  10.3222  10.4402
    10.5250  10.6455  10.7926

          k = 0.0000 0.6815-1.5511 ( 64690 PWs)   bands (ev):

   -18.6554 -18.6554 -18.6073 -18.6073 -18.2277 -18.2277 -18.2264 -18.2264
   -16.6060 -16.6060 -16.4881 -16.4881 -15.7547 -15.7547 -15.7010 -15.7010
   -14.7473 -14.7473 -14.7351 -14.7351 -11.9039 -11.9039 -11.8682 -11.8682
   -10.0763 -10.0763 -10.0454 -10.0454  -7.9711  -7.9711  -7.8533  -7.8533
    -6.8128  -6.8128  -6.6298  -6.6298  -6.2420  -6.2420  -6.1163  -6.1163
    -5.8645  -5.8645  -5.7999  -5.7999  -5.3382  -5.3382  -5.2022  -5.2022
    -4.9087  -4.9087  -4.5588  -4.5588  -4.2507  -4.2507  -4.0120  -4.0120
    -3.9316  -3.9316  -3.5295  -3.5295  -3.4772  -3.4772  -3.3025  -3.3025
    -3.1447  -3.1447  -3.0250  -3.0250  -2.7191  -2.7191  -2.4934  -2.4934
    -2.3936  -2.3936  -2.1823  -2.1823  -2.0225  -2.0225  -1.8517  -1.8517
    -1.6382  -1.6382  -1.5416  -1.5416  -0.8289  -0.8289  -0.8044  -0.8044
    -0.6772  -0.6772  -0.5868  -0.5868   0.0526   0.0526   0.0718   0.0718
     0.9589   0.9589   1.1225   1.1225   1.2099   1.2099   1.3189   1.3189
     1.4186   1.4186   1.4578   1.4578   1.6061   1.6061   1.7071   1.7071
     1.7819   1.7819   1.8347   1.8347   6.7103   6.7103   6.7296   6.7296
     7.1272   7.1272   7.3157   7.3157   8.8298   8.8298   9.0558   9.0558
     9.3086   9.3086   9.4629   9.4629   9.8395   9.8395   9.9867   9.9867
    10.4060  10.4060  10.7188

          k =-0.5000 0.0000 0.0000 ( 64628 PWs)   bands (ev):

   -18.7537 -18.7537 -18.6245 -18.6245 -18.3049 -18.3049 -18.1847 -18.1847
   -16.4652 -16.4652 -16.3780 -16.3780 -15.8328 -15.8328 -15.7164 -15.7164
   -14.7176 -14.7176 -14.6712 -14.6712 -12.0604 -12.0604 -11.8520 -11.8520
   -10.0157 -10.0157  -9.8918  -9.8918  -8.1058  -8.1058  -7.7617  -7.7617
    -6.7446  -6.7446  -6.4295  -6.4295  -6.1171  -6.1171  -6.0034  -6.0034
    -5.7206  -5.7206  -5.5902  -5.5902  -5.3650  -5.3650  -5.1702  -5.1702
    -4.9492  -4.9492  -4.7291  -4.7291  -4.4234  -4.4234  -4.2877  -4.2877
    -3.9609  -3.9609  -3.8993  -3.8993  -3.5606  -3.5606  -3.3331  -3.3331
    -3.0119  -3.0119  -2.7318  -2.7318  -2.6580  -2.6580  -2.3345  -2.3345
    -2.3233  -2.3233  -2.1398  -2.1398  -1.9664  -1.9664  -1.9266  -1.9266
    -1.5536  -1.5536  -1.3730  -1.3730  -1.2982  -1.2982  -1.0734  -1.0734
    -0.7753  -0.7753  -0.5934  -0.5934  -0.5345  -0.5345  -0.3639  -0.3639
     0.7879   0.7879   0.8083   0.8083   1.0360   1.0360   1.0823   1.0823
     1.2704   1.2704   1.4393   1.4393   1.6027   1.6027   1.6966   1.6966
     1.8289   1.8289   1.9860   1.9860   6.8371   6.8371   7.1223   7.1223
     7.4027   7.4027   7.4765   7.4765   8.3814   8.3814   9.3614   9.3614
     9.9662   9.9662  10.3520  10.3520  10.3965  10.3965  10.5306  10.5306
    10.8508  10.8508  11.0385

          k =-0.5000 0.0000 0.7756 ( 64674 PWs)   bands (ev):

   -18.7176 -18.7176 -18.6035 -18.6035 -18.2797 -18.2797 -18.1923 -18.1923
   -16.5727 -16.5727 -16.3909 -16.3909 -15.8095 -15.8095 -15.6955 -15.6955
   -14.7356 -14.7356 -14.6980 -14.6980 -12.0088 -12.0088 -11.8524 -11.8524
   -10.0394 -10.0394  -9.9457  -9.9457  -8.0820  -8.0820  -7.8427  -7.8427
    -6.7060  -6.7060  -6.4868  -6.4868  -6.2676  -6.2676  -5.9603  -5.9603
    -5.8232  -5.8232  -5.6643  -5.6643  -5.3453  -5.3453  -5.2120  -5.2120
    -5.0036  -5.0036  -4.6948  -4.6948  -4.2207  -4.2207  -4.0992  -4.0992
    -3.9150  -3.9150  -3.7742  -3.7742  -3.5374  -3.5374  -3.4443  -3.4443
    -3.0851  -3.0851  -2.8736  -2.8736  -2.6708  -2.6708  -2.5218  -2.5218
    -2.4236  -2.4236  -2.1544  -2.1544  -1.8986  -1.8986  -1.7392  -1.7392
    -1.5839  -1.5839  -1.4954  -1.4954  -0.8760  -0.8760  -0.7539  -0.7539
    -0.6941  -0.6941  -0.6480  -0.6480  -0.5737  -0.5737  -0.1796  -0.1796
     0.8390   0.8390   0.9975   0.9975   1.1028   1.1028   1.1806   1.1806
     1.3134   1.3134   1.4920   1.4920   1.5906   1.5906   1.7249   1.7249
     1.8122   1.8122   1.9278   1.9278   6.7674   6.7674   6.9141   6.9141
     7.2472   7.2472   7.4485   7.4485   8.4442   8.4442   9.3530   9.3530
     9.6786   9.6786   9.9846   9.9846  10.2018  10.2018  10.4765  10.4765
    10.6734  10.6735  10.8020

          k =-0.5000 0.0000-1.5511 ( 64756 PWs)   bands (ev):

   -18.6787 -18.6787 -18.5823 -18.5823 -18.2285 -18.2285 -18.2265 -18.2265
   -16.6601 -16.6601 -16.4222 -16.4222 -15.7855 -15.7855 -15.6796 -15.6796
   -14.7413 -14.7413 -14.7363 -14.7363 -11.9399 -11.9399 -11.8696 -11.8696
   -10.0581 -10.0581 -10.0026 -10.0026  -8.0779  -8.0779  -7.9020  -7.9020
    -6.7822  -6.7822  -6.4740  -6.4740  -6.1619  -6.1619  -6.1039  -6.1039
    -5.9065  -5.9065  -5.7918  -5.7918  -5.4303  -5.4303  -5.1948  -5.1948
    -4.7789  -4.7789  -4.7329  -4.7329  -4.1458  -4.1458  -3.9417  -3.9417
    -3.9260  -3.9260  -3.7475  -3.7475  -3.4787  -3.4787  -3.3298  -3.3298
    -3.1316  -3.1316  -3.0428  -3.0428  -2.7802  -2.7802  -2.6022  -2.6022
    -2.3554  -2.3554  -2.2083  -2.2083  -1.7941  -1.7941  -1.7420  -1.7420
    -1.6142  -1.6142  -1.5896  -1.5896  -0.8354  -0.8354  -0.7999  -0.7999
    -0.6409  -0.6409  -0.6328  -0.6328   0.0645   0.0645   0.0658   0.0658
     0.8369   0.8369   1.1616   1.1616   1.1749   1.1749   1.3031   1.3031
     1.4470   1.4470   1.4792   1.4792   1.6258   1.6258   1.6710   1.6710
     1.7741   1.7741   1.8665   1.8665   6.6979   6.6979   6.7209   6.7209
     7.0356   7.0356   7.4216   7.4216   8.7235   8.7235   8.9845   8.9845
     9.2675   9.2675   9.5745   9.5745   9.8708   9.8708   9.9342   9.9342
    10.2793  10.2793  11.1069

          k =-0.5000 0.6815 0.0000 ( 64714 PWs)   bands (ev):

   -18.7225 -18.7225 -18.6579 -18.6579 -18.2908 -18.2908 -18.1998 -18.1998
   -16.4417 -16.4417 -16.3980 -16.3980 -15.8044 -15.8044 -15.7460 -15.7460
   -14.7224 -14.7224 -14.6751 -14.6751 -12.0057 -12.0057 -11.8603 -11.8603
   -10.0841 -10.0841  -9.9049  -9.9049  -7.9736  -7.9736  -7.7745  -7.7745
    -6.8074  -6.8074  -6.4825  -6.4825  -6.0530  -6.0530  -6.0033  -6.0033
    -5.8575  -5.8575  -5.6882  -5.6882  -5.2514  -5.2514  -5.1325  -5.1325
    -4.9830  -4.9830  -4.6801  -4.6801  -4.3562  -4.3562  -4.1135  -4.1135
    -4.0402  -4.0402  -3.8255  -3.8255  -3.6244  -3.6244  -3.2898  -3.2898
    -3.1401  -3.1401  -2.8383  -2.8383  -2.6674  -2.6674  -2.5615  -2.5615
    -2.2624  -2.2624  -2.0816  -2.0816  -1.8502  -1.8502  -1.7753  -1.7753
    -1.5766  -1.5766  -1.3247  -1.3247  -1.2599  -1.2599  -1.1503  -1.1503
    -0.7635  -0.7635  -0.6750  -0.6750  -0.5914  -0.5914  -0.3765  -0.3765
     0.6330   0.6330   0.8877   0.8877   1.0915   1.0915   1.1253   1.1253
     1.3285   1.3285   1.4681   1.4681   1.5878   1.5878   1.6710   1.6710
     1.8720   1.8720   1.9564   1.9564   6.8566   6.8566   7.0924   7.0924
     7.4029   7.4029   7.4495   7.4495   8.6805   8.6805   9.3034   9.3034
     9.7226   9.7226   9.9896   9.9896  10.3676  10.3676  10.5482  10.5482
    11.0254  11.0254  11.0798

          k =-0.5000 0.6815 0.7756 ( 64716 PWs)   bands (ev):

   -18.6900 -18.6900 -18.6330 -18.6330 -18.2693 -18.2693 -18.2028 -18.2028
   -16.5296 -16.5296 -16.4393 -16.4393 -15.7783 -15.7783 -15.7216 -15.7216
   -14.7391 -14.7391 -14.7012 -14.7012 -11.9631 -11.9631 -11.8561 -11.8561
   -10.0903 -10.0903  -9.9656  -9.9656  -7.9695  -7.9695  -7.8170  -7.8170
    -6.7831  -6.7831  -6.5606  -6.5606  -6.2136  -6.2136  -6.0260  -6.0260
    -5.8884  -5.8884  -5.7028  -5.7028  -5.2956  -5.2956  -5.1906  -5.1906
    -4.9763  -4.9763  -4.6622  -4.6622  -4.1861  -4.1861  -4.0127  -4.0127
    -3.8692  -3.8692  -3.7552  -3.7552  -3.6419  -3.6419  -3.4312  -3.4312
    -3.1168  -3.1168  -2.9231  -2.9231  -2.6568  -2.6568  -2.5085  -2.5085
    -2.3057  -2.3057  -2.2034  -2.2034  -1.9946  -1.9946  -1.7297  -1.7297
    -1.5890  -1.5890  -1.4621  -1.4621  -0.9000  -0.9000  -0.8081  -0.8081
    -0.7389  -0.7389  -0.6519  -0.6519  -0.5258  -0.5258  -0.1855  -0.1855
     0.8831   0.8831   0.9464   0.9464   1.1135   1.1135   1.2056   1.2056
     1.3723   1.3723   1.5324   1.5324   1.5822   1.5822   1.7025   1.7025
     1.8280   1.8280   1.8957   1.8957   6.7772   6.7772   6.9300   6.9300
     7.2767   7.2767   7.3683   7.3683   8.7008   8.7008   9.2369   9.2369
     9.5835   9.5835   9.9401   9.9401  10.1840  10.1840  10.3535  10.3535
    10.6194  10.6194  10.8282

          k =-0.5000 0.6815-1.5511 ( 64708 PWs)   bands (ev):

   -18.6554 -18.6554 -18.6073 -18.6073 -18.2275 -18.2275 -18.2266 -18.2266
   -16.6060 -16.6060 -16.4883 -16.4883 -15.7538 -15.7538 -15.7020 -15.7020
   -14.7424 -14.7424 -14.7400 -14.7400 -11.9036 -11.9036 -11.8685 -11.8685
   -10.0749 -10.0749 -10.0469 -10.0469  -7.9650  -7.9650  -7.8612  -7.8612
    -6.7961  -6.7961  -6.6528  -6.6528  -6.1950  -6.1950  -6.1526  -6.1526
    -5.8564  -5.8564  -5.8136  -5.8136  -5.2833  -5.2833  -5.2683  -5.2683
    -4.8872  -4.8872  -4.6215  -4.6215  -4.1185  -4.1185  -4.0142  -4.0142
    -3.8757  -3.8757  -3.8020  -3.8020  -3.3461  -3.3461  -3.2928  -3.2928
    -3.0839  -3.0839  -3.0754  -3.0754  -2.6528  -2.6528  -2.6038  -2.6038
    -2.3454  -2.3454  -2.2714  -2.2714  -1.9167  -1.9167  -1.8531  -1.8531
    -1.6292  -1.6292  -1.5800  -1.5800  -0.8300  -0.8300  -0.8024  -0.8024
    -0.6474  -0.6474  -0.6169  -0.6169   0.0621   0.0621   0.0630   0.0630
     0.9583   0.9583   1.1200   1.1200   1.2229   1.2229   1.3060   1.3060
     1.4274   1.4274   1.4382   1.4382   1.6424   1.6424   1.6779   1.6779
     1.7890   1.7890   1.8342   1.8342   6.7108   6.7108   6.7293   6.7293
     7.1276   7.1276   7.3160   7.3160   8.8699   8.8699   9.0002   9.0002
     9.3157   9.3157   9.4602   9.4602   9.8671   9.8671   9.9478   9.9478
    10.4225  10.4225  10.7060

     highest occupied, lowest unoccupied level (ev):     1.9926    6.6962

!    total energy              =   -1142.75508272 Ry
     Harris-Foulkes estimate   =   -1142.75508273 Ry
     estimated scf accuracy    <          4.2E-09 Ry

     total all-electron energy =     -4254.590056 Ry

     The total energy is the sum of the following terms:

     one-electron contribution =    -395.49478191 Ry
     hartree contribution      =     301.87468531 Ry
     xc contribution           =    -245.23696162 Ry
     ewald contribution        =    -490.05693316 Ry
     Dispersion Correction     =      -0.47833755 Ry
     one-center paw contrib.   =    -313.36275379 Ry

     convergence has been achieved in  17 iterations

     Forces acting on atoms (cartesian axes, Ry/au):

     atom    1 type  1   force =    -0.00609311    0.00593222   -0.01906402
     atom    2 type  1   force =    -0.00609311   -0.00593222    0.01906402
     atom    3 type  1   force =     0.00609311    0.00593222    0.01906402
     atom    4 type  1   force =     0.00609311   -0.00593222   -0.01906402
     atom    5 type  1   force =    -0.00271951    0.00137555   -0.00491800
     atom    6 type  1   force =    -0.00271951   -0.00137555    0.00491800
     atom    7 type  1   force =     0.00271951    0.00137555    0.00491800
     atom    8 type  1   force =     0.00271951   -0.00137555   -0.00491800
     atom    9 type  1   force =     0.00074262    0.00159802    0.03534484
     atom   10 type  1   force =     0.00074262   -0.00159802   -0.03534484
     atom   11 type  1   force =    -0.00074262    0.00159802   -0.03534484
     atom   12 type  1   force =    -0.00074262   -0.00159802    0.03534484
     atom   13 type  1   force =    -0.00114772   -0.00106468   -0.03561554
     atom   14 type  1   force =    -0.00114772    0.00106468    0.03561554
     atom   15 type  1   force =     0.00114772   -0.00106468    0.03561554
     atom   16 type  1   force =     0.00114772    0.00106468   -0.03561554
     atom   17 type  1   force =     0.00191122    0.00353002    0.00226300
     atom   18 type  1   force =     0.00191122   -0.00353002   -0.00226300
     atom   19 type  1   force =    -0.00191122    0.00353002   -0.00226300
     atom   20 type  1   force =    -0.00191122   -0.00353002    0.00226300
     atom   21 type  2   force =     0.00990645   -0.01238259    0.00122646
     atom   22 type  2   force =     0.00990645    0.01238259   -0.00122646
     atom   23 type  2   force =    -0.00990645   -0.01238259   -0.00122646
     atom   24 type  2   force =    -0.00990645    0.01238259    0.00122646
     atom   25 type  2   force =    -0.00346800   -0.00344693    0.01052344
     atom   26 type  2   force =    -0.00346800    0.00344693   -0.01052344
     atom   27 type  2   force =     0.00346800   -0.00344693   -0.01052344
     atom   28 type  2   force =     0.00346800    0.00344693    0.01052344
     atom   29 type  4   force =    -0.00515489   -0.00749474    0.00532387
     atom   30 type  4   force =    -0.00515489    0.00749474   -0.00532387
     atom   31 type  4   force =     0.00515489   -0.00749474   -0.00532387
     atom   32 type  4   force =     0.00515489    0.00749474    0.00532387
     atom   33 type  4   force =     0.00716016   -0.00623861   -0.00870880
     atom   34 type  4   force =     0.00716016    0.00623861    0.00870880
     atom   35 type  4   force =    -0.00716016   -0.00623861    0.00870880
     atom   36 type  4   force =    -0.00716016    0.00623861   -0.00870880
     atom   37 type  4   force =    -0.00382424    0.01268250    0.01270384
     atom   38 type  4   force =    -0.00382424   -0.01268250   -0.01270384
     atom   39 type  4   force =     0.00382424    0.01268250   -0.01270384
     atom   40 type  4   force =     0.00382424   -0.01268250    0.01270384
     atom   41 type  3   force =    -0.00008317   -0.00505324   -0.00417928
     atom   42 type  3   force =    -0.00008317    0.00505324    0.00417928
     atom   43 type  3   force =     0.00008317   -0.00505324    0.00417928
     atom   44 type  3   force =     0.00008317    0.00505324   -0.00417928
     atom   45 type  3   force =    -0.00221220    0.01481554   -0.03138782
     atom   46 type  3   force =    -0.00221220   -0.01481554    0.03138782
     atom   47 type  3   force =     0.00221220    0.01481554    0.03138782
     atom   48 type  3   force =     0.00221220   -0.01481554   -0.03138782
     atom   49 type  3   force =     0.00065068    0.00029797   -0.00188307
     atom   50 type  3   force =     0.00065068   -0.00029797    0.00188307
     atom   51 type  3   force =    -0.00065068    0.00029797    0.00188307
     atom   52 type  3   force =    -0.00065068   -0.00029797   -0.00188307
     atom   53 type  3   force =    -0.00027768    0.00073206    0.00100301
     atom   54 type  3   force =    -0.00027768   -0.00073206   -0.00100301
     atom   55 type  3   force =     0.00027768    0.00073206   -0.00100301
     atom   56 type  3   force =     0.00027768   -0.00073206    0.00100301
     atom   57 type  3   force =     0.00472986   -0.01291649    0.03346991
     atom   58 type  3   force =     0.00472986    0.01291649   -0.03346991
     atom   59 type  3   force =    -0.00472986   -0.01291649   -0.03346991
     atom   60 type  3   force =    -0.00472986    0.01291649    0.03346991
     atom   61 type  3   force =    -0.00043141    0.00169329   -0.00177595
     atom   62 type  3   force =    -0.00043141   -0.00169329    0.00177595
     atom   63 type  3   force =     0.00043141    0.00169329    0.00177595
     atom   64 type  3   force =     0.00043141   -0.00169329   -0.00177595
     atom   65 type  3   force =     0.00052535    0.00213822   -0.00149692
     atom   66 type  3   force =     0.00052535   -0.00213822    0.00149692
     atom   67 type  3   force =    -0.00052535    0.00213822    0.00149692
     atom   68 type  3   force =    -0.00052535   -0.00213822   -0.00149692
     atom   69 type  3   force =    -0.00037370   -0.00213593   -0.00085094
     atom   70 type  3   force =    -0.00037370    0.00213593    0.00085094
     atom   71 type  3   force =     0.00037370   -0.00213593    0.00085094
     atom   72 type  3   force =     0.00037370    0.00213593   -0.00085094
     atom   73 type  3   force =     0.00136454    0.00331053    0.00837374
     atom   74 type  3   force =     0.00136454   -0.00331053   -0.00837374
     atom   75 type  3   force =    -0.00136454    0.00331053   -0.00837374
     atom   76 type  3   force =    -0.00136454   -0.00331053    0.00837374
     atom   77 type  3   force =    -0.00002954    0.00052900   -0.00074009
     atom   78 type  3   force =    -0.00002954   -0.00052900    0.00074009
     atom   79 type  3   force =     0.00002954    0.00052900    0.00074009
     atom   80 type  3   force =     0.00002954   -0.00052900   -0.00074009

     Total force =     0.163530     Total SCF correction =     0.000142


     Computing stress (Cartesian axis) and pressure

          total   stress  (Ry/bohr**3)                   (kbar)     P=   15.91
   0.00019419   0.00000000   0.00000000         28.57      0.00      0.00
   0.00000000   0.00015169   0.00000000          0.00     22.31      0.00
   0.00000000   0.00000000  -0.00002133          0.00      0.00     -3.14


     Writing output data file scf.save
 
     init_run     :     26.87s CPU     27.27s WALL (       1 calls)
     electrons    :   1105.10s CPU   1124.01s WALL (       1 calls)
     forces       :     12.24s CPU     12.32s WALL (       1 calls)
     stress       :     45.23s CPU     45.39s WALL (       1 calls)

     Called by init_run:
     wfcinit      :     22.89s CPU     23.23s WALL (       1 calls)
     potinit      :      1.42s CPU      1.44s WALL (       1 calls)

     Called by electrons:
     c_bands      :    999.65s CPU   1015.86s WALL (      17 calls)
     sum_band     :     95.41s CPU     97.42s WALL (      17 calls)
     v_of_rho     :      1.34s CPU      1.45s WALL (      18 calls)
     newd         :      2.46s CPU      3.03s WALL (      18 calls)
     PAW_pot      :      5.58s CPU      5.58s WALL (      18 calls)
     mix_rho      :      0.31s CPU      0.33s WALL (      17 calls)

     Called by c_bands:
     init_us_2    :      5.61s CPU      5.62s WALL (     444 calls)
     cegterg      :    977.13s CPU    993.25s WALL (     204 calls)

     Called by sum_band:
     sum_band:bec :      0.07s CPU      0.07s WALL (     204 calls)
     addusdens    :      2.44s CPU      3.03s WALL (      17 calls)

     Called by *egterg:
     h_psi        :    539.29s CPU    546.30s WALL (     945 calls)
     s_psi        :     98.29s CPU     98.28s WALL (     945 calls)
     g_psi        :      2.90s CPU      2.90s WALL (     729 calls)
     cdiaghg      :     63.05s CPU     63.04s WALL (     933 calls)

     Called by h_psi:
     h_psi:pot    :    536.13s CPU    543.08s WALL (     945 calls)
     h_psi:calbec :    103.22s CPU    103.51s WALL (     945 calls)
     vloc_psi     :    334.81s CPU    341.46s WALL (     945 calls)
     add_vuspsi   :     98.10s CPU     98.10s WALL (     945 calls)

     General routines
     calbec       :    148.52s CPU    148.96s WALL (    1209 calls)
     fft          :      1.55s CPU      1.74s WALL (     258 calls)
     fftw         :    357.08s CPU    364.54s WALL (  201810 calls)
 
     Parallel routines
     fft_scatter  :    103.51s CPU    108.72s WALL (  202068 calls)
 
     PWSCF        : 19m57.19s CPU    20m18.49s WALL

 
   This run was terminated on:   6:13:46  15Dec2017            

=------------------------------------------------------------------------------=
   JOB DONE.
=------------------------------------------------------------------------------=
