
     Program PWSCF v.6.1 (svn rev. 13369) starts on 14Dec2017 at 18:23:38 

     This program is part of the open-source Quantum ESPRESSO suite
     for quantum simulation of materials; please cite
         "P. Giannozzi et al., J. Phys.:Condens. Matter 21 395502 (2009);
          URL http://www.quantum-espresso.org", 
     in publications or presentations arising from this work. More details at
     http://www.quantum-espresso.org/quote

     Parallel version (MPI), running on     8 processors
     R & G space division:  proc/nbgrp/npool/nimage =       8
     Waiting for input...
     Reading input from standard input

     Current dimensions of program PWSCF are:
     Max number of different atomic species (ntypx) = 10
     Max number of k-points (npk) =  40000
     Max angular momentum in pseudopotentials (lmaxx) =  3
               file C.pbe-n-kjpaw_psl.0.1.UPF: wavefunction(s)  2P renormalized
               file N.pbe-n-kjpaw_psl.0.1.UPF: wavefunction(s)  2P renormalized
               file H.pbe-kjpaw_psl.0.1.UPF: wavefunction(s)  1S renormalized
               file O.pbe-n-kjpaw_psl.0.1.UPF: wavefunction(s)  2P renormalized

     -------------------------------------
     Parameters for Dispersion Correction:
     -------------------------------------
       atom      VdW radius       C_6     

        C          2.744         60.710
        N          2.640         42.670
        H          1.892          4.857
        O          2.536         24.284

     Subspace diagonalization in iterative solution of the eigenvalue problem:
     a serial algorithm will be used

 
     Parallelization info
     --------------------
     sticks:   dense  smooth     PW     G-vecs:    dense   smooth      PW
     Min        1567    1567    423               120988   120988   16953
     Max        1568    1568    424               120990   120990   16955
     Sum       12543   12543   3387               967913   967913  135631
 


     bravais-lattice index     =            0
     lattice parameter (alat)  =       9.9381  a.u.
     unit-cell volume          =    7164.5330 (a.u.)^3
     number of atoms/cell      =          112
     number of atomic types    =            4
     number of electrons       =       336.00
     number of Kohn-Sham states=          201
     kinetic-energy cutoff     =     100.0000  Ry
     charge density cutoff     =     400.0000  Ry
     convergence threshold     =      1.0E-08
     mixing beta               =       0.5000
     number of iterations used =            8  plain     mixing
     Exchange-correlation      =  SLA  PW   PBX  PBC ( 1  4  3  4 0 0)

     celldm(1)=   9.938070  celldm(2)=   0.000000  celldm(3)=   0.000000
     celldm(4)=   0.000000  celldm(5)=   0.000000  celldm(6)=   0.000000

     crystal axes: (cart. coord. in units of alat)
               a(1) = (   1.000000   0.000000   0.000000 )  
               a(2) = (   0.000000   3.988401   0.000000 )  
               a(3) = (  -0.291502   0.000000   1.830134 )  

     reciprocal axes: (cart. coord. in units 2 pi/alat)
               b(1) = (  1.000000  0.000000  0.159279 )  
               b(2) = (  0.000000  0.250727  0.000000 )  
               b(3) = (  0.000000  0.000000  0.546408 )  


     PseudoPot. # 1 for  C read from file:
     /scratch/ahofstet/pseudo/C.pbe-n-kjpaw_psl.0.1.UPF
     MD5 check sum: 430fe95172b1e11ef3f8ed03bac87931
     Pseudo is Projector augmented-wave + core cor, Zval =  4.0
     Generated using "atomic" code by A. Dal Corso  v.5.0.99 svn rev. 10869
     Shape of augmentation charge: BESSEL
     Using radial grid of 1073 points,  4 beta functions with: 
                l(1) =   0
                l(2) =   0
                l(3) =   1
                l(4) =   1
     Q(r) pseudized with 0 coefficients 


     PseudoPot. # 2 for  N read from file:
     /scratch/ahofstet/pseudo/N.pbe-n-kjpaw_psl.0.1.UPF
     MD5 check sum: f73187c8b701007e77325f868c9291d7
     Pseudo is Projector augmented-wave + core cor, Zval =  5.0
     Generated using "atomic" code by A. Dal Corso  v.5.0.99 svn rev. 10869
     Shape of augmentation charge: PSQ
     Using radial grid of 1085 points,  4 beta functions with: 
                l(1) =   0
                l(2) =   0
                l(3) =   1
                l(4) =   1
     Q(r) pseudized with 0 coefficients 


     PseudoPot. # 3 for  H read from file:
     /scratch/ahofstet/pseudo/H.pbe-kjpaw_psl.0.1.UPF
     MD5 check sum: 94e484f906d9e9773b2f6e52662335b2
     Pseudo is Projector augmented-wave, Zval =  1.0
     Generated using "atomic" code by A. Dal Corso  v.5.0.99 svn rev. 10869
     Shape of augmentation charge: PSQ
     Using radial grid of  929 points,  2 beta functions with: 
                l(1) =   0
                l(2) =   0
     Q(r) pseudized with 0 coefficients 


     PseudoPot. # 4 for  O read from file:
     /scratch/ahofstet/pseudo/O.pbe-n-kjpaw_psl.0.1.UPF
     MD5 check sum: 3f94a2996a3169367d6eb21d9b593f20
     Pseudo is Projector augmented-wave + core cor, Zval =  6.0
     Generated using "atomic" code by A. Dal Corso  v.5.0.99 svn rev. 10869
     Shape of augmentation charge: BESSEL
     Using radial grid of 1095 points,  4 beta functions with: 
                l(1) =   0
                l(2) =   0
                l(3) =   1
                l(4) =   1
     Q(r) pseudized with 0 coefficients 


     atomic species   valence    mass     pseudopotential
        C              4.00    12.01070      C( 1.00)
        N              5.00    14.00670      N( 1.00)
        H              1.00     1.00794      H( 1.00)
        O              6.00    15.99940      O( 1.00)

      4 Sym. Ops., with inversion, found ( 2 have fractional translation)



   Cartesian axes

     site n.     atom                  positions (alat units)
         1           O   tau(   1) = (   0.1671638   1.8176945   1.3315884  )
         2           O   tau(   2) = (   0.8129149   0.1765059   0.4165212  )
         3           O   tau(   3) = (   0.5413340   2.1707064   0.4985459  )
         4           O   tau(   4) = (  -0.1044171   3.8118949   1.4136131  )
         5           O   tau(   5) = (   0.4693926   1.8677417   1.6350763  )
         6           O   tau(   6) = (   0.1151436   0.1264587   0.7200091  )
         7           O   tau(   7) = (   0.2391053   2.1206591   0.1950581  )
         8           O   tau(   8) = (   0.5933542   3.8619422   1.1101252  )
         9           O   tau(   9) = (   0.2696592   0.7671004   0.0080000  )
        10           O   tau(  10) = (   0.6239082   1.2271000   0.9230672  )
        11           O   tau(  11) = (   0.4388386   3.2213004   1.8221343  )
        12           O   tau(  12) = (   0.0845897   2.7613008   0.9070672  )
        13           O   tau(  13) = (   0.2412514   0.5820008   1.5491967  )
        14           O   tau(  14) = (   0.8870025   1.4121996   0.6341296  )
        15           O   tau(  15) = (   0.4672464   3.4064000   0.2809376  )
        16           O   tau(  16) = (  -0.1785047   2.5762012   1.1960047  )
        17           C   tau(  17) = (   0.2847408   1.7358046   1.5156531  )
        18           C   tau(  18) = (   0.9304919   0.2583958   0.6005859  )
        19           C   tau(  19) = (   0.4237570   2.2525962   0.3144812  )
        20           C   tau(  20) = (  -0.2219941   3.7300050   1.2295484  )
        21           C   tau(  21) = (   0.2336439   1.4802419   1.6227696  )
        22           C   tau(  22) = (   0.8793950   0.5139586   0.7077025  )
        23           C   tau(  23) = (   0.4748539   2.5081590   0.2073647  )
        24           C   tau(  24) = (  -0.1708972   3.4744423   1.1224319  )
        25           C   tau(  25) = (   0.2935664   1.2214126   1.4761398  )
        26           C   tau(  26) = (  -0.0606826   0.7727878   0.5610727  )
        27           C   tau(  27) = (   0.4149315   2.7669882   0.3539945  )
        28           C   tau(  28) = (   0.7691804   3.2156130   1.2690617  )
        29           C   tau(  29) = (   0.0047697   1.1402935   1.4925695  )
        30           C   tau(  30) = (   0.6505208   0.8539069   0.5775023  )
        31           C   tau(  31) = (   0.7037281   2.8481073   0.3375648  )
        32           C   tau(  32) = (   0.0579770   3.1344939   1.2526320  )
        33           C   tau(  33) = (   0.0609794   1.0097892   1.7558864  )
        34           C   tau(  34) = (   0.7067305   0.9844113   0.8408192  )
        35           C   tau(  35) = (   0.6475184   2.9786117   0.0742480  )
        36           C   tau(  36) = (   0.0017673   3.0039896   0.9893151  )
        37           C   tau(  37) = (   0.2888741   1.2623040   0.0732926  )
        38           C   tau(  38) = (   0.6431231   0.7318965   0.9883597  )
        39           C   tau(  39) = (   0.4196237   2.7260969   1.7568418  )
        40           C   tau(  40) = (   0.0653748   3.2565044   0.8417746  )
        41           C   tau(  41) = (  -0.0541192   1.3936088   1.6395993  )
        42           C   tau(  42) = (   0.5916319   0.6005916   0.7245322  )
        43           C   tau(  43) = (   0.7626170   2.5947920   0.1905350  )
        44           C   tau(  44) = (   0.1168659   3.3878092   1.1056022  )
        45           C   tau(  45) = (   0.5795909   1.3456415   0.0554201  )
        46           C   tau(  46) = (  -0.0661602   0.6485589   0.9704873  )
        47           C   tau(  47) = (   0.1289069   2.6427593   1.7747142  )
        48           C   tau(  48) = (   0.7746580   3.3398419   0.8596470  )
        49           C   tau(  49) = (   0.3474917   1.0909007   1.7392602  )
        50           C   tau(  50) = (  -0.0067572   0.9032997   0.8241931  )
        51           C   tau(  51) = (   0.3610061   2.8975001   0.0908741  )
        52           C   tau(  52) = (   0.7152550   3.0851012   1.0059413  )
        53           C   tau(  53) = (   0.0897399   0.5610506   1.7232923  )
        54           C   tau(  54) = (   0.7354910   1.4331498   0.8082251  )
        55           C   tau(  55) = (   0.6187579   3.4273503   0.1068420  )
        56           C   tau(  56) = (  -0.0269931   2.5552510   1.0219092  )
        57           C   tau(  57) = (   0.0027439   0.3183722   1.8435035  )
        58           C   tau(  58) = (   0.6484950   1.6758282   0.9284363  )
        59           C   tau(  59) = (   0.7057539   3.6700286  -0.0133691  )
        60           C   tau(  60) = (   0.0600028   2.3125726   0.9016980  )
        61           C   tau(  61) = (   0.5232207   2.1181828   1.5291911  )
        62           C   tau(  62) = (   0.1689718   3.8644185   0.6141239  )
        63           C   tau(  63) = (   0.1852771   1.8702180   0.3009432  )
        64           C   tau(  64) = (   0.5395260   0.1239824   1.2160104  )
        65           H   tau(  65) = (   0.4118555   1.2070614   1.3065768  )
        66           H   tau(  66) = (   0.0576066   0.7871391   0.3915097  )
        67           H   tau(  67) = (   0.2966423   2.7813395   0.5235575  )
        68           H   tau(  68) = (   0.6508912   3.2012618   1.4386247  )
        69           H   tau(  69) = (  -0.1061396   1.0611913   1.3361243  )
        70           H   tau(  70) = (   0.5396115   0.9330091   0.4210571  )
        71           H   tau(  71) = (   0.8146374   2.9272095   0.4940100  )
        72           H   tau(  72) = (   0.1688864   3.0553918   1.4090772  )
        73           H   tau(  73) = (   0.1699209   1.2827667   0.2426491  )
        74           H   tau(  74) = (   0.5241698   0.7114337   1.1577163  )
        75           H   tau(  75) = (   0.5385769   2.7056341   1.5874852  )
        76           H   tau(  76) = (   0.1843280   3.2769672   0.6724181  )
        77           H   tau(  77) = (  -0.2106553   1.5251878   1.5994584  )
        78           H   tau(  78) = (   0.4350958   0.4690127   0.6843913  )
        79           H   tau(  79) = (   0.9191531   2.4632131   0.2306759  )
        80           H   tau(  80) = (   0.2734020   3.5193882   1.1457431  )
        81           H   tau(  81) = (   0.6906310   1.4217074   0.2135920  )
        82           H   tau(  82) = (   0.0448799   0.5724930   1.1286592  )
        83           H   tau(  83) = (   0.0178669   2.5666934   1.6165423  )
        84           H   tau(  84) = (   0.6636180   3.4159078   0.7014752  )
        85           H   tau(  85) = (   0.5085327   0.9646860   1.7784211  )
        86           H   tau(  86) = (   0.1542838   1.0295144   0.8633539  )
        87           H   tau(  87) = (   0.1999651   3.0237148   0.0517133  )
        88           H   tau(  88) = (   0.5542140   2.9588864   0.9667804  )
        89           H   tau(  89) = (   0.0204073   0.1614838   1.7075154  )
        90           H   tau(  90) = (   0.6661584   1.8327166   0.7924482  )
        91           H   tau(  91) = (   0.6880905   3.8269170   0.1226189  )
        92           H   tau(  92) = (   0.0423394   2.1556842   1.0376861  )
        93           H   tau(  93) = (   0.4198962   0.2793869   0.1767987  )
        94           H   tau(  94) = (   0.7741451   1.7148135   1.0918659  )
        95           H   tau(  95) = (   0.2886017   3.7090139   1.6533356  )
        96           H   tau(  96) = (  -0.0656473   2.2735873   0.7382685  )
        97           H   tau(  97) = (   0.0985789   0.3334244   0.0826715  )
        98           H   tau(  98) = (   0.4528278   1.6607760   0.9977386  )
        99           H   tau(  99) = (   0.6099189   3.6549764   1.7474628  )
       100           H   tau( 100) = (   0.2556700   2.3276248   0.8323957  )
       101           H   tau( 101) = (   0.3557347   2.2403893   1.5495474  )
       102           H   tau( 102) = (   0.0014858   3.7422120   0.6344802  )
       103           H   tau( 103) = (   0.3527631   1.7480116   0.2805869  )
       104           H   tau( 104) = (   0.7070120   0.2461889   1.1956541  )
       105           H   tau( 105) = (   0.6834969   2.1899046   1.6399112  )
       106           H   tau( 106) = (   0.3292480   3.7926967   0.7248441  )
       107           H   tau( 107) = (   0.0250009   1.7984963   0.1902231  )
       108           H   tau( 108) = (   0.3792498   0.1957042   1.1052902  )
       109           H   tau( 109) = (   0.5724324   2.1031520   1.3274078  )
       110           H   tau( 110) = (   0.2181834   3.8794493   0.4123406  )
       111           H   tau( 111) = (   0.1360655   1.8852489   0.5027266  )
       112           H   tau( 112) = (   0.4903144   0.1089515   1.4177937  )

     number of k points=     6
                       cart. coord. in units 2pi/alat
        k(    1) = (   0.0000000   0.0000000   0.0000000), wk =   0.2500000
        k(    2) = (   0.0000000   0.0000000  -0.2732040), wk =   0.2500000
        k(    3) = (   0.2500000   0.0000000   0.0398198), wk =   0.5000000
        k(    4) = (   0.2500000   0.0000000  -0.2333842), wk =   0.5000000
        k(    5) = (  -0.5000000   0.0000000  -0.0796396), wk =   0.2500000
        k(    6) = (  -0.5000000   0.0000000  -0.3528435), wk =   0.2500000

     Dense  grid:   967913 G-vectors     FFT dimensions: (  64, 256, 120)

     Estimated max dynamical RAM per process >     928.51MB

     Estimated total allocated dynamical RAM >    7428.05MB

     Check: negative/imaginary core charge=   -0.000002    0.000000

     Initial potential from superposition of free atoms

     starting charge  335.99752, renormalised to  336.00000
     Starting wfc are  304 randomized atomic wfcs
     Checking if some PAW data can be deallocated... 

     total cpu time spent up to now is       52.9 secs

     per-process dynamical memory:   591.9 Mb

     Self-consistent Calculation

     iteration #  1     ecut=   100.00 Ry     beta=0.50
     Davidson diagonalization with overlap
     ethr =  1.00E-02,  avg # of iterations =  5.2

     total cpu time spent up to now is      200.2 secs

     total energy              =   -1605.18164113 Ry
     Harris-Foulkes estimate   =   -1610.97383258 Ry
     estimated scf accuracy    <      11.09170291 Ry

     iteration #  2     ecut=   100.00 Ry     beta=0.50
     Davidson diagonalization with overlap
     ethr =  3.30E-03,  avg # of iterations =  2.0

     total cpu time spent up to now is      272.2 secs

     total energy              =   -1605.69643814 Ry
     Harris-Foulkes estimate   =   -1606.52054084 Ry
     estimated scf accuracy    <       1.66205358 Ry

     iteration #  3     ecut=   100.00 Ry     beta=0.50
     Davidson diagonalization with overlap
     ethr =  4.95E-04,  avg # of iterations =  5.0

     total cpu time spent up to now is      435.9 secs

     total energy              =   -1607.05854670 Ry
     Harris-Foulkes estimate   =   -1607.86426435 Ry
     estimated scf accuracy    <       2.24462293 Ry

     iteration #  4     ecut=   100.00 Ry     beta=0.50
     Davidson diagonalization with overlap
     ethr =  4.95E-04,  avg # of iterations =  1.8

     total cpu time spent up to now is      504.3 secs

     total energy              =   -1606.70550776 Ry
     Harris-Foulkes estimate   =   -1607.18001655 Ry
     estimated scf accuracy    <       0.71891673 Ry

     iteration #  5     ecut=   100.00 Ry     beta=0.50
     Davidson diagonalization with overlap
     ethr =  2.14E-04,  avg # of iterations =  5.3

     total cpu time spent up to now is      663.5 secs

     total energy              =   -1607.16804418 Ry
     Harris-Foulkes estimate   =   -1607.49779788 Ry
     estimated scf accuracy    <       0.92106621 Ry

     iteration #  6     ecut=   100.00 Ry     beta=0.50
     Davidson diagonalization with overlap
     ethr =  2.14E-04,  avg # of iterations =  1.0

     total cpu time spent up to now is      730.6 secs

     total energy              =   -1607.02370503 Ry
     Harris-Foulkes estimate   =   -1607.19854734 Ry
     estimated scf accuracy    <       0.34080464 Ry

     iteration #  7     ecut=   100.00 Ry     beta=0.50
     Davidson diagonalization with overlap
     ethr =  1.01E-04,  avg # of iterations =  7.5

     total cpu time spent up to now is      878.1 secs

     total energy              =   -1607.20718270 Ry
     Harris-Foulkes estimate   =   -1607.23684487 Ry
     estimated scf accuracy    <       0.08194258 Ry

     iteration #  8     ecut=   100.00 Ry     beta=0.50
     Davidson diagonalization with overlap
     ethr =  2.44E-05,  avg # of iterations =  1.5

     total cpu time spent up to now is      946.0 secs

     total energy              =   -1607.19687233 Ry
     Harris-Foulkes estimate   =   -1607.21025912 Ry
     estimated scf accuracy    <       0.02930004 Ry

     iteration #  9     ecut=   100.00 Ry     beta=0.50
     Davidson diagonalization with overlap
     ethr =  8.72E-06,  avg # of iterations =  5.7

     total cpu time spent up to now is     1086.0 secs

     total energy              =   -1607.21351028 Ry
     Harris-Foulkes estimate   =   -1607.21427472 Ry
     estimated scf accuracy    <       0.00486365 Ry

     iteration # 10     ecut=   100.00 Ry     beta=0.50
     Davidson diagonalization with overlap
     ethr =  1.45E-06,  avg # of iterations =  1.7

     total cpu time spent up to now is     1154.3 secs

     total energy              =   -1607.21181121 Ry
     Harris-Foulkes estimate   =   -1607.21358795 Ry
     estimated scf accuracy    <       0.00334274 Ry

     iteration # 11     ecut=   100.00 Ry     beta=0.50
     Davidson diagonalization with overlap
     ethr =  9.95E-07,  avg # of iterations =  4.0

     total cpu time spent up to now is     1256.5 secs

     total energy              =   -1607.21290194 Ry
     Harris-Foulkes estimate   =   -1607.21291368 Ry
     estimated scf accuracy    <       0.00019639 Ry

     iteration # 12     ecut=   100.00 Ry     beta=0.50
     Davidson diagonalization with overlap
     ethr =  5.85E-08,  avg # of iterations =  3.0

     total cpu time spent up to now is     1341.6 secs

     total energy              =   -1607.21286065 Ry
     Harris-Foulkes estimate   =   -1607.21293334 Ry
     estimated scf accuracy    <       0.00018631 Ry

     iteration # 13     ecut=   100.00 Ry     beta=0.50
     Davidson diagonalization with overlap
     ethr =  5.54E-08,  avg # of iterations =  2.2

     total cpu time spent up to now is     1410.0 secs

     total energy              =   -1607.21283727 Ry
     Harris-Foulkes estimate   =   -1607.21287074 Ry
     estimated scf accuracy    <       0.00005529 Ry

     iteration # 14     ecut=   100.00 Ry     beta=0.50
     Davidson diagonalization with overlap
     ethr =  1.65E-08,  avg # of iterations =  4.0

     total cpu time spent up to now is     1548.0 secs

     total energy              =   -1607.21287755 Ry
     Harris-Foulkes estimate   =   -1607.21289215 Ry
     estimated scf accuracy    <       0.00004313 Ry

     iteration # 15     ecut=   100.00 Ry     beta=0.50
     Davidson diagonalization with overlap
     ethr =  1.28E-08,  avg # of iterations =  1.0

     total cpu time spent up to now is     1615.1 secs

     total energy              =   -1607.21286713 Ry
     Harris-Foulkes estimate   =   -1607.21287871 Ry
     estimated scf accuracy    <       0.00001739 Ry

     iteration # 16     ecut=   100.00 Ry     beta=0.50
     Davidson diagonalization with overlap
     ethr =  5.17E-09,  avg # of iterations =  4.0

     total cpu time spent up to now is     1750.2 secs

     total energy              =   -1607.21287894 Ry
     Harris-Foulkes estimate   =   -1607.21288547 Ry
     estimated scf accuracy    <       0.00002004 Ry

     iteration # 17     ecut=   100.00 Ry     beta=0.50
     Davidson diagonalization with overlap
     ethr =  5.17E-09,  avg # of iterations =  1.0

     total cpu time spent up to now is     1817.3 secs

     total energy              =   -1607.21287525 Ry
     Harris-Foulkes estimate   =   -1607.21287940 Ry
     estimated scf accuracy    <       0.00000859 Ry

     iteration # 18     ecut=   100.00 Ry     beta=0.50
     Davidson diagonalization with overlap
     ethr =  2.56E-09,  avg # of iterations =  4.0

     total cpu time spent up to now is     1939.8 secs

     total energy              =   -1607.21288008 Ry
     Harris-Foulkes estimate   =   -1607.21288018 Ry
     estimated scf accuracy    <       0.00000179 Ry

     iteration # 19     ecut=   100.00 Ry     beta=0.50
     Davidson diagonalization with overlap
     ethr =  5.33E-10,  avg # of iterations =  1.0

     total cpu time spent up to now is     2006.9 secs

     total energy              =   -1607.21287946 Ry
     Harris-Foulkes estimate   =   -1607.21288009 Ry
     estimated scf accuracy    <       0.00000158 Ry

     iteration # 20     ecut=   100.00 Ry     beta=0.50
     Davidson diagonalization with overlap
     ethr =  4.72E-10,  avg # of iterations =  1.0

     total cpu time spent up to now is     2073.8 secs

     total energy              =   -1607.21287950 Ry
     Harris-Foulkes estimate   =   -1607.21287954 Ry
     estimated scf accuracy    <       0.00000039 Ry

     iteration # 21     ecut=   100.00 Ry     beta=0.50
     Davidson diagonalization with overlap
     ethr =  1.16E-10,  avg # of iterations =  5.0

     total cpu time spent up to now is     2191.2 secs

     End of self-consistent calculation

          k = 0.0000 0.0000 0.0000 (120947 PWs)   bands (ev):

   -21.3572 -21.3564 -21.3537 -21.3536 -21.3054 -21.3042 -21.2759 -21.2757
   -19.1420 -19.1420 -19.1418 -19.1416 -18.9726 -18.9724 -18.9600 -18.9599
   -17.5324 -17.5315 -17.5240 -17.5232 -12.8245 -12.8112 -12.8098 -12.7956
   -12.1693 -12.1354 -12.1293 -12.0974 -12.0020 -11.9986 -11.8784 -11.8700
   -11.7915 -11.7863 -11.7668 -11.7629 -11.3206 -11.2561 -11.1967 -11.1955
    -9.4623  -9.4481  -9.4459  -9.4276  -8.1778  -8.0685  -8.0541  -8.0414
    -7.7166  -7.6472  -7.6080  -7.6044  -7.5936  -7.5799  -7.4935  -7.4871
    -7.4478  -7.4349  -7.2473  -7.1825  -6.8641  -6.8075  -6.7949  -6.7686
    -5.8863  -5.7496  -5.7321  -5.7284  -5.7174  -5.6725  -5.6615  -5.5553
    -5.5316  -5.5146  -5.4945  -5.4813  -5.4259  -5.4114  -5.3312  -5.2350
    -5.2158  -5.2038  -5.1998  -5.0773  -4.8340  -4.8016  -4.7966  -4.7852
    -4.6585  -4.6244  -4.5562  -4.5536  -4.4888  -4.4817  -4.4710  -4.4270
    -4.3766  -4.3152  -4.2567  -4.2522  -4.2450  -4.1217  -4.1195  -4.0893
    -4.0113  -3.9586  -3.8894  -3.8244  -3.5303  -3.4985  -3.3335  -3.3265
    -3.0943  -3.0908  -3.0415  -3.0290  -3.0002  -2.9485  -2.9332  -2.8926
    -2.8708  -2.8632  -2.8542  -2.7906  -2.4799  -2.4189  -2.0790  -2.0333
    -1.8897  -1.8677  -1.8354  -1.8343  -1.3020  -1.2865  -1.2542  -1.2418
    -0.9824  -0.9745  -0.9645  -0.9492  -0.6959  -0.6936  -0.5777  -0.5730
    -0.5012  -0.4891  -0.4748  -0.4448  -0.3860  -0.3571  -0.3063  -0.2892
    -0.1601  -0.1561  -0.1534  -0.1526  -0.0440  -0.0281  -0.0190  -0.0090
     0.1586   0.1590   0.1728   0.1825   0.2970   0.3082   0.3189   0.3233
     4.8785   4.8869   4.9521   4.9593   5.2249   5.2305   5.2590   5.2604
     5.9191   6.1535   6.1592   6.3835   6.4538   6.5967   6.7812   6.8160
     6.9793   7.1502   7.1831   7.3907   7.5423   7.5423   7.5658   7.6343
     7.7278   7.8399   7.8427   7.8724   7.9129   7.9149   8.0911   8.2451
     8.2851

          k = 0.0000 0.0000-0.2732 (120884 PWs)   bands (ev):

   -21.3554 -21.3554 -21.3550 -21.3550 -21.3049 -21.3049 -21.2758 -21.2758
   -19.1419 -19.1419 -19.1418 -19.1418 -18.9722 -18.9722 -18.9602 -18.9602
   -17.5282 -17.5282 -17.5273 -17.5273 -12.8212 -12.8212 -12.8000 -12.8000
   -12.1508 -12.1508 -12.1146 -12.1146 -11.9420 -11.9420 -11.9334 -11.9334
   -11.7812 -11.7812 -11.7758 -11.7758 -11.2894 -11.2894 -11.1933 -11.1933
    -9.4555  -9.4555  -9.4362  -9.4362  -8.1188  -8.1188  -8.0445  -8.0445
    -7.6727  -7.6727  -7.6192  -7.6192  -7.5479  -7.5479  -7.5252  -7.5252
    -7.3603  -7.3603  -7.3115  -7.3115  -6.8401  -6.8401  -6.7774  -6.7774
    -5.8149  -5.8149  -5.7512  -5.7512  -5.6835  -5.6835  -5.6593  -5.6593
    -5.5159  -5.5159  -5.4498  -5.4498  -5.4031  -5.4031  -5.3004  -5.3004
    -5.2066  -5.2066  -5.1266  -5.1266  -4.8429  -4.8429  -4.8101  -4.8101
    -4.6342  -4.6342  -4.5551  -4.5551  -4.5249  -4.5249  -4.3579  -4.3579
    -4.2916  -4.2916  -4.2618  -4.2618  -4.1741  -4.1741  -4.0921  -4.0921
    -4.0278  -4.0278  -3.8267  -3.8267  -3.4745  -3.4745  -3.3328  -3.3328
    -3.1640  -3.1640  -3.0926  -3.0926  -2.9615  -2.9615  -2.9316  -2.9316
    -2.8629  -2.8629  -2.8302  -2.8302  -2.4567  -2.4567  -2.0552  -2.0552
    -1.8498  -1.8498  -1.8305  -1.8305  -1.2848  -1.2848  -1.2657  -1.2657
    -0.9971  -0.9971  -0.9255  -0.9255  -0.6403  -0.6403  -0.6378  -0.6378
    -0.4931  -0.4931  -0.4509  -0.4509  -0.3555  -0.3555  -0.3425  -0.3425
    -0.1559  -0.1559  -0.1545  -0.1545   0.0179   0.0179   0.0521   0.0521
     0.1609   0.1609   0.1879   0.1879   0.2565   0.2565   0.2633   0.2633
     4.9156   4.9156   4.9377   4.9377   5.2130   5.2130   5.2514   5.2514
     6.1328   6.1328   6.2741   6.2741   6.5541   6.5541   6.7506   6.7506
     7.0870   7.0870   7.1318   7.1318   7.4712   7.4712   7.6429   7.6429
     7.8025   7.8025   7.8249   7.8249   7.9966   7.9966   8.2224   8.2225
     8.3270

          k = 0.2500 0.0000 0.0398 (120971 PWs)   bands (ev):

   -21.3551 -21.3546 -21.3527 -21.3527 -21.2986 -21.2978 -21.2776 -21.2773
   -19.1423 -19.1421 -19.1421 -19.1418 -18.9767 -18.9763 -18.9637 -18.9635
   -17.5185 -17.5176 -17.5124 -17.5117 -12.8195 -12.8122 -12.7987 -12.7903
   -12.1566 -12.1370 -12.1319 -12.0961 -11.9671 -11.9622 -11.8986 -11.8907
   -11.8903 -11.8884 -11.8672 -11.8613 -11.2981 -11.2561 -11.2053 -11.2007
    -9.4716  -9.4658  -9.4314  -9.4268  -8.1647  -8.0756  -8.0690  -8.0632
    -7.7150  -7.7098  -7.7089  -7.6919  -7.6891  -7.6278  -7.6261  -7.6040
    -7.2991  -7.2546  -7.0932  -7.0247  -6.9003  -6.8773  -6.7630  -6.7311
    -5.8791  -5.7861  -5.7667  -5.7200  -5.7059  -5.6569  -5.6072  -5.5575
    -5.5269  -5.5181  -5.4638  -5.4451  -5.4421  -5.3554  -5.3375  -5.2430
    -5.1852  -5.1533  -5.1445  -5.1355  -4.8157  -4.8058  -4.7994  -4.7737
    -4.6730  -4.5782  -4.5695  -4.5281  -4.4687  -4.4575  -4.4069  -4.3437
    -4.3335  -4.2534  -4.2138  -4.1698  -4.1628  -4.1118  -4.1094  -4.0566
    -4.0348  -4.0315  -3.9152  -3.8122  -3.4656  -3.4466  -3.3220  -3.2885
    -3.1508  -3.1381  -3.0956  -3.0587  -2.9618  -2.9399  -2.9102  -2.9023
    -2.8661  -2.8532  -2.8292  -2.8061  -2.4772  -2.4636  -2.0586  -2.0556
    -1.8582  -1.8310  -1.8182  -1.8082  -1.2320  -1.2012  -1.1775  -1.1627
    -1.0245  -1.0034  -0.9510  -0.9440  -0.5661  -0.5523  -0.5404  -0.5046
    -0.4959  -0.4620  -0.4610  -0.4530  -0.3943  -0.3789  -0.3427  -0.3233
    -0.1588  -0.1456  -0.1364  -0.1295  -0.0100  -0.0074  -0.0036   0.0038
     0.1344   0.1503   0.1812   0.1941   0.2436   0.2576   0.2610   0.2659
     4.8993   4.9019   4.9218   4.9295   5.1936   5.2259   5.2474   5.2706
     6.1126   6.2122   6.3114   6.3677   6.5392   6.5791   6.7028   6.7523
     6.9219   6.9282   6.9935   7.1109   7.2777   7.3253   7.3281   7.4802
     7.5072   7.6224   7.8354   7.8388   7.9018   8.0977   8.1004   8.2363
     8.2407

          k = 0.2500 0.0000-0.2334 (120997 PWs)   bands (ev):

   -21.3540 -21.3538 -21.3537 -21.3535 -21.2982 -21.2982 -21.2776 -21.2773
   -19.1423 -19.1421 -19.1420 -19.1419 -18.9767 -18.9765 -18.9637 -18.9634
   -17.5192 -17.5185 -17.5117 -17.5108 -12.8224 -12.8099 -12.7983 -12.7903
   -12.1539 -12.1450 -12.1124 -12.1105 -11.9569 -11.9536 -11.9192 -11.9133
   -11.8765 -11.8744 -11.8678 -11.8647 -11.2798 -11.2742 -11.2165 -11.1886
    -9.4904  -9.4437  -9.4374  -9.4244  -8.1528  -8.1224  -8.0639  -8.0487
    -7.7307  -7.7233  -7.7110  -7.7004  -7.6869  -7.6474  -7.5892  -7.5676
    -7.2340  -7.1947  -7.1606  -7.0852  -6.9062  -6.8732  -6.7442  -6.7426
    -5.8604  -5.7969  -5.7668  -5.7353  -5.6968  -5.6767  -5.6091  -5.5606
    -5.5153  -5.4904  -5.4680  -5.4601  -5.3922  -5.3278  -5.2965  -5.2934
    -5.2462  -5.2093  -5.1412  -5.0808  -4.8974  -4.8606  -4.8222  -4.7928
    -4.5840  -4.5412  -4.5210  -4.5098  -4.5025  -4.4494  -4.3987  -4.3461
    -4.2683  -4.2534  -4.2338  -4.2282  -4.2163  -4.1355  -4.0809  -4.0486
    -4.0202  -3.9878  -3.8986  -3.8285  -3.5006  -3.3680  -3.3357  -3.2534
    -3.1768  -3.1537  -3.0995  -3.0793  -2.9847  -2.9298  -2.9145  -2.9078
    -2.8640  -2.8541  -2.8332  -2.8030  -2.4577  -2.4513  -2.1011  -2.0309
    -1.8533  -1.8238  -1.8203  -1.8136  -1.2121  -1.1993  -1.1948  -1.1621
    -1.0166  -0.9882  -0.9600  -0.9473  -0.5573  -0.5451  -0.5270  -0.5105
    -0.4996  -0.4734  -0.4720  -0.4609  -0.3803  -0.3601  -0.3532  -0.3341
    -0.2176  -0.1909  -0.1294  -0.1183  -0.0616  -0.0441   0.0742   0.0973
     0.1574   0.1706   0.1770   0.1913   0.2008   0.2191   0.2721   0.2800
     4.9011   4.9134   4.9314   4.9446   5.1510   5.2116   5.2309   5.2906
     6.2284   6.3429   6.3448   6.4204   6.5742   6.5910   6.5959   6.7114
     6.7481   6.9686   6.9791   7.0184   7.2306   7.3045   7.3067   7.3704
     7.4747   7.6752   7.7295   7.8379   7.9663   8.1278   8.1892   8.2815
     8.2924

          k =-0.5000 0.0000-0.0796 (121078 PWs)   bands (ev):

   -21.3524 -21.3524 -21.3523 -21.3523 -21.2870 -21.2870 -21.2836 -21.2836
   -19.1425 -19.1425 -19.1421 -19.1421 -18.9807 -18.9807 -18.9672 -18.9672
   -17.5025 -17.5025 -17.5018 -17.5018 -12.8142 -12.8142 -12.7891 -12.7891
   -12.1476 -12.1476 -12.1171 -12.1171 -12.0022 -12.0022 -11.9836 -11.9836
   -11.8944 -11.8944 -11.8881 -11.8881 -11.2594 -11.2594 -11.2149 -11.2149
    -9.4760  -9.4760  -9.4294  -9.4294  -8.1331  -8.1331  -8.0802  -8.0802
    -7.8049  -7.8049  -7.7991  -7.7991  -7.7274  -7.7274  -7.6839  -7.6839
    -7.0610  -7.0610  -6.9994  -6.9994  -6.9100  -6.9100  -6.7136  -6.7136
    -5.8417  -5.8417  -5.7393  -5.7393  -5.6489  -5.6489  -5.6274  -5.6274
    -5.4625  -5.4625  -5.3723  -5.3723  -5.3354  -5.3354  -5.2730  -5.2730
    -5.2155  -5.2155  -5.1241  -5.1241  -4.8470  -4.8470  -4.7992  -4.7992
    -4.5549  -4.5549  -4.4879  -4.4879  -4.4252  -4.4252  -4.3190  -4.3190
    -4.2484  -4.2484  -4.1917  -4.1917  -4.1369  -4.1369  -4.0802  -4.0802
    -4.0429  -4.0429  -3.8646  -3.8646  -3.3936  -3.3936  -3.2971  -3.2971
    -3.2119  -3.2119  -3.0942  -3.0942  -2.9460  -2.9460  -2.8981  -2.8981
    -2.8633  -2.8633  -2.8058  -2.8058  -2.4728  -2.4728  -2.0552  -2.0552
    -1.8047  -1.8047  -1.7838  -1.7838  -1.1414  -1.1414  -1.1117  -1.1117
    -1.0309  -1.0309  -0.9627  -0.9627  -0.5343  -0.5343  -0.4963  -0.4963
    -0.4160  -0.4160  -0.4081  -0.4081  -0.3467  -0.3467  -0.3323  -0.3323
    -0.1568  -0.1568  -0.1243  -0.1243   0.0226   0.0226   0.0299   0.0299
     0.1519   0.1519   0.1678   0.1678   0.1750   0.1750   0.1915   0.1915
     4.8551   4.8551   4.8896   4.8896   5.1811   5.1811   5.2597   5.2597
     6.0776   6.0776   6.1154   6.1154   6.5859   6.5859   6.6073   6.6073
     6.9856   6.9856   7.0041   7.0041   7.3839   7.3839   7.4648   7.4648
     7.6194   7.6194   7.9113   7.9113   7.9973   7.9973   8.1069   8.1069
     8.2736

          k =-0.5000 0.0000-0.3528 (121034 PWs)   bands (ev):

   -21.3526 -21.3525 -21.3522 -21.3521 -21.2871 -21.2869 -21.2838 -21.2836
   -19.1427 -19.1424 -19.1422 -19.1420 -18.9809 -18.9808 -18.9674 -18.9666
   -17.5079 -17.5073 -17.4971 -17.4963 -12.8214 -12.8009 -12.7992 -12.7842
   -12.1589 -12.1444 -12.1156 -12.1094 -12.0181 -12.0112 -12.0103 -11.9846
   -11.9051 -11.9017 -11.8523 -11.8487 -11.2674 -11.2512 -11.2312 -11.2003
    -9.5067  -9.4490  -9.4435  -9.4132  -8.1808  -8.1445  -8.1038  -8.0457
    -7.8526  -7.8328  -7.7786  -7.7698  -7.7320  -7.7014  -7.6679  -7.6446
    -7.0970  -7.0573  -7.0240  -6.9787  -6.9373  -6.8254  -6.7509  -6.6664
    -5.8670  -5.7543  -5.7462  -5.7387  -5.6622  -5.6477  -5.6393  -5.5043
    -5.4817  -5.4508  -5.4223  -5.3951  -5.3781  -5.3402  -5.3228  -5.3133
    -5.1937  -5.1507  -5.1444  -5.1361  -4.9207  -4.8821  -4.8003  -4.7923
    -4.6328  -4.5437  -4.5023  -4.4262  -4.4161  -4.3695  -4.3581  -4.3212
    -4.2946  -4.2620  -4.1877  -4.1595  -4.1568  -4.1161  -4.1146  -4.0742
    -4.0380  -3.9910  -3.9565  -3.8677  -3.4750  -3.3398  -3.3281  -3.2232
    -3.1813  -3.1064  -3.0896  -3.0886  -2.9655  -2.9027  -2.8935  -2.8883
    -2.8423  -2.8215  -2.7992  -2.7889  -2.4819  -2.4315  -2.1104  -2.0457
    -1.8409  -1.8099  -1.8017  -1.7886  -1.1389  -1.1360  -1.1094  -1.0951
    -1.0198  -1.0104  -0.9858  -0.9844  -0.5428  -0.5260  -0.5241  -0.5057
    -0.4037  -0.4017  -0.3918  -0.3838  -0.3680  -0.3591  -0.3197  -0.3102
    -0.2733  -0.2422  -0.1325  -0.1037  -0.0782  -0.0330   0.0513   0.0880
     0.0889   0.0988   0.2076   0.2142   0.2198   0.2218   0.2417   0.2480
     4.8259   4.8648   4.8863   4.9234   5.1550   5.2092   5.2210   5.2876
     6.0121   6.0362   6.1501   6.2062   6.5472   6.6156   6.6256   6.6634
     6.9297   7.0326   7.0351   7.0364   7.3553   7.4096   7.5614   7.6010
     7.6305   7.6637   7.8028   7.8516   7.8583   7.8989   8.0039   8.0645
     8.2595

     highest occupied, lowest unoccupied level (ev):     0.3233    4.8259

!    total energy              =   -1607.21287968 Ry
     Harris-Foulkes estimate   =   -1607.21287968 Ry
     estimated scf accuracy    <          9.2E-09 Ry

     total all-electron energy =     -6121.439818 Ry

     The total energy is the sum of the following terms:

     one-electron contribution =    -979.71031291 Ry
     hartree contribution      =     619.79199300 Ry
     xc contribution           =    -351.03977789 Ry
     ewald contribution        =    -424.20585315 Ry
     Dispersion Correction     =      -0.50759905 Ry
     one-center paw contrib.   =    -471.54132968 Ry

     convergence has been achieved in  21 iterations

     Forces acting on atoms (cartesian axes, Ry/au):

     atom    1 type  4   force =     0.00174118    0.00030375    0.00255684
     atom    2 type  4   force =     0.00174118   -0.00030375    0.00255684
     atom    3 type  4   force =    -0.00174118   -0.00030375   -0.00255684
     atom    4 type  4   force =    -0.00174118    0.00030375   -0.00255684
     atom    5 type  4   force =     0.00064508    0.00155447    0.00042223
     atom    6 type  4   force =     0.00064508   -0.00155447    0.00042223
     atom    7 type  4   force =    -0.00064508   -0.00155447   -0.00042223
     atom    8 type  4   force =    -0.00064508    0.00155447   -0.00042223
     atom    9 type  4   force =    -0.00197672    0.00642265    0.00065092
     atom   10 type  4   force =    -0.00197672   -0.00642265    0.00065092
     atom   11 type  4   force =     0.00197672   -0.00642265   -0.00065092
     atom   12 type  4   force =     0.00197672    0.00642265   -0.00065092
     atom   13 type  4   force =    -0.00207937    0.00086096    0.00045852
     atom   14 type  4   force =    -0.00207937   -0.00086096    0.00045852
     atom   15 type  4   force =     0.00207937   -0.00086096   -0.00045852
     atom   16 type  4   force =     0.00207937    0.00086096   -0.00045852
     atom   17 type  1   force =    -0.00270640   -0.00139141   -0.00365868
     atom   18 type  1   force =    -0.00270640    0.00139141   -0.00365868
     atom   19 type  1   force =     0.00270640    0.00139141    0.00365868
     atom   20 type  1   force =     0.00270640   -0.00139141    0.00365868
     atom   21 type  1   force =    -0.02261834   -0.00869982    0.00207181
     atom   22 type  1   force =    -0.02261834    0.00869982    0.00207181
     atom   23 type  1   force =     0.02261834    0.00869982   -0.00207181
     atom   24 type  1   force =     0.02261834   -0.00869982   -0.00207181
     atom   25 type  1   force =    -0.01180371   -0.00300793    0.01085710
     atom   26 type  1   force =    -0.01180371    0.00300793    0.01085710
     atom   27 type  1   force =     0.01180371    0.00300793   -0.01085710
     atom   28 type  1   force =     0.01180371   -0.00300793   -0.01085710
     atom   29 type  1   force =     0.01313090    0.00953248    0.00881186
     atom   30 type  1   force =     0.01313090   -0.00953248    0.00881186
     atom   31 type  1   force =    -0.01313090   -0.00953248   -0.00881186
     atom   32 type  1   force =    -0.01313090    0.00953248   -0.00881186
     atom   33 type  1   force =     0.01790648    0.00536149   -0.00031577
     atom   34 type  1   force =     0.01790648   -0.00536149   -0.00031577
     atom   35 type  1   force =    -0.01790648   -0.00536149    0.00031577
     atom   36 type  1   force =    -0.01790648    0.00536149    0.00031577
     atom   37 type  1   force =     0.01231007    0.00256829   -0.01105324
     atom   38 type  1   force =     0.01231007   -0.00256829   -0.01105324
     atom   39 type  1   force =    -0.01231007   -0.00256829    0.01105324
     atom   40 type  1   force =    -0.01231007    0.00256829    0.01105324
     atom   41 type  1   force =    -0.00260254   -0.00141789   -0.00034246
     atom   42 type  1   force =    -0.00260254    0.00141789   -0.00034246
     atom   43 type  1   force =     0.00260254    0.00141789    0.00034246
     atom   44 type  1   force =     0.00260254   -0.00141789    0.00034246
     atom   45 type  1   force =    -0.01198384   -0.01017253   -0.00837446
     atom   46 type  1   force =    -0.01198384    0.01017253   -0.00837446
     atom   47 type  1   force =     0.01198384    0.01017253    0.00837446
     atom   48 type  1   force =     0.01198384   -0.01017253    0.00837446
     atom   49 type  1   force =     0.00721069    0.00340252   -0.00118939
     atom   50 type  1   force =     0.00721069   -0.00340252   -0.00118939
     atom   51 type  1   force =    -0.00721069   -0.00340252    0.00118939
     atom   52 type  1   force =    -0.00721069    0.00340252    0.00118939
     atom   53 type  1   force =    -0.00120107    0.00090840   -0.00371348
     atom   54 type  1   force =    -0.00120107   -0.00090840   -0.00371348
     atom   55 type  1   force =     0.00120107   -0.00090840    0.00371348
     atom   56 type  1   force =     0.00120107    0.00090840    0.00371348
     atom   57 type  1   force =     0.00363927   -0.00144621   -0.00040170
     atom   58 type  1   force =     0.00363927    0.00144621   -0.00040170
     atom   59 type  1   force =    -0.00363927    0.00144621    0.00040170
     atom   60 type  1   force =    -0.00363927   -0.00144621    0.00040170
     atom   61 type  1   force =     0.00093315   -0.00535213    0.00152504
     atom   62 type  1   force =     0.00093315    0.00535213    0.00152504
     atom   63 type  1   force =    -0.00093315    0.00535213   -0.00152504
     atom   64 type  1   force =    -0.00093315   -0.00535213   -0.00152504
     atom   65 type  3   force =     0.00258321    0.00122118   -0.00022151
     atom   66 type  3   force =     0.00258321   -0.00122118   -0.00022151
     atom   67 type  3   force =    -0.00258321   -0.00122118    0.00022151
     atom   68 type  3   force =    -0.00258321    0.00122118    0.00022151
     atom   69 type  3   force =    -0.00328685   -0.00103265    0.00005214
     atom   70 type  3   force =    -0.00328685    0.00103265    0.00005214
     atom   71 type  3   force =     0.00328685    0.00103265   -0.00005214
     atom   72 type  3   force =     0.00328685   -0.00103265   -0.00005214
     atom   73 type  3   force =    -0.00286629   -0.00192800    0.00005290
     atom   74 type  3   force =    -0.00286629    0.00192800    0.00005290
     atom   75 type  3   force =     0.00286629    0.00192800   -0.00005290
     atom   76 type  3   force =     0.00286629   -0.00192800   -0.00005290
     atom   77 type  3   force =     0.00161922   -0.00351162    0.00066029
     atom   78 type  3   force =     0.00161922    0.00351162    0.00066029
     atom   79 type  3   force =    -0.00161922    0.00351162   -0.00066029
     atom   80 type  3   force =    -0.00161922   -0.00351162   -0.00066029
     atom   81 type  3   force =     0.00285070    0.00058297    0.00016595
     atom   82 type  3   force =     0.00285070   -0.00058297    0.00016595
     atom   83 type  3   force =    -0.00285070   -0.00058297   -0.00016595
     atom   84 type  3   force =    -0.00285070    0.00058297   -0.00016595
     atom   85 type  3   force =    -0.00154214    0.00255837   -0.00061609
     atom   86 type  3   force =    -0.00154214   -0.00255837   -0.00061609
     atom   87 type  3   force =     0.00154214   -0.00255837    0.00061609
     atom   88 type  3   force =     0.00154214    0.00255837    0.00061609
     atom   89 type  3   force =    -0.00091669    0.00064055   -0.00052511
     atom   90 type  3   force =    -0.00091669   -0.00064055   -0.00052511
     atom   91 type  3   force =     0.00091669   -0.00064055    0.00052511
     atom   92 type  3   force =     0.00091669    0.00064055    0.00052511
     atom   93 type  3   force =     0.00016138    0.00002584    0.00014094
     atom   94 type  3   force =     0.00016138   -0.00002584    0.00014094
     atom   95 type  3   force =    -0.00016138   -0.00002584   -0.00014094
     atom   96 type  3   force =    -0.00016138    0.00002584   -0.00014094
     atom   97 type  3   force =    -0.00150718   -0.00056831    0.00085236
     atom   98 type  3   force =    -0.00150718    0.00056831    0.00085236
     atom   99 type  3   force =     0.00150718    0.00056831   -0.00085236
     atom  100 type  3   force =     0.00150718   -0.00056831   -0.00085236
     atom  101 type  3   force =    -0.00217493    0.00121361    0.00074422
     atom  102 type  3   force =    -0.00217493   -0.00121361    0.00074422
     atom  103 type  3   force =     0.00217493   -0.00121361   -0.00074422
     atom  104 type  3   force =     0.00217493    0.00121361   -0.00074422
     atom  105 type  3   force =     0.00060256    0.00121881    0.00035995
     atom  106 type  3   force =     0.00060256   -0.00121881    0.00035995
     atom  107 type  3   force =    -0.00060256   -0.00121881   -0.00035995
     atom  108 type  3   force =    -0.00060256    0.00121881   -0.00035995
     atom  109 type  3   force =     0.00111899   -0.00057303   -0.00044685
     atom  110 type  3   force =     0.00111899    0.00057303   -0.00044685
     atom  111 type  3   force =    -0.00111899    0.00057303    0.00044685
     atom  112 type  3   force =    -0.00111899   -0.00057303    0.00044685

     Total force =     0.098992     Total SCF correction =     0.000210


     Computing stress (Cartesian axis) and pressure

          total   stress  (Ry/bohr**3)                   (kbar)     P=  -12.00
  -0.00007216   0.00000000  -0.00000019        -10.61      0.00     -0.03
   0.00000000  -0.00010318   0.00000000          0.00    -15.18      0.00
  -0.00000019   0.00000000  -0.00006946         -0.03      0.00    -10.22


     Writing output data file scf.save
 
     init_run     :     50.53s CPU     52.08s WALL (       1 calls)
     electrons    :   2069.55s CPU   2138.47s WALL (       1 calls)
     forces       :     27.35s CPU     27.59s WALL (       1 calls)
     stress       :    115.39s CPU    115.74s WALL (       1 calls)

     Called by init_run:
     wfcinit      :     38.59s CPU     40.00s WALL (       1 calls)
     potinit      :      4.14s CPU      4.16s WALL (       1 calls)

     Called by electrons:
     c_bands      :   1866.47s CPU   1925.42s WALL (      21 calls)
     sum_band     :    181.94s CPU    189.95s WALL (      21 calls)
     v_of_rho     :      2.91s CPU      3.14s WALL (      22 calls)
     newd         :      7.90s CPU      9.61s WALL (      22 calls)
     PAW_pot      :      9.50s CPU      9.50s WALL (      22 calls)
     mix_rho      :      0.77s CPU      0.81s WALL (      21 calls)

     Called by c_bands:
     init_us_2    :      8.65s CPU      8.68s WALL (     270 calls)
     cegterg      :   1824.86s CPU   1883.75s WALL (     126 calls)

     Called by sum_band:
     sum_band:bec :      0.09s CPU      0.09s WALL (     126 calls)
     addusdens    :      8.17s CPU      9.83s WALL (      21 calls)

     Called by *egterg:
     h_psi        :    919.35s CPU    964.43s WALL (     533 calls)
     s_psi        :    228.52s CPU    228.52s WALL (     533 calls)
     g_psi        :      4.35s CPU      4.35s WALL (     401 calls)
     cdiaghg      :     86.41s CPU     86.40s WALL (     527 calls)

     Called by h_psi:
     h_psi:pot    :    913.57s CPU    958.56s WALL (     533 calls)
     h_psi:calbec :    236.49s CPU    236.91s WALL (     533 calls)
     vloc_psi     :    448.93s CPU    493.53s WALL (     533 calls)
     add_vuspsi   :    228.14s CPU    228.12s WALL (     533 calls)

     General routines
     calbec       :    345.83s CPU    346.45s WALL (     689 calls)
     fft          :      6.52s CPU      6.92s WALL (     310 calls)
     fftw         :    486.92s CPU    537.55s WALL (  170936 calls)
 
     Parallel routines
     fft_scatter  :    167.73s CPU    218.36s WALL (  171246 calls)
 
     PWSCF        : 37m53.02s CPU    40m 4.65s WALL

 
   This run was terminated on:  19: 3:43  14Dec2017            

=------------------------------------------------------------------------------=
   JOB DONE.
=------------------------------------------------------------------------------=
