
     Program PWSCF v.6.1 (svn rev. 13369) starts on 14Dec2017 at 18:14: 4 

     This program is part of the open-source Quantum ESPRESSO suite
     for quantum simulation of materials; please cite
         "P. Giannozzi et al., J. Phys.:Condens. Matter 21 395502 (2009);
          URL http://www.quantum-espresso.org", 
     in publications or presentations arising from this work. More details at
     http://www.quantum-espresso.org/quote

     Parallel version (MPI), running on     8 processors
     R & G space division:  proc/nbgrp/npool/nimage =       8
     Waiting for input...
     Reading input from standard input

     Current dimensions of program PWSCF are:
     Max number of different atomic species (ntypx) = 10
     Max number of k-points (npk) =  40000
     Max angular momentum in pseudopotentials (lmaxx) =  3
               file C.pbe-n-kjpaw_psl.0.1.UPF: wavefunction(s)  2P renormalized
               file N.pbe-n-kjpaw_psl.0.1.UPF: wavefunction(s)  2P renormalized
               file H.pbe-kjpaw_psl.0.1.UPF: wavefunction(s)  1S renormalized
               file O.pbe-n-kjpaw_psl.0.1.UPF: wavefunction(s)  2P renormalized

     -------------------------------------
     Parameters for Dispersion Correction:
     -------------------------------------
       atom      VdW radius       C_6     

        C          2.744         60.710
        N          2.640         42.670
        H          1.892          4.857
        O          2.536         24.284

     Subspace diagonalization in iterative solution of the eigenvalue problem:
     a serial algorithm will be used

 
     Parallelization info
     --------------------
     sticks:   dense  smooth     PW     G-vecs:    dense   smooth      PW
     Min        1087    1087    283               163593   163593   21847
     Max        1088    1088    284               163598   163598   21856
     Sum        8697    8697   2267              1308755  1308755  174805
 


     bravais-lattice index     =            0
     lattice parameter (alat)  =      12.0181  a.u.
     unit-cell volume          =    9685.5445 (a.u.)^3
     number of atoms/cell      =          152
     number of atomic types    =            4
     number of electrons       =       544.00
     number of Kohn-Sham states=          326
     kinetic-energy cutoff     =     100.0000  Ry
     charge density cutoff     =     400.0000  Ry
     convergence threshold     =      1.0E-08
     mixing beta               =       0.5000
     number of iterations used =            8  plain     mixing
     Exchange-correlation      =  SLA  PW   PBX  PBC ( 1  4  3  4 0 0)

     celldm(1)=  12.018091  celldm(2)=   0.000000  celldm(3)=   0.000000
     celldm(4)=   0.000000  celldm(5)=   0.000000  celldm(6)=   0.000000

     crystal axes: (cart. coord. in units of alat)
               a(1) = (   1.000000   0.000000   0.000000 )  
               a(2) = (   0.000000   1.888234   0.000000 )  
               a(3) = (   0.000000   0.000000   2.955029 )  

     reciprocal axes: (cart. coord. in units 2 pi/alat)
               b(1) = (  1.000000  0.000000  0.000000 )  
               b(2) = (  0.000000  0.529595  0.000000 )  
               b(3) = (  0.000000  0.000000  0.338406 )  


     PseudoPot. # 1 for  C read from file:
     /scratch/ahofstet/pseudo/C.pbe-n-kjpaw_psl.0.1.UPF
     MD5 check sum: 430fe95172b1e11ef3f8ed03bac87931
     Pseudo is Projector augmented-wave + core cor, Zval =  4.0
     Generated using "atomic" code by A. Dal Corso  v.5.0.99 svn rev. 10869
     Shape of augmentation charge: BESSEL
     Using radial grid of 1073 points,  4 beta functions with: 
                l(1) =   0
                l(2) =   0
                l(3) =   1
                l(4) =   1
     Q(r) pseudized with 0 coefficients 


     PseudoPot. # 2 for  N read from file:
     /scratch/ahofstet/pseudo/N.pbe-n-kjpaw_psl.0.1.UPF
     MD5 check sum: f73187c8b701007e77325f868c9291d7
     Pseudo is Projector augmented-wave + core cor, Zval =  5.0
     Generated using "atomic" code by A. Dal Corso  v.5.0.99 svn rev. 10869
     Shape of augmentation charge: PSQ
     Using radial grid of 1085 points,  4 beta functions with: 
                l(1) =   0
                l(2) =   0
                l(3) =   1
                l(4) =   1
     Q(r) pseudized with 0 coefficients 


     PseudoPot. # 3 for  H read from file:
     /scratch/ahofstet/pseudo/H.pbe-kjpaw_psl.0.1.UPF
     MD5 check sum: 94e484f906d9e9773b2f6e52662335b2
     Pseudo is Projector augmented-wave, Zval =  1.0
     Generated using "atomic" code by A. Dal Corso  v.5.0.99 svn rev. 10869
     Shape of augmentation charge: PSQ
     Using radial grid of  929 points,  2 beta functions with: 
                l(1) =   0
                l(2) =   0
     Q(r) pseudized with 0 coefficients 


     PseudoPot. # 4 for  O read from file:
     /scratch/ahofstet/pseudo/O.pbe-n-kjpaw_psl.0.1.UPF
     MD5 check sum: 3f94a2996a3169367d6eb21d9b593f20
     Pseudo is Projector augmented-wave + core cor, Zval =  6.0
     Generated using "atomic" code by A. Dal Corso  v.5.0.99 svn rev. 10869
     Shape of augmentation charge: BESSEL
     Using radial grid of 1095 points,  4 beta functions with: 
                l(1) =   0
                l(2) =   0
                l(3) =   1
                l(4) =   1
     Q(r) pseudized with 0 coefficients 


     atomic species   valence    mass     pseudopotential
        C              4.00    12.01070      C( 1.00)
        N              5.00    14.00670      N( 1.00)
        H              1.00     1.00794      H( 1.00)
        O              6.00    15.99940      O( 1.00)

      8 Sym. Ops., with inversion, found ( 6 have fractional translation)



   Cartesian axes

     site n.     atom                  positions (alat units)
         1           O   tau(   1) = (   0.0362081   0.8009205   0.8643407  )
         2           O   tau(   2) = (   0.4637919   1.0873132   2.3418554  )
         3           O   tau(   3) = (   0.9637919   1.7450373   0.6131740  )
         4           O   tau(   4) = (   0.5362081   0.1431964   2.0906886  )
         5           O   tau(   5) = (   0.9637919   1.0873132   2.0906886  )
         6           O   tau(   6) = (   0.5362081   0.8009205   0.6131740  )
         7           O   tau(   7) = (   0.0362081   0.1431964   2.3418554  )
         8           O   tau(   8) = (   0.4637919   1.7450373   0.8643407  )
         9           O   tau(   9) = (   0.1890837   1.2601369   0.6483883  )
        10           O   tau(  10) = (   0.3109163   0.6280968   2.1259030  )
        11           O   tau(  11) = (   0.8109163   0.3160200   0.8291263  )
        12           O   tau(  12) = (   0.6890837   1.5722137   2.3066410  )
        13           O   tau(  13) = (   0.8109163   0.6280968   2.3066410  )
        14           O   tau(  14) = (   0.6890837   1.2601369   0.8291263  )
        15           O   tau(  15) = (   0.1890837   1.5722137   2.1259030  )
        16           O   tau(  16) = (   0.3109163   0.3160200   0.6483883  )
        17           O   tau(  17) = (   0.9190658   1.6111366   1.2058797  )
        18           O   tau(  18) = (   0.5809342   0.2770972   2.6833944  )
        19           O   tau(  19) = (   0.0809342   0.6670197   0.2716349  )
        20           O   tau(  20) = (   0.4190658   1.2212140   1.7491496  )
        21           O   tau(  21) = (   0.0809342   0.2770972   1.7491496  )
        22           O   tau(  22) = (   0.4190658   1.6111366   0.2716349  )
        23           O   tau(  23) = (   0.9190658   1.2212140   2.6833944  )
        24           O   tau(  24) = (   0.5809342   0.6670197   1.2058797  )
        25           O   tau(  25) = (   0.7867796   1.1358658   1.4433031  )
        26           O   tau(  26) = (   0.7132204   0.7523680   2.9208178  )
        27           O   tau(  27) = (   0.2132204   0.1917489   0.0342116  )
        28           O   tau(  28) = (   0.2867796   1.6964848   1.5117262  )
        29           O   tau(  29) = (   0.2132204   0.7523680   1.5117262  )
        30           O   tau(  30) = (   0.2867796   1.1358658   0.0342116  )
        31           O   tau(  31) = (   0.7867796   1.6964848   2.9208178  )
        32           O   tau(  32) = (   0.7132204   0.1917489   1.4433031  )
        33           N   tau(  33) = (   0.9195184   0.9662660   1.1583640  )
        34           N   tau(  34) = (   0.5804816   0.9219678   2.6358786  )
        35           N   tau(  35) = (   0.0804816   0.0221491   0.3191507  )
        36           N   tau(  36) = (   0.4195184   1.8660846   1.7966654  )
        37           N   tau(  37) = (   0.0804816   0.9219678   1.7966654  )
        38           N   tau(  38) = (   0.4195184   0.9662660   0.3191507  )
        39           N   tau(  39) = (   0.9195184   1.8660846   2.6358786  )
        40           N   tau(  40) = (   0.5804816   0.0221491   1.1583640  )
        41           N   tau(  41) = (   0.0859365   1.4471207   0.9351505  )
        42           N   tau(  42) = (   0.4140635   0.4411130   2.4126651  )
        43           N   tau(  43) = (   0.9140635   0.5030038   0.5423642  )
        44           N   tau(  44) = (   0.5859365   1.3852299   2.0198789  )
        45           N   tau(  45) = (   0.9140635   0.4411130   2.0198789  )
        46           N   tau(  46) = (   0.5859365   1.4471207   0.5423642  )
        47           N   tau(  47) = (   0.0859365   1.3852299   2.4126651  )
        48           N   tau(  48) = (   0.4140635   0.5030038   0.9351505  )
        49           C   tau(  49) = (   0.0603570   0.9400996   0.9954235  )
        50           C   tau(  50) = (   0.4396430   0.9481342   2.4729382  )
        51           C   tau(  51) = (   0.9396430   1.8842164   0.4820912  )
        52           C   tau(  52) = (   0.5603570   0.0040173   1.9596058  )
        53           C   tau(  53) = (   0.9396430   0.9481342   1.9596058  )
        54           C   tau(  54) = (   0.5603570   0.9400996   0.4820912  )
        55           C   tau(  55) = (   0.0603570   0.0040173   2.4729382  )
        56           C   tau(  56) = (   0.4396430   1.8842164   0.9954235  )
        57           C   tau(  57) = (   0.2432355   1.0950126   0.9864743  )
        58           C   tau(  58) = (   0.2567645   0.7932211   2.4639889  )
        59           C   tau(  59) = (   0.7567645   0.1508957   0.4910404  )
        60           C   tau(  60) = (   0.7432355   1.7373380   1.9685551  )
        61           C   tau(  61) = (   0.7567645   0.7932211   1.9685551  )
        62           C   tau(  62) = (   0.7432355   1.0950126   0.4910404  )
        63           C   tau(  63) = (   0.2432355   1.7373380   2.4639889  )
        64           C   tau(  64) = (   0.2567645   0.1508957   0.9864743  )
        65           C   tau(  65) = (   0.1740817   1.2716842   0.8395344  )
        66           C   tau(  66) = (   0.3259183   0.6165495   2.3170490  )
        67           C   tau(  67) = (   0.8259183   0.3275674   0.6379803  )
        68           C   tau(  68) = (   0.6740817   1.5606664   2.1154949  )
        69           C   tau(  69) = (   0.8259183   0.6165495   2.1154949  )
        70           C   tau(  70) = (   0.6740817   1.2716842   0.6379803  )
        71           C   tau(  71) = (   0.1740817   1.5606664   2.3170490  )
        72           C   tau(  72) = (   0.3259183   0.3275674   0.8395344  )
        73           C   tau(  73) = (   0.0262032   1.4635256   1.1433485  )
        74           C   tau(  74) = (   0.4737968   0.4247082   2.6208632  )
        75           C   tau(  75) = (   0.9737968   0.5194087   0.3341662  )
        76           C   tau(  76) = (   0.5262032   1.3688250   1.8116808  )
        77           C   tau(  77) = (   0.9737968   0.4247082   1.8116808  )
        78           C   tau(  78) = (   0.5262032   1.4635256   0.3341662  )
        79           C   tau(  79) = (   0.0262032   1.3688250   2.6208632  )
        80           C   tau(  80) = (   0.4737968   0.5194087   1.1433485  )
        81           C   tau(  81) = (   0.1001286   1.2863147   1.2883895  )
        82           C   tau(  82) = (   0.3998714   0.6019191   2.7659042  )
        83           C   tau(  83) = (   0.8998714   0.3421978   0.1891252  )
        84           C   tau(  84) = (   0.6001286   1.5460359   1.6666398  )
        85           C   tau(  85) = (   0.8998714   0.6019191   1.6666398  )
        86           C   tau(  86) = (   0.6001286   1.2863147   0.1891252  )
        87           C   tau(  87) = (   0.1001286   1.5460359   2.7659042  )
        88           C   tau(  88) = (   0.3998714   0.3421978   1.2883895  )
        89           C   tau(  89) = (   0.9221229   1.1259304   1.3072962  )
        90           C   tau(  90) = (   0.5778771   0.7623033   2.7848109  )
        91           C   tau(  91) = (   0.0778771   0.1818135   0.1702184  )
        92           C   tau(  92) = (   0.4221229   1.7064202   1.6477331  )
        93           C   tau(  93) = (   0.0778771   0.7623033   1.6477331  )
        94           C   tau(  94) = (   0.4221229   1.1259304   0.1702184  )
        95           C   tau(  95) = (   0.9221229   1.7064202   2.7848109  )
        96           C   tau(  96) = (   0.5778771   0.1818135   1.3072962  )
        97           C   tau(  97) = (   0.2988629   1.1809597   1.2035341  )
        98           C   tau(  98) = (   0.2011371   0.7072740   2.6810488  )
        99           C   tau(  99) = (   0.7011371   0.2368428   0.2739805  )
       100           C   tau( 100) = (   0.7988629   1.6513909   1.7514952  )
       101           C   tau( 101) = (   0.7011371   0.7072740   1.7514952  )
       102           C   tau( 102) = (   0.7988629   1.1809597   0.2739805  )
       103           C   tau( 103) = (   0.2988629   1.6513909   2.6810488  )
       104           C   tau( 104) = (   0.2011371   0.2368428   1.2035341  )
       105           H   tau( 105) = (   0.7946240   0.8621394   1.1640804  )
       106           H   tau( 106) = (   0.7053760   1.0260943   2.6415950  )
       107           H   tau( 107) = (   0.2053760   1.8062562   0.3134343  )
       108           H   tau( 108) = (   0.2946240   0.0819775   1.7909489  )
       109           H   tau( 109) = (   0.2053760   1.0260943   1.7909489  )
       110           H   tau( 110) = (   0.2946240   0.8621394   0.3134343  )
       111           H   tau( 111) = (   0.7946240   0.0819775   2.6415950  )
       112           H   tau( 112) = (   0.7053760   1.8062562   1.1640804  )
       113           H   tau( 113) = (   0.0362837   1.5632765   0.8335066  )
       114           H   tau( 114) = (   0.4637163   0.3249572   2.3110212  )
       115           H   tau( 115) = (   0.9637163   0.6191597   0.6440081  )
       116           H   tau( 116) = (   0.5362837   1.2690741   2.1215228  )
       117           H   tau( 117) = (   0.9637163   0.3249572   2.1215228  )
       118           H   tau( 118) = (   0.5362837   1.5632765   0.6440081  )
       119           H   tau( 119) = (   0.0362837   1.2690741   2.3110212  )
       120           H   tau( 120) = (   0.4637163   0.6191597   0.8335066  )
       121           H   tau( 121) = (   0.3748142   1.0145561   0.9097805  )
       122           H   tau( 122) = (   0.1251858   0.8736776   2.3872952  )
       123           H   tau( 123) = (   0.6251858   0.0704392   0.5677342  )
       124           H   tau( 124) = (   0.8748142   1.8177945   2.0452488  )
       125           H   tau( 125) = (   0.6251858   0.8736776   2.0452488  )
       126           H   tau( 126) = (   0.8748142   1.0145561   0.5677342  )
       127           H   tau( 127) = (   0.3748142   1.8177945   2.3872952  )
       128           H   tau( 128) = (   0.1251858   0.0704392   0.9097805  )
       129           H   tau( 129) = (   0.1236628   1.3561900   1.4437274  )
       130           H   tau( 130) = (   0.3763372   0.5320437   2.9212421  )
       131           H   tau( 131) = (   0.8763372   0.4120732   0.0337872  )
       132           H   tau( 132) = (   0.6236628   1.4761605   1.5113019  )
       133           H   tau( 133) = (   0.8763372   0.5320437   1.5113019  )
       134           H   tau( 134) = (   0.6236628   1.3561900   0.0337872  )
       135           H   tau( 135) = (   0.1236628   1.4761605   2.9212421  )
       136           H   tau( 136) = (   0.3763372   0.4120732   1.4437274  )
       137           H   tau( 137) = (   0.3493045   1.0544712   1.3090444  )
       138           H   tau( 138) = (   0.1506955   0.8337626   2.7865590  )
       139           H   tau( 139) = (   0.6506955   0.1103543   0.1684703  )
       140           H   tau( 140) = (   0.8493045   1.7778794   1.6459849  )
       141           H   tau( 141) = (   0.6506955   0.8337626   1.6459849  )
       142           H   tau( 142) = (   0.8493045   1.0544712   0.1684703  )
       143           H   tau( 143) = (   0.3493045   1.7778794   2.7865590  )
       144           H   tau( 144) = (   0.1506955   0.1103543   1.3090444  )
       145           H   tau( 145) = (   0.4270395   1.2956688   1.1896738  )
       146           H   tau( 146) = (   0.0729605   0.5925650   2.6671884  )
       147           H   tau( 147) = (   0.5729605   0.3515519   0.2878409  )
       148           H   tau( 148) = (   0.9270395   1.5366818   1.7653556  )
       149           H   tau( 149) = (   0.5729605   0.5925650   1.7653556  )
       150           H   tau( 150) = (   0.9270395   1.2956688   0.2878409  )
       151           H   tau( 151) = (   0.4270395   1.5366818   2.6671884  )
       152           H   tau( 152) = (   0.0729605   0.3515519   1.1896738  )

     number of k points=     4
                       cart. coord. in units 2pi/alat
        k(    1) = (   0.0000000   0.0000000   0.0000000), wk =   0.3333333
        k(    2) = (   0.0000000  -0.2647977   0.0000000), wk =   0.3333333
        k(    3) = (   0.3333333   0.0000000   0.0000000), wk =   0.6666667
        k(    4) = (   0.3333333  -0.2647977   0.0000000), wk =   0.6666667

     Dense  grid:  1308755 G-vectors     FFT dimensions: (  80, 150, 240)

     Estimated max dynamical RAM per process >    1765.78MB

     Estimated total allocated dynamical RAM >   14126.25MB

     Check: negative/imaginary core charge=   -0.000002    0.000000

     Initial potential from superposition of free atoms

     starting charge  543.99705, renormalised to  544.00000
     Starting wfc are  464 randomized atomic wfcs
     Checking if some PAW data can be deallocated... 

     total cpu time spent up to now is       88.7 secs

     per-process dynamical memory:   959.7 Mb

     Self-consistent Calculation

     iteration #  1     ecut=   100.00 Ry     beta=0.50
     Davidson diagonalization with overlap
     ethr =  1.00E-02,  avg # of iterations =  4.0

     total cpu time spent up to now is      390.0 secs

     total energy              =   -2871.60558383 Ry
     Harris-Foulkes estimate   =   -2880.53537662 Ry
     estimated scf accuracy    <      16.49639418 Ry

     iteration #  2     ecut=   100.00 Ry     beta=0.50
     Davidson diagonalization with overlap
     ethr =  3.03E-03,  avg # of iterations =  3.0

     total cpu time spent up to now is      558.1 secs

     total energy              =   -2873.78883203 Ry
     Harris-Foulkes estimate   =   -2875.45349346 Ry
     estimated scf accuracy    <       3.38148101 Ry

     iteration #  3     ecut=   100.00 Ry     beta=0.50
     Davidson diagonalization with overlap
     ethr =  6.22E-04,  avg # of iterations =  7.2

     total cpu time spent up to now is      844.0 secs

     total energy              =   -2875.01290248 Ry
     Harris-Foulkes estimate   =   -2875.54672598 Ry
     estimated scf accuracy    <       1.33559088 Ry

     iteration #  4     ecut=   100.00 Ry     beta=0.50
     Davidson diagonalization with overlap
     ethr =  2.46E-04,  avg # of iterations =  2.0

     total cpu time spent up to now is      988.4 secs

     total energy              =   -2875.06711385 Ry
     Harris-Foulkes estimate   =   -2875.16218713 Ry
     estimated scf accuracy    <       0.19689703 Ry

     iteration #  5     ecut=   100.00 Ry     beta=0.50
     Davidson diagonalization with overlap
     ethr =  3.62E-05,  avg # of iterations =  6.0

     total cpu time spent up to now is     1319.0 secs

     total energy              =   -2875.20880737 Ry
     Harris-Foulkes estimate   =   -2875.30099946 Ry
     estimated scf accuracy    <       0.28863727 Ry

     iteration #  6     ecut=   100.00 Ry     beta=0.50
     Davidson diagonalization with overlap
     ethr =  3.62E-05,  avg # of iterations =  1.0

     total cpu time spent up to now is     1455.5 secs

     total energy              =   -2875.16603292 Ry
     Harris-Foulkes estimate   =   -2875.21753851 Ry
     estimated scf accuracy    <       0.12079926 Ry

     iteration #  7     ecut=   100.00 Ry     beta=0.50
     Davidson diagonalization with overlap
     ethr =  2.22E-05,  avg # of iterations =  5.0

     total cpu time spent up to now is     1709.2 secs

     total energy              =   -2875.21856000 Ry
     Harris-Foulkes estimate   =   -2875.21617765 Ry
     estimated scf accuracy    <       0.00842140 Ry

     iteration #  8     ecut=   100.00 Ry     beta=0.50
     Davidson diagonalization with overlap
     ethr =  1.55E-06,  avg # of iterations =  6.5

     total cpu time spent up to now is     1939.8 secs

     total energy              =   -2875.21122851 Ry
     Harris-Foulkes estimate   =   -2875.22125202 Ry
     estimated scf accuracy    <       0.02226831 Ry

     iteration #  9     ecut=   100.00 Ry     beta=0.50
     Davidson diagonalization with overlap
     ethr =  1.55E-06,  avg # of iterations =  5.0

     total cpu time spent up to now is     2155.0 secs

     total energy              =   -2875.21402918 Ry
     Harris-Foulkes estimate   =   -2875.21431232 Ry
     estimated scf accuracy    <       0.00059630 Ry

     iteration # 10     ecut=   100.00 Ry     beta=0.50
     Davidson diagonalization with overlap
     ethr =  1.10E-07,  avg # of iterations =  5.0

     total cpu time spent up to now is     2359.7 secs

     total energy              =   -2875.21420893 Ry
     Harris-Foulkes estimate   =   -2875.21421896 Ry
     estimated scf accuracy    <       0.00002633 Ry

     iteration # 11     ecut=   100.00 Ry     beta=0.50
     Davidson diagonalization with overlap
     ethr =  4.84E-09,  avg # of iterations =  4.2

     total cpu time spent up to now is     2658.5 secs

     total energy              =   -2875.21423647 Ry
     Harris-Foulkes estimate   =   -2875.21426838 Ry
     estimated scf accuracy    <       0.00007183 Ry

     iteration # 12     ecut=   100.00 Ry     beta=0.50
     Davidson diagonalization with overlap
     ethr =  4.84E-09,  avg # of iterations =  6.2

     total cpu time spent up to now is     2880.2 secs

     total energy              =   -2875.21424486 Ry
     Harris-Foulkes estimate   =   -2875.21424635 Ry
     estimated scf accuracy    <       0.00000247 Ry

     iteration # 13     ecut=   100.00 Ry     beta=0.50
     Davidson diagonalization with overlap
     ethr =  4.54E-10,  avg # of iterations =  4.0

     total cpu time spent up to now is     3155.5 secs

     total energy              =   -2875.21424611 Ry
     Harris-Foulkes estimate   =   -2875.21424658 Ry
     estimated scf accuracy    <       0.00000126 Ry

     iteration # 14     ecut=   100.00 Ry     beta=0.50
     Davidson diagonalization with overlap
     ethr =  2.31E-10,  avg # of iterations =  1.0

     total cpu time spent up to now is     3291.4 secs

     total energy              =   -2875.21424592 Ry
     Harris-Foulkes estimate   =   -2875.21424615 Ry
     estimated scf accuracy    <       0.00000050 Ry

     iteration # 15     ecut=   100.00 Ry     beta=0.50
     Davidson diagonalization with overlap
     ethr =  9.26E-11,  avg # of iterations =  4.0

     total cpu time spent up to now is     3549.9 secs

     total energy              =   -2875.21424618 Ry
     Harris-Foulkes estimate   =   -2875.21424620 Ry
     estimated scf accuracy    <       0.00000007 Ry

     iteration # 16     ecut=   100.00 Ry     beta=0.50
     Davidson diagonalization with overlap
     ethr =  1.28E-11,  avg # of iterations =  1.0

     total cpu time spent up to now is     3686.0 secs

     total energy              =   -2875.21424617 Ry
     Harris-Foulkes estimate   =   -2875.21424618 Ry
     estimated scf accuracy    <       0.00000003 Ry

     iteration # 17     ecut=   100.00 Ry     beta=0.50
     Davidson diagonalization with overlap
     ethr =  5.55E-12,  avg # of iterations =  4.0

     total cpu time spent up to now is     3940.6 secs

     End of self-consistent calculation

          k = 0.0000 0.0000 0.0000 (163503 PWs)   bands (ev):

   -19.8049 -19.7754 -19.7005 -19.6988 -19.6885 -19.6403 -19.6381 -19.6300
   -19.5257 -19.4897 -19.4417 -19.4162 -19.4120 -19.3983 -19.3959 -19.3955
   -19.2502 -19.2314 -19.2204 -19.2135 -19.2007 -19.1895 -19.1863 -19.1669
   -19.0659 -19.0443 -19.0381 -19.0305 -19.0297 -19.0277 -19.0204 -19.0048
   -16.4299 -16.4180 -16.4125 -16.4080 -16.3971 -16.3928 -16.2970 -16.2741
   -16.1225 -16.1029 -16.0828 -16.0567 -16.0561 -16.0413 -15.9790 -15.9672
   -13.4077 -13.3976 -13.3877 -13.3874 -13.3774 -13.3762 -13.3746 -13.3646
   -11.8077 -11.8010 -11.7831 -11.7822 -11.7783 -11.7741 -11.7541 -11.7535
    -9.2725  -9.2438  -9.1873  -9.1661  -9.1640  -9.1593  -9.1530  -9.1343
    -9.0812  -9.0700  -9.0665  -9.0442  -9.0419  -9.0028  -8.9963  -8.9656
    -8.6843  -8.6183  -8.6107  -8.5968  -8.5835  -8.5297  -8.5165  -8.5157
    -8.3463  -8.2955  -8.2885  -8.2789  -8.2621  -8.2614  -8.1680  -8.1289
    -6.7297  -6.6630  -6.6283  -6.6036  -6.5705  -6.5169  -6.4716  -6.4292
    -5.4296  -5.4267  -5.4209  -5.4105  -5.3824  -5.3254  -5.3149  -5.3111
    -5.2564  -5.2313  -5.2195  -5.2056  -5.0964  -5.0874  -5.0325  -5.0160
    -4.9953  -4.9186  -4.9166  -4.9112  -4.9078  -4.8866  -4.8352  -4.8156
    -4.7377  -4.7336  -4.6855  -4.6396  -4.5825  -4.4781  -4.4451  -4.3490
    -4.3436  -4.3351  -4.3150  -4.2229  -4.1981  -4.1842  -4.1682  -4.1500
    -4.1321  -4.0212  -3.9935  -3.9748  -3.8755  -3.8497  -3.8191  -3.8180
    -3.8011  -3.7897  -3.7805  -3.7732  -3.7224  -3.6762  -3.6116  -3.5594
    -3.5590  -3.5241  -3.5113  -3.4952  -3.4268  -3.4231  -3.4064  -3.3432
    -3.3341  -3.1956  -3.1904  -3.1384  -3.1273  -3.1223  -3.0878  -3.0642
    -2.9272  -2.9054  -2.8840  -2.8721  -2.8645  -2.8564  -2.7806  -2.7452
    -2.3793  -2.3502  -2.3358  -2.2882  -2.2791  -2.2600  -2.2282  -2.2007
    -2.1530  -2.1180  -2.0844  -2.0099  -1.9957  -1.9927  -1.9903  -1.9717
    -1.9669  -1.9394  -1.9355  -1.9125  -1.9035  -1.8993  -1.8868  -1.8815
    -1.8580  -1.8125  -1.7872  -1.7828  -1.7738  -1.7295  -1.6703  -1.5839
    -1.4950  -1.4761  -1.4388  -1.4312  -1.4103  -1.4001  -1.2962  -1.2614
    -0.2066  -0.1365  -0.1362  -0.1111  -0.0312  -0.0208   0.0489   0.0698
     0.1576   0.1676   0.2251   0.3025   0.3101   0.3330   0.3378   0.3455
     0.3550   0.4272   0.4354   0.4376   0.4720   0.4816   0.5004   0.5433
     0.6488   0.6558   0.6758   0.7628   0.7661   0.7793   0.7831   0.8163
     0.8212   0.8631   0.9042   0.9179   0.9574   0.9787   0.9787   1.0342
     1.0587   1.1502   1.1536   1.1744   1.2139   1.2331   1.2703   1.2878
     4.5640   4.5663   4.6895   4.6947   4.7053   4.7209   4.7510   4.7517
     5.5703   5.6008   5.6323   5.6540   5.6750   5.7284   5.7609   5.8234
     6.1262   6.1538   6.1573   6.1727   6.2877   6.3085   6.3403   6.3541
     7.2808   7.4641   7.4706   7.5518   7.6139   7.6703   7.6719   7.6845
     7.7705   7.8452   8.0574   8.3727   8.4211   8.4512   8.5041   8.5980
     8.9509   8.9619   9.0875   9.2423   9.3114   9.4244   9.4258   9.4489
     9.5641   9.7327   9.7417   9.8097   9.8482   9.9864

          k = 0.0000-0.2648 0.0000 (163644 PWs)   bands (ev):

   -19.7651 -19.7651 -19.7405 -19.7405 -19.6690 -19.6690 -19.6310 -19.6310
   -19.4616 -19.4616 -19.4357 -19.4357 -19.4209 -19.4209 -19.4006 -19.4006
   -19.2464 -19.2464 -19.2146 -19.2146 -19.1971 -19.1971 -19.1735 -19.1735
   -19.0566 -19.0566 -19.0315 -19.0315 -19.0309 -19.0309 -19.0109 -19.0109
   -16.4193 -16.4193 -16.4031 -16.4031 -16.3707 -16.3707 -16.3496 -16.3496
   -16.0692 -16.0692 -16.0485 -16.0485 -16.0368 -16.0368 -16.0218 -16.0218
   -13.3966 -13.3966 -13.3953 -13.3953 -13.3725 -13.3725 -13.3721 -13.3721
   -11.8061 -11.8061 -11.7828 -11.7828 -11.7751 -11.7751 -11.7537 -11.7537
    -9.1975  -9.1975  -9.1905  -9.1905  -9.1747  -9.1747  -9.1732  -9.1732
    -9.1011  -9.1011  -9.0422  -9.0422  -9.0354  -9.0354  -8.9981  -8.9981
    -8.6042  -8.6042  -8.6011  -8.6011  -8.5344  -8.5344  -8.5253  -8.5253
    -8.2970  -8.2970  -8.2526  -8.2526  -8.2521  -8.2521  -8.2319  -8.2319
    -6.6249  -6.6249  -6.6173  -6.6173  -6.5772  -6.5772  -6.5710  -6.5710
    -5.3983  -5.3983  -5.3782  -5.3782  -5.3471  -5.3471  -5.3301  -5.3301
    -5.1189  -5.1189  -5.0572  -5.0572  -5.0316  -5.0316  -5.0225  -5.0225
    -4.9990  -4.9990  -4.9759  -4.9759  -4.8626  -4.8626  -4.8246  -4.8246
    -4.8108  -4.8108  -4.6453  -4.6453  -4.5885  -4.5885  -4.4705  -4.4705
    -4.3938  -4.3938  -4.3135  -4.3135  -4.2716  -4.2716  -4.2401  -4.2401
    -4.1294  -4.1294  -3.9310  -3.9310  -3.9014  -3.9014  -3.8774  -3.8774
    -3.8161  -3.8161  -3.7146  -3.7146  -3.6867  -3.6867  -3.5195  -3.5195
    -3.4358  -3.4358  -3.4295  -3.4295  -3.3100  -3.3100  -3.2805  -3.2805
    -3.2731  -3.2731  -3.2152  -3.2152  -3.2078  -3.2078  -3.0245  -3.0245
    -2.9625  -2.9625  -2.9401  -2.9401  -2.8353  -2.8353  -2.7886  -2.7886
    -2.3480  -2.3480  -2.3293  -2.3293  -2.2857  -2.2857  -2.1880  -2.1880
    -2.1793  -2.1793  -2.0649  -2.0649  -2.0010  -2.0010  -1.9826  -1.9826
    -1.9438  -1.9438  -1.9173  -1.9173  -1.9160  -1.9160  -1.8584  -1.8584
    -1.8325  -1.8325  -1.7650  -1.7650  -1.7503  -1.7503  -1.6461  -1.6461
    -1.4682  -1.4682  -1.4197  -1.4197  -1.4185  -1.4185  -1.2769  -1.2769
    -0.1728  -0.1728  -0.1148  -0.1148  -0.0284  -0.0284   0.0508   0.0508
     0.1647   0.1647   0.2901   0.2901   0.3058   0.3058   0.3229   0.3229
     0.3373   0.3373   0.4552   0.4552   0.5002   0.5002   0.5328   0.5328
     0.6668   0.6668   0.7040   0.7040   0.7820   0.7820   0.7945   0.7945
     0.8533   0.8533   0.8592   0.8592   0.9779   0.9779   0.9939   0.9939
     1.1547   1.1547   1.1739   1.1739   1.2361   1.2361   1.2462   1.2462
     4.6244   4.6244   4.6318   4.6318   4.7280   4.7280   4.7290   4.7290
     5.6223   5.6223   5.6774   5.6774   5.6848   5.6848   5.7494   5.7494
     6.1242   6.1242   6.2026   6.2026   6.2582   6.2582   6.3606   6.3606
     7.4676   7.4676   7.5092   7.5092   7.6386   7.6386   7.6763   7.6763
     7.8239   7.8239   8.0598   8.0598   8.2554   8.2554   8.6217   8.6217
     9.1864   9.1864   9.2391   9.2391   9.4258   9.4258   9.4505   9.4505
     9.5685   9.5685   9.8494   9.8494   9.9399   9.9399

          k = 0.3333 0.0000 0.0000 (163508 PWs)   bands (ev):

   -19.7631 -19.7376 -19.6893 -19.6858 -19.6803 -19.6781 -19.6625 -19.6476
   -19.4971 -19.4702 -19.4386 -19.4336 -19.4186 -19.4172 -19.4056 -19.4008
   -19.2389 -19.2202 -19.2159 -19.2117 -19.2094 -19.2053 -19.2011 -19.1840
   -19.0554 -19.0381 -19.0334 -19.0333 -19.0324 -19.0305 -19.0304 -19.0141
   -16.4169 -16.4144 -16.4058 -16.3969 -16.3831 -16.3736 -16.3275 -16.3070
   -16.1094 -16.0899 -16.0794 -16.0712 -16.0430 -16.0291 -16.0033 -15.9878
   -13.4152 -13.4086 -13.4058 -13.4008 -13.3815 -13.3746 -13.3727 -13.3682
   -11.7955 -11.7904 -11.7831 -11.7813 -11.7808 -11.7763 -11.7696 -11.7658
    -9.2422  -9.2355  -9.1913  -9.1783  -9.1677  -9.1518  -9.1433  -9.1334
    -9.0628  -9.0551  -9.0461  -9.0288  -9.0076  -9.0042  -8.9984  -8.9729
    -8.6354  -8.5895  -8.5832  -8.5807  -8.5613  -8.5523  -8.5393  -8.5302
    -8.3518  -8.3506  -8.3428  -8.3291  -8.1974  -8.1895  -8.1693  -8.1449
    -6.7191  -6.6980  -6.6864  -6.6844  -6.4547  -6.4385  -6.4230  -6.4146
    -5.4002  -5.3984  -5.3807  -5.3747  -5.3716  -5.3690  -5.2970  -5.2895
    -5.2567  -5.2041  -5.1865  -5.1850  -5.1065  -5.0844  -5.0250  -4.9965
    -4.9828  -4.9690  -4.9667  -4.9153  -4.8377  -4.8196  -4.8010  -4.7711
    -4.7684  -4.7624  -4.6987  -4.6519  -4.5519  -4.5338  -4.5153  -4.4046
    -4.3908  -4.3737  -4.3723  -4.2947  -4.2851  -4.2335  -4.2153  -4.1350
    -4.0983  -4.0725  -4.0141  -3.9669  -3.9632  -3.8418  -3.8315  -3.8270
    -3.8039  -3.7599  -3.7564  -3.7191  -3.7070  -3.6351  -3.5626  -3.5491
    -3.5287  -3.4921  -3.4782  -3.4326  -3.3732  -3.3316  -3.3222  -3.2730
    -3.2715  -3.2057  -3.1582  -3.1201  -3.1052  -3.0995  -3.0815  -3.0718
    -2.9821  -2.9678  -2.9493  -2.8920  -2.8901  -2.8723  -2.8515  -2.8404
    -2.3431  -2.3148  -2.3122  -2.2858  -2.2707  -2.2462  -2.2462  -2.2426
    -2.1637  -2.1453  -2.1143  -2.0754  -2.0559  -2.0289  -2.0134  -1.9534
    -1.9477  -1.9283  -1.9186  -1.9167  -1.9119  -1.8906  -1.8860  -1.8799
    -1.8764  -1.8541  -1.8310  -1.8130  -1.7853  -1.7802  -1.7509  -1.7438
    -1.4505  -1.4493  -1.4365  -1.4257  -1.4168  -1.4140  -1.3431  -1.3159
    -0.1487  -0.1205  -0.0810  -0.0709   0.0017   0.0209   0.0836   0.1053
     0.1119   0.1593   0.2015   0.2192   0.2931   0.3326   0.3566   0.3652
     0.3810   0.4171   0.4626   0.4786   0.5296   0.5525   0.5710   0.5844
     0.6027   0.6176   0.6178   0.6702   0.7759   0.7918   0.7956   0.8192
     0.8498   0.8757   0.8896   0.8988   0.9409   0.9694   0.9903   0.9983
     1.1100   1.1554   1.1569   1.1856   1.1981   1.2450   1.2561   1.2612
     4.5686   4.5740   4.6131   4.6317   4.6924   4.7144   4.7312   4.7433
     5.5795   5.5951   5.6071   5.6099   5.7020   5.7510   5.7580   5.7812
     6.1170   6.1172   6.1217   6.1749   6.2351   6.2498   6.2617   6.3078
     7.3773   7.5059   7.5143   7.5237   7.5995   7.6776   7.7355   7.7700
     7.9316   8.1065   8.4231   8.5924   8.5979   8.6491   8.7921   8.7959
     9.0299   9.0625   9.1096   9.1179   9.2269   9.2822   9.3110   9.3687
     9.4135   9.4465   9.5789   9.5996   9.6753   9.7904

          k = 0.3333-0.2648 0.0000 (163600 PWs)   bands (ev):

   -19.7322 -19.7322 -19.7108 -19.7108 -19.6820 -19.6820 -19.6562 -19.6562
   -19.4530 -19.4530 -19.4337 -19.4337 -19.4314 -19.4314 -19.4148 -19.4148
   -19.2323 -19.2323 -19.2112 -19.2112 -19.2083 -19.2083 -19.1895 -19.1895
   -19.0478 -19.0478 -19.0357 -19.0357 -19.0307 -19.0307 -19.0203 -19.0203
   -16.4040 -16.4040 -16.3860 -16.3860 -16.3798 -16.3798 -16.3591 -16.3591
   -16.0655 -16.0655 -16.0493 -16.0493 -16.0444 -16.0444 -16.0312 -16.0312
   -13.4011 -13.4011 -13.4006 -13.4006 -13.3814 -13.3814 -13.3811 -13.3811
   -11.7940 -11.7940 -11.7814 -11.7814 -11.7778 -11.7778 -11.7676 -11.7676
    -9.1917  -9.1917  -9.1891  -9.1891  -9.1820  -9.1820  -9.1741  -9.1741
    -9.0551  -9.0551  -9.0316  -9.0316  -9.0105  -9.0105  -8.9937  -8.9937
    -8.5911  -8.5911  -8.5845  -8.5845  -8.5559  -8.5559  -8.5477  -8.5477
    -8.2835  -8.2835  -8.2622  -8.2622  -8.2440  -8.2440  -8.2356  -8.2356
    -6.6136  -6.6136  -6.6072  -6.6072  -6.5623  -6.5623  -6.5573  -6.5573
    -5.3753  -5.3753  -5.3599  -5.3599  -5.3587  -5.3587  -5.3374  -5.3374
    -5.1385  -5.1385  -5.0724  -5.0724  -5.0689  -5.0689  -4.9731  -4.9731
    -4.9297  -4.9297  -4.9018  -4.9018  -4.8466  -4.8466  -4.8188  -4.8188
    -4.7992  -4.7992  -4.6739  -4.6739  -4.6501  -4.6501  -4.5751  -4.5751
    -4.3941  -4.3941  -4.3284  -4.3284  -4.3113  -4.3113  -4.2459  -4.2459
    -4.0280  -4.0280  -3.9973  -3.9973  -3.8558  -3.8558  -3.8405  -3.8405
    -3.7625  -3.7625  -3.6958  -3.6958  -3.6637  -3.6637  -3.5427  -3.5427
    -3.4905  -3.4905  -3.4606  -3.4606  -3.3555  -3.3555  -3.3258  -3.3258
    -3.2213  -3.2213  -3.1745  -3.1745  -3.1563  -3.1563  -3.0451  -3.0451
    -2.9445  -2.9445  -2.9089  -2.9089  -2.8916  -2.8916  -2.8529  -2.8529
    -2.3295  -2.3295  -2.2938  -2.2938  -2.2502  -2.2502  -2.2449  -2.2449
    -2.1706  -2.1706  -2.0542  -2.0542  -2.0483  -2.0483  -2.0050  -2.0050
    -1.9356  -1.9356  -1.9190  -1.9190  -1.8896  -1.8896  -1.8673  -1.8673
    -1.8615  -1.8615  -1.8134  -1.8134  -1.8019  -1.8019  -1.7511  -1.7511
    -1.4435  -1.4435  -1.4398  -1.4398  -1.4272  -1.4272  -1.3286  -1.3286
    -0.1275  -0.1275  -0.0691  -0.0691  -0.0270  -0.0270   0.1005   0.1005
     0.1496   0.1496   0.2630   0.2630   0.2892   0.2892   0.3243   0.3243
     0.4289   0.4289   0.4509   0.4509   0.5006   0.5006   0.5439   0.5439
     0.7013   0.7013   0.7445   0.7445   0.7494   0.7494   0.7898   0.7898
     0.8422   0.8422   0.8494   0.8494   0.9516   0.9516   0.9624   0.9624
     1.1832   1.1832   1.1840   1.1840   1.2244   1.2244   1.2294   1.2294
     4.6243   4.6243   4.6254   4.6254   4.6844   4.6844   4.6845   4.6845
     5.6450   5.6450   5.6727   5.6727   5.6881   5.6881   5.7167   5.7167
     6.1231   6.1231   6.1611   6.1611   6.2193   6.2193   6.2710   6.2710
     7.4919   7.4919   7.5066   7.5066   7.6652   7.6652   7.6819   7.6819
     8.1231   8.1231   8.3045   8.3045   8.6102   8.6102   8.7649   8.7649
     9.1736   9.1736   9.1788   9.1788   9.2608   9.2608   9.2924   9.2924
     9.6080   9.6080   9.6935   9.6935   9.8043   9.8043

     highest occupied, lowest unoccupied level (ev):     1.2878    4.5640

!    total energy              =   -2875.21424618 Ry
     Harris-Foulkes estimate   =   -2875.21424618 Ry
     estimated scf accuracy    <          3.3E-09 Ry

     total all-electron energy =    -10893.885092 Ry

     The total energy is the sum of the following terms:

     one-electron contribution =   -1356.61404571 Ry
     hartree contribution      =     908.46729251 Ry
     xc contribution           =    -590.68021701 Ry
     ewald contribution        =   -1026.16224466 Ry
     Dispersion Correction     =      -0.76805460 Ry
     one-center paw contrib.   =    -809.45697672 Ry

     convergence has been achieved in  17 iterations

     Forces acting on atoms (cartesian axes, Ry/au):

     atom    1 type  4   force =     0.00021900    0.00072778   -0.00002298
     atom    2 type  4   force =    -0.00021900   -0.00072778   -0.00002298
     atom    3 type  4   force =    -0.00021900    0.00072778    0.00002298
     atom    4 type  4   force =     0.00021900   -0.00072778    0.00002298
     atom    5 type  4   force =    -0.00021900   -0.00072778    0.00002298
     atom    6 type  4   force =     0.00021900    0.00072778    0.00002298
     atom    7 type  4   force =     0.00021900   -0.00072778   -0.00002298
     atom    8 type  4   force =    -0.00021900    0.00072778   -0.00002298
     atom    9 type  4   force =    -0.00101665   -0.00009582   -0.00220921
     atom   10 type  4   force =     0.00101665    0.00009582   -0.00220921
     atom   11 type  4   force =     0.00101665   -0.00009582    0.00220921
     atom   12 type  4   force =    -0.00101665    0.00009582    0.00220921
     atom   13 type  4   force =     0.00101665    0.00009582    0.00220921
     atom   14 type  4   force =    -0.00101665   -0.00009582    0.00220921
     atom   15 type  4   force =    -0.00101665    0.00009582   -0.00220921
     atom   16 type  4   force =     0.00101665   -0.00009582   -0.00220921
     atom   17 type  4   force =     0.00015920   -0.00068448    0.00062852
     atom   18 type  4   force =    -0.00015920    0.00068448    0.00062852
     atom   19 type  4   force =    -0.00015920   -0.00068448   -0.00062852
     atom   20 type  4   force =     0.00015920    0.00068448   -0.00062852
     atom   21 type  4   force =    -0.00015920    0.00068448   -0.00062852
     atom   22 type  4   force =     0.00015920   -0.00068448   -0.00062852
     atom   23 type  4   force =     0.00015920    0.00068448    0.00062852
     atom   24 type  4   force =    -0.00015920   -0.00068448    0.00062852
     atom   25 type  4   force =    -0.00026918   -0.00135425    0.00117967
     atom   26 type  4   force =     0.00026918    0.00135425    0.00117967
     atom   27 type  4   force =     0.00026918   -0.00135425   -0.00117967
     atom   28 type  4   force =    -0.00026918    0.00135425   -0.00117967
     atom   29 type  4   force =     0.00026918    0.00135425   -0.00117967
     atom   30 type  4   force =    -0.00026918   -0.00135425   -0.00117967
     atom   31 type  4   force =    -0.00026918    0.00135425    0.00117967
     atom   32 type  4   force =     0.00026918   -0.00135425    0.00117967
     atom   33 type  2   force =     0.00087262    0.00066729   -0.00109189
     atom   34 type  2   force =    -0.00087262   -0.00066729   -0.00109189
     atom   35 type  2   force =    -0.00087262    0.00066729    0.00109189
     atom   36 type  2   force =     0.00087262   -0.00066729    0.00109189
     atom   37 type  2   force =    -0.00087262   -0.00066729    0.00109189
     atom   38 type  2   force =     0.00087262    0.00066729    0.00109189
     atom   39 type  2   force =     0.00087262   -0.00066729   -0.00109189
     atom   40 type  2   force =    -0.00087262    0.00066729   -0.00109189
     atom   41 type  2   force =     0.00040754   -0.00061287   -0.00006733
     atom   42 type  2   force =    -0.00040754    0.00061287   -0.00006733
     atom   43 type  2   force =    -0.00040754   -0.00061287    0.00006733
     atom   44 type  2   force =     0.00040754    0.00061287    0.00006733
     atom   45 type  2   force =    -0.00040754    0.00061287    0.00006733
     atom   46 type  2   force =     0.00040754   -0.00061287    0.00006733
     atom   47 type  2   force =     0.00040754    0.00061287   -0.00006733
     atom   48 type  2   force =    -0.00040754   -0.00061287   -0.00006733
     atom   49 type  1   force =    -0.00053498   -0.00103834    0.00041495
     atom   50 type  1   force =     0.00053498    0.00103834    0.00041495
     atom   51 type  1   force =     0.00053498   -0.00103834   -0.00041495
     atom   52 type  1   force =    -0.00053498    0.00103834   -0.00041495
     atom   53 type  1   force =     0.00053498    0.00103834   -0.00041495
     atom   54 type  1   force =    -0.00053498   -0.00103834   -0.00041495
     atom   55 type  1   force =    -0.00053498    0.00103834    0.00041495
     atom   56 type  1   force =     0.00053498   -0.00103834    0.00041495
     atom   57 type  1   force =     0.00082147    0.00017077    0.00010860
     atom   58 type  1   force =    -0.00082147   -0.00017077    0.00010860
     atom   59 type  1   force =    -0.00082147    0.00017077   -0.00010860
     atom   60 type  1   force =     0.00082147   -0.00017077   -0.00010860
     atom   61 type  1   force =    -0.00082147   -0.00017077   -0.00010860
     atom   62 type  1   force =     0.00082147    0.00017077   -0.00010860
     atom   63 type  1   force =     0.00082147   -0.00017077    0.00010860
     atom   64 type  1   force =    -0.00082147    0.00017077    0.00010860
     atom   65 type  1   force =     0.00058566    0.00046525    0.00198593
     atom   66 type  1   force =    -0.00058566   -0.00046525    0.00198593
     atom   67 type  1   force =    -0.00058566    0.00046525   -0.00198593
     atom   68 type  1   force =     0.00058566   -0.00046525   -0.00198593
     atom   69 type  1   force =    -0.00058566   -0.00046525   -0.00198593
     atom   70 type  1   force =     0.00058566    0.00046525   -0.00198593
     atom   71 type  1   force =     0.00058566   -0.00046525    0.00198593
     atom   72 type  1   force =    -0.00058566    0.00046525    0.00198593
     atom   73 type  1   force =     0.00040712   -0.00227858    0.00041745
     atom   74 type  1   force =    -0.00040712    0.00227858    0.00041745
     atom   75 type  1   force =    -0.00040712   -0.00227858   -0.00041745
     atom   76 type  1   force =     0.00040712    0.00227858   -0.00041745
     atom   77 type  1   force =    -0.00040712    0.00227858   -0.00041745
     atom   78 type  1   force =     0.00040712   -0.00227858   -0.00041745
     atom   79 type  1   force =     0.00040712    0.00227858    0.00041745
     atom   80 type  1   force =    -0.00040712   -0.00227858    0.00041745
     atom   81 type  1   force =    -0.00078125   -0.00099913   -0.00161006
     atom   82 type  1   force =     0.00078125    0.00099913   -0.00161006
     atom   83 type  1   force =     0.00078125   -0.00099913    0.00161006
     atom   84 type  1   force =    -0.00078125    0.00099913    0.00161006
     atom   85 type  1   force =     0.00078125    0.00099913    0.00161006
     atom   86 type  1   force =    -0.00078125   -0.00099913    0.00161006
     atom   87 type  1   force =    -0.00078125    0.00099913   -0.00161006
     atom   88 type  1   force =     0.00078125   -0.00099913   -0.00161006
     atom   89 type  1   force =     0.00035146    0.00242812   -0.00121338
     atom   90 type  1   force =    -0.00035146   -0.00242812   -0.00121338
     atom   91 type  1   force =    -0.00035146    0.00242812    0.00121338
     atom   92 type  1   force =     0.00035146   -0.00242812    0.00121338
     atom   93 type  1   force =    -0.00035146   -0.00242812    0.00121338
     atom   94 type  1   force =     0.00035146    0.00242812    0.00121338
     atom   95 type  1   force =     0.00035146   -0.00242812   -0.00121338
     atom   96 type  1   force =    -0.00035146    0.00242812   -0.00121338
     atom   97 type  1   force =    -0.00107957    0.00220857   -0.00142154
     atom   98 type  1   force =     0.00107957   -0.00220857   -0.00142154
     atom   99 type  1   force =     0.00107957    0.00220857    0.00142154
     atom  100 type  1   force =    -0.00107957   -0.00220857    0.00142154
     atom  101 type  1   force =     0.00107957   -0.00220857    0.00142154
     atom  102 type  1   force =    -0.00107957    0.00220857    0.00142154
     atom  103 type  1   force =    -0.00107957   -0.00220857   -0.00142154
     atom  104 type  1   force =     0.00107957    0.00220857   -0.00142154
     atom  105 type  3   force =    -0.00033418    0.00000160   -0.00026812
     atom  106 type  3   force =     0.00033418   -0.00000160   -0.00026812
     atom  107 type  3   force =     0.00033418    0.00000160    0.00026812
     atom  108 type  3   force =    -0.00033418   -0.00000160    0.00026812
     atom  109 type  3   force =     0.00033418   -0.00000160    0.00026812
     atom  110 type  3   force =    -0.00033418    0.00000160    0.00026812
     atom  111 type  3   force =    -0.00033418   -0.00000160   -0.00026812
     atom  112 type  3   force =     0.00033418    0.00000160   -0.00026812
     atom  113 type  3   force =     0.00009225   -0.00039499    0.00023974
     atom  114 type  3   force =    -0.00009225    0.00039499    0.00023974
     atom  115 type  3   force =    -0.00009225   -0.00039499   -0.00023974
     atom  116 type  3   force =     0.00009225    0.00039499   -0.00023974
     atom  117 type  3   force =    -0.00009225    0.00039499   -0.00023974
     atom  118 type  3   force =     0.00009225   -0.00039499   -0.00023974
     atom  119 type  3   force =     0.00009225    0.00039499    0.00023974
     atom  120 type  3   force =    -0.00009225   -0.00039499    0.00023974
     atom  121 type  3   force =    -0.00096068    0.00001655   -0.00045130
     atom  122 type  3   force =     0.00096068   -0.00001655   -0.00045130
     atom  123 type  3   force =     0.00096068    0.00001655    0.00045130
     atom  124 type  3   force =    -0.00096068   -0.00001655    0.00045130
     atom  125 type  3   force =     0.00096068   -0.00001655    0.00045130
     atom  126 type  3   force =    -0.00096068    0.00001655    0.00045130
     atom  127 type  3   force =    -0.00096068   -0.00001655   -0.00045130
     atom  128 type  3   force =     0.00096068    0.00001655   -0.00045130
     atom  129 type  3   force =    -0.00071527    0.00074421    0.00046315
     atom  130 type  3   force =     0.00071527   -0.00074421    0.00046315
     atom  131 type  3   force =     0.00071527    0.00074421   -0.00046315
     atom  132 type  3   force =    -0.00071527   -0.00074421   -0.00046315
     atom  133 type  3   force =     0.00071527   -0.00074421   -0.00046315
     atom  134 type  3   force =    -0.00071527    0.00074421   -0.00046315
     atom  135 type  3   force =    -0.00071527   -0.00074421    0.00046315
     atom  136 type  3   force =     0.00071527    0.00074421    0.00046315
     atom  137 type  3   force =     0.00112256   -0.00066534    0.00082816
     atom  138 type  3   force =    -0.00112256    0.00066534    0.00082816
     atom  139 type  3   force =    -0.00112256   -0.00066534   -0.00082816
     atom  140 type  3   force =     0.00112256    0.00066534   -0.00082816
     atom  141 type  3   force =    -0.00112256    0.00066534   -0.00082816
     atom  142 type  3   force =     0.00112256   -0.00066534   -0.00082816
     atom  143 type  3   force =     0.00112256    0.00066534    0.00082816
     atom  144 type  3   force =    -0.00112256   -0.00066534    0.00082816
     atom  145 type  3   force =     0.00000379   -0.00044251    0.00046427
     atom  146 type  3   force =    -0.00000379    0.00044251    0.00046427
     atom  147 type  3   force =    -0.00000379   -0.00044251   -0.00046427
     atom  148 type  3   force =     0.00000379    0.00044251   -0.00046427
     atom  149 type  3   force =    -0.00000379    0.00044251   -0.00046427
     atom  150 type  3   force =     0.00000379   -0.00044251   -0.00046427
     atom  151 type  3   force =     0.00000379    0.00044251    0.00046427
     atom  152 type  3   force =    -0.00000379   -0.00044251    0.00046427

     Total force =     0.020256     Total SCF correction =     0.000088


     Computing stress (Cartesian axis) and pressure

          total   stress  (Ry/bohr**3)                   (kbar)     P=   -3.05
  -0.00002044   0.00000000   0.00000000         -3.01      0.00      0.00
   0.00000000  -0.00002909   0.00000000          0.00     -4.28      0.00
   0.00000000   0.00000000  -0.00001259          0.00      0.00     -1.85


     Writing output data file scf.save
 
     init_run     :     85.54s CPU     88.03s WALL (       1 calls)
     electrons    :   3751.48s CPU   3852.13s WALL (       1 calls)
     forces       :     44.80s CPU     45.23s WALL (       1 calls)
     stress       :    229.19s CPU    229.72s WALL (       1 calls)

     Called by init_run:
     wfcinit      :     76.33s CPU     78.60s WALL (       1 calls)
     potinit      :      3.26s CPU      3.30s WALL (       1 calls)

     Called by electrons:
     c_bands      :   3439.51s CPU   3523.80s WALL (      17 calls)
     sum_band     :    287.40s CPU    301.02s WALL (      17 calls)
     v_of_rho     :      3.58s CPU      3.88s WALL (      18 calls)
     newd         :      9.32s CPU     11.79s WALL (      18 calls)
     PAW_pot      :     10.67s CPU     10.67s WALL (      18 calls)
     mix_rho      :      0.99s CPU      1.03s WALL (      17 calls)

     Called by c_bands:
     init_us_2    :     10.13s CPU     10.20s WALL (     148 calls)
     cegterg      :   3393.23s CPU   3477.46s WALL (      68 calls)

     Called by sum_band:
     sum_band:bec :      0.15s CPU      0.15s WALL (      68 calls)
     addusdens    :      9.32s CPU     11.71s WALL (      17 calls)

     Called by *egterg:
     h_psi        :   1589.69s CPU   1655.85s WALL (     349 calls)
     s_psi        :    450.26s CPU    450.40s WALL (     349 calls)
     g_psi        :      5.95s CPU      5.96s WALL (     277 calls)
     cdiaghg      :    235.81s CPU    235.85s WALL (     345 calls)

     Called by h_psi:
     h_psi:pot    :   1581.40s CPU   1647.44s WALL (     349 calls)
     h_psi:calbec :    441.93s CPU    442.57s WALL (     349 calls)
     vloc_psi     :    689.62s CPU    754.81s WALL (     349 calls)
     add_vuspsi   :    449.85s CPU    450.06s WALL (     349 calls)

     General routines
     calbec       :    635.54s CPU    636.43s WALL (     437 calls)
     fft          :      2.58s CPU      3.11s WALL (     258 calls)
     fftw         :    694.65s CPU    770.46s WALL (  157548 calls)
 
     Parallel routines
     fft_scatter  :    151.08s CPU    226.33s WALL (  157806 calls)
 
     PWSCF        :     1h 8m CPU        1h11m WALL

 
   This run was terminated on:  19:25:25  14Dec2017            

=------------------------------------------------------------------------------=
   JOB DONE.
=------------------------------------------------------------------------------=
