
     Program PWSCF v.6.1 (svn rev. 13369) starts on  4Nov2017 at  6: 1:48 

     This program is part of the open-source Quantum ESPRESSO suite
     for quantum simulation of materials; please cite
         "P. Giannozzi et al., J. Phys.:Condens. Matter 21 395502 (2009);
          URL http://www.quantum-espresso.org", 
     in publications or presentations arising from this work. More details at
     http://www.quantum-espresso.org/quote

     Parallel version (MPI), running on     8 processors
     R & G space division:  proc/nbgrp/npool/nimage =       8
     Waiting for input...
     Reading input from standard input

     Current dimensions of program PWSCF are:
     Max number of different atomic species (ntypx) = 10
     Max number of k-points (npk) =  40000
     Max angular momentum in pseudopotentials (lmaxx) =  3
               file C.pbe-n-kjpaw_psl.0.1.UPF: wavefunction(s)  2P renormalized
               file N.pbe-n-kjpaw_psl.0.1.UPF: wavefunction(s)  2P renormalized
               file H.pbe-kjpaw_psl.0.1.UPF: wavefunction(s)  1S renormalized
               file O.pbe-n-kjpaw_psl.0.1.UPF: wavefunction(s)  2P renormalized

     -------------------------------------
     Parameters for Dispersion Correction:
     -------------------------------------
       atom      VdW radius       C_6     

        C          2.744         60.710
        N          2.640         42.670
        H          1.892          4.857
        O          2.536         24.284

     Subspace diagonalization in iterative solution of the eigenvalue problem:
     a serial algorithm will be used

 
     Parallelization info
     --------------------
     sticks:   dense  smooth     PW     G-vecs:    dense   smooth      PW
     Min         631     631    168                67051    67051    9312
     Max         632     632    169                67058    67058    9320
     Sum        5051    5051   1351               536431   536431   74537
 


     bravais-lattice index     =            0
     lattice parameter (alat)  =      15.5050  a.u.
     unit-cell volume          =    3971.4331 (a.u.)^3
     number of atoms/cell      =           56
     number of atomic types    =            4
     number of electrons       =       248.00
     number of Kohn-Sham states=          148
     kinetic-energy cutoff     =     100.0000  Ry
     charge density cutoff     =     400.0000  Ry
     convergence threshold     =      1.0E-08
     mixing beta               =       0.5000
     number of iterations used =            8  plain     mixing
     Exchange-correlation      =  SLA  PW   PBX  PBC ( 1  4  3  4 0 0)

     celldm(1)=  15.505014  celldm(2)=   0.000000  celldm(3)=   0.000000
     celldm(4)=   0.000000  celldm(5)=   0.000000  celldm(6)=   0.000000

     crystal axes: (cart. coord. in units of alat)
               a(1) = (   1.000000   0.000000   0.000000 )  
               a(2) = (   0.000000   0.660240   0.000000 )  
               a(3) = (  -0.007886   0.000000   1.613724 )  

     reciprocal axes: (cart. coord. in units 2 pi/alat)
               b(1) = (  1.000000  0.000000  0.004887 )  
               b(2) = (  0.000000  1.514602  0.000000 )  
               b(3) = (  0.000000  0.000000  0.619685 )  


     PseudoPot. # 1 for  C read from file:
     /scratch/ahofstet/pseudo/C.pbe-n-kjpaw_psl.0.1.UPF
     MD5 check sum: 430fe95172b1e11ef3f8ed03bac87931
     Pseudo is Projector augmented-wave + core cor, Zval =  4.0
     Generated using "atomic" code by A. Dal Corso  v.5.0.99 svn rev. 10869
     Shape of augmentation charge: BESSEL
     Using radial grid of 1073 points,  4 beta functions with: 
                l(1) =   0
                l(2) =   0
                l(3) =   1
                l(4) =   1
     Q(r) pseudized with 0 coefficients 


     PseudoPot. # 2 for  N read from file:
     /scratch/ahofstet/pseudo/N.pbe-n-kjpaw_psl.0.1.UPF
     MD5 check sum: f73187c8b701007e77325f868c9291d7
     Pseudo is Projector augmented-wave + core cor, Zval =  5.0
     Generated using "atomic" code by A. Dal Corso  v.5.0.99 svn rev. 10869
     Shape of augmentation charge: PSQ
     Using radial grid of 1085 points,  4 beta functions with: 
                l(1) =   0
                l(2) =   0
                l(3) =   1
                l(4) =   1
     Q(r) pseudized with 0 coefficients 


     PseudoPot. # 3 for  H read from file:
     /scratch/ahofstet/pseudo/H.pbe-kjpaw_psl.0.1.UPF
     MD5 check sum: 94e484f906d9e9773b2f6e52662335b2
     Pseudo is Projector augmented-wave, Zval =  1.0
     Generated using "atomic" code by A. Dal Corso  v.5.0.99 svn rev. 10869
     Shape of augmentation charge: PSQ
     Using radial grid of  929 points,  2 beta functions with: 
                l(1) =   0
                l(2) =   0
     Q(r) pseudized with 0 coefficients 


     PseudoPot. # 4 for  O read from file:
     /scratch/ahofstet/pseudo/O.pbe-n-kjpaw_psl.0.1.UPF
     MD5 check sum: 3f94a2996a3169367d6eb21d9b593f20
     Pseudo is Projector augmented-wave + core cor, Zval =  6.0
     Generated using "atomic" code by A. Dal Corso  v.5.0.99 svn rev. 10869
     Shape of augmentation charge: BESSEL
     Using radial grid of 1095 points,  4 beta functions with: 
                l(1) =   0
                l(2) =   0
                l(3) =   1
                l(4) =   1
     Q(r) pseudized with 0 coefficients 


     atomic species   valence    mass     pseudopotential
        C              4.00    12.01070      C( 1.00)
        N              5.00    14.00670      N( 1.00)
        H              1.00     1.00794      H( 1.00)
        O              6.00    15.99940      O( 1.00)

      2 Sym. Ops., with inversion, found



   Cartesian axes

     site n.     atom                  positions (alat units)
         1           N   tau(   1) = (   0.2604371   0.1007848   1.1420731  )
         2           N   tau(   2) = (   0.7277251   0.4309087   1.2785123  )
         3           N   tau(   3) = (   0.7316767   0.5594548   0.4716506  )
         4           N   tau(   4) = (   0.2643886   0.2293309   0.3352115  )
         5           C   tau(   5) = (   0.2885478   0.1192402   0.9741814  )
         6           C   tau(   6) = (   0.6996431   0.4493288   1.4464246  )
         7           C   tau(   7) = (   0.7035660   0.5409994   0.6395423  )
         8           C   tau(   8) = (   0.2924707   0.2109109   0.1672991  )
         9           N   tau(   9) = (   0.2011154   0.6536169   0.9041987  )
        10           N   tau(  10) = (   0.7870911   0.3234465   1.5163545  )
        11           N   tau(  11) = (   0.7909984   0.0066228   0.7095250  )
        12           N   tau(  12) = (   0.2050227   0.3367931   0.0973692  )
        13           C   tau(  13) = (   0.1279783   0.5500271   1.0174772  )
        14           C   tau(  14) = (   0.8602082   0.2199021   1.4030186  )
        15           C   tau(  15) = (   0.8641355   0.1102125   0.5962465  )
        16           C   tau(  16) = (   0.1319056   0.4403375   0.2107052  )
        17           N   tau(  17) = (   0.1684226   0.6203579   1.1685295  )
        18           N   tau(  18) = (   0.8197499   0.2902603   1.2520083  )
        19           N   tau(  19) = (   0.8236912   0.0398817   0.4451943  )
        20           N   tau(  20) = (   0.1723639   0.3699793   0.3617154  )
        21           C   tau(  21) = (   0.1930129   0.5654375   1.3285130  )
        22           C   tau(  22) = (   0.7951389   0.2353684   1.0920154  )
        23           C   tau(  23) = (   0.7991009   0.0948021   0.2852107  )
        24           C   tau(  24) = (   0.1969749   0.4248713   0.5217083  )
        25           N   tau(  25) = (   0.2974027   0.0191676   1.3943878  )
        26           N   tau(  26) = (   0.6907690   0.3493316   1.0262078  )
        27           N   tau(  27) = (   0.6947110   0.6410720   0.2193360  )
        28           N   tau(  28) = (   0.3013448   0.3109081   0.5875159  )
        29           C   tau(  29) = (   0.3512551   0.1347307   1.2836743  )
        30           C   tau(  30) = (   0.6369043   0.4648579   1.1369064  )
        31           C   tau(  31) = (   0.6408587   0.5255089   0.3300494  )
        32           C   tau(  32) = (   0.3552095   0.1953817   0.4768173  )
        33           O   tau(  33) = (   0.3710166   0.2250125   0.9098914  )
        34           O   tau(  34) = (   0.6171821   0.5550880   1.5107407  )
        35           O   tau(  35) = (   0.6210972   0.4352271   0.7038323  )
        36           O   tau(  36) = (   0.3749317   0.1051516   0.1029830  )
        37           O   tau(  37) = (   0.0452900   0.4307801   0.9918670  )
        38           O   tau(  38) = (   0.9429000   0.1006221   1.4286016  )
        39           O   tau(  39) = (   0.9468238   0.2294596   0.6218568  )
        40           O   tau(  40) = (   0.0492138   0.5596176   0.1851221  )
        41           O   tau(  41) = (   0.1324055   0.4452275   1.3922334  )
        42           O   tau(  42) = (   0.8557561   0.1151326   1.0283071  )
        43           O   tau(  43) = (   0.8597083   0.2150121   0.2214904  )
        44           O   tau(  44) = (   0.1363577   0.5451070   0.5854167  )
        45           O   tau(  45) = (   0.4504758   0.2421104   1.3040149  )
        46           O   tau(  46) = (   0.5376673   0.5722532   1.1165870  )
        47           O   tau(  47) = (   0.5416380   0.4181292   0.3097089  )
        48           O   tau(  48) = (   0.4544465   0.0879864   0.4971367  )
        49           H   tau(  49) = (   0.1896116   0.6301290   0.7804251  )
        50           H   tau(  50) = (   0.8064979   0.2999437   0.0263962  )
        51           H   tau(  51) = (   0.8025022   0.0301106   0.8332986  )
        52           H   tau(  52) = (   0.1856159   0.3602960   1.5873276  )
        53           H   tau(  53) = (   0.3315219   0.0259988   1.5156340  )
        54           H   tau(  54) = (   0.6566089   0.3561587   0.9049163  )
        55           H   tau(  55) = (   0.6605919   0.6342408   0.0980897  )
        56           H   tau(  56) = (   0.3355049   0.3040809   0.7088074  )

     number of k points=    14
                       cart. coord. in units 2pi/alat
        k(    1) = (   0.0000000   0.0000000   0.0000000), wk =   0.0833333
        k(    2) = (   0.0000000   0.0000000  -0.3098424), wk =   0.0833333
        k(    3) = (   0.0000000   0.3786504   0.0000000), wk =   0.1666667
        k(    4) = (   0.0000000   0.3786504  -0.3098424), wk =   0.1666667
        k(    5) = (   0.0000000  -0.7573008   0.0000000), wk =   0.0833333
        k(    6) = (   0.0000000  -0.7573008  -0.3098424), wk =   0.0833333
        k(    7) = (   0.3333333   0.0000000   0.0016290), wk =   0.1666667
        k(    8) = (   0.3333333   0.0000000  -0.3082134), wk =   0.1666667
        k(    9) = (   0.3333333   0.3786504   0.0016290), wk =   0.1666667
        k(   10) = (   0.3333333   0.3786504  -0.3082134), wk =   0.1666667
        k(   11) = (   0.3333333  -0.7573008   0.0016290), wk =   0.1666667
        k(   12) = (   0.3333333  -0.7573008  -0.3082134), wk =   0.1666667
        k(   13) = (  -0.3333333   0.3786504  -0.0016290), wk =   0.1666667
        k(   14) = (  -0.3333333   0.3786504   0.3082134), wk =   0.1666667

     Dense  grid:   536431 G-vectors     FFT dimensions: ( 100,  72, 160)

     Estimated max dynamical RAM per process >     538.00MB

     Estimated total allocated dynamical RAM >    4304.00MB

     Check: negative/imaginary core charge=   -0.000003    0.000000

     Initial potential from superposition of free atoms

     starting charge  247.99912, renormalised to  248.00000
     Starting wfc are  200 randomized atomic wfcs
     Checking if some PAW data can be deallocated... 

     total cpu time spent up to now is       33.4 secs

     per-process dynamical memory:   419.4 Mb

     Self-consistent Calculation

     iteration #  1     ecut=   100.00 Ry     beta=0.50
     Davidson diagonalization with overlap
     ethr =  1.00E-02,  avg # of iterations =  3.7

     total cpu time spent up to now is      132.7 secs

     total energy              =   -1421.05112005 Ry
     Harris-Foulkes estimate   =   -1424.85500943 Ry
     estimated scf accuracy    <       6.62838178 Ry

     iteration #  2     ecut=   100.00 Ry     beta=0.50
     Davidson diagonalization with overlap
     ethr =  2.67E-03,  avg # of iterations =  3.0

     total cpu time spent up to now is      199.5 secs

     total energy              =   -1422.27669373 Ry
     Harris-Foulkes estimate   =   -1423.32418909 Ry
     estimated scf accuracy    <       2.23807946 Ry

     iteration #  3     ecut=   100.00 Ry     beta=0.50
     Davidson diagonalization with overlap
     ethr =  9.02E-04,  avg # of iterations =  3.9

     total cpu time spent up to now is      267.5 secs

     total energy              =   -1422.82248905 Ry
     Harris-Foulkes estimate   =   -1422.93420171 Ry
     estimated scf accuracy    <       0.28752064 Ry

     iteration #  4     ecut=   100.00 Ry     beta=0.50
     Davidson diagonalization with overlap
     ethr =  1.16E-04,  avg # of iterations =  7.1

     total cpu time spent up to now is      345.0 secs

     total energy              =   -1422.88267466 Ry
     Harris-Foulkes estimate   =   -1422.89018219 Ry
     estimated scf accuracy    <       0.03433980 Ry

     iteration #  5     ecut=   100.00 Ry     beta=0.50
     Davidson diagonalization with overlap
     ethr =  1.38E-05,  avg # of iterations =  6.9

     total cpu time spent up to now is      434.9 secs

     total energy              =   -1422.88844009 Ry
     Harris-Foulkes estimate   =   -1422.89241698 Ry
     estimated scf accuracy    <       0.01032491 Ry

     iteration #  6     ecut=   100.00 Ry     beta=0.50
     Davidson diagonalization with overlap
     ethr =  4.16E-06,  avg # of iterations =  3.4

     total cpu time spent up to now is      493.9 secs

     total energy              =   -1422.88980250 Ry
     Harris-Foulkes estimate   =   -1422.89033429 Ry
     estimated scf accuracy    <       0.00128227 Ry

     iteration #  7     ecut=   100.00 Ry     beta=0.50
     Davidson diagonalization with overlap
     ethr =  5.17E-07,  avg # of iterations =  4.7

     total cpu time spent up to now is      588.4 secs

     total energy              =   -1422.89032690 Ry
     Harris-Foulkes estimate   =   -1422.89056633 Ry
     estimated scf accuracy    <       0.00069581 Ry

     iteration #  8     ecut=   100.00 Ry     beta=0.50
     Davidson diagonalization with overlap
     ethr =  2.81E-07,  avg # of iterations =  2.0

     total cpu time spent up to now is      640.5 secs

     total energy              =   -1422.89033836 Ry
     Harris-Foulkes estimate   =   -1422.89038731 Ry
     estimated scf accuracy    <       0.00011910 Ry

     iteration #  9     ecut=   100.00 Ry     beta=0.50
     Davidson diagonalization with overlap
     ethr =  4.80E-08,  avg # of iterations =  4.0

     total cpu time spent up to now is      730.0 secs

     total energy              =   -1422.89039772 Ry
     Harris-Foulkes estimate   =   -1422.89040913 Ry
     estimated scf accuracy    <       0.00002806 Ry

     iteration # 10     ecut=   100.00 Ry     beta=0.50
     Davidson diagonalization with overlap
     ethr =  1.13E-08,  avg # of iterations =  2.3

     total cpu time spent up to now is      786.9 secs

     total energy              =   -1422.89040127 Ry
     Harris-Foulkes estimate   =   -1422.89040262 Ry
     estimated scf accuracy    <       0.00000319 Ry

     iteration # 11     ecut=   100.00 Ry     beta=0.50
     Davidson diagonalization with overlap
     ethr =  1.29E-09,  avg # of iterations =  4.0

     total cpu time spent up to now is      872.3 secs

     total energy              =   -1422.89040264 Ry
     Harris-Foulkes estimate   =   -1422.89040282 Ry
     estimated scf accuracy    <       0.00000063 Ry

     iteration # 12     ecut=   100.00 Ry     beta=0.50
     Davidson diagonalization with overlap
     ethr =  2.54E-10,  avg # of iterations =  2.0

     total cpu time spent up to now is      926.2 secs

     total energy              =   -1422.89040269 Ry
     Harris-Foulkes estimate   =   -1422.89040273 Ry
     estimated scf accuracy    <       0.00000013 Ry

     iteration # 13     ecut=   100.00 Ry     beta=0.50
     Davidson diagonalization with overlap
     ethr =  5.09E-11,  avg # of iterations =  3.2

     total cpu time spent up to now is     1001.0 secs

     End of self-consistent calculation

          k = 0.0000 0.0000 0.0000 ( 67077 PWs)   bands (ev):

   -21.0919 -21.0648 -21.0003 -20.9797 -19.3985 -19.3044 -19.2801 -19.2078
   -19.1124 -19.0785 -18.9903 -18.9676 -18.7764 -18.7523 -18.7266 -18.7159
   -18.3025 -18.3021 -18.2765 -18.2650 -16.6532 -16.5888 -16.5418 -16.4867
   -15.2391 -15.2121 -15.2045 -15.1972 -13.9023 -13.8958 -13.8246 -13.8241
   -10.6152 -10.5832 -10.3856 -10.3742  -9.6874  -9.6358  -9.5858  -9.5674
    -7.9544  -7.9422  -7.9030  -7.8673  -7.6347  -7.5761  -7.4817  -7.3686
    -6.5427  -6.4846  -6.2504  -6.2105  -5.9435  -5.9300  -5.9271  -5.9207
    -5.5147  -5.4773  -5.3362  -5.2874  -5.1393  -5.0483  -4.8444  -4.6344
    -3.9082  -3.8883  -3.8783  -3.8223  -3.7337  -3.6815  -3.6744  -3.4830
    -3.4784  -3.4326  -3.3786  -3.3439  -3.2070  -3.1992  -3.1620  -3.0861
    -3.0353  -2.9867  -2.8863  -2.8381  -2.7673  -2.7559  -2.7338  -2.7323
    -2.1325  -2.1298  -2.1149  -2.1149  -1.0998  -0.9787  -0.9445  -0.9009
    -0.0607  -0.0273  -0.0256   0.1262   0.1275   0.3000   0.3071   0.3303
     0.3639   0.3913   0.4563   0.4583   0.5539   0.6335   0.6718   0.6974
     0.8148   0.8997   0.9093   0.9623   1.2587   1.2710   1.2716   1.3402
     1.6613   1.6661   1.6787   1.7012   5.6856   5.7004   5.8599   5.8664
     6.9272   7.1610   7.1813   7.2288   7.7385   7.7556   7.9051   7.9130
     8.0842   8.3889   8.4085   8.4439   8.4837   8.7836   8.8114   8.8815
     9.0892   9.1422   9.2659  10.0131

          k = 0.0000 0.0000-0.3098 ( 67104 PWs)   bands (ev):

   -21.0786 -21.0786 -20.9901 -20.9901 -19.3422 -19.3420 -19.2565 -19.2564
   -19.0967 -19.0966 -18.9791 -18.9789 -18.7648 -18.7642 -18.7186 -18.7180
   -18.2907 -18.2893 -18.2817 -18.2804 -16.5981 -16.5981 -16.5379 -16.5379
   -15.2283 -15.2275 -15.2007 -15.2000 -13.8967 -13.8967 -13.8219 -13.8219
   -10.5123 -10.5122 -10.4985 -10.4984  -9.6460  -9.6459  -9.5650  -9.5649
    -7.9516  -7.9513  -7.8873  -7.8870  -7.5250  -7.5249  -7.4344  -7.4343
    -6.4794  -6.4790  -6.4340  -6.4336  -5.9669  -5.9669  -5.9448  -5.9448
    -5.5084  -5.5083  -5.1789  -5.1789  -4.8822  -4.8817  -4.8366  -4.8363
    -3.9728  -3.9725  -3.8273  -3.8269  -3.7527  -3.7525  -3.5799  -3.5796
    -3.4871  -3.4871  -3.3243  -3.3240  -3.1860  -3.1860  -3.1697  -3.1694
    -3.0195  -3.0191  -2.8164  -2.8162  -2.7607  -2.7607  -2.7289  -2.7287
    -2.1359  -2.1352  -2.1167  -2.1160  -1.0199  -1.0199  -0.9500  -0.9500
    -0.0366  -0.0364   0.0483   0.0486   0.2088   0.2089   0.3186   0.3190
     0.3976   0.3978   0.4668   0.4673   0.5968   0.5969   0.6389   0.6392
     0.8507   0.8515   0.9450   0.9458   1.2731   1.2734   1.3202   1.3206
     1.6700   1.6700   1.6839   1.6839   5.6912   5.6913   5.8620   5.8620
     7.0208   7.0208   7.2302   7.2302   7.7446   7.7448   7.9100   7.9101
     8.2436   8.2438   8.4362   8.4363   8.5406   8.5412   8.9163   8.9164
     9.0582   9.0584   9.5274   9.5278

          k = 0.0000 0.3787 0.0000 ( 67069 PWs)   bands (ev):

   -21.0674 -21.0472 -21.0013 -20.9872 -19.3546 -19.2860 -19.2650 -19.2119
   -19.1127 -19.0898 -19.0318 -19.0136 -18.7941 -18.7723 -18.7648 -18.7426
   -18.2831 -18.2792 -18.2599 -18.2581 -16.6253 -16.5852 -16.5518 -16.5085
   -15.2330 -15.2125 -15.2079 -15.2026 -13.8856 -13.8827 -13.8329 -13.8300
   -10.5862 -10.5560 -10.4246 -10.4083  -9.6471  -9.6129  -9.5809  -9.5593
    -7.9375  -7.9309  -7.8946  -7.8700  -7.5822  -7.5433  -7.4655  -7.3954
    -6.5531  -6.4769  -6.3299  -6.2770  -5.9706  -5.9548  -5.9543  -5.9484
    -5.5945  -5.5315  -5.4047  -5.2852  -5.1796  -5.0114  -4.8331  -4.6750
    -4.0214  -3.9493  -3.9432  -3.7027  -3.6802  -3.6397  -3.6162  -3.5874
    -3.5326  -3.4284  -3.3712  -3.3279  -3.2516  -3.2116  -3.1943  -3.1556
    -3.0182  -2.9869  -2.9717  -2.9008  -2.6018  -2.5949  -2.5913  -2.5725
    -1.9034  -1.8846  -1.8813  -1.8595  -1.1101  -1.0645  -1.0080  -0.9565
    -0.0055   0.0049   0.0231   0.1326   0.1771   0.2194   0.3018   0.3268
     0.3664   0.3875   0.4288   0.4911   0.5620   0.6202   0.6317   0.6674
     0.7126   0.7613   0.7977   0.8096   1.2572   1.2883   1.3049   1.3244
     1.6615   1.6647   1.6702   1.6805   5.5602   5.5854   5.6513   5.6766
     6.9906   7.1448   7.2232   7.2305   7.6410   7.6510   7.6806   7.7317
     8.3114   8.4101   8.4346   8.4659   8.4755   8.7943   8.7970   8.9704
     9.2889   9.4230   9.6934  10.2991

          k = 0.0000 0.3787-0.3098 ( 67074 PWs)   bands (ev):

   -21.0574 -21.0574 -20.9943 -20.9943 -19.3128 -19.3128 -19.2506 -19.2506
   -19.0991 -19.0989 -19.0211 -19.0209 -18.7840 -18.7837 -18.7536 -18.7533
   -18.2719 -18.2702 -18.2688 -18.2672 -16.5890 -16.5888 -16.5470 -16.5469
   -15.2245 -15.2236 -15.2037 -15.2029 -13.8843 -13.8843 -13.8314 -13.8314
   -10.5023 -10.5022 -10.4912 -10.4912  -9.6268  -9.6266  -9.5684  -9.5682
    -7.9357  -7.9353  -7.8828  -7.8824  -7.5266  -7.5265  -7.4663  -7.4662
    -6.4459  -6.4455  -6.4068  -6.4064  -5.9515  -5.9510  -5.9386  -5.9382
    -5.5561  -5.5560  -5.3479  -5.3478  -4.9682  -4.9679  -4.9007  -4.9003
    -4.0040  -4.0038  -3.7824  -3.7823  -3.6500  -3.6497  -3.5751  -3.5747
    -3.4874  -3.4872  -3.3555  -3.3552  -3.2619  -3.2617  -3.1951  -3.1949
    -3.0143  -3.0133  -2.8950  -2.8945  -2.6032  -2.6027  -2.5790  -2.5786
    -1.8964  -1.8959  -1.8669  -1.8664  -1.0643  -1.0641  -1.0105  -1.0103
    -0.0007  -0.0004   0.0944   0.0949   0.1961   0.1963   0.2976   0.2983
     0.3759   0.3762   0.4721   0.4728   0.5821   0.5827   0.6535   0.6541
     0.7385   0.7396   0.8070   0.8080   1.2676   1.2680   1.3120   1.3124
     1.6579   1.6581   1.6805   1.6807   5.5697   5.5700   5.6663   5.6666
     7.0539   7.0540   7.2512   7.2513   7.6622   7.6627   7.6814   7.6819
     8.3791   8.3794   8.4159   8.4162   8.6029   8.6031   8.9574   8.9576
     9.3008   9.3010   9.9240   9.9244

          k = 0.0000-0.7573 0.0000 ( 67060 PWs)   bands (ev):

   -21.0193 -21.0187 -21.0158 -21.0152 -19.2659 -19.2656 -19.2564 -19.2561
   -19.0860 -19.0855 -19.0835 -19.0830 -18.7988 -18.7972 -18.7931 -18.7914
   -18.2561 -18.2556 -18.2544 -18.2539 -16.5723 -16.5710 -16.5645 -16.5632
   -15.2197 -15.2186 -15.2108 -15.2097 -13.8556 -13.8554 -13.8525 -13.8523
   -10.5113 -10.5113 -10.4844 -10.4844  -9.5880  -9.5879  -9.5744  -9.5742
    -7.9026  -7.9017  -7.8951  -7.8942  -7.4835  -7.4835  -7.4762  -7.4761
    -6.4976  -6.4973  -6.3977  -6.3972  -5.9811  -5.9806  -5.9764  -5.9760
    -5.5957  -5.5956  -5.4889  -5.4885  -4.9564  -4.9564  -4.8182  -4.8178
    -3.9936  -3.9932  -3.9666  -3.9664  -3.5970  -3.5969  -3.5566  -3.5565
    -3.4857  -3.4854  -3.4203  -3.4200  -3.2486  -3.2483  -3.2337  -3.2337
    -2.9772  -2.9760  -2.9117  -2.9107  -2.4190  -2.4189  -2.4090  -2.4089
    -1.6892  -1.6883  -1.6661  -1.6651  -1.1387  -1.1385  -1.0499  -1.0495
     0.0533   0.0537   0.1426   0.1431   0.2155   0.2160   0.2761   0.2763
     0.4419   0.4420   0.4782   0.4787   0.4901   0.4903   0.5540   0.5542
     0.6317   0.6318   0.6699   0.6702   1.2693   1.2697   1.3190   1.3196
     1.6542   1.6544   1.6737   1.6739   5.4432   5.4439   5.4924   5.4932
     7.0702   7.0704   7.2478   7.2479   7.5467   7.5471   7.6043   7.6048
     8.3876   8.3877   8.4966   8.4968   8.5572   8.5572   8.8767   8.8770
     9.8669   9.8675  10.1882  10.1896

          k = 0.0000-0.7573-0.3098 ( 67020 PWs)   bands (ev):

   -21.0186 -21.0179 -21.0166 -21.0158 -19.2674 -19.2669 -19.2614 -19.2608
   -19.0814 -19.0793 -19.0776 -19.0756 -18.8043 -18.8023 -18.7942 -18.7923
   -18.2565 -18.2550 -18.2548 -18.2533 -16.5706 -16.5694 -16.5663 -16.5650
   -15.2192 -15.2177 -15.2087 -15.2073 -13.8588 -13.8585 -13.8544 -13.8542
   -10.4935 -10.4934 -10.4827 -10.4827  -9.5939  -9.5924  -9.5868  -9.5853
    -7.9006  -7.8986  -7.8962  -7.8941  -7.5207  -7.5205  -7.5084  -7.5082
    -6.4011  -6.4007  -6.3923  -6.3918  -5.9372  -5.9365  -5.9290  -5.9283
    -5.5468  -5.5463  -5.5255  -5.5253  -5.0478  -5.0477  -4.9823  -4.9819
    -4.0386  -4.0380  -3.7924  -3.7920  -3.5594  -3.5594  -3.5395  -3.5392
    -3.4637  -3.4636  -3.4233  -3.4229  -3.3287  -3.3283  -3.2458  -3.2456
    -2.9442  -2.9431  -2.9385  -2.9372  -2.4196  -2.4191  -2.4103  -2.4098
    -1.6851  -1.6841  -1.6655  -1.6645  -1.1226  -1.1222  -1.0694  -1.0689
     0.0629   0.0637   0.1491   0.1495   0.2290   0.2291   0.2348   0.2353
     0.4563   0.4570   0.4725   0.4733   0.4900   0.4904   0.5538   0.5547
     0.6264   0.6275   0.7074   0.7081   1.2498   1.2503   1.3009   1.3015
     1.6485   1.6487   1.6806   1.6808   5.4444   5.4451   5.4926   5.4934
     7.0699   7.0700   7.2676   7.2677   7.5446   7.5453   7.5913   7.5920
     8.3841   8.3845   8.3967   8.3971   8.7574   8.7577   8.8376   8.8382
     9.7987   9.7990  10.1090  10.1104

          k = 0.3333 0.0000 0.0016 ( 67040 PWs)   bands (ev):

   -21.0700 -21.0445 -21.0243 -21.0017 -19.3853 -19.3250 -19.2750 -19.2169
   -19.0776 -19.0456 -19.0152 -18.9870 -18.7803 -18.7677 -18.7253 -18.7031
   -18.3085 -18.2975 -18.2778 -18.2656 -16.6431 -16.5990 -16.5350 -16.4937
   -15.2313 -15.2178 -15.2135 -15.1926 -13.8834 -13.8780 -13.8421 -13.8403
   -10.6084 -10.5886 -10.3832 -10.3756  -9.6802  -9.6472  -9.5947  -9.5577
    -7.9383  -7.9207  -7.9118  -7.8820  -7.6420  -7.5689  -7.4739  -7.3758
    -6.5275  -6.4983  -6.2383  -6.2183  -5.9497  -5.9390  -5.9256  -5.9143
    -5.5122  -5.4260  -5.3260  -5.2454  -5.2409  -5.1462  -4.8006  -4.6954
    -3.9991  -3.9075  -3.8563  -3.7781  -3.6672  -3.6379  -3.6125  -3.5114
    -3.4830  -3.3932  -3.3381  -3.3136  -3.2762  -3.2214  -3.1734  -3.1406
    -2.9956  -2.9859  -2.8815  -2.8424  -2.7923  -2.7546  -2.7293  -2.6723
    -2.1588  -2.1316  -2.1230  -2.1136  -1.0597  -0.9572  -0.9433  -0.9015
    -0.0286  -0.0266   0.0150   0.0738   0.1679   0.2838   0.3480   0.3655
     0.4230   0.4601   0.4685   0.4899   0.5939   0.6010   0.6060   0.6703
     0.7341   0.7599   0.8230   0.8346   1.2298   1.2922   1.2995   1.3349
     1.6884   1.7100   1.7114   1.7211   5.6679   5.6786   5.8847   5.9123
     6.9551   7.0948   7.1055   7.3198   7.7141   7.7269   7.9686   7.9896
     8.0528   8.3909   8.3959   8.4856   8.5544   8.7907   8.9512   9.0530
     9.0972   9.1741   9.6396   9.6657

          k = 0.3333 0.0000-0.3082 ( 67065 PWs)   bands (ev):

   -21.0583 -21.0567 -21.0141 -21.0123 -19.3336 -19.3301 -19.2749 -19.2710
   -19.0630 -19.0620 -19.0027 -19.0006 -18.7761 -18.7671 -18.7167 -18.7095
   -18.2936 -18.2906 -18.2821 -18.2793 -16.5911 -16.5880 -16.5481 -16.5451
   -15.2303 -15.2185 -15.2109 -15.1989 -13.8794 -13.8771 -13.8399 -13.8377
   -10.5178 -10.5107 -10.4982 -10.4917  -9.6494  -9.6493  -9.5639  -9.5631
    -7.9348  -7.9291  -7.9012  -7.8962  -7.5278  -7.5173  -7.4436  -7.4320
    -6.4986  -6.4971  -6.4107  -6.4101  -5.9700  -5.9687  -5.9434  -5.9428
    -5.4882  -5.4570  -5.2879  -5.2474  -4.9282  -4.9036  -4.7960  -4.7707
    -3.9977  -3.9944  -3.9193  -3.8841  -3.6946  -3.6402  -3.5774  -3.5761
    -3.4846  -3.4381  -3.3199  -3.3128  -3.2098  -3.2096  -3.1517  -3.1181
    -3.0190  -2.9612  -2.8706  -2.8401  -2.7880  -2.7644  -2.7110  -2.6892
    -2.1533  -2.1456  -2.1196  -2.1183  -1.0104  -1.0103  -0.9332  -0.9184
    -0.0239  -0.0003   0.0133   0.0439   0.2222   0.2480   0.3872   0.3922
     0.4392   0.4516   0.4876   0.5030   0.5408   0.5457   0.6212   0.6331
     0.7319   0.7353   0.8131   0.8523   1.2651   1.2989   1.3111   1.3300
     1.7029   1.7032   1.7108   1.7152   5.6659   5.6760   5.8947   5.8994
     6.9950   7.0684   7.1585   7.2483   7.7061   7.7219   7.9746   7.9879
     8.2323   8.2384   8.4325   8.4514   8.6434   8.6835   8.8890   8.9578
     9.0518   9.3266   9.5443   9.6923

          k = 0.3333 0.3787 0.0016 ( 67044 PWs)   bands (ev):

   -21.0513 -21.0327 -21.0183 -21.0024 -19.3446 -19.2998 -19.2584 -19.2215
   -19.0905 -19.0693 -19.0489 -19.0290 -18.7979 -18.7811 -18.7580 -18.7383
   -18.2851 -18.2774 -18.2616 -18.2562 -16.6207 -16.5900 -16.5446 -16.5157
   -15.2268 -15.2191 -15.2136 -15.1970 -13.8727 -13.8703 -13.8447 -13.8423
   -10.5793 -10.5628 -10.4208 -10.4123  -9.6459  -9.6170  -9.5823  -9.5559
    -7.9288  -7.9225  -7.9015  -7.8854  -7.5899  -7.5334  -7.4568  -7.3982
    -6.5361  -6.4946  -6.3183  -6.2899  -5.9694  -5.9643  -5.9551  -5.9425
    -5.5734  -5.4762  -5.4257  -5.3276  -5.1409  -5.0579  -4.8023  -4.7211
    -4.0106  -3.9987  -3.8991  -3.7257  -3.6855  -3.6503  -3.5489  -3.5304
    -3.5179  -3.4532  -3.4184  -3.3481  -3.3236  -3.2278  -3.1890  -3.1304
    -3.0583  -2.9844  -2.9163  -2.8889  -2.6234  -2.6044  -2.5810  -2.5479
    -1.9330  -1.8982  -1.8645  -1.8555  -1.1045  -1.0358  -1.0038  -0.9655
     0.0050   0.0348   0.0633   0.1336   0.1624   0.2400   0.3306   0.3619
     0.4130   0.4321   0.4577   0.4931   0.5684   0.5839   0.6176   0.6438
     0.6825   0.7035   0.7472   0.7673   1.2578   1.2662   1.3132   1.3283
     1.6416   1.6600   1.6820   1.6914   5.5449   5.5606   5.6748   5.7108
     7.0261   7.0927   7.1359   7.3129   7.6095   7.6475   7.6847   7.7509
     8.2786   8.3233   8.4484   8.5337   8.6210   8.8113   8.8587   8.9600
     9.4281   9.5069   9.9349   9.9822

          k = 0.3333 0.3787-0.3082 ( 67055 PWs)   bands (ev):

   -21.0431 -21.0411 -21.0115 -21.0095 -19.3047 -19.3033 -19.2646 -19.2612
   -19.0801 -19.0750 -19.0396 -19.0348 -18.7918 -18.7865 -18.7512 -18.7467
   -18.2739 -18.2732 -18.2668 -18.2644 -16.5847 -16.5812 -16.5549 -16.5512
   -15.2260 -15.2160 -15.2116 -15.2016 -13.8731 -13.8701 -13.8450 -13.8421
   -10.5086 -10.5038 -10.4895 -10.4846  -9.6310  -9.6253  -9.5705  -9.5645
    -7.9299  -7.9191  -7.9003  -7.8917  -7.5290  -7.5219  -7.4670  -7.4596
    -6.4685  -6.4597  -6.3939  -6.3822  -5.9540  -5.9498  -5.9365  -5.9318
    -5.5438  -5.5045  -5.4075  -5.3586  -5.0230  -4.9978  -4.8605  -4.8332
    -4.0339  -3.9977  -3.8294  -3.7837  -3.6668  -3.6444  -3.5739  -3.5572
    -3.5191  -3.4576  -3.3889  -3.3665  -3.2648  -3.2260  -3.1856  -3.1540
    -3.0310  -2.9582  -2.9405  -2.9113  -2.6199  -2.6106  -2.5799  -2.5528
    -1.9202  -1.9101  -1.8632  -1.8533  -1.0774  -1.0610  -1.0008  -0.9768
     0.0142   0.0525   0.0680   0.1052   0.1890   0.2312   0.3390   0.3495
     0.3985   0.4549   0.4622   0.4860   0.5639   0.5988   0.6186   0.6451
     0.6703   0.6956   0.7424   0.7737   1.2577   1.2727   1.3017   1.3196
     1.6506   1.6551   1.6760   1.6952   5.5473   5.5562   5.6834   5.7025
     7.0320   7.1213   7.1663   7.2587   7.6175   7.6288   7.7087   7.7307
     8.2752   8.3293   8.4582   8.4912   8.6950   8.7993   8.9110   8.9373
     9.3801   9.4932   9.8565   9.9903

          k = 0.3333-0.7573 0.0016 ( 67080 PWs)   bands (ev):

   -21.0189 -21.0184 -21.0159 -21.0153 -19.2666 -19.2661 -19.2551 -19.2546
   -19.0874 -19.0865 -19.0851 -19.0842 -18.7989 -18.7975 -18.7930 -18.7916
   -18.2559 -18.2543 -18.2537 -18.2521 -16.5715 -16.5702 -16.5655 -16.5642
   -15.2219 -15.2207 -15.2082 -15.2070 -13.8553 -13.8551 -13.8532 -13.8529
   -10.5062 -10.5062 -10.4906 -10.4906  -9.5878  -9.5878  -9.5736  -9.5735
    -7.9157  -7.9139  -7.8974  -7.8955  -7.4828  -7.4825  -7.4664  -7.4661
    -6.4836  -6.4833  -6.4180  -6.4177  -5.9797  -5.9794  -5.9759  -5.9756
    -5.5783  -5.5782  -5.4582  -5.4580  -4.9466  -4.9465  -4.8398  -4.8395
    -3.9652  -3.9651  -3.9142  -3.9138  -3.7209  -3.7207  -3.5792  -3.5791
    -3.5288  -3.5285  -3.4138  -3.4136  -3.2183  -3.2181  -3.1700  -3.1699
    -3.0677  -3.0668  -2.9217  -2.9214  -2.3898  -2.3894  -2.3820  -2.3816
    -1.6844  -1.6836  -1.6665  -1.6657  -1.1382  -1.1378  -1.0621  -1.0617
     0.0803   0.0806   0.1561   0.1564   0.2171   0.2175   0.2750   0.2751
     0.4077   0.4081   0.4559   0.4567   0.5212   0.5215   0.6024   0.6025
     0.6483   0.6489   0.6887   0.6898   1.2737   1.2741   1.3123   1.3128
     1.6295   1.6295   1.6457   1.6457   5.4538   5.4544   5.4826   5.4833
     7.0825   7.0826   7.2219   7.2219   7.5334   7.5336   7.5827   7.5831
     8.3757   8.3760   8.4863   8.4868   8.6945   8.6948   8.8385   8.8389
    10.0068  10.0073  10.2473  10.2486

          k = 0.3333-0.7573-0.3082 ( 67032 PWs)   bands (ev):

   -21.0186 -21.0178 -21.0164 -21.0156 -19.2678 -19.2672 -19.2605 -19.2600
   -19.0830 -19.0809 -19.0783 -19.0763 -18.8026 -18.8006 -18.7961 -18.7942
   -18.2559 -18.2541 -18.2536 -18.2519 -16.5697 -16.5684 -16.5675 -16.5662
   -15.2185 -15.2171 -15.2088 -15.2074 -13.8582 -13.8579 -13.8555 -13.8552
   -10.4974 -10.4973 -10.4798 -10.4797  -9.5960  -9.5945  -9.5839  -9.5824
    -7.9135  -7.9116  -7.8983  -7.8963  -7.5161  -7.5158  -7.5018  -7.5016
    -6.4274  -6.4269  -6.3698  -6.3694  -5.9342  -5.9335  -5.9236  -5.9229
    -5.5489  -5.5485  -5.4893  -5.4889  -5.1071  -5.1069  -4.9136  -4.9132
    -3.9912  -3.9908  -3.8051  -3.8047  -3.6763  -3.6761  -3.6207  -3.6204
    -3.4802  -3.4796  -3.3907  -3.3905  -3.2580  -3.2578  -3.1789  -3.1785
    -3.0522  -3.0513  -2.9442  -2.9436  -2.3982  -2.3977  -2.3789  -2.3785
    -1.6791  -1.6782  -1.6668  -1.6658  -1.1351  -1.1346  -1.0669  -1.0665
     0.1051   0.1058   0.1607   0.1612   0.2065   0.2068   0.2420   0.2423
     0.4236   0.4244   0.4343   0.4350   0.5353   0.5359   0.6172   0.6179
     0.6545   0.6559   0.7030   0.7036   1.2481   1.2485   1.2991   1.2997
     1.6303   1.6304   1.6465   1.6466   5.4563   5.4570   5.4814   5.4822
     7.1113   7.1114   7.2116   7.2117   7.5377   7.5383   7.5602   7.5608
     8.3296   8.3301   8.4758   8.4761   8.8012   8.8018   8.8894   8.8900
     9.8759   9.8761  10.0687  10.0696

          k =-0.3333 0.3787-0.0016 ( 67044 PWs)   bands (ev):

   -21.0513 -21.0327 -21.0183 -21.0024 -19.3446 -19.2997 -19.2585 -19.2214
   -19.0908 -19.0694 -19.0488 -19.0287 -18.7981 -18.7806 -18.7585 -18.7381
   -18.2852 -18.2771 -18.2618 -18.2562 -16.6207 -16.5900 -16.5445 -16.5157
   -15.2268 -15.2187 -15.2141 -15.1969 -13.8727 -13.8703 -13.8448 -13.8423
   -10.5793 -10.5627 -10.4207 -10.4123  -9.6458  -9.6174  -9.5819  -9.5560
    -7.9286  -7.9213  -7.9031  -7.8853  -7.5899  -7.5334  -7.4568  -7.3982
    -6.5361  -6.4946  -6.3183  -6.2900  -5.9696  -5.9642  -5.9549  -5.9425
    -5.5733  -5.4763  -5.4257  -5.3276  -5.1408  -5.0578  -4.8022  -4.7212
    -4.0102  -3.9983  -3.8993  -3.7260  -3.6856  -3.6506  -3.5489  -3.5305
    -3.5181  -3.4531  -3.4188  -3.3481  -3.3235  -3.2279  -3.1888  -3.1308
    -3.0593  -2.9831  -2.9161  -2.8885  -2.6239  -2.6047  -2.5806  -2.5476
    -1.9328  -1.8984  -1.8647  -1.8553  -1.1046  -1.0358  -1.0036  -0.9656
     0.0050   0.0348   0.0634   0.1339   0.1623   0.2400   0.3306   0.3618
     0.4124   0.4318   0.4581   0.4935   0.5686   0.5844   0.6178   0.6437
     0.6828   0.7041   0.7463   0.7663   1.2580   1.2658   1.3134   1.3283
     1.6415   1.6598   1.6822   1.6916   5.5449   5.5607   5.6748   5.7107
     7.0260   7.0928   7.1359   7.3129   7.6096   7.6480   7.6841   7.7509
     8.2787   8.3235   8.4484   8.5336   8.6208   8.8111   8.8584   8.9602
     9.4282   9.5069   9.9350   9.9821

          k =-0.3333 0.3787 0.3082 ( 67055 PWs)   bands (ev):

   -21.0431 -21.0412 -21.0115 -21.0094 -19.3048 -19.3033 -19.2645 -19.2612
   -19.0802 -19.0753 -19.0394 -19.0345 -18.7919 -18.7864 -18.7511 -18.7467
   -18.2743 -18.2724 -18.2664 -18.2652 -16.5849 -16.5812 -16.5548 -16.5512
   -15.2260 -15.2161 -15.2116 -15.2016 -13.8731 -13.8701 -13.8450 -13.8421
   -10.5086 -10.5038 -10.4894 -10.4846  -9.6310  -9.6254  -9.5706  -9.5643
    -7.9290  -7.9190  -7.9010  -7.8919  -7.5289  -7.5220  -7.4670  -7.4595
    -6.4688  -6.4594  -6.3934  -6.3826  -5.9543  -5.9495  -5.9362  -5.9320
    -5.5437  -5.5044  -5.4075  -5.3586  -5.0229  -4.9978  -4.8609  -4.8329
    -4.0334  -3.9978  -3.8293  -3.7842  -3.6670  -3.6445  -3.5743  -3.5572
    -3.5193  -3.4576  -3.3889  -3.3664  -3.2649  -3.2259  -3.1857  -3.1546
    -3.0315  -2.9571  -2.9402  -2.9109  -2.6203  -2.6107  -2.5797  -2.5525
    -1.9200  -1.9102  -1.8634  -1.8531  -1.0772  -1.0612  -1.0007  -0.9768
     0.0140   0.0528   0.0680   0.1051   0.1891   0.2312   0.3391   0.3493
     0.3980   0.4551   0.4620   0.4866   0.5644   0.5992   0.6183   0.6448
     0.6709   0.6963   0.7415   0.7728   1.2575   1.2729   1.3016   1.3197
     1.6504   1.6549   1.6762   1.6954   5.5472   5.5564   5.6835   5.7023
     7.0320   7.1213   7.1663   7.2587   7.6176   7.6288   7.7087   7.7305
     8.2755   8.3291   8.4582   8.4912   8.6949   8.7993   8.9108   8.9372
     9.3805   9.4930   9.8562   9.9912

     highest occupied, lowest unoccupied level (ev):     1.7211    5.4432

!    total energy              =   -1422.89040273 Ry
     Harris-Foulkes estimate   =   -1422.89040273 Ry
     estimated scf accuracy    <          6.3E-09 Ry

     total all-electron energy =     -5389.447087 Ry

     The total energy is the sum of the following terms:

     one-electron contribution =    -675.99145540 Ry
     hartree contribution      =     446.49734599 Ry
     xc contribution           =    -277.92635660 Ry
     ewald contribution        =    -524.15986348 Ry
     Dispersion Correction     =      -0.27671886 Ry
     one-center paw contrib.   =    -391.03335438 Ry

     convergence has been achieved in  13 iterations

     Forces acting on atoms (cartesian axes, Ry/au):

     atom    1 type  2   force =    -0.00513379   -0.00159942   -0.00150912
     atom    2 type  2   force =     0.00510959   -0.00157539    0.00146074
     atom    3 type  2   force =     0.00513379    0.00159942    0.00150912
     atom    4 type  2   force =    -0.00510959    0.00157539   -0.00146074
     atom    5 type  1   force =    -0.00101170   -0.00492165    0.00015432
     atom    6 type  1   force =     0.00096588   -0.00487364   -0.00024178
     atom    7 type  1   force =     0.00101170    0.00492165   -0.00015432
     atom    8 type  1   force =    -0.00096588    0.00487364    0.00024178
     atom    9 type  2   force =    -0.00004583    0.00089190    0.00211944
     atom   10 type  2   force =     0.00002986    0.00093935   -0.00220378
     atom   11 type  2   force =     0.00004583   -0.00089190   -0.00211944
     atom   12 type  2   force =    -0.00002986   -0.00093935    0.00220378
     atom   13 type  1   force =     0.00074418    0.00525645   -0.00279949
     atom   14 type  1   force =    -0.00042112    0.00471430    0.00310408
     atom   15 type  1   force =    -0.00074418   -0.00525645    0.00279949
     atom   16 type  1   force =     0.00042112   -0.00471430   -0.00310408
     atom   17 type  2   force =     0.00416032    0.00040095   -0.00073829
     atom   18 type  2   force =    -0.00415049    0.00043063    0.00076818
     atom   19 type  2   force =    -0.00416032   -0.00040095    0.00073829
     atom   20 type  2   force =     0.00415049   -0.00043063   -0.00076818
     atom   21 type  1   force =    -0.00090620    0.00426781    0.00214144
     atom   22 type  1   force =     0.00136019    0.00366920   -0.00190593
     atom   23 type  1   force =     0.00090620   -0.00426781   -0.00214144
     atom   24 type  1   force =    -0.00136019   -0.00366920    0.00190593
     atom   25 type  2   force =    -0.00075066   -0.00043577   -0.00070998
     atom   26 type  2   force =     0.00035608   -0.00039025   -0.00053642
     atom   27 type  2   force =     0.00075066    0.00043577    0.00070998
     atom   28 type  2   force =    -0.00035608    0.00039025    0.00053642
     atom   29 type  1   force =    -0.00014821   -0.00246024    0.00361255
     atom   30 type  1   force =    -0.00015729   -0.00189840   -0.00323724
     atom   31 type  1   force =     0.00014821    0.00246024   -0.00361255
     atom   32 type  1   force =     0.00015729    0.00189840    0.00323724
     atom   33 type  4   force =    -0.00442513    0.00025413    0.00209670
     atom   34 type  4   force =     0.00444602    0.00019341   -0.00213267
     atom   35 type  4   force =     0.00442513   -0.00025413   -0.00209670
     atom   36 type  4   force =    -0.00444602   -0.00019341    0.00213267
     atom   37 type  4   force =     0.00548148   -0.00208467    0.00145016
     atom   38 type  4   force =    -0.00577486   -0.00164125   -0.00156030
     atom   39 type  4   force =    -0.00548148    0.00208467   -0.00145016
     atom   40 type  4   force =     0.00577486    0.00164125    0.00156030
     atom   41 type  4   force =     0.00606490   -0.00045163   -0.00532322
     atom   42 type  4   force =    -0.00626808   -0.00009255    0.00540247
     atom   43 type  4   force =    -0.00606490    0.00045163    0.00532322
     atom   44 type  4   force =     0.00626808    0.00009255   -0.00540247
     atom   45 type  4   force =    -0.00552362    0.00009016    0.00007455
     atom   46 type  4   force =     0.00582507   -0.00026929   -0.00008896
     atom   47 type  4   force =     0.00552362   -0.00009016   -0.00007455
     atom   48 type  4   force =    -0.00582507    0.00026929    0.00008896
     atom   49 type  3   force =     0.00032347   -0.00002114    0.00103044
     atom   50 type  3   force =    -0.00031046   -0.00003586   -0.00100526
     atom   51 type  3   force =    -0.00032347    0.00002114   -0.00103044
     atom   52 type  3   force =     0.00031046    0.00003586    0.00100526
     atom   53 type  3   force =    -0.00011578    0.00006098   -0.00143408
     atom   54 type  3   force =     0.00026885    0.00006427    0.00198135
     atom   55 type  3   force =     0.00011578   -0.00006098    0.00143408
     atom   56 type  3   force =    -0.00026885   -0.00006427   -0.00198135

     Total force =     0.035629     Total SCF correction =     0.000188


     Computing stress (Cartesian axis) and pressure

          total   stress  (Ry/bohr**3)                   (kbar)     P=   -3.68
   0.00000289   0.00000039  -0.00000387          0.42      0.06     -0.57
   0.00000039  -0.00003000  -0.00000005          0.06     -4.41     -0.01
  -0.00000387  -0.00000005  -0.00004790         -0.57     -0.01     -7.05


     Writing output data file scf.save
 
     init_run     :     31.46s CPU     32.61s WALL (       1 calls)
     electrons    :    938.82s CPU    967.80s WALL (       1 calls)
     forces       :     15.69s CPU     15.80s WALL (       1 calls)
     stress       :     61.65s CPU     61.94s WALL (       1 calls)

     Called by init_run:
     wfcinit      :     25.19s CPU     26.14s WALL (       1 calls)
     potinit      :      2.24s CPU      2.32s WALL (       1 calls)

     Called by electrons:
     c_bands      :    847.53s CPU    872.54s WALL (      13 calls)
     sum_band     :     85.02s CPU     88.40s WALL (      13 calls)
     v_of_rho     :      0.94s CPU      1.06s WALL (      14 calls)
     newd         :      2.12s CPU      2.47s WALL (      14 calls)
     PAW_pot      :      2.99s CPU      3.00s WALL (      14 calls)
     mix_rho      :      0.19s CPU      0.21s WALL (      13 calls)

     Called by c_bands:
     init_us_2    :      5.07s CPU      5.10s WALL (     406 calls)
     cegterg      :    826.34s CPU    851.30s WALL (     182 calls)

     Called by sum_band:
     sum_band:bec :      0.08s CPU      0.08s WALL (     182 calls)
     addusdens    :      2.13s CPU      2.45s WALL (      13 calls)

     Called by *egterg:
     h_psi        :    450.05s CPU    466.39s WALL (     899 calls)
     s_psi        :     92.76s CPU     92.80s WALL (     899 calls)
     g_psi        :      2.61s CPU      2.61s WALL (     703 calls)
     cdiaghg      :     62.75s CPU     62.81s WALL (     885 calls)

     Called by h_psi:
     h_psi:pot    :    446.98s CPU    463.24s WALL (     899 calls)
     h_psi:calbec :     92.07s CPU     92.36s WALL (     899 calls)
     vloc_psi     :    262.05s CPU    277.99s WALL (     899 calls)
     add_vuspsi   :     92.86s CPU     92.89s WALL (     899 calls)

     General routines
     calbec       :    140.73s CPU    141.16s WALL (    1151 calls)
     fft          :      0.94s CPU      1.18s WALL (     206 calls)
     fftw         :    278.97s CPU    297.12s WALL (  181236 calls)
 
     Parallel routines
     fft_scatter  :     67.28s CPU     77.82s WALL (  181442 calls)
 
     PWSCF        : 17m37.31s CPU    19m12.37s WALL

 
   This run was terminated on:   6:21: 1   4Nov2017            

=------------------------------------------------------------------------------=
   JOB DONE.
=------------------------------------------------------------------------------=
