
     Program PWSCF v.6.1 (svn rev. 13369) starts on  4Nov2017 at  6:17:56 

     This program is part of the open-source Quantum ESPRESSO suite
     for quantum simulation of materials; please cite
         "P. Giannozzi et al., J. Phys.:Condens. Matter 21 395502 (2009);
          URL http://www.quantum-espresso.org", 
     in publications or presentations arising from this work. More details at
     http://www.quantum-espresso.org/quote

     Parallel version (MPI), running on     8 processors
     R & G space division:  proc/nbgrp/npool/nimage =       8
     Waiting for input...
     Reading input from standard input

     Current dimensions of program PWSCF are:
     Max number of different atomic species (ntypx) = 10
     Max number of k-points (npk) =  40000
     Max angular momentum in pseudopotentials (lmaxx) =  3
               file C.pbe-n-kjpaw_psl.0.1.UPF: wavefunction(s)  2P renormalized
               file N.pbe-n-kjpaw_psl.0.1.UPF: wavefunction(s)  2P renormalized
               file H.pbe-kjpaw_psl.0.1.UPF: wavefunction(s)  1S renormalized
               file O.pbe-n-kjpaw_psl.0.1.UPF: wavefunction(s)  2P renormalized

     -------------------------------------
     Parameters for Dispersion Correction:
     -------------------------------------
       atom      VdW radius       C_6     

        C          2.744         60.710
        N          2.640         42.670
        H          1.892          4.857
        O          2.536         24.284

     Subspace diagonalization in iterative solution of the eigenvalue problem:
     a serial algorithm will be used

 
     Parallelization info
     --------------------
     sticks:   dense  smooth     PW     G-vecs:    dense   smooth      PW
     Min         913     913    240                88599    88599   12020
     Max         914     914    241                88602    88602   12023
     Sum        7307    7307   1923               708807   708807   96169
 


     bravais-lattice index     =            0
     lattice parameter (alat)  =      12.2267  a.u.
     unit-cell volume          =    5247.6309 (a.u.)^3
     number of atoms/cell      =           76
     number of atomic types    =            4
     number of electrons       =       320.00
     number of Kohn-Sham states=          192
     kinetic-energy cutoff     =     100.0000  Ry
     charge density cutoff     =     400.0000  Ry
     convergence threshold     =      1.0E-08
     mixing beta               =       0.5000
     number of iterations used =            8  plain     mixing
     Exchange-correlation      =  SLA  PW   PBX  PBC ( 1  4  3  4 0 0)

     celldm(1)=  12.226717  celldm(2)=   0.000000  celldm(3)=   0.000000
     celldm(4)=   0.000000  celldm(5)=   0.000000  celldm(6)=   0.000000

     crystal axes: (cart. coord. in units of alat)
               a(1) = (   1.000000   0.000000   0.000000 )  
               a(2) = (   0.000000   1.535370   0.000000 )  
               a(3) = (   0.000000   0.000000   1.869909 )  

     reciprocal axes: (cart. coord. in units 2 pi/alat)
               b(1) = (  1.000000  0.000000  0.000000 )  
               b(2) = (  0.000000  0.651309  0.000000 )  
               b(3) = (  0.000000  0.000000  0.534785 )  


     PseudoPot. # 1 for  C read from file:
     /scratch/ahofstet/pseudo/C.pbe-n-kjpaw_psl.0.1.UPF
     MD5 check sum: 430fe95172b1e11ef3f8ed03bac87931
     Pseudo is Projector augmented-wave + core cor, Zval =  4.0
     Generated using "atomic" code by A. Dal Corso  v.5.0.99 svn rev. 10869
     Shape of augmentation charge: BESSEL
     Using radial grid of 1073 points,  4 beta functions with: 
                l(1) =   0
                l(2) =   0
                l(3) =   1
                l(4) =   1
     Q(r) pseudized with 0 coefficients 


     PseudoPot. # 2 for  N read from file:
     /scratch/ahofstet/pseudo/N.pbe-n-kjpaw_psl.0.1.UPF
     MD5 check sum: f73187c8b701007e77325f868c9291d7
     Pseudo is Projector augmented-wave + core cor, Zval =  5.0
     Generated using "atomic" code by A. Dal Corso  v.5.0.99 svn rev. 10869
     Shape of augmentation charge: PSQ
     Using radial grid of 1085 points,  4 beta functions with: 
                l(1) =   0
                l(2) =   0
                l(3) =   1
                l(4) =   1
     Q(r) pseudized with 0 coefficients 


     PseudoPot. # 3 for  H read from file:
     /scratch/ahofstet/pseudo/H.pbe-kjpaw_psl.0.1.UPF
     MD5 check sum: 94e484f906d9e9773b2f6e52662335b2
     Pseudo is Projector augmented-wave, Zval =  1.0
     Generated using "atomic" code by A. Dal Corso  v.5.0.99 svn rev. 10869
     Shape of augmentation charge: PSQ
     Using radial grid of  929 points,  2 beta functions with: 
                l(1) =   0
                l(2) =   0
     Q(r) pseudized with 0 coefficients 


     PseudoPot. # 4 for  O read from file:
     /scratch/ahofstet/pseudo/O.pbe-n-kjpaw_psl.0.1.UPF
     MD5 check sum: 3f94a2996a3169367d6eb21d9b593f20
     Pseudo is Projector augmented-wave + core cor, Zval =  6.0
     Generated using "atomic" code by A. Dal Corso  v.5.0.99 svn rev. 10869
     Shape of augmentation charge: BESSEL
     Using radial grid of 1095 points,  4 beta functions with: 
                l(1) =   0
                l(2) =   0
                l(3) =   1
                l(4) =   1
     Q(r) pseudized with 0 coefficients 


     atomic species   valence    mass     pseudopotential
        C              4.00    12.01070      C( 1.00)
        N              5.00    14.00670      N( 1.00)
        H              1.00     1.00794      H( 1.00)
        O              6.00    15.99940      O( 1.00)

      4 Sym. Ops. (no inversion) found ( 3 have fractional translation)



   Cartesian axes

     site n.     atom                  positions (alat units)
         1           N   tau(   1) = (   0.8818232   0.4719912   0.8146072  )
         2           N   tau(   2) = (   0.3818232   0.2956940   1.0553021  )
         3           N   tau(   3) = (   0.1181768   1.2396764   0.1203474  )
         4           N   tau(   4) = (   0.6181768   1.0633792   1.7495618  )
         5           C   tau(   5) = (   0.7406715   0.5780187   0.9288199  )
         6           C   tau(   6) = (   0.2406715   0.1896665   0.9410894  )
         7           C   tau(   7) = (   0.2593285   1.3457039   0.0061347  )
         8           C   tau(   8) = (   0.7593285   0.9573517   1.8637746  )
         9           N   tau(   9) = (   0.5672040   0.6619075   0.8282595  )
        10           N   tau(  10) = (   0.0672040   0.1057777   1.0416498  )
        11           N   tau(  11) = (   0.4327960   1.4295927   0.1066952  )
        12           N   tau(  12) = (   0.9327960   0.8734629   1.7632141  )
        13           C   tau(  13) = (   0.5280590   0.6392524   0.6242603  )
        14           C   tau(  14) = (   0.0280590   0.1284328   1.2456490  )
        15           C   tau(  15) = (   0.4719410   1.4069376   0.3106943  )
        16           C   tau(  16) = (   0.9719410   0.8961180   1.5592149  )
        17           N   tau(  17) = (   0.6765388   0.5254959   0.5157234  )
        18           N   tau(  18) = (   0.1765388   0.2421893   1.3541859  )
        19           N   tau(  19) = (   0.3234612   1.2931811   0.4192313  )
        20           N   tau(  20) = (   0.8234612   1.0098745   1.4506780  )
        21           C   tau(  21) = (   0.8495813   0.4480032   0.6176943  )
        22           C   tau(  22) = (   0.3495813   0.3196820   1.2522150  )
        23           C   tau(  23) = (   0.1504187   1.2156884   0.3172604  )
        24           C   tau(  24) = (   0.6504187   1.0873672   1.5526489  )
        25           C   tau(  25) = (   0.6525592   0.4891730   0.3044808  )
        26           C   tau(  26) = (   0.1525592   0.2785122   1.5654285  )
        27           C   tau(  27) = (   0.3474408   1.2568582   0.6304739  )
        28           C   tau(  28) = (   0.8474408   1.0461974   1.2394354  )
        29           N   tau(  29) = (   0.4839955   0.5750336   0.2183535  )
        30           N   tau(  30) = (   0.9839955   0.1926516   1.6515557  )
        31           N   tau(  31) = (   0.5160045   1.3427187   0.7166011  )
        32           N   tau(  32) = (   0.0160045   0.9603368   1.1533082  )
        33           C   tau(  33) = (   0.3349550   0.6859429   0.3272407  )
        34           C   tau(  34) = (   0.8349550   0.0817423   1.5426686  )
        35           C   tau(  35) = (   0.6650450   1.4536281   0.6077140  )
        36           C   tau(  36) = (   0.1650450   0.8494275   1.2621953  )
        37           N   tau(  37) = (   0.3633004   0.7152588   0.5361898  )
        38           N   tau(  38) = (   0.8633004   0.0524263   1.3337195  )
        39           N   tau(  39) = (   0.6366996   1.4829440   0.3987649  )
        40           N   tau(  40) = (   0.1366996   0.8201115   1.4711444  )
        41           N   tau(  41) = (  -0.0165115   0.3422018   0.4986161  )
        42           N   tau(  42) = (   0.4834885   0.4254834   1.3712932  )
        43           N   tau(  43) = (   1.0165115   1.1098870   0.4363385  )
        44           N   tau(  44) = (   0.5165115   1.1931686   1.4335707  )
        45           C   tau(  45) = (   0.9471153   0.2918316   0.2924209  )
        46           C   tau(  46) = (   0.4471153   0.4758536   1.5774884  )
        47           C   tau(  47) = (   0.0528847   1.0595168   0.6425338  )
        48           C   tau(  48) = (   0.5528847   1.2435388   1.2273755  )
        49           N   tau(  49) = (   0.7800479   0.3777688   0.1959069  )
        50           N   tau(  50) = (   0.2800479   0.3899164   1.6740024  )
        51           N   tau(  51) = (   0.2199521   1.1454540   0.7390477  )
        52           N   tau(  52) = (   0.7199521   1.1576016   1.1308616  )
        53           O   tau(  53) = (   0.1823216   0.7520141   0.2347620  )
        54           O   tau(  54) = (   0.6823216   0.0156711   1.6351473  )
        55           O   tau(  55) = (   0.8176784   1.5196993   0.7001927  )
        56           O   tau(  56) = (   0.3176784   0.7833563   1.1697166  )
        57           O   tau(  57) = (   0.7625665   0.6025061   1.1171129  )
        58           O   tau(  58) = (   0.2625665   0.1651791   0.7527964  )
        59           O   tau(  59) = (   0.2374335   1.3701913   1.6877510  )
        60           O   tau(  60) = (   0.7374335   0.9328642   0.1821582  )
        61           O   tau(  61) = (   0.0673081   0.1739138   0.2026753  )
        62           O   tau(  62) = (   0.5673081   0.5937714   1.6672340  )
        63           O   tau(  63) = (   0.9326919   0.9415990   0.7322793  )
        64           O   tau(  64) = (   0.4326919   1.3614566   1.1376299  )
        65           H   tau(  65) = (   0.4573300   0.7330477   0.9204340  )
        66           H   tau(  66) = (   0.9573300   1.5700079   0.9494753  )
        67           H   tau(  67) = (   0.5426700  -0.0346375   0.0145206  )
        68           H   tau(  68) = (   0.0426700   0.8023227   1.8553886  )
        69           H   tau(  69) = (   0.4804157   0.5729815   0.0568926  )
        70           H   tau(  70) = (   0.9804157   0.1947037   1.8130166  )
        71           H   tau(  71) = (   0.5195843   1.3406667   0.8780620  )
        72           H   tau(  72) = (   0.0195843   0.9623889   0.9918473  )
        73           H   tau(  73) = (   0.0986640   0.2632850   0.5800772  )
        74           H   tau(  74) = (   0.5986640   0.5044002   1.2898321  )
        75           H   tau(  75) = (   0.9013360   1.0309702   0.3548774  )
        76           H   tau(  76) = (   0.4013360   1.2720854   1.5150319  )

     number of k points=     8
                       cart. coord. in units 2pi/alat
        k(    1) = (   0.0000000   0.0000000   0.0000000), wk =   0.1666667
        k(    2) = (   0.0000000   0.0000000  -0.2673927), wk =   0.1666667
        k(    3) = (   0.0000000  -0.3256543   0.0000000), wk =   0.1666667
        k(    4) = (   0.0000000  -0.3256543  -0.2673927), wk =   0.1666667
        k(    5) = (   0.3333333   0.0000000   0.0000000), wk =   0.3333333
        k(    6) = (   0.3333333   0.0000000  -0.2673927), wk =   0.3333333
        k(    7) = (   0.3333333  -0.3256543   0.0000000), wk =   0.3333333
        k(    8) = (   0.3333333  -0.3256543  -0.2673927), wk =   0.3333333

     Dense  grid:   708807 G-vectors     FFT dimensions: (  80, 120, 150)

     Estimated max dynamical RAM per process >     713.92MB

     Estimated total allocated dynamical RAM >    5711.37MB

     Check: negative/imaginary core charge=   -0.000002    0.000000

     Initial potential from superposition of free atoms

     starting charge  319.99866, renormalised to  320.00000
     Starting wfc are  268 randomized atomic wfcs
     Checking if some PAW data can be deallocated... 

     total cpu time spent up to now is       39.4 secs

     per-process dynamical memory:   494.2 Mb

     Self-consistent Calculation

     iteration #  1     ecut=   100.00 Ry     beta=0.50
     Davidson diagonalization with overlap
     ethr =  1.00E-02,  avg # of iterations =  3.9

     total cpu time spent up to now is      162.6 secs

     total energy              =   -1744.98698254 Ry
     Harris-Foulkes estimate   =   -1750.37509751 Ry
     estimated scf accuracy    <       9.56559768 Ry

     iteration #  2     ecut=   100.00 Ry     beta=0.50
     Davidson diagonalization with overlap
     ethr =  2.99E-03,  avg # of iterations =  3.0

     total cpu time spent up to now is      236.5 secs

     total energy              =   -1746.66978480 Ry
     Harris-Foulkes estimate   =   -1747.70130944 Ry
     estimated scf accuracy    <       2.12482798 Ry

     iteration #  3     ecut=   100.00 Ry     beta=0.50
     Davidson diagonalization with overlap
     ethr =  6.64E-04,  avg # of iterations =  5.9

     total cpu time spent up to now is      336.7 secs

     total energy              =   -1747.36782963 Ry
     Harris-Foulkes estimate   =   -1747.57545946 Ry
     estimated scf accuracy    <       0.50236939 Ry

     iteration #  4     ecut=   100.00 Ry     beta=0.50
     Davidson diagonalization with overlap
     ethr =  1.57E-04,  avg # of iterations =  5.6

     total cpu time spent up to now is      413.0 secs

     total energy              =   -1747.44581864 Ry
     Harris-Foulkes estimate   =   -1747.45709084 Ry
     estimated scf accuracy    <       0.05410815 Ry

     iteration #  5     ecut=   100.00 Ry     beta=0.50
     Davidson diagonalization with overlap
     ethr =  1.69E-05,  avg # of iterations =  6.6

     total cpu time spent up to now is      559.1 secs

     total energy              =   -1747.46250141 Ry
     Harris-Foulkes estimate   =   -1747.47400889 Ry
     estimated scf accuracy    <       0.03102945 Ry

     iteration #  6     ecut=   100.00 Ry     beta=0.50
     Davidson diagonalization with overlap
     ethr =  9.70E-06,  avg # of iterations =  4.4

     total cpu time spent up to now is      625.1 secs

     total energy              =   -1747.46231864 Ry
     Harris-Foulkes estimate   =   -1747.46532650 Ry
     estimated scf accuracy    <       0.00579578 Ry

     iteration #  7     ecut=   100.00 Ry     beta=0.50
     Davidson diagonalization with overlap
     ethr =  1.81E-06,  avg # of iterations =  6.5

     total cpu time spent up to now is      767.2 secs

     total energy              =   -1747.46570846 Ry
     Harris-Foulkes estimate   =   -1747.46751279 Ry
     estimated scf accuracy    <       0.00487467 Ry

     iteration #  8     ecut=   100.00 Ry     beta=0.50
     Davidson diagonalization with overlap
     ethr =  1.52E-06,  avg # of iterations =  1.0

     total cpu time spent up to now is      827.3 secs

     total energy              =   -1747.46570485 Ry
     Harris-Foulkes estimate   =   -1747.46605694 Ry
     estimated scf accuracy    <       0.00093792 Ry

     iteration #  9     ecut=   100.00 Ry     beta=0.50
     Davidson diagonalization with overlap
     ethr =  2.93E-07,  avg # of iterations =  4.0

     total cpu time spent up to now is      938.0 secs

     total energy              =   -1747.46617320 Ry
     Harris-Foulkes estimate   =   -1747.46620024 Ry
     estimated scf accuracy    <       0.00006275 Ry

     iteration # 10     ecut=   100.00 Ry     beta=0.50
     Davidson diagonalization with overlap
     ethr =  1.96E-08,  avg # of iterations =  3.0

     total cpu time spent up to now is     1011.0 secs

     total energy              =   -1747.46618360 Ry
     Harris-Foulkes estimate   =   -1747.46618491 Ry
     estimated scf accuracy    <       0.00000354 Ry

     iteration # 11     ecut=   100.00 Ry     beta=0.50
     Davidson diagonalization with overlap
     ethr =  1.11E-09,  avg # of iterations =  4.0

     total cpu time spent up to now is     1138.5 secs

     total energy              =   -1747.46618655 Ry
     Harris-Foulkes estimate   =   -1747.46618738 Ry
     estimated scf accuracy    <       0.00000204 Ry

     iteration # 12     ecut=   100.00 Ry     beta=0.50
     Davidson diagonalization with overlap
     ethr =  6.37E-10,  avg # of iterations =  1.6

     total cpu time spent up to now is     1199.9 secs

     total energy              =   -1747.46618668 Ry
     Harris-Foulkes estimate   =   -1747.46618676 Ry
     estimated scf accuracy    <       0.00000021 Ry

     iteration # 13     ecut=   100.00 Ry     beta=0.50
     Davidson diagonalization with overlap
     ethr =  6.66E-11,  avg # of iterations =  4.0

     total cpu time spent up to now is     1329.5 secs

     total energy              =   -1747.46618689 Ry
     Harris-Foulkes estimate   =   -1747.46618695 Ry
     estimated scf accuracy    <       0.00000019 Ry

     iteration # 14     ecut=   100.00 Ry     beta=0.50
     Davidson diagonalization with overlap
     ethr =  5.90E-11,  avg # of iterations =  1.0

     total cpu time spent up to now is     1389.6 secs

     total energy              =   -1747.46618687 Ry
     Harris-Foulkes estimate   =   -1747.46618690 Ry
     estimated scf accuracy    <       0.00000005 Ry

     iteration # 15     ecut=   100.00 Ry     beta=0.50
     Davidson diagonalization with overlap
     ethr =  1.51E-11,  avg # of iterations =  3.0

     total cpu time spent up to now is     1501.1 secs

     total energy              =   -1747.46618690 Ry
     Harris-Foulkes estimate   =   -1747.46618691 Ry
     estimated scf accuracy    <       0.00000002 Ry

     iteration # 16     ecut=   100.00 Ry     beta=0.50
     Davidson diagonalization with overlap
     ethr =  6.32E-12,  avg # of iterations =  1.0

     total cpu time spent up to now is     1561.1 secs

     End of self-consistent calculation

          k = 0.0000 0.0000 0.0000 ( 88509 PWs)   bands (ev):

   -19.9000 -19.8227 -19.8149 -19.7992 -18.8589 -18.8387 -18.7959 -18.7338
   -18.7198 -18.7194 -18.6798 -18.6587 -18.2381 -18.2073 -18.2071 -18.1857
   -16.9640 -16.9435 -16.9367 -16.9038 -16.8974 -16.8969 -16.8532 -16.8089
   -15.2711 -15.2574 -15.2226 -15.2221 -15.1931 -15.1923 -15.1625 -15.1228
   -15.1058 -15.0949 -15.0533 -15.0365 -14.0245 -14.0203 -13.9951 -13.9794
    -9.9785  -9.9478  -9.9068  -9.8885  -9.8813  -9.8751  -9.8550  -9.8341
    -9.8063  -9.7688  -9.7097  -9.7025  -7.9360  -7.9359  -7.9062  -7.8638
    -7.8590  -7.8342  -7.7930  -7.7875  -6.8420  -6.8145  -6.8076  -6.6940
    -6.6480  -6.5154  -6.5122  -6.5074  -6.2219  -6.2060  -6.1060  -6.1045
    -5.4083  -5.3857  -5.3697  -5.2961  -5.2399  -5.1761  -5.1444  -5.0312
    -5.0192  -4.9094  -4.8255  -4.8161  -4.6896  -4.6202  -4.5527  -4.4199
    -3.7068  -3.6896  -3.6210  -3.5824  -3.5235  -3.5177  -3.2967  -3.1849
    -3.1799  -2.9480  -2.9350  -2.8533  -2.7367  -2.7267  -2.6088  -2.5459
    -2.5208  -2.4804  -2.4096  -2.3379  -2.1519  -2.1502  -2.0573  -1.9881
    -1.7744  -1.7605  -1.6291  -1.6206  -1.5855  -1.3957  -1.2961  -1.2694
     0.2701   0.3849   0.4305   0.4506   0.5088   0.5613   0.5928   0.6423
     0.6505   0.7289   0.7486   0.7700   0.8716   0.8923   0.8932   0.9021
     0.9976   1.0224   1.0724   1.1081   1.1308   1.1645   1.1899   1.1983
     1.2449   1.2647   1.2658   1.3359   1.3441   1.3678   1.3719   1.4448
     1.4821   1.5122   1.5283   1.5920   1.6082   1.6178   1.6919   1.6969
     5.5781   5.6348   5.7189   5.7309   5.7960   5.8096   5.8250   5.8536
     5.9595   5.9740   5.9740   6.0134   8.1505   8.3065   8.4474   8.5122
     8.5356   8.6196   8.6328   8.7095   8.7258   8.7520   9.6269  10.0848
    10.1483  10.2219  10.2288  10.2567  10.2845  10.3090  10.4665  10.4878

          k = 0.0000 0.0000-0.2674 ( 88744 PWs)   bands (ev):

   -19.8610 -19.8610 -19.8098 -19.8098 -18.8416 -18.8416 -18.7749 -18.7749
   -18.7132 -18.7132 -18.6683 -18.6683 -18.2142 -18.2142 -18.2057 -18.2057
   -16.9787 -16.9787 -16.9378 -16.9378 -16.8724 -16.8724 -16.8166 -16.8166
   -15.2409 -15.2409 -15.2101 -15.2101 -15.1803 -15.1803 -15.1467 -15.1467
   -15.1153 -15.1153 -15.0736 -15.0736 -14.0196 -14.0196 -13.9890 -13.9890
    -9.9896  -9.9896  -9.9349  -9.9349  -9.9064  -9.9064  -9.7748  -9.7748
    -9.7393  -9.7393  -9.7204  -9.7204  -8.0209  -8.0209  -7.8471  -7.8471
    -7.8195  -7.8195  -7.7594  -7.7594  -6.8180  -6.8180  -6.7363  -6.7363
    -6.6543  -6.6543  -6.5423  -6.5423  -6.2467  -6.2467  -6.0638  -6.0638
    -5.4418  -5.4418  -5.2336  -5.2336  -5.2014  -5.2014  -5.0098  -5.0098
    -4.9544  -4.9544  -4.8253  -4.8253  -4.6433  -4.6433  -4.6069  -4.6069
    -3.6921  -3.6921  -3.5449  -3.5449  -3.4679  -3.4679  -3.3728  -3.3728
    -3.0524  -3.0524  -2.8740  -2.8740  -2.7629  -2.7629  -2.6326  -2.6326
    -2.4476  -2.4476  -2.3765  -2.3765  -2.0830  -2.0830  -2.0447  -2.0447
    -1.7876  -1.7876  -1.5953  -1.5953  -1.4708  -1.4708  -1.3526  -1.3526
     0.4589   0.4589   0.5093   0.5093   0.5628   0.5628   0.6057   0.6057
     0.6941   0.6941   0.7229   0.7229   0.7698   0.7698   0.8022   0.8022
     1.0081   1.0081   1.0947   1.0947   1.1740   1.1740   1.1926   1.1926
     1.2513   1.2513   1.2787   1.2787   1.3786   1.3786   1.4036   1.4036
     1.4766   1.4766   1.5655   1.5655   1.6339   1.6339   1.7209   1.7209
     5.6220   5.6220   5.7551   5.7551   5.7798   5.7798   5.8344   5.8344
     5.9332   5.9332   6.0040   6.0040   8.3150   8.3150   8.4112   8.4112
     8.6037   8.6037   8.6452   8.6452   8.7097   8.7097   9.9205   9.9205
    10.1047  10.1047  10.1565  10.1565  10.3776  10.3776  10.4652  10.4652

          k = 0.0000-0.3257 0.0000 ( 88724 PWs)   bands (ev):

   -19.8672 -19.8672 -19.8026 -19.8026 -18.8328 -18.8328 -18.7878 -18.7878
   -18.7035 -18.7035 -18.6775 -18.6775 -18.2278 -18.2278 -18.1914 -18.1914
   -16.9526 -16.9526 -16.9256 -16.9256 -16.8805 -16.8805 -16.8438 -16.8438
   -15.2719 -15.2719 -15.2280 -15.2280 -15.1645 -15.1645 -15.1452 -15.1452
   -15.1003 -15.1003 -15.0567 -15.0567 -14.0229 -14.0229 -13.9867 -13.9867
    -9.9652  -9.9652  -9.8912  -9.8912  -9.8818  -9.8818  -9.8461  -9.8461
    -9.7818  -9.7818  -9.7120  -9.7120  -7.9378  -7.9378  -7.8780  -7.8780
    -7.8533  -7.8533  -7.7893  -7.7893  -6.8485  -6.8485  -6.7399  -6.7399
    -6.5702  -6.5702  -6.4987  -6.4987  -6.2188  -6.2188  -6.1075  -6.1075
    -5.3905  -5.3905  -5.3028  -5.3028  -5.2458  -5.2458  -5.0992  -5.0992
    -4.9919  -4.9919  -4.7979  -4.7979  -4.6915  -4.6915  -4.4578  -4.4578
    -3.6900  -3.6900  -3.5804  -3.5804  -3.5356  -3.5356  -3.2150  -3.2150
    -3.0958  -3.0958  -2.8400  -2.8400  -2.7392  -2.7392  -2.5884  -2.5884
    -2.5217  -2.5217  -2.3955  -2.3955  -2.1462  -2.1462  -2.0197  -2.0197
    -1.7171  -1.7171  -1.5761  -1.5761  -1.5415  -1.5415  -1.3319  -1.3319
     0.3561   0.3561   0.4511   0.4511   0.4824   0.4824   0.6119   0.6119
     0.7176   0.7176   0.7763   0.7763   0.8452   0.8452   0.9275   0.9275
     1.0426   1.0426   1.0651   1.0651   1.1197   1.1197   1.2035   1.2035
     1.2699   1.2699   1.2908   1.2908   1.3149   1.3149   1.4139   1.4139
     1.5134   1.5134   1.5638   1.5638   1.6202   1.6202   1.7020   1.7020
     5.6035   5.6035   5.7476   5.7476   5.8061   5.8061   5.8472   5.8472
     5.9255   5.9255   5.9848   5.9848   8.4386   8.4386   8.4557   8.4557
     8.6297   8.6297   8.6455   8.6455   8.8687   8.8687   9.2927   9.2927
     9.9929   9.9929  10.2174  10.2174  10.2934  10.2934  10.5012  10.5012

          k = 0.0000-0.3257-0.2674 ( 88580 PWs)   bands (ev):

   -19.8430 -19.8430 -19.8294 -19.8294 -18.8145 -18.8145 -18.7946 -18.7946
   -18.7164 -18.7164 -18.6714 -18.6714 -18.2149 -18.2149 -18.2050 -18.2050
   -16.9694 -16.9694 -16.9441 -16.9441 -16.8556 -16.8556 -16.8368 -16.8368
   -15.2194 -15.2194 -15.2192 -15.2192 -15.1773 -15.1773 -15.1664 -15.1664
   -15.0945 -15.0945 -15.0891 -15.0891 -14.0189 -14.0189 -13.9898 -13.9898
    -9.9821  -9.9821  -9.9473  -9.9473  -9.8930  -9.8930  -9.7891  -9.7891
    -9.7340  -9.7340  -9.7211  -9.7211  -8.0194  -8.0194  -7.8479  -7.8479
    -7.8197  -7.8197  -7.7605  -7.7605  -6.8145  -6.8145  -6.7179  -6.7179
    -6.6499  -6.6499  -6.5662  -6.5662  -6.2461  -6.2461  -6.0614  -6.0614
    -5.4393  -5.4393  -5.2417  -5.2417  -5.1535  -5.1535  -5.0612  -5.0612
    -4.9618  -4.9618  -4.8305  -4.8305  -4.6439  -4.6439  -4.6137  -4.6137
    -3.6366  -3.6366  -3.5954  -3.5954  -3.4268  -3.4268  -3.3792  -3.3792
    -3.0466  -3.0466  -2.8891  -2.8891  -2.7059  -2.7059  -2.6708  -2.6708
    -2.4507  -2.4507  -2.4225  -2.4225  -2.0526  -2.0526  -2.0507  -2.0507
    -1.7135  -1.7135  -1.5983  -1.5983  -1.4796  -1.4796  -1.4241  -1.4241
     0.4800   0.4800   0.5127   0.5127   0.5744   0.5744   0.6130   0.6130
     0.6591   0.6591   0.6984   0.6984   0.7739   0.7739   0.8176   0.8176
     1.0534   1.0534   1.0588   1.0588   1.1702   1.1702   1.1740   1.1740
     1.2584   1.2584   1.2862   1.2862   1.3750   1.3750   1.3840   1.3840
     1.4602   1.4602   1.6039   1.6039   1.6703   1.6703   1.6913   1.6913
     5.6279   5.6279   5.7594   5.7594   5.7893   5.7893   5.8269   5.8269
     5.9029   5.9029   6.0052   6.0052   8.4091   8.4091   8.4303   8.4303
     8.6443   8.6443   8.6983   8.6983   9.0429   9.0429   9.0929   9.0929
     9.9870   9.9870  10.1610  10.1610  10.3670  10.3670  10.4720  10.4720

          k = 0.3333 0.0000 0.0000 ( 88573 PWs)   bands (ev):

   -19.8614 -19.8154 -19.8129 -19.8075 -18.8186 -18.8179 -18.7969 -18.7782
   -18.7537 -18.7370 -18.7018 -18.7008 -18.2206 -18.2096 -18.1982 -18.1819
   -16.9589 -16.9391 -16.9320 -16.9160 -16.8850 -16.8818 -16.8540 -16.8362
   -15.2728 -15.2664 -15.2495 -15.2263 -15.1617 -15.1614 -15.1074 -15.1022
   -15.1003 -15.0856 -15.0855 -15.0434 -14.0268 -14.0128 -14.0114 -13.9910
    -9.9800  -9.9600  -9.9048  -9.8972  -9.8928  -9.8728  -9.8660  -9.8562
    -9.7827  -9.7387  -9.7277  -9.7035  -7.9288  -7.9164  -7.9086  -7.8575
    -7.8564  -7.8315  -7.8073  -7.7918  -6.8338  -6.8002  -6.7361  -6.6997
    -6.6676  -6.6219  -6.5474  -6.5448  -6.1843  -6.1400  -6.1395  -6.0975
    -5.4042  -5.3795  -5.3383  -5.3087  -5.2425  -5.2400  -5.1940  -5.1154
    -5.0195  -4.9142  -4.8483  -4.8283  -4.7054  -4.6490  -4.5895  -4.4893
    -3.6979  -3.6943  -3.4376  -3.4257  -3.2969  -3.2822  -3.1737  -3.1353
    -3.0566  -3.0044  -2.9595  -2.8206  -2.7772  -2.7625  -2.5676  -2.5463
    -2.5080  -2.4720  -2.4592  -2.4139  -2.2413  -2.2376  -2.1202  -2.1021
    -1.7888  -1.7354  -1.6764  -1.6718  -1.4318  -1.3724  -1.3673  -1.3184
     0.3613   0.3953   0.4476   0.4989   0.5429   0.5997   0.6064   0.6093
     0.6524   0.7001   0.7530   0.7583   0.7676   0.7911   0.8663   0.8709
     0.9141   0.9762   1.0347   1.0879   1.1220   1.1373   1.1548   1.1767
     1.2026   1.2320   1.2689   1.2996   1.3409   1.3443   1.3764   1.4157
     1.4306   1.5404   1.5453   1.5672   1.6592   1.6713   1.6808   1.7344
     5.6623   5.6856   5.6984   5.7663   5.7890   5.7998   5.8480   5.8686
     5.9073   5.9344   6.0270   6.0391   8.3934   8.4884   8.5082   8.5500
     8.5655   8.5750   8.6215   8.6727   8.7985   9.0572   9.7357   9.8443
    10.0064  10.0102  10.1920  10.2120  10.2993  10.3601  10.3818  10.4069

          k = 0.3333 0.0000-0.2674 ( 88604 PWs)   bands (ev):

   -19.8381 -19.8381 -19.8106 -19.8106 -18.8466 -18.8466 -18.7942 -18.7942
   -18.7246 -18.7246 -18.6800 -18.6800 -18.2089 -18.2089 -18.1996 -18.1996
   -16.9754 -16.9754 -16.9522 -16.9522 -16.8649 -16.8649 -16.8161 -16.8161
   -15.2283 -15.2283 -15.2135 -15.2135 -15.1536 -15.1536 -15.1407 -15.1407
   -15.1176 -15.1176 -15.0739 -15.0739 -14.0211 -14.0211 -14.0017 -14.0017
    -9.9715  -9.9715  -9.9498  -9.9498  -9.8834  -9.8834  -9.8090  -9.8090
    -9.7508  -9.7508  -9.7138  -9.7138  -7.9820  -7.9820  -7.8725  -7.8725
    -7.8101  -7.8101  -7.8059  -7.8059  -6.8240  -6.8240  -6.7038  -6.7038
    -6.6362  -6.6362  -6.5070  -6.5070  -6.2224  -6.2224  -6.1226  -6.1226
    -5.4100  -5.4100  -5.3047  -5.3047  -5.2544  -5.2544  -5.1435  -5.1435
    -4.9321  -4.9321  -4.8600  -4.8600  -4.6877  -4.6877  -4.5215  -4.5215
    -3.5488  -3.5488  -3.5110  -3.5110  -3.3534  -3.3534  -3.1645  -3.1645
    -3.0243  -3.0243  -2.9023  -2.9023  -2.7759  -2.7759  -2.5936  -2.5936
    -2.4858  -2.4858  -2.4258  -2.4258  -2.1745  -2.1745  -2.1430  -2.1430
    -1.7427  -1.7427  -1.5953  -1.5953  -1.5077  -1.5077  -1.3595  -1.3595
     0.4771   0.4771   0.5258   0.5258   0.5972   0.5972   0.6297   0.6297
     0.6591   0.6591   0.7256   0.7256   0.7562   0.7562   0.8093   0.8093
     0.9650   0.9650   1.0219   1.0219   1.1432   1.1432   1.1751   1.1751
     1.2049   1.2049   1.2265   1.2265   1.3334   1.3334   1.3635   1.3635
     1.5136   1.5136   1.5669   1.5669   1.6785   1.6785   1.7195   1.7195
     5.7039   5.7039   5.7369   5.7369   5.7834   5.7834   5.8313   5.8313
     5.9317   5.9317   6.0423   6.0423   8.4048   8.4048   8.5430   8.5430
     8.5865   8.5865   8.6520   8.6520   8.8762   8.8762   9.8458   9.8458
    10.0361  10.0361  10.1486  10.1486  10.3015  10.3015  10.3978  10.3978

          k = 0.3333-0.3257 0.0000 ( 88582 PWs)   bands (ev):

   -19.8421 -19.8421 -19.8069 -19.8069 -18.8122 -18.8122 -18.7841 -18.7841
   -18.7510 -18.7510 -18.7059 -18.7059 -18.2161 -18.2161 -18.1884 -18.1884
   -16.9370 -16.9370 -16.9161 -16.9161 -16.8877 -16.8877 -16.8615 -16.8615
   -15.2615 -15.2615 -15.2432 -15.2432 -15.1486 -15.1486 -15.1244 -15.1244
   -15.0893 -15.0893 -15.0632 -15.0632 -14.0218 -14.0218 -13.9992 -13.9992
    -9.9647  -9.9647  -9.9093  -9.9093  -9.8735  -9.8735  -9.8650  -9.8650
    -9.7653  -9.7653  -9.7137  -9.7137  -7.9230  -7.9230  -7.8834  -7.8834
    -7.8427  -7.8427  -7.7993  -7.7993  -6.7954  -6.7954  -6.7426  -6.7426
    -6.6529  -6.6529  -6.5415  -6.5415  -6.1630  -6.1630  -6.1136  -6.1136
    -5.4030  -5.4030  -5.3009  -5.3009  -5.2435  -5.2435  -5.1614  -5.1614
    -4.9867  -4.9867  -4.7951  -4.7951  -4.7295  -4.7295  -4.5059  -4.5059
    -3.6979  -3.6979  -3.3846  -3.3846  -3.3152  -3.3152  -3.2179  -3.2179
    -3.0371  -3.0371  -2.8664  -2.8664  -2.7673  -2.7673  -2.5532  -2.5532
    -2.4829  -2.4829  -2.4349  -2.4349  -2.2226  -2.2226  -2.1305  -2.1305
    -1.7333  -1.7333  -1.5655  -1.5655  -1.4996  -1.4996  -1.3835  -1.3835
     0.3647   0.3647   0.5100   0.5100   0.5619   0.5619   0.6129   0.6129
     0.7065   0.7065   0.7220   0.7220   0.8094   0.8094   0.8743   0.8743
     0.9639   0.9639   1.0184   1.0184   1.1349   1.1349   1.1814   1.1814
     1.2374   1.2374   1.2684   1.2684   1.2915   1.2915   1.3630   1.3630
     1.4901   1.4901   1.5554   1.5554   1.6804   1.6804   1.7232   1.7232
     5.6912   5.6912   5.7393   5.7393   5.8104   5.8104   5.8511   5.8511
     5.9527   5.9527   5.9804   5.9804   8.4642   8.4642   8.5493   8.5493
     8.5860   8.5860   8.6312   8.6312   9.1082   9.1082   9.5149   9.5149
     9.9617   9.9617  10.2710  10.2710  10.2983  10.2983  10.3954  10.3954

          k = 0.3333-0.3257-0.2674 ( 88596 PWs)   bands (ev):

   -19.8282 -19.8282 -19.8210 -19.8210 -18.8327 -18.8327 -18.8078 -18.8078
   -18.7230 -18.7230 -18.6822 -18.6822 -18.2086 -18.2086 -18.1996 -18.1996
   -16.9695 -16.9695 -16.9507 -16.9507 -16.8457 -16.8457 -16.8434 -16.8434
   -15.2217 -15.2217 -15.2192 -15.2192 -15.1440 -15.1440 -15.1390 -15.1390
   -15.1063 -15.1063 -15.0966 -15.0966 -14.0188 -14.0188 -14.0040 -14.0040
    -9.9706  -9.9706  -9.9557  -9.9557  -9.8679  -9.8679  -9.8166  -9.8166
    -9.7393  -9.7393  -9.7284  -9.7284  -7.9785  -7.9785  -7.8748  -7.8748
    -7.8136  -7.8136  -7.8033  -7.8033  -6.7952  -6.7952  -6.7675  -6.7675
    -6.5873  -6.5873  -6.5200  -6.5200  -6.2254  -6.2254  -6.1258  -6.1258
    -5.4091  -5.4091  -5.2960  -5.2960  -5.2018  -5.2018  -5.1935  -5.1935
    -4.9344  -4.9344  -4.8939  -4.8939  -4.5980  -4.5980  -4.5830  -4.5830
    -3.5294  -3.5294  -3.5270  -3.5270  -3.2842  -3.2842  -3.2664  -3.2664
    -3.0135  -3.0135  -2.9239  -2.9239  -2.6927  -2.6927  -2.6623  -2.6623
    -2.4545  -2.4545  -2.4367  -2.4367  -2.1672  -2.1672  -2.1549  -2.1549
    -1.6068  -1.6068  -1.5855  -1.5855  -1.5536  -1.5536  -1.4567  -1.4567
     0.4828   0.4828   0.5127   0.5127   0.6049   0.6049   0.6239   0.6239
     0.7013   0.7013   0.7013   0.7013   0.7775   0.7775   0.8147   0.8147
     1.0023   1.0023   1.0059   1.0059   1.1415   1.1415   1.1533   1.1533
     1.2311   1.2311   1.2382   1.2382   1.2979   1.2979   1.3054   1.3054
     1.5032   1.5032   1.5608   1.5608   1.7102   1.7102   1.7241   1.7241
     5.7139   5.7139   5.7559   5.7559   5.7838   5.7838   5.8428   5.8428
     5.9721   5.9721   5.9730   5.9730   8.4555   8.4555   8.4917   8.4917
     8.5999   8.5999   8.6412   8.6412   9.2891   9.2891   9.2998   9.2998
    10.0522  10.0522  10.1850  10.1850  10.2947  10.2947  10.3581  10.3581

     highest occupied, lowest unoccupied level (ev):     1.7344    5.5781

!    total energy              =   -1747.46618690 Ry
     Harris-Foulkes estimate   =   -1747.46618690 Ry
     estimated scf accuracy    <          9.7E-09 Ry

     total all-electron energy =     -6716.333709 Ry

     The total energy is the sum of the following terms:

     one-electron contribution =    -800.83624008 Ry
     hartree contribution      =     539.70870025 Ry
     xc contribution           =    -349.87421962 Ry
     ewald contribution        =    -630.53982496 Ry
     Dispersion Correction     =      -0.39837333 Ry
     one-center paw contrib.   =    -505.52622915 Ry

     convergence has been achieved in  16 iterations

     Forces acting on atoms (cartesian axes, Ry/au):

     atom    1 type  2   force =     0.00175162    0.00052495    0.00073377
     atom    2 type  2   force =     0.00175162   -0.00052495   -0.00073377
     atom    3 type  2   force =    -0.00175162    0.00052495   -0.00073377
     atom    4 type  2   force =    -0.00175162   -0.00052495    0.00073377
     atom    5 type  1   force =    -0.00071342    0.00018422   -0.00015927
     atom    6 type  1   force =    -0.00071342   -0.00018422    0.00015927
     atom    7 type  1   force =     0.00071342    0.00018422    0.00015927
     atom    8 type  1   force =     0.00071342   -0.00018422   -0.00015927
     atom    9 type  2   force =     0.00036953   -0.00067424    0.00097662
     atom   10 type  2   force =     0.00036953    0.00067424   -0.00097662
     atom   11 type  2   force =    -0.00036953   -0.00067424   -0.00097662
     atom   12 type  2   force =    -0.00036953    0.00067424    0.00097662
     atom   13 type  1   force =    -0.00080428   -0.00023698   -0.00187995
     atom   14 type  1   force =    -0.00080428    0.00023698    0.00187995
     atom   15 type  1   force =     0.00080428   -0.00023698    0.00187995
     atom   16 type  1   force =     0.00080428    0.00023698   -0.00187995
     atom   17 type  2   force =     0.00058579    0.00118259    0.00407523
     atom   18 type  2   force =     0.00058579   -0.00118259   -0.00407523
     atom   19 type  2   force =    -0.00058579    0.00118259   -0.00407523
     atom   20 type  2   force =    -0.00058579   -0.00118259    0.00407523
     atom   21 type  1   force =    -0.00041106    0.00078511   -0.00229632
     atom   22 type  1   force =    -0.00041106   -0.00078511    0.00229632
     atom   23 type  1   force =     0.00041106    0.00078511    0.00229632
     atom   24 type  1   force =     0.00041106   -0.00078511   -0.00229632
     atom   25 type  1   force =    -0.00000741   -0.00010741   -0.00317890
     atom   26 type  1   force =    -0.00000741    0.00010741    0.00317890
     atom   27 type  1   force =     0.00000741   -0.00010741    0.00317890
     atom   28 type  1   force =     0.00000741    0.00010741   -0.00317890
     atom   29 type  2   force =     0.00086315   -0.00439364    0.00084700
     atom   30 type  2   force =     0.00086315    0.00439364   -0.00084700
     atom   31 type  2   force =    -0.00086315   -0.00439364   -0.00084700
     atom   32 type  2   force =    -0.00086315    0.00439364    0.00084700
     atom   33 type  1   force =    -0.00171446   -0.00098403   -0.00089924
     atom   34 type  1   force =    -0.00171446    0.00098403    0.00089924
     atom   35 type  1   force =     0.00171446   -0.00098403    0.00089924
     atom   36 type  1   force =     0.00171446    0.00098403   -0.00089924
     atom   37 type  2   force =     0.00080420    0.00034765    0.00226953
     atom   38 type  2   force =     0.00080420   -0.00034765   -0.00226953
     atom   39 type  2   force =    -0.00080420    0.00034765   -0.00226953
     atom   40 type  2   force =    -0.00080420   -0.00034765    0.00226953
     atom   41 type  2   force =    -0.00027088   -0.00010338    0.00127389
     atom   42 type  2   force =    -0.00027088    0.00010338   -0.00127389
     atom   43 type  2   force =     0.00027088   -0.00010338   -0.00127389
     atom   44 type  2   force =     0.00027088    0.00010338    0.00127389
     atom   45 type  1   force =     0.00140336    0.00039970    0.00090098
     atom   46 type  1   force =     0.00140336   -0.00039970   -0.00090098
     atom   47 type  1   force =    -0.00140336    0.00039970   -0.00090098
     atom   48 type  1   force =    -0.00140336   -0.00039970    0.00090098
     atom   49 type  2   force =     0.00063255    0.00345785   -0.00038751
     atom   50 type  2   force =     0.00063255   -0.00345785    0.00038751
     atom   51 type  2   force =    -0.00063255    0.00345785    0.00038751
     atom   52 type  2   force =    -0.00063255   -0.00345785   -0.00038751
     atom   53 type  4   force =    -0.00053328    0.00025134   -0.00073111
     atom   54 type  4   force =    -0.00053328   -0.00025134    0.00073111
     atom   55 type  4   force =     0.00053328    0.00025134    0.00073111
     atom   56 type  4   force =     0.00053328   -0.00025134   -0.00073111
     atom   57 type  4   force =     0.00038768    0.00073083   -0.00023105
     atom   58 type  4   force =     0.00038768   -0.00073083    0.00023105
     atom   59 type  4   force =    -0.00038768    0.00073083    0.00023105
     atom   60 type  4   force =    -0.00038768   -0.00073083   -0.00023105
     atom   61 type  4   force =    -0.00053877    0.00235455    0.00034759
     atom   62 type  4   force =    -0.00053877   -0.00235455   -0.00034759
     atom   63 type  4   force =     0.00053877    0.00235455   -0.00034759
     atom   64 type  4   force =     0.00053877   -0.00235455    0.00034759
     atom   65 type  3   force =    -0.00045237   -0.00009307    0.00003567
     atom   66 type  3   force =    -0.00045237    0.00009307   -0.00003567
     atom   67 type  3   force =     0.00045237   -0.00009307   -0.00003567
     atom   68 type  3   force =     0.00045237    0.00009307    0.00003567
     atom   69 type  3   force =    -0.00070676   -0.00000858   -0.00008522
     atom   70 type  3   force =    -0.00070676    0.00000858    0.00008522
     atom   71 type  3   force =     0.00070676   -0.00000858    0.00008522
     atom   72 type  3   force =     0.00070676    0.00000858   -0.00008522
     atom   73 type  3   force =    -0.00078680    0.00005545   -0.00015363
     atom   74 type  3   force =    -0.00078680   -0.00005545    0.00015363
     atom   75 type  3   force =     0.00078680    0.00005545    0.00015363
     atom   76 type  3   force =     0.00078680   -0.00005545   -0.00015363

     Total force =     0.020224     Total SCF correction =     0.000195


     Computing stress (Cartesian axis) and pressure

          total   stress  (Ry/bohr**3)                   (kbar)     P=    3.23
   0.00003218   0.00000000   0.00000000          4.73      0.00      0.00
   0.00000000   0.00002434   0.00000000          0.00      3.58      0.00
   0.00000000   0.00000000   0.00000926          0.00      0.00      1.36


     Writing output data file scf.save
 
     init_run     :     35.34s CPU     38.42s WALL (       1 calls)
     electrons    :   1431.52s CPU   1521.94s WALL (       1 calls)
     forces       :     17.37s CPU     17.53s WALL (       1 calls)
     stress       :     77.09s CPU     77.40s WALL (       1 calls)

     Called by init_run:
     wfcinit      :     30.65s CPU     33.27s WALL (       1 calls)
     potinit      :      1.69s CPU      1.77s WALL (       1 calls)

     Called by electrons:
     c_bands      :   1305.09s CPU   1381.66s WALL (      16 calls)
     sum_band     :    116.16s CPU    128.74s WALL (      16 calls)
     v_of_rho     :      1.52s CPU      1.85s WALL (      17 calls)
     newd         :      3.18s CPU      4.00s WALL (      17 calls)
     PAW_pot      :      5.17s CPU      5.20s WALL (      17 calls)
     mix_rho      :      0.35s CPU      0.40s WALL (      16 calls)

     Called by c_bands:
     init_us_2    :      5.91s CPU      5.94s WALL (     280 calls)
     cegterg      :   1279.02s CPU   1355.52s WALL (     128 calls)

     Called by sum_band:
     sum_band:bec :      0.09s CPU      0.09s WALL (     128 calls)
     addusdens    :      3.20s CPU      3.95s WALL (      16 calls)

     Called by *egterg:
     h_psi        :    646.03s CPU    713.43s WALL (     604 calls)
     s_psi        :    155.39s CPU    155.42s WALL (     604 calls)
     g_psi        :      3.36s CPU      3.36s WALL (     468 calls)
     cdiaghg      :     94.69s CPU     95.12s WALL (     596 calls)

     Called by h_psi:
     h_psi:pot    :    641.38s CPU    708.70s WALL (     604 calls)
     h_psi:calbec :    148.95s CPU    149.26s WALL (     604 calls)
     vloc_psi     :    336.77s CPU    403.71s WALL (     604 calls)
     add_vuspsi   :    155.66s CPU    155.73s WALL (     604 calls)

     General routines
     calbec       :    213.62s CPU    214.06s WALL (     772 calls)
     fft          :      1.02s CPU      1.85s WALL (     245 calls)
     fftw         :    359.04s CPU    436.74s WALL (  170234 calls)
 
     Parallel routines
     fft_scatter  :     93.18s CPU    167.46s WALL (  170479 calls)
 
     PWSCF        : 26m11.23s CPU    28m31.43s WALL

 
   This run was terminated on:   6:46:28   4Nov2017            

=------------------------------------------------------------------------------=
   JOB DONE.
=------------------------------------------------------------------------------=
