
     Program PWSCF v.6.1 (svn rev. 13369) starts on 12Dec2017 at  0:30:14 

     This program is part of the open-source Quantum ESPRESSO suite
     for quantum simulation of materials; please cite
         "P. Giannozzi et al., J. Phys.:Condens. Matter 21 395502 (2009);
          URL http://www.quantum-espresso.org", 
     in publications or presentations arising from this work. More details at
     http://www.quantum-espresso.org/quote

     Parallel version (MPI), running on     8 processors
     R & G space division:  proc/nbgrp/npool/nimage =       8
     Waiting for input...
     Reading input from standard input

     Current dimensions of program PWSCF are:
     Max number of different atomic species (ntypx) = 10
     Max number of k-points (npk) =  40000
     Max angular momentum in pseudopotentials (lmaxx) =  3
               file C.pbe-n-kjpaw_psl.0.1.UPF: wavefunction(s)  2P renormalized
               file N.pbe-n-kjpaw_psl.0.1.UPF: wavefunction(s)  2P renormalized
               file H.pbe-kjpaw_psl.0.1.UPF: wavefunction(s)  1S renormalized
               file O.pbe-n-kjpaw_psl.0.1.UPF: wavefunction(s)  2P renormalized

     -------------------------------------
     Parameters for Dispersion Correction:
     -------------------------------------
       atom      VdW radius       C_6     

        C          2.744         60.710
        N          2.640         42.670
        H          1.892          4.857
        O          2.536         24.284

     Subspace diagonalization in iterative solution of the eigenvalue problem:
     a serial algorithm will be used

 
     Parallelization info
     --------------------
     sticks:   dense  smooth     PW     G-vecs:    dense   smooth      PW
     Min        2267    2267    610                94835    94835   13230
     Max        2268    2268    611                94836    94836   13231
     Sum       18143   18143   4887               758687   758687  105841
 


     bravais-lattice index     =            0
     lattice parameter (alat)  =      35.7536  a.u.
     unit-cell volume          =    5614.4198 (a.u.)^3
     number of atoms/cell      =           88
     number of atomic types    =            4
     number of electrons       =       312.00
     number of Kohn-Sham states=          187
     kinetic-energy cutoff     =     100.0000  Ry
     charge density cutoff     =     400.0000  Ry
     convergence threshold     =      1.0E-08
     mixing beta               =       0.5000
     number of iterations used =            8  plain     mixing
     Exchange-correlation      =  SLA  PW   PBX  PBC ( 1  4  3  4 0 0)

     celldm(1)=  35.753618  celldm(2)=   0.000000  celldm(3)=   0.000000
     celldm(4)=   0.000000  celldm(5)=   0.000000  celldm(6)=   0.000000

     crystal axes: (cart. coord. in units of alat)
               a(1) = (   1.000000   0.000000   0.000000 )  
               a(2) = (   0.000000   0.446142   0.000000 )  
               a(3) = (  -0.003941   0.000000   0.275342 )  

     reciprocal axes: (cart. coord. in units 2 pi/alat)
               b(1) = (  1.000000  0.000000  0.014313 )  
               b(2) = (  0.000000  2.241441  0.000000 )  
               b(3) = (  0.000000  0.000000  3.631850 )  


     PseudoPot. # 1 for  C read from file:
     /scratch/ahofstet/pseudo/C.pbe-n-kjpaw_psl.0.1.UPF
     MD5 check sum: 430fe95172b1e11ef3f8ed03bac87931
     Pseudo is Projector augmented-wave + core cor, Zval =  4.0
     Generated using "atomic" code by A. Dal Corso  v.5.0.99 svn rev. 10869
     Shape of augmentation charge: BESSEL
     Using radial grid of 1073 points,  4 beta functions with: 
                l(1) =   0
                l(2) =   0
                l(3) =   1
                l(4) =   1
     Q(r) pseudized with 0 coefficients 


     PseudoPot. # 2 for  N read from file:
     /scratch/ahofstet/pseudo/N.pbe-n-kjpaw_psl.0.1.UPF
     MD5 check sum: f73187c8b701007e77325f868c9291d7
     Pseudo is Projector augmented-wave + core cor, Zval =  5.0
     Generated using "atomic" code by A. Dal Corso  v.5.0.99 svn rev. 10869
     Shape of augmentation charge: PSQ
     Using radial grid of 1085 points,  4 beta functions with: 
                l(1) =   0
                l(2) =   0
                l(3) =   1
                l(4) =   1
     Q(r) pseudized with 0 coefficients 


     PseudoPot. # 3 for  H read from file:
     /scratch/ahofstet/pseudo/H.pbe-kjpaw_psl.0.1.UPF
     MD5 check sum: 94e484f906d9e9773b2f6e52662335b2
     Pseudo is Projector augmented-wave, Zval =  1.0
     Generated using "atomic" code by A. Dal Corso  v.5.0.99 svn rev. 10869
     Shape of augmentation charge: PSQ
     Using radial grid of  929 points,  2 beta functions with: 
                l(1) =   0
                l(2) =   0
     Q(r) pseudized with 0 coefficients 


     PseudoPot. # 4 for  O read from file:
     /scratch/ahofstet/pseudo/O.pbe-n-kjpaw_psl.0.1.UPF
     MD5 check sum: 3f94a2996a3169367d6eb21d9b593f20
     Pseudo is Projector augmented-wave + core cor, Zval =  6.0
     Generated using "atomic" code by A. Dal Corso  v.5.0.99 svn rev. 10869
     Shape of augmentation charge: BESSEL
     Using radial grid of 1095 points,  4 beta functions with: 
                l(1) =   0
                l(2) =   0
                l(3) =   1
                l(4) =   1
     Q(r) pseudized with 0 coefficients 


     atomic species   valence    mass     pseudopotential
        C              4.00    12.01070      C( 1.00)
        N              5.00    14.00670      N( 1.00)
        H              1.00     1.00794      H( 1.00)
        O              6.00    15.99940      O( 1.00)

      4 Sym. Ops., with inversion, found ( 2 have fractional translation)



   Cartesian axes

     site n.     atom                  positions (alat units)
         1           O   tau(   1) = (   0.3153231   0.0685282   0.1112506  )
         2           O   tau(   2) = (   0.1827065   0.2915990   0.0264203  )
         3           O   tau(   3) = (   0.6807360   0.3776135   0.1640912  )
         4           O   tau(   4) = (   0.8133526   0.1545426   0.2489215  )
         5           O   tau(   5) = (   0.5481273   0.1810683   0.1755576  )
         6           O   tau(   6) = (   0.9459614   0.4041392   0.2374551  )
         7           O   tau(   7) = (   0.4479318   0.2650733   0.0997842  )
         8           O   tau(   8) = (   0.0500977   0.0420025   0.0378867  )
         9           O   tau(   9) = (   0.6271138   0.1142483   0.2301979  )
        10           O   tau(  10) = (   0.8669749   0.3373192   0.1828147  )
        11           O   tau(  11) = (   0.3689453   0.3318933   0.0451438  )
        12           O   tau(  12) = (   0.1290842   0.1088225   0.0925270  )
        13           N   tau(  13) = (   0.4135987   0.0990161   0.0455147  )
        14           N   tau(  14) = (   0.0844308   0.3220869   0.0921562  )
        15           N   tau(  15) = (   0.5824604   0.3471256   0.2298271  )
        16           N   tau(  16) = (   0.9116283   0.1240547   0.1831856  )
        17           N   tau(  17) = (   0.4593057   0.0556695   0.0821328  )
        18           N   tau(  18) = (   0.0387238   0.2787404   0.0555381  )
        19           N   tau(  19) = (   0.5367534   0.3904721   0.1932090  )
        20           N   tau(  20) = (   0.9573353   0.1674013   0.2198037  )
        21           N   tau(  21) = (   0.5801114   0.0283122   0.0701950  )
        22           N   tau(  22) = (   0.9179181   0.2513830   0.0674759  )
        23           N   tau(  23) = (   0.4159477   0.4178295   0.2051468  )
        24           N   tau(  24) = (   0.0781410   0.1947587   0.2078658  )
        25           N   tau(  25) = (   0.5653672   0.1364532   0.2223378  )
        26           N   tau(  26) = (   0.9287214   0.3595240   0.1906749  )
        27           N   tau(  27) = (   0.4306919   0.3096884   0.0530040  )
        28           N   tau(  28) = (   0.0673377   0.0866176   0.0846669  )
        29           N   tau(  29) = (   0.4034214   0.1780323   0.2253030  )
        30           N   tau(  30) = (   0.0906673   0.4011031   0.1877097  )
        31           N   tau(  31) = (   0.5926378   0.2681094   0.0500388  )
        32           N   tau(  32) = (   0.9053918   0.0450385   0.0876321  )
        33           C   tau(  33) = (   0.5223497   0.0640092   0.0505927  )
        34           C   tau(  34) = (   0.9756798   0.2870800   0.0870781  )
        35           C   tau(  35) = (   0.4737094   0.3821325   0.2247490  )
        36           C   tau(  36) = (   0.0203793   0.1590616   0.1882636  )
        37           C   tau(  37) = (   0.5128951   0.1136211   0.2681037  )
        38           C   tau(  38) = (   0.9811936   0.3366920   0.1449090  )
        39           C   tau(  39) = (   0.4831641   0.3325205   0.0072381  )
        40           C   tau(  40) = (   0.0148655   0.1094497   0.1304328  )
        41           C   tau(  41) = (   0.3313890   0.1850961   0.2345423  )
        42           C   tau(  42) = (   0.1626996   0.4081669   0.1784703  )
        43           C   tau(  43) = (   0.6646701   0.2610456   0.0407994  )
        44           C   tau(  44) = (   0.8333595   0.0379747   0.0968714  )
        45           C   tau(  45) = (   0.3031015   0.1503129   0.0146592  )
        46           C   tau(  46) = (   0.1949281   0.3733837   0.1230117  )
        47           C   tau(  47) = (   0.6929576   0.2958287   0.2606826  )
        48           C   tau(  48) = (   0.8011310   0.0727579   0.1523300  )
        49           C   tau(  49) = (   0.3401048   0.1033179   0.0620740  )
        50           C   tau(  50) = (   0.1579247   0.3263887   0.0755969  )
        51           C   tau(  51) = (   0.6559543   0.3428238   0.2132678  )
        52           C   tau(  52) = (   0.8381344   0.1197530   0.1997448  )
        53           C   tau(  53) = (   0.4411405   0.1337839   0.2664888  )
        54           C   tau(  54) = (   0.0529482   0.3568547   0.1465238  )
        55           C   tau(  55) = (   0.5549186   0.3123578   0.0088530  )
        56           C   tau(  56) = (   0.9431109   0.0892870   0.1288179  )
        57           H   tau(  57) = (   0.2418569   0.2444447   0.2025107  )
        58           H   tau(  58) = (   0.2522318   0.0213739   0.2105020  )
        59           H   tau(  59) = (   0.7542022   0.2016969   0.0728311  )
        60           H   tau(  60) = (   0.7438273   0.4247678   0.0648398  )
        61           H   tau(  61) = (   0.2909266   0.2049575   0.1304648  )
        62           H   tau(  62) = (   0.2071030  -0.0181133   0.0072061  )
        63           H   tau(  63) = (   0.7051326   0.2411842   0.1448769  )
        64           H   tau(  64) = (   0.7889561   0.4642550   0.2681357  )
        65           H   tau(  65) = (   0.3246300   0.2798978   0.1735672  )
        66           H   tau(  66) = (   0.1694587   0.0568269   0.2394455  )
        67           H   tau(  67) = (   0.6714291   0.1662439   0.1017746  )
        68           H   tau(  68) = (   0.8266005   0.3893147   0.0358963  )
        69           H   tau(  69) = (   0.2463946   0.1557885   0.0227330  )
        70           H   tau(  70) = (   0.2516350   0.3788594   0.1149379  )
        71           H   tau(  71) = (   0.7496645   0.2903531   0.2526088  )
        72           H   tau(  72) = (   0.7444241   0.0672823   0.1604039  )
        73           H   tau(  73) = (   0.5781392  -0.0034847   0.1144084  )
        74           H   tau(  74) = (   0.9198904   0.2195861   0.0232625  )
        75           H   tau(  75) = (   0.4179200   0.4496264   0.1609333  )
        76           H   tau(  76) = (   0.0761687   0.2265555   0.2520793  )
        77           H   tau(  77) = (   0.4284028   0.2033315   0.1843588  )
        78           H   tau(  78) = (   0.0656859   0.4264023   0.2286538  )
        79           H   tau(  79) = (   0.5676564   0.2428102   0.0909829  )
        80           H   tau(  80) = (   0.9303732   0.0197393   0.0466879  )
        81           H   tau(  81) = (   0.6258134   0.0392393   0.0444648  )
        82           H   tau(  82) = (   0.8722161   0.2623101   0.0932061  )
        83           H   tau(  83) = (   0.3702457   0.4069024   0.2308770  )
        84           H   tau(  84) = (   0.1238430   0.1838316   0.1821357  )
        85           C   tau(  85) = (   0.2946925   0.2311544   0.1832510  )
        86           C   tau(  86) = (   0.1993962   0.0080836   0.2297617  )
        87           C   tau(  87) = (   0.7013667   0.2149873   0.0920908  )
        88           C   tau(  88) = (   0.7966629   0.4380581   0.0455801  )

     number of k points=     6
                       cart. coord. in units 2pi/alat
        k(    1) = (   0.0000000   0.0000000   0.0000000), wk =   0.2500000
        k(    2) = (   0.0000000   0.0000000   0.9079625), wk =   0.5000000
        k(    3) = (   0.0000000   0.0000000  -1.8159249), wk =   0.2500000
        k(    4) = (   0.0000000  -1.1207203   0.0000000), wk =   0.2500000
        k(    5) = (   0.0000000  -1.1207203   0.9079625), wk =   0.5000000
        k(    6) = (   0.0000000  -1.1207203  -1.8159249), wk =   0.2500000

     Dense  grid:   758687 G-vectors     FFT dimensions: ( 240, 108,  64)

     Estimated max dynamical RAM per process >     679.33MB

     Estimated total allocated dynamical RAM >    5434.63MB

     Check: negative/imaginary core charge=   -0.000002    0.000000

     Initial potential from superposition of free atoms

     starting charge  311.99840, renormalised to  312.00000
     Starting wfc are  268 randomized atomic wfcs
     Checking if some PAW data can be deallocated... 

     total cpu time spent up to now is       33.6 secs

     per-process dynamical memory:   463.5 Mb

     Self-consistent Calculation

     iteration #  1     ecut=   100.00 Ry     beta=0.50
     Davidson diagonalization with overlap
     ethr =  1.00E-02,  avg # of iterations =  3.7

     total cpu time spent up to now is      113.6 secs

     total energy              =   -1611.32067718 Ry
     Harris-Foulkes estimate   =   -1616.39913963 Ry
     estimated scf accuracy    <       9.35222933 Ry

     iteration #  2     ecut=   100.00 Ry     beta=0.50
     Davidson diagonalization with overlap
     ethr =  3.00E-03,  avg # of iterations =  3.0

     total cpu time spent up to now is      164.2 secs

     total energy              =   -1612.54783762 Ry
     Harris-Foulkes estimate   =   -1613.54140303 Ry
     estimated scf accuracy    <       2.01862924 Ry

     iteration #  3     ecut=   100.00 Ry     beta=0.50
     Davidson diagonalization with overlap
     ethr =  6.47E-04,  avg # of iterations =  5.5

     total cpu time spent up to now is      233.6 secs

     total energy              =   -1613.17387900 Ry
     Harris-Foulkes estimate   =   -1613.52347755 Ry
     estimated scf accuracy    <       0.86751195 Ry

     iteration #  4     ecut=   100.00 Ry     beta=0.50
     Davidson diagonalization with overlap
     ethr =  2.78E-04,  avg # of iterations =  2.5

     total cpu time spent up to now is      277.6 secs

     total energy              =   -1613.27525098 Ry
     Harris-Foulkes estimate   =   -1613.34295611 Ry
     estimated scf accuracy    <       0.16565769 Ry

     iteration #  5     ecut=   100.00 Ry     beta=0.50
     Davidson diagonalization with overlap
     ethr =  5.31E-05,  avg # of iterations =  8.8

     total cpu time spent up to now is      352.3 secs

     total energy              =   -1613.33121044 Ry
     Harris-Foulkes estimate   =   -1613.35123774 Ry
     estimated scf accuracy    <       0.06067497 Ry

     iteration #  6     ecut=   100.00 Ry     beta=0.50
     Davidson diagonalization with overlap
     ethr =  1.94E-05,  avg # of iterations =  2.0

     total cpu time spent up to now is      395.6 secs

     total energy              =   -1613.33861024 Ry
     Harris-Foulkes estimate   =   -1613.34235301 Ry
     estimated scf accuracy    <       0.01042487 Ry

     iteration #  7     ecut=   100.00 Ry     beta=0.50
     Davidson diagonalization with overlap
     ethr =  3.34E-06,  avg # of iterations =  6.8

     total cpu time spent up to now is      455.2 secs

     total energy              =   -1613.34070956 Ry
     Harris-Foulkes estimate   =   -1613.34117597 Ry
     estimated scf accuracy    <       0.00126919 Ry

     iteration #  8     ecut=   100.00 Ry     beta=0.50
     Davidson diagonalization with overlap
     ethr =  4.07E-07,  avg # of iterations =  4.2

     total cpu time spent up to now is      522.9 secs

     total energy              =   -1613.34126403 Ry
     Harris-Foulkes estimate   =   -1613.34135253 Ry
     estimated scf accuracy    <       0.00029652 Ry

     iteration #  9     ecut=   100.00 Ry     beta=0.50
     Davidson diagonalization with overlap
     ethr =  9.50E-08,  avg # of iterations =  2.0

     total cpu time spent up to now is      564.8 secs

     total energy              =   -1613.34126669 Ry
     Harris-Foulkes estimate   =   -1613.34130395 Ry
     estimated scf accuracy    <       0.00009116 Ry

     iteration # 10     ecut=   100.00 Ry     beta=0.50
     Davidson diagonalization with overlap
     ethr =  2.92E-08,  avg # of iterations =  3.8

     total cpu time spent up to now is      626.6 secs

     total energy              =   -1613.34129769 Ry
     Harris-Foulkes estimate   =   -1613.34130125 Ry
     estimated scf accuracy    <       0.00001005 Ry

     iteration # 11     ecut=   100.00 Ry     beta=0.50
     Davidson diagonalization with overlap
     ethr =  3.22E-09,  avg # of iterations =  3.0

     total cpu time spent up to now is      675.4 secs

     total energy              =   -1613.34129920 Ry
     Harris-Foulkes estimate   =   -1613.34130025 Ry
     estimated scf accuracy    <       0.00000279 Ry

     iteration # 12     ecut=   100.00 Ry     beta=0.50
     Davidson diagonalization with overlap
     ethr =  8.93E-10,  avg # of iterations =  4.2

     total cpu time spent up to now is      730.0 secs

     total energy              =   -1613.34129981 Ry
     Harris-Foulkes estimate   =   -1613.34129991 Ry
     estimated scf accuracy    <       0.00000029 Ry

     iteration # 13     ecut=   100.00 Ry     beta=0.50
     Davidson diagonalization with overlap
     ethr =  9.29E-11,  avg # of iterations =  4.0

     total cpu time spent up to now is      798.5 secs

     total energy              =   -1613.34129996 Ry
     Harris-Foulkes estimate   =   -1613.34129998 Ry
     estimated scf accuracy    <       0.00000009 Ry

     iteration # 14     ecut=   100.00 Ry     beta=0.50
     Davidson diagonalization with overlap
     ethr =  2.94E-11,  avg # of iterations =  2.3

     total cpu time spent up to now is      841.3 secs

     total energy              =   -1613.34129997 Ry
     Harris-Foulkes estimate   =   -1613.34129997 Ry
     estimated scf accuracy    <       0.00000001 Ry

     iteration # 15     ecut=   100.00 Ry     beta=0.50
     Davidson diagonalization with overlap
     ethr =  4.40E-12,  avg # of iterations =  4.0

     total cpu time spent up to now is      907.7 secs

     End of self-consistent calculation

          k = 0.0000 0.0000 0.0000 ( 94925 PWs)   bands (ev):

   -23.0612 -23.0612 -23.0490 -23.0490 -19.9553 -19.9547 -19.9264 -19.9252
   -18.6324 -18.6313 -18.5846 -18.5841 -18.2967 -18.2957 -18.2936 -18.2919
   -17.5966 -17.5952 -17.5844 -17.5827 -15.9406 -15.9391 -15.8935 -15.8931
   -13.8496 -13.8491 -13.8324 -13.8236 -13.4307 -13.4262 -13.3831 -13.3823
   -12.6123 -12.5782 -12.5780 -12.5750 -10.8649 -10.8572 -10.8439 -10.8224
   -10.4688 -10.4638 -10.4147 -10.3879  -8.6609  -8.6583  -8.5972  -8.5482
    -8.5434  -8.5243  -8.2681  -8.2666  -8.0891  -8.0424  -7.9351  -7.9046
    -7.0646  -7.0513  -6.6674  -6.6458  -6.3508  -6.3074  -6.2478  -6.1512
    -6.1487  -6.1470  -5.9393  -5.9139  -5.8814  -5.8799  -5.7944  -5.7903
    -5.6478  -5.6139  -5.6061  -5.5909  -5.2619  -5.1991  -5.1579  -5.1411
    -4.7879  -4.7852  -4.7094  -4.7082  -4.5661  -4.5650  -4.5288  -4.5081
    -4.0070  -3.9989  -3.8927  -3.7036  -3.5668  -3.5303  -3.4818  -3.4280
    -3.4157  -3.3513  -3.3366  -3.2777  -2.8330  -2.7988  -2.7823  -2.7500
    -2.7060  -2.6710  -2.5588  -2.4224  -2.3470  -2.3449  -2.3107  -2.2281
    -2.0903  -1.9800  -1.9791  -1.9390  -1.8807  -1.8408  -1.7703  -1.7681
    -0.9510  -0.9479  -0.7752  -0.7574  -0.6886  -0.6837  -0.2131  -0.2115
    -0.1261  -0.1164  -0.0924  -0.0893   0.0133   0.0418   0.3069   0.3342
     0.3637   0.3853   0.4790   0.5261   0.5368   0.5541   0.6574   0.6633
     1.0470   1.0948   1.0988   1.1170   1.1473   1.2605   1.6480   1.7204
     1.8533   1.8595   2.1559   2.1693   4.2445   4.2592   4.3343   4.3524
     5.6964   5.6991   5.7497   5.7660   6.3213   6.3979   6.4856   6.6044
     7.4549   7.7509   7.7632   8.1684   8.2479   8.4163   8.5146   8.5305
     8.5847   8.7402   9.0110   9.1122   9.2475   9.2620   9.4104   9.4206
     9.4331   9.5039   9.5063

          k = 0.0000 0.0000 0.9080 ( 94795 PWs)   bands (ev):

   -23.0580 -23.0580 -23.0492 -23.0492 -19.9432 -19.9426 -19.9205 -19.9195
   -18.6313 -18.6305 -18.5892 -18.5888 -18.3080 -18.3079 -18.2996 -18.2989
   -17.6077 -17.6071 -17.5737 -17.5731 -15.9389 -15.9378 -15.8997 -15.8995
   -13.8504 -13.8482 -13.8398 -13.8313 -13.4646 -13.4604 -13.3662 -13.3644
   -12.6029 -12.5843 -12.5487 -12.5425 -10.8849 -10.8640 -10.7948 -10.7918
   -10.5471 -10.5344 -10.4600 -10.4523  -8.6013  -8.5726  -8.5505  -8.5222
    -8.4491  -8.4053  -8.3910  -8.3623  -8.0761  -8.0540  -7.9533  -7.9342
    -6.9508  -6.9373  -6.8139  -6.7992  -6.3439  -6.2993  -6.1916  -6.1841
    -6.1738  -6.0833  -6.0124  -6.0101  -5.9031  -5.9002  -5.7817  -5.7762
    -5.6476  -5.6441  -5.6376  -5.5782  -5.2650  -5.2035  -5.1148  -5.0901
    -4.9090  -4.9067  -4.7186  -4.7158  -4.6240  -4.6043  -4.4807  -4.4710
    -4.0397  -4.0237  -3.8007  -3.7375  -3.5566  -3.5505  -3.5234  -3.4768
    -3.3205  -3.2766  -3.2758  -3.2271  -2.8726  -2.8515  -2.7655  -2.7313
    -2.5798  -2.5684  -2.4390  -2.4217  -2.4143  -2.3033  -2.2556  -2.1433
    -2.0886  -2.0814  -2.0409  -1.9485  -1.8595  -1.8259  -1.8117  -1.7714
    -0.8650  -0.8527  -0.6779  -0.6341  -0.6119  -0.5946  -0.3024  -0.3021
    -0.1712  -0.1700  -0.1241  -0.1141   0.0614   0.0661   0.3535   0.3706
     0.5070   0.5312   0.5454   0.5460   0.5965   0.6616   0.6907   0.7000
     1.0744   1.0896   1.0946   1.1166   1.2991   1.4210   1.6343   1.7150
     1.8877   1.8895   2.1285   2.1286   4.2051   4.2133   4.3006   4.3168
     5.4586   5.4855   5.5159   5.5330   6.1971   6.2134   6.4066   6.4105
     7.7391   7.8623   8.0198   8.1907   8.3071   8.4002   8.4644   8.4980
     8.5892   8.7744   8.7985   9.0430   9.1147   9.1335   9.1972   9.2419
     9.2837   9.4882   9.5583

          k = 0.0000 0.0000-1.8159 ( 94826 PWs)   bands (ev):

   -23.0533 -23.0533 -23.0507 -23.0507 -19.9275 -19.9275 -19.9172 -19.9172
   -18.6311 -18.6311 -18.5933 -18.5933 -18.3201 -18.3201 -18.3058 -18.3058
   -17.5946 -17.5946 -17.5866 -17.5866 -15.9297 -15.9297 -15.9130 -15.9129
   -13.8585 -13.8585 -13.8484 -13.8484 -13.4253 -13.4253 -13.4054 -13.4054
   -12.5834 -12.5834 -12.5188 -12.5188 -10.8397 -10.8397 -10.7892 -10.7892
   -10.6127 -10.6127 -10.5243 -10.5243  -8.6032  -8.6032  -8.5207  -8.5207
    -8.3963  -8.3963  -8.2771  -8.2771  -8.1128  -8.1128  -7.9259  -7.9259
    -7.0457  -7.0457  -6.6530  -6.6530  -6.2977  -6.2977  -6.1859  -6.1859
    -6.1593  -6.1593  -6.1395  -6.1395  -5.8935  -5.8935  -5.7239  -5.7239
    -5.6888  -5.6888  -5.6245  -5.6245  -5.2598  -5.2598  -5.1545  -5.1545
    -5.0138  -5.0138  -4.7320  -4.7320  -4.5298  -4.5298  -4.5219  -4.5219
    -3.9667  -3.9667  -3.7923  -3.7923  -3.5700  -3.5700  -3.5424  -3.5424
    -3.3286  -3.3286  -3.1327  -3.1327  -2.8337  -2.8337  -2.8077  -2.8077
    -2.5313  -2.5313  -2.3902  -2.3902  -2.2434  -2.2434  -2.2290  -2.2290
    -2.1043  -2.1043  -1.9880  -1.9880  -1.8583  -1.8583  -1.7212  -1.7212
    -0.7869  -0.7869  -0.6502  -0.6502  -0.5496  -0.5496  -0.1969  -0.1969
    -0.1515  -0.1515  -0.1211  -0.1211   0.0555   0.0555   0.2984   0.2984
     0.5419   0.5419   0.6539   0.6539   0.6707   0.6707   0.7903   0.7903
     1.0773   1.0773   1.1265   1.1265   1.5724   1.5724   1.7082   1.7082
     1.9869   1.9869   2.0018   2.0018   4.1555   4.1555   4.2723   4.2723
     5.1838   5.1838   5.2323   5.2323   6.0104   6.0104   6.3267   6.3267
     8.0061   8.0061   8.1704   8.1704   8.3538   8.3538   8.5825   8.5825
     8.6866   8.6866   8.7446   8.7446   9.1377   9.1377   9.1961   9.1961
     9.2867   9.2867   9.5911

          k = 0.0000-1.1207 0.0000 ( 94770 PWs)   bands (ev):

   -23.0607 -23.0607 -23.0494 -23.0494 -19.9549 -19.9549 -19.9269 -19.9269
   -18.6289 -18.6289 -18.5856 -18.5856 -18.2987 -18.2987 -18.2900 -18.2900
   -17.6126 -17.6126 -17.5676 -17.5676 -15.9367 -15.9367 -15.8965 -15.8965
   -13.8580 -13.8580 -13.8166 -13.8166 -13.4453 -13.4453 -13.3694 -13.3694
   -12.6042 -12.6042 -12.5680 -12.5680 -10.8764 -10.8764 -10.8224 -10.8224
   -10.4429 -10.4429 -10.4180 -10.4180  -8.6305  -8.6305  -8.5687  -8.5687
    -8.4766  -8.4766  -8.3900  -8.3900  -8.0313  -8.0313  -7.9325  -7.9325
    -6.9550  -6.9550  -6.8025  -6.8025  -6.3537  -6.3537  -6.1780  -6.1780
    -6.1138  -6.1138  -5.9225  -5.9225  -5.8293  -5.8293  -5.8121  -5.8121
    -5.6366  -5.6366  -5.5977  -5.5977  -5.2202  -5.2202  -5.0933  -5.0933
    -4.9473  -4.9473  -4.6353  -4.6353  -4.5927  -4.5927  -4.4784  -4.4784
    -4.0741  -4.0741  -3.7760  -3.7760  -3.5370  -3.5370  -3.4140  -3.4140
    -3.3880  -3.3880  -3.3049  -3.3049  -2.8259  -2.8259  -2.7790  -2.7790
    -2.7095  -2.7095  -2.4974  -2.4974  -2.3500  -2.3500  -2.2604  -2.2604
    -2.0031  -2.0031  -1.9496  -1.9496  -1.8271  -1.8271  -1.7737  -1.7737
    -0.9438  -0.9438  -0.7643  -0.7643  -0.6408  -0.6408  -0.2677  -0.2677
    -0.1800  -0.1800  -0.1117  -0.1117   0.0597   0.0597   0.3062   0.3062
     0.4098   0.4098   0.5211   0.5211   0.5382   0.5382   0.6955   0.6955
     1.0760   1.0760   1.0982   1.0982   1.3181   1.3181   1.5134   1.5134
     1.8750   1.8750   2.1101   2.1101   4.2287   4.2287   4.4186   4.4186
     5.7236   5.7236   5.7255   5.7255   6.3303   6.3303   6.5974   6.5974
     7.9037   7.9037   8.0631   8.0631   8.2429   8.2429   8.4613   8.4613
     8.7567   8.7567   8.9344   8.9344   9.1534   9.1534   9.2614   9.2614
     9.3595   9.3596   9.4485

          k = 0.0000-1.1207 0.9080 ( 94782 PWs)   bands (ev):

   -23.0577 -23.0577 -23.0494 -23.0494 -19.9417 -19.9417 -19.9218 -19.9218
   -18.6310 -18.6310 -18.5886 -18.5886 -18.3079 -18.3079 -18.2994 -18.2994
   -17.5971 -17.5971 -17.5830 -17.5830 -15.9354 -15.9354 -15.9026 -15.9026
   -13.8717 -13.8717 -13.8196 -13.8196 -13.4296 -13.4296 -13.3921 -13.3921
   -12.5892 -12.5892 -12.5497 -12.5497 -10.8523 -10.8523 -10.8126 -10.8126
   -10.5077 -10.5077 -10.4932 -10.4932  -8.6324  -8.6324  -8.5255  -8.5255
    -8.4858  -8.4858  -8.2707  -8.2707  -8.0883  -8.0883  -7.9204  -7.9204
    -7.0544  -7.0544  -6.6505  -6.6505  -6.3305  -6.3305  -6.1950  -6.1950
    -6.1413  -6.1413  -5.9227  -5.9227  -5.9045  -5.9045  -5.7735  -5.7735
    -5.7059  -5.7059  -5.6232  -5.6232  -5.2472  -5.2472  -5.1539  -5.1539
    -5.0055  -5.0055  -4.6801  -4.6801  -4.5515  -4.5515  -4.5171  -4.5171
    -3.9887  -3.9887  -3.8224  -3.8224  -3.5552  -3.5552  -3.4508  -3.4508
    -3.3376  -3.3376  -3.2208  -3.2208  -2.8204  -2.8204  -2.8028  -2.8028
    -2.5035  -2.5035  -2.4388  -2.4388  -2.3781  -2.3781  -2.2789  -2.2789
    -1.9975  -1.9975  -1.9277  -1.9277  -1.8889  -1.8889  -1.8206  -1.8206
    -0.8139  -0.8139  -0.6893  -0.6893  -0.6295  -0.6295  -0.1900  -0.1900
    -0.1722  -0.1722  -0.0735  -0.0735   0.0271   0.0271   0.3072   0.3072
     0.4858   0.4858   0.5487   0.5487   0.6467   0.6467   0.6991   0.6991
     1.0767   1.0767   1.1103   1.1103   1.3925   1.3925   1.6009   1.6009
     1.8915   1.8915   2.0983   2.0983   4.1686   4.1686   4.3772   4.3772
     5.4772   5.4772   5.5115   5.5115   6.2104   6.2104   6.4306   6.4306
     7.9965   7.9965   8.0688   8.0688   8.2565   8.2565   8.4135   8.4135
     8.6952   8.6952   8.8894   8.8894   9.1040   9.1040   9.2561   9.2561
     9.4191   9.4194   9.5312

          k = 0.0000-1.1207-1.8159 ( 94828 PWs)   bands (ev):

   -23.0537 -23.0537 -23.0504 -23.0504 -19.9257 -19.9257 -19.9193 -19.9193
   -18.6318 -18.6318 -18.5925 -18.5925 -18.3159 -18.3159 -18.3101 -18.3101
   -17.5982 -17.5982 -17.5824 -17.5824 -15.9373 -15.9373 -15.9054 -15.9054
   -13.8747 -13.8747 -13.8181 -13.8181 -13.4787 -13.4787 -13.3639 -13.3639
   -12.5738 -12.5738 -12.5340 -12.5340 -10.8667 -10.8667 -10.7696 -10.7696
   -10.5749 -10.5749 -10.5547 -10.5547  -8.5235  -8.5235  -8.5146  -8.5146
    -8.3918  -8.3918  -8.3658  -8.3658  -8.0862  -8.0862  -7.9647  -7.9647
    -6.9275  -6.9275  -6.8143  -6.8143  -6.3111  -6.3111  -6.1836  -6.1836
    -6.1304  -6.1304  -5.9901  -5.9901  -5.8842  -5.8842  -5.8029  -5.8029
    -5.7392  -5.7392  -5.6252  -5.6252  -5.2574  -5.2574  -5.1097  -5.1097
    -5.0588  -5.0588  -4.7385  -4.7385  -4.5848  -4.5848  -4.4837  -4.4837
    -4.0047  -4.0047  -3.7849  -3.7849  -3.5643  -3.5643  -3.4441  -3.4441
    -3.3436  -3.3436  -3.2045  -3.2045  -2.8416  -2.8416  -2.8251  -2.8251
    -2.4327  -2.4327  -2.3992  -2.3992  -2.2564  -2.2564  -2.2406  -2.2406
    -1.9924  -1.9924  -1.9856  -1.9856  -1.9059  -1.9059  -1.7823  -1.7823
    -0.7149  -0.7149  -0.6189  -0.6189  -0.5756  -0.5756  -0.2819  -0.2819
    -0.1912  -0.1912  -0.1052  -0.1052   0.0511   0.0511   0.3401   0.3401
     0.5712   0.5712   0.6100   0.6100   0.7172   0.7172   0.7891   0.7891
     1.1005   1.1005   1.1097   1.1097   1.5738   1.5738   1.7020   1.7020
     1.8943   1.8943   2.0514   2.0514   4.1248   4.1248   4.3278   4.3278
     5.1574   5.1574   5.2425   5.2425   6.1449   6.1449   6.1948   6.1948
     8.0657   8.0657   8.2323   8.2323   8.4041   8.4041   8.5066   8.5066
     8.6588   8.6588   8.6768   8.6768   8.9966   8.9966   9.0997   9.0997
     9.3725   9.3725   9.4401

     highest occupied, lowest unoccupied level (ev):     2.1693    4.1248

!    total energy              =   -1613.34129997 Ry
     Harris-Foulkes estimate   =   -1613.34129997 Ry
     estimated scf accuracy    <          3.2E-09 Ry

     total all-electron energy =     -6162.874750 Ry

     The total energy is the sum of the following terms:

     one-electron contribution =    -879.19488848 Ry
     hartree contribution      =     567.79889567 Ry
     xc contribution           =    -333.27494937 Ry
     ewald contribution        =    -502.22041743 Ry
     Dispersion Correction     =      -0.44464489 Ry
     one-center paw contrib.   =    -466.00529548 Ry

     convergence has been achieved in  15 iterations

     Forces acting on atoms (cartesian axes, Ry/au):

     atom    1 type  4   force =     0.00627759    0.00297450   -0.00136564
     atom    2 type  4   force =    -0.00627759    0.00297450    0.00136564
     atom    3 type  4   force =    -0.00627759   -0.00297450    0.00136564
     atom    4 type  4   force =     0.00627759   -0.00297450   -0.00136564
     atom    5 type  4   force =    -0.00085080   -0.00325757    0.00211860
     atom    6 type  4   force =     0.00085080   -0.00325757   -0.00211860
     atom    7 type  4   force =     0.00085080    0.00325757   -0.00211860
     atom    8 type  4   force =    -0.00085080    0.00325757    0.00211860
     atom    9 type  4   force =    -0.00226614   -0.00209362   -0.00316108
     atom   10 type  4   force =     0.00226614   -0.00209362    0.00316108
     atom   11 type  4   force =     0.00226614    0.00209362    0.00316108
     atom   12 type  4   force =    -0.00226614    0.00209362   -0.00316108
     atom   13 type  2   force =    -0.00106048   -0.00416814    0.00115242
     atom   14 type  2   force =     0.00106048   -0.00416814   -0.00115242
     atom   15 type  2   force =     0.00106048    0.00416814   -0.00115242
     atom   16 type  2   force =    -0.00106048    0.00416814    0.00115242
     atom   17 type  2   force =     0.00029141    0.00473626   -0.00270589
     atom   18 type  2   force =    -0.00029141    0.00473626    0.00270589
     atom   19 type  2   force =    -0.00029141   -0.00473626    0.00270589
     atom   20 type  2   force =     0.00029141   -0.00473626   -0.00270589
     atom   21 type  2   force =     0.00186851    0.00307130    0.00115857
     atom   22 type  2   force =    -0.00186851    0.00307130   -0.00115857
     atom   23 type  2   force =    -0.00186851   -0.00307130   -0.00115857
     atom   24 type  2   force =     0.00186851   -0.00307130    0.00115857
     atom   25 type  2   force =    -0.00138752    0.00444469    0.00638312
     atom   26 type  2   force =     0.00138752    0.00444469   -0.00638312
     atom   27 type  2   force =     0.00138752   -0.00444469   -0.00638312
     atom   28 type  2   force =    -0.00138752   -0.00444469    0.00638312
     atom   29 type  2   force =    -0.00733551   -0.00566310   -0.00273738
     atom   30 type  2   force =     0.00733551   -0.00566310    0.00273738
     atom   31 type  2   force =     0.00733551    0.00566310    0.00273738
     atom   32 type  2   force =    -0.00733551    0.00566310   -0.00273738
     atom   33 type  1   force =    -0.00380880   -0.00010652   -0.00482575
     atom   34 type  1   force =     0.00380880   -0.00010652    0.00482575
     atom   35 type  1   force =     0.00380880    0.00010652    0.00482575
     atom   36 type  1   force =    -0.00380880    0.00010652   -0.00482575
     atom   37 type  1   force =    -0.00397274   -0.00175410   -0.00276337
     atom   38 type  1   force =     0.00397274   -0.00175410    0.00276337
     atom   39 type  1   force =     0.00397274    0.00175410    0.00276337
     atom   40 type  1   force =    -0.00397274    0.00175410   -0.00276337
     atom   41 type  1   force =     0.00628323   -0.00707391    0.01853681
     atom   42 type  1   force =    -0.00628323   -0.00707391   -0.01853681
     atom   43 type  1   force =    -0.00628323    0.00707391   -0.01853681
     atom   44 type  1   force =     0.00628323    0.00707391    0.01853681
     atom   45 type  1   force =     0.00530943   -0.00140878   -0.01047301
     atom   46 type  1   force =    -0.00530943   -0.00140878    0.01047301
     atom   47 type  1   force =    -0.00530943    0.00140878    0.01047301
     atom   48 type  1   force =     0.00530943    0.00140878   -0.01047301
     atom   49 type  1   force =    -0.00009806   -0.00163354   -0.01069505
     atom   50 type  1   force =     0.00009806   -0.00163354    0.01069505
     atom   51 type  1   force =     0.00009806    0.00163354    0.01069505
     atom   52 type  1   force =    -0.00009806    0.00163354   -0.01069505
     atom   53 type  1   force =     0.00726832    0.00201965    0.00543493
     atom   54 type  1   force =    -0.00726832    0.00201965   -0.00543493
     atom   55 type  1   force =    -0.00726832   -0.00201965   -0.00543493
     atom   56 type  1   force =     0.00726832   -0.00201965    0.00543493
     atom   57 type  3   force =    -0.00010832    0.00136682    0.00027082
     atom   58 type  3   force =     0.00010832    0.00136682   -0.00027082
     atom   59 type  3   force =     0.00010832   -0.00136682   -0.00027082
     atom   60 type  3   force =    -0.00010832   -0.00136682    0.00027082
     atom   61 type  3   force =    -0.00171400    0.00847554    0.02157252
     atom   62 type  3   force =     0.00171400    0.00847554   -0.02157252
     atom   63 type  3   force =     0.00171400   -0.00847554   -0.02157252
     atom   64 type  3   force =    -0.00171400   -0.00847554    0.02157252
     atom   65 type  3   force =    -0.00013046    0.00154695    0.00286405
     atom   66 type  3   force =     0.00013046    0.00154695   -0.00286405
     atom   67 type  3   force =     0.00013046   -0.00154695   -0.00286405
     atom   68 type  3   force =    -0.00013046   -0.00154695    0.00286405
     atom   69 type  3   force =     0.00151227    0.00192567   -0.00026534
     atom   70 type  3   force =    -0.00151227    0.00192567    0.00026534
     atom   71 type  3   force =    -0.00151227   -0.00192567    0.00026534
     atom   72 type  3   force =     0.00151227   -0.00192567   -0.00026534
     atom   73 type  3   force =     0.00063548   -0.00003509    0.00014352
     atom   74 type  3   force =    -0.00063548   -0.00003509   -0.00014352
     atom   75 type  3   force =    -0.00063548    0.00003509   -0.00014352
     atom   76 type  3   force =     0.00063548    0.00003509    0.00014352
     atom   77 type  3   force =    -0.00017054   -0.00047516   -0.00034575
     atom   78 type  3   force =     0.00017054   -0.00047516    0.00034575
     atom   79 type  3   force =     0.00017054    0.00047516    0.00034575
     atom   80 type  3   force =    -0.00017054    0.00047516   -0.00034575
     atom   81 type  3   force =    -0.00030641   -0.00001618    0.00111672
     atom   82 type  3   force =     0.00030641   -0.00001618   -0.00111672
     atom   83 type  3   force =     0.00030641    0.00001618   -0.00111672
     atom   84 type  3   force =    -0.00030641    0.00001618    0.00111672
     atom   85 type  1   force =    -0.00746463   -0.00133927   -0.02217191
     atom   86 type  1   force =     0.00746463   -0.00133927    0.02217191
     atom   87 type  1   force =     0.00746463    0.00133927    0.02217191
     atom   88 type  1   force =    -0.00746463    0.00133927   -0.02217191

     Total force =     0.094995     Total SCF correction =     0.000149


     Computing stress (Cartesian axis) and pressure

          total   stress  (Ry/bohr**3)                   (kbar)     P=  -10.79
  -0.00007090   0.00000000   0.00002951        -10.43      0.00      4.34
   0.00000000  -0.00004728   0.00000000          0.00     -6.96      0.00
   0.00002951   0.00000000  -0.00010183          4.34      0.00    -14.98


     Writing output data file scf.save
 
     init_run     :     31.60s CPU     32.93s WALL (       1 calls)
     electrons    :    829.51s CPU    874.32s WALL (       1 calls)
     forces       :     16.35s CPU     16.55s WALL (       1 calls)
     stress       :     93.88s CPU     94.15s WALL (       1 calls)

     Called by init_run:
     wfcinit      :     21.08s CPU     22.28s WALL (       1 calls)
     potinit      :      3.66s CPU      3.68s WALL (       1 calls)

     Called by electrons:
     c_bands      :    734.97s CPU    772.03s WALL (      15 calls)
     sum_band     :     82.08s CPU     88.69s WALL (      15 calls)
     v_of_rho     :      1.85s CPU      2.02s WALL (      16 calls)
     newd         :      4.09s CPU      5.00s WALL (      16 calls)
     PAW_pot      :      5.94s CPU      5.94s WALL (      16 calls)
     mix_rho      :      0.46s CPU      0.49s WALL (      15 calls)

     Called by c_bands:
     init_us_2    :      5.62s CPU      5.64s WALL (     198 calls)
     cegterg      :    712.75s CPU    749.77s WALL (      90 calls)

     Called by sum_band:
     sum_band:bec :      0.05s CPU      0.05s WALL (      90 calls)
     addusdens    :      4.35s CPU      5.25s WALL (      15 calls)

     Called by *egterg:
     h_psi        :    423.22s CPU    451.99s WALL (     455 calls)
     s_psi        :     66.96s CPU     66.98s WALL (     455 calls)
     g_psi        :      2.52s CPU      2.52s WALL (     359 calls)
     cdiaghg      :     42.97s CPU     43.04s WALL (     449 calls)

     Called by h_psi:
     h_psi:pot    :    419.36s CPU    448.06s WALL (     455 calls)
     h_psi:calbec :     70.39s CPU     70.55s WALL (     455 calls)
     vloc_psi     :    281.90s CPU    310.43s WALL (     455 calls)
     add_vuspsi   :     67.07s CPU     67.08s WALL (     455 calls)

     General routines
     calbec       :    104.89s CPU    105.12s WALL (     575 calls)
     fft          :      3.87s CPU      4.15s WALL (     232 calls)
     fftw         :    301.86s CPU    335.88s WALL (  112368 calls)
 
     Parallel routines
     fft_scatter  :     83.16s CPU    114.14s WALL (  112600 calls)
 
     PWSCF        : 16m18.05s CPU    18m 6.92s WALL

 
   This run was terminated on:   0:48:21  12Dec2017            

=------------------------------------------------------------------------------=
   JOB DONE.
=------------------------------------------------------------------------------=
