
     Program PWSCF v.6.1 (svn rev. 13369) starts on  4Nov2017 at  6:18:33 

     This program is part of the open-source Quantum ESPRESSO suite
     for quantum simulation of materials; please cite
         "P. Giannozzi et al., J. Phys.:Condens. Matter 21 395502 (2009);
          URL http://www.quantum-espresso.org", 
     in publications or presentations arising from this work. More details at
     http://www.quantum-espresso.org/quote

     Parallel version (MPI), running on     8 processors
     R & G space division:  proc/nbgrp/npool/nimage =       8
     Waiting for input...
     Reading input from standard input

     Current dimensions of program PWSCF are:
     Max number of different atomic species (ntypx) = 10
     Max number of k-points (npk) =  40000
     Max angular momentum in pseudopotentials (lmaxx) =  3
               file C.pbe-n-kjpaw_psl.0.1.UPF: wavefunction(s)  2P renormalized
               file N.pbe-n-kjpaw_psl.0.1.UPF: wavefunction(s)  2P renormalized
               file H.pbe-kjpaw_psl.0.1.UPF: wavefunction(s)  1S renormalized
               file O.pbe-n-kjpaw_psl.0.1.UPF: wavefunction(s)  2P renormalized

     -------------------------------------
     Parameters for Dispersion Correction:
     -------------------------------------
       atom      VdW radius       C_6     

        C          2.744         60.710
        N          2.640         42.670
        H          1.892          4.857
        O          2.536         24.284

     Subspace diagonalization in iterative solution of the eigenvalue problem:
     a serial algorithm will be used

 
     Parallelization info
     --------------------
     sticks:   dense  smooth     PW     G-vecs:    dense   smooth      PW
     Min         337     337     92                40401    40401    5735
     Max         338     338     93                40409    40409    5740
     Sum        2699    2699    737               323235   323235   45895
 


     bravais-lattice index     =            0
     lattice parameter (alat)  =       6.9746  a.u.
     unit-cell volume          =    2392.9753 (a.u.)^3
     number of atoms/cell      =           34
     number of atomic types    =            4
     number of electrons       =       120.00
     number of Kohn-Sham states=           72
     kinetic-energy cutoff     =     100.0000  Ry
     charge density cutoff     =     400.0000  Ry
     convergence threshold     =      1.0E-08
     mixing beta               =       0.5000
     number of iterations used =            8  plain     mixing
     Exchange-correlation      =  SLA  PW   PBX  PBC ( 1  4  3  4 0 0)

     celldm(1)=   6.974601  celldm(2)=   0.000000  celldm(3)=   0.000000
     celldm(4)=   0.000000  celldm(5)=   0.000000  celldm(6)=   0.000000

     crystal axes: (cart. coord. in units of alat)
               a(1) = (   1.000000   0.000000   0.000000 )  
               a(2) = (   0.149793   1.743686   0.000000 )  
               a(3) = (   0.449061   0.625955   4.044937 )  

     reciprocal axes: (cart. coord. in units 2 pi/alat)
               b(1) = (  1.000000 -0.085906 -0.097724 )  
               b(2) = (  0.000000  0.573498 -0.088749 )  
               b(3) = (  0.000000  0.000000  0.247223 )  


     PseudoPot. # 1 for  C read from file:
     /scratch/ahofstet/pseudo/C.pbe-n-kjpaw_psl.0.1.UPF
     MD5 check sum: 430fe95172b1e11ef3f8ed03bac87931
     Pseudo is Projector augmented-wave + core cor, Zval =  4.0
     Generated using "atomic" code by A. Dal Corso  v.5.0.99 svn rev. 10869
     Shape of augmentation charge: BESSEL
     Using radial grid of 1073 points,  4 beta functions with: 
                l(1) =   0
                l(2) =   0
                l(3) =   1
                l(4) =   1
     Q(r) pseudized with 0 coefficients 


     PseudoPot. # 2 for  N read from file:
     /scratch/ahofstet/pseudo/N.pbe-n-kjpaw_psl.0.1.UPF
     MD5 check sum: f73187c8b701007e77325f868c9291d7
     Pseudo is Projector augmented-wave + core cor, Zval =  5.0
     Generated using "atomic" code by A. Dal Corso  v.5.0.99 svn rev. 10869
     Shape of augmentation charge: PSQ
     Using radial grid of 1085 points,  4 beta functions with: 
                l(1) =   0
                l(2) =   0
                l(3) =   1
                l(4) =   1
     Q(r) pseudized with 0 coefficients 


     PseudoPot. # 3 for  H read from file:
     /scratch/ahofstet/pseudo/H.pbe-kjpaw_psl.0.1.UPF
     MD5 check sum: 94e484f906d9e9773b2f6e52662335b2
     Pseudo is Projector augmented-wave, Zval =  1.0
     Generated using "atomic" code by A. Dal Corso  v.5.0.99 svn rev. 10869
     Shape of augmentation charge: PSQ
     Using radial grid of  929 points,  2 beta functions with: 
                l(1) =   0
                l(2) =   0
     Q(r) pseudized with 0 coefficients 


     PseudoPot. # 4 for  O read from file:
     /scratch/ahofstet/pseudo/O.pbe-n-kjpaw_psl.0.1.UPF
     MD5 check sum: 3f94a2996a3169367d6eb21d9b593f20
     Pseudo is Projector augmented-wave + core cor, Zval =  6.0
     Generated using "atomic" code by A. Dal Corso  v.5.0.99 svn rev. 10869
     Shape of augmentation charge: BESSEL
     Using radial grid of 1095 points,  4 beta functions with: 
                l(1) =   0
                l(2) =   0
                l(3) =   1
                l(4) =   1
     Q(r) pseudized with 0 coefficients 


     atomic species   valence    mass     pseudopotential
        C              4.00    12.01070      C( 1.00)
        N              5.00    14.00670      N( 1.00)
        H              1.00     1.00794      H( 1.00)
        O              6.00    15.99940      O( 1.00)

      2 Sym. Ops., with inversion, found



   Cartesian axes

     site n.     atom                  positions (alat units)
         1           O   tau(   1) = (   0.3866132   1.2275870   0.0804329  )
         2           O   tau(   2) = (   1.2122409   1.1420541   3.9645041  )
         3           H   tau(   3) = (   0.7679404   1.6464457   3.9495533  )
         4           H   tau(   4) = (   0.8309136   0.7231954   0.0953837  )
         5           O   tau(   5) = (   0.8968792   1.0310642   0.3754798  )
         6           O   tau(   6) = (   0.7019749   1.3385769   3.6694572  )
         7           N   tau(   7) = (   0.1411137   1.5484292   1.6063325  )
         8           N   tau(   8) = (   1.4577403   0.8212119   2.4386045  )
         9           N   tau(   9) = (   0.3898779   1.5905474   1.8201718  )
        10           N   tau(  10) = (   1.2089761   0.7790937   2.2247653  )
        11           N   tau(  11) = (   0.6328551   1.6297909   2.0075203  )
        12           N   tau(  12) = (   0.9659990   0.7398502   2.0374168  )
        13           C   tau(  13) = (   0.2404228   1.5193240   0.6238748  )
        14           C   tau(  14) = (   1.3584313   0.8503171   3.4210623  )
        15           C   tau(  15) = (   0.0313624   1.5504295   0.9494601  )
        16           C   tau(  16) = (   1.5674917   0.8192116   3.0954770  )
        17           H   tau(  17) = (  -0.1513152   1.3239904   1.0027225  )
        18           H   tau(  18) = (   1.7501693   1.0456507   3.0422145  )
        19           C   tau(  19) = (   0.2390916   1.6740306   1.2523659  )
        20           C   tau(  20) = (   1.3597624   0.6956105   2.7925712  )
        21           C   tau(  21) = (   0.5181013   1.8983669   1.2061933  )
        22           C   tau(  22) = (   1.0807527   0.4712742   2.8387438  )
        23           H   tau(  23) = (   0.5159697   0.2567899   1.4405766  )
        24           H   tau(  24) = (   1.0828843   2.1128512   2.6043604  )
        25           C   tau(  25) = (   0.5471454   0.1636947   0.8672575  )
        26           C   tau(  26) = (   1.0517087   2.2059464   3.1776795  )
        27           H   tau(  27) = (   0.7324889   0.3871421   0.8118353  )
        28           H   tau(  28) = (   0.8663652   1.9824990   3.2331017  )
        29           C   tau(  29) = (   0.5247621   1.7372052   0.5712870  )
        30           C   tau(  30) = (   1.0740920   0.6324359   3.4736500  )
        31           H   tau(  31) = (   0.5209427  -0.0296098   0.3178364  )
        32           H   tau(  32) = (   1.0779113   2.3992509   3.7271006  )
        33           C   tau(  33) = (   0.1537979   1.2456012   0.3471612  )
        34           C   tau(  34) = (   1.4450562   1.1240399   3.6977758  )

     number of k points=    16
                       cart. coord. in units 2pi/alat
        k(    1) = (   0.0000000   0.0000000   0.0000000), wk =   0.0666667
        k(    2) = (   0.0000000   0.0000000  -0.1236113), wk =   0.0666667
        k(    3) = (   0.0000000   0.1911659  -0.0295830), wk =   0.1333333
        k(    4) = (   0.0000000   0.1911659  -0.1531943), wk =   0.1333333
        k(    5) = (   0.2000000  -0.0171812  -0.0195448), wk =   0.1333333
        k(    6) = (   0.2000000  -0.0171812  -0.1431561), wk =   0.1333333
        k(    7) = (   0.2000000   0.1739847  -0.0491278), wk =   0.1333333
        k(    8) = (   0.2000000   0.1739847  -0.1727391), wk =   0.1333333
        k(    9) = (   0.2000000  -0.2083471   0.0100382), wk =   0.1333333
        k(   10) = (   0.2000000  -0.2083471  -0.1135732), wk =   0.1333333
        k(   11) = (   0.4000000  -0.0343624  -0.0390896), wk =   0.1333333
        k(   12) = (   0.4000000  -0.0343624  -0.1627009), wk =   0.1333333
        k(   13) = (   0.4000000   0.1568035  -0.0686726), wk =   0.1333333
        k(   14) = (   0.4000000   0.1568035  -0.1922839), wk =   0.1333333
        k(   15) = (   0.4000000  -0.2255283  -0.0095066), wk =   0.1333333
        k(   16) = (   0.4000000  -0.2255283  -0.1331180), wk =   0.1333333

     Dense  grid:   323235 G-vectors     FFT dimensions: (  45,  80, 192)

     Estimated max dynamical RAM per process >     181.80MB

     Estimated total allocated dynamical RAM >    1454.41MB

     Check: negative/imaginary core charge=   -0.000002    0.000000

     Initial potential from superposition of free atoms

     starting charge  119.99927, renormalised to  120.00000
     Starting wfc are  106 randomized atomic wfcs
     Checking if some PAW data can be deallocated... 

     total cpu time spent up to now is       11.7 secs

     per-process dynamical memory:   184.3 Mb

     Self-consistent Calculation

     iteration #  1     ecut=   100.00 Ry     beta=0.50
     Davidson diagonalization with overlap
     ethr =  1.00E-02,  avg # of iterations =  3.0

     total cpu time spent up to now is       36.3 secs

     total energy              =    -604.68456959 Ry
     Harris-Foulkes estimate   =    -606.70232867 Ry
     estimated scf accuracy    <       3.70086847 Ry

     iteration #  2     ecut=   100.00 Ry     beta=0.50
     Davidson diagonalization with overlap
     ethr =  3.08E-03,  avg # of iterations =  2.7

     total cpu time spent up to now is       50.0 secs

     total energy              =    -604.90347847 Ry
     Harris-Foulkes estimate   =    -605.26272715 Ry
     estimated scf accuracy    <       0.69784774 Ry

     iteration #  3     ecut=   100.00 Ry     beta=0.50
     Davidson diagonalization with overlap
     ethr =  5.82E-04,  avg # of iterations =  5.7

     total cpu time spent up to now is       77.0 secs

     total energy              =    -605.30934246 Ry
     Harris-Foulkes estimate   =    -605.51830784 Ry
     estimated scf accuracy    <       0.53690483 Ry

     iteration #  4     ecut=   100.00 Ry     beta=0.50
     Davidson diagonalization with overlap
     ethr =  4.47E-04,  avg # of iterations =  4.5

     total cpu time spent up to now is       91.5 secs

     total energy              =    -605.34439688 Ry
     Harris-Foulkes estimate   =    -605.38279416 Ry
     estimated scf accuracy    <       0.08595963 Ry

     iteration #  5     ecut=   100.00 Ry     beta=0.50
     Davidson diagonalization with overlap
     ethr =  7.16E-05,  avg # of iterations =  5.9

     total cpu time spent up to now is      117.1 secs

     total energy              =    -605.37956088 Ry
     Harris-Foulkes estimate   =    -605.39189807 Ry
     estimated scf accuracy    <       0.03398239 Ry

     iteration #  6     ecut=   100.00 Ry     beta=0.50
     Davidson diagonalization with overlap
     ethr =  2.83E-05,  avg # of iterations =  1.6

     total cpu time spent up to now is      129.8 secs

     total energy              =    -605.38132095 Ry
     Harris-Foulkes estimate   =    -605.38414084 Ry
     estimated scf accuracy    <       0.00613371 Ry

     iteration #  7     ecut=   100.00 Ry     beta=0.50
     Davidson diagonalization with overlap
     ethr =  5.11E-06,  avg # of iterations =  5.4

     total cpu time spent up to now is      156.0 secs

     total energy              =    -605.38411145 Ry
     Harris-Foulkes estimate   =    -605.38464652 Ry
     estimated scf accuracy    <       0.00161504 Ry

     iteration #  8     ecut=   100.00 Ry     beta=0.50
     Davidson diagonalization with overlap
     ethr =  1.35E-06,  avg # of iterations =  1.0

     total cpu time spent up to now is      168.5 secs

     total energy              =    -605.38399516 Ry
     Harris-Foulkes estimate   =    -605.38423294 Ry
     estimated scf accuracy    <       0.00046860 Ry

     iteration #  9     ecut=   100.00 Ry     beta=0.50
     Davidson diagonalization with overlap
     ethr =  3.90E-07,  avg # of iterations =  4.4

     total cpu time spent up to now is      191.3 secs

     total energy              =    -605.38424886 Ry
     Harris-Foulkes estimate   =    -605.38433272 Ry
     estimated scf accuracy    <       0.00024448 Ry

     iteration # 10     ecut=   100.00 Ry     beta=0.50
     Davidson diagonalization with overlap
     ethr =  2.04E-07,  avg # of iterations =  1.0

     total cpu time spent up to now is      203.8 secs

     total energy              =    -605.38421744 Ry
     Harris-Foulkes estimate   =    -605.38426121 Ry
     estimated scf accuracy    <       0.00007640 Ry

     iteration # 11     ecut=   100.00 Ry     beta=0.50
     Davidson diagonalization with overlap
     ethr =  6.37E-08,  avg # of iterations =  4.0

     total cpu time spent up to now is      226.6 secs

     total energy              =    -605.38426491 Ry
     Harris-Foulkes estimate   =    -605.38428175 Ry
     estimated scf accuracy    <       0.00005031 Ry

     iteration # 12     ecut=   100.00 Ry     beta=0.50
     Davidson diagonalization with overlap
     ethr =  4.19E-08,  avg # of iterations =  1.0

     total cpu time spent up to now is      239.1 secs

     total energy              =    -605.38425827 Ry
     Harris-Foulkes estimate   =    -605.38426691 Ry
     estimated scf accuracy    <       0.00001691 Ry

     iteration # 13     ecut=   100.00 Ry     beta=0.50
     Davidson diagonalization with overlap
     ethr =  1.41E-08,  avg # of iterations =  4.0

     total cpu time spent up to now is      260.9 secs

     total energy              =    -605.38426764 Ry
     Harris-Foulkes estimate   =    -605.38426899 Ry
     estimated scf accuracy    <       0.00000472 Ry

     iteration # 14     ecut=   100.00 Ry     beta=0.50
     Davidson diagonalization with overlap
     ethr =  3.93E-09,  avg # of iterations =  1.0

     total cpu time spent up to now is      273.4 secs

     total energy              =    -605.38426677 Ry
     Harris-Foulkes estimate   =    -605.38426777 Ry
     estimated scf accuracy    <       0.00000214 Ry

     iteration # 15     ecut=   100.00 Ry     beta=0.50
     Davidson diagonalization with overlap
     ethr =  1.79E-09,  avg # of iterations =  3.9

     total cpu time spent up to now is      293.3 secs

     total energy              =    -605.38426765 Ry
     Harris-Foulkes estimate   =    -605.38426769 Ry
     estimated scf accuracy    <       0.00000017 Ry

     iteration # 16     ecut=   100.00 Ry     beta=0.50
     Davidson diagonalization with overlap
     ethr =  1.42E-10,  avg # of iterations =  1.4

     total cpu time spent up to now is      306.0 secs

     total energy              =    -605.38426763 Ry
     Harris-Foulkes estimate   =    -605.38426766 Ry
     estimated scf accuracy    <       0.00000010 Ry

     iteration # 17     ecut=   100.00 Ry     beta=0.50
     Davidson diagonalization with overlap
     ethr =  7.96E-11,  avg # of iterations =  3.1

     total cpu time spent up to now is      322.3 secs

     End of self-consistent calculation

          k = 0.0000 0.0000 0.0000 ( 40369 PWs)   bands (ev):

   -22.0927 -22.0391 -21.0571 -20.6384 -18.2287 -18.0829 -18.0728 -17.8641
   -15.8053 -15.7924 -12.9875 -12.9063 -11.4920 -11.4255 -10.1155  -9.8273
    -9.1915  -8.9799  -8.3277  -7.9435  -7.1540  -6.9636  -6.1877  -5.9369
    -5.7764  -5.7471  -5.6688  -5.5999  -5.3019  -5.1213  -4.9792  -4.9346
    -4.6986  -4.6515  -4.3836  -4.3254  -3.9576  -3.8336  -3.5924  -3.4694
    -2.9003  -2.5731  -2.4820  -2.3879  -2.0527  -1.8603  -1.8174  -1.6426
    -1.6068  -1.4033  -1.1869  -1.0331  -0.6984  -0.5796   0.0124   0.0917
     0.1786   0.2594   1.0064   1.0256   4.2854   4.3270   4.8680   5.3341
     5.6456   5.7512   6.5938   7.0061   7.2457   7.4305   7.4342   8.1937

          k = 0.0000 0.0000-0.1236 ( 40380 PWs)   bands (ev):

   -22.0927 -22.0391 -21.0571 -20.6384 -18.2287 -18.0842 -18.0715 -17.8641
   -15.8053 -15.7925 -12.9846 -12.9095 -11.4914 -11.4256 -10.1101  -9.8369
    -9.1849  -8.9821  -8.3254  -7.9463  -7.1817  -6.9154  -6.2570  -5.8503
    -5.8289  -5.7120  -5.6662  -5.6178  -5.3198  -5.1247  -4.9559  -4.8786
    -4.7126  -4.6623  -4.5459  -4.1894  -3.9033  -3.8831  -3.6278  -3.4483
    -2.9291  -2.5634  -2.5075  -2.2412  -2.1535  -1.8764  -1.8531  -1.6237
    -1.5753  -1.3900  -1.2010  -1.0337  -0.6921  -0.5874   0.0233   0.0782
     0.1797   0.2593   1.0038   1.0296   4.2972   4.3150   4.8723   5.3302
     5.6707   5.7332   6.6734   6.7692   7.2378   7.4374   7.8727   8.0264

          k = 0.0000 0.1912-0.0296 ( 40364 PWs)   bands (ev):

   -22.0808 -22.0511 -21.0524 -20.6435 -18.2297 -18.0828 -18.0731 -17.8624
   -15.8060 -15.7930 -12.9871 -12.9086 -11.4800 -11.4306 -10.1114  -9.8321
    -9.1533  -9.0059  -8.3733  -7.9287  -7.1811  -6.9386  -6.1544  -6.0412
    -5.8108  -5.7014  -5.5947  -5.5886  -5.3953  -5.1090  -4.9618  -4.8995
    -4.6899  -4.6666  -4.4246  -4.2752  -3.9113  -3.8353  -3.5441  -3.4907
    -2.9047  -2.5658  -2.4769  -2.3241  -2.1102  -1.8711  -1.8185  -1.6395
    -1.4855  -1.4304  -1.2559  -1.0695  -0.7277  -0.5722   0.0103   0.0831
     0.1903   0.2741   1.0126   1.0392   4.2448   4.3018   4.9616   5.2286
     5.6714   5.7392   6.6602   6.7896   7.3816   7.4750   7.8623   7.9708

          k = 0.0000 0.1912-0.1532 ( 40375 PWs)   bands (ev):

   -22.0808 -22.0511 -21.0524 -20.6435 -18.2297 -18.0840 -18.0719 -17.8625
   -15.8069 -15.7921 -12.9862 -12.9097 -11.4787 -11.4317 -10.1064  -9.8400
    -9.1470  -9.0106  -8.3688  -7.9309  -7.1978  -6.9152  -6.1958  -5.9479
    -5.8437  -5.7633  -5.6176  -5.5545  -5.3995  -5.0759  -4.9500  -4.8584
    -4.7371  -4.6385  -4.5060  -4.2276  -3.8940  -3.8688  -3.5511  -3.4725
    -2.9004  -2.5565  -2.4739  -2.3245  -2.1466  -1.8841  -1.8020  -1.5945
    -1.4905  -1.4592  -1.2495  -1.0677  -0.7337  -0.5646  -0.0116   0.1029
     0.1913   0.2726   0.9886   1.0616   4.1951   4.3574   4.9661   5.2307
     5.6325   5.7677   6.7022   6.7272   7.3200   7.5890   7.7826   8.1423

          k = 0.2000-0.0172-0.0195 ( 40405 PWs)   bands (ev):

   -22.0415 -21.9914 -20.9451 -20.5524 -18.3767 -18.1387 -18.1215 -17.9868
   -15.5565 -15.5437 -12.8452 -12.7680 -12.0498 -12.0167 -10.0295  -9.7019
    -9.3180  -9.2166  -8.3564  -8.0515  -7.4121  -7.0925  -6.2260  -6.1926
    -6.0249  -5.8956  -5.8019  -5.5479  -5.5254  -5.0302  -4.8174  -4.7806
    -4.3488  -4.2646  -4.1174  -4.0852  -3.9017  -3.8265  -3.7731  -3.6994
    -3.1940  -3.0524  -2.9318  -2.3479  -2.0795  -2.0307  -1.9237  -1.6936
    -1.0546  -1.0238  -0.7578  -0.6099  -0.5727  -0.4490   0.0016   0.0829
     0.5555   0.6450   1.1990   1.2312   4.5326   4.6681   4.8213   5.1274
     5.3068   5.4597   6.8962   6.9812   7.2705   7.3721   7.6603   7.7823

          k = 0.2000-0.0172-0.1432 ( 40430 PWs)   bands (ev):

   -22.0415 -21.9914 -20.9451 -20.5524 -18.3767 -18.1393 -18.1209 -17.9869
   -15.5566 -15.5437 -12.8429 -12.7705 -12.0497 -12.0166 -10.0260  -9.7087
    -9.3144  -9.2162  -8.3568  -8.0530  -7.4108  -7.0935  -6.2537  -6.1308
    -6.0671  -5.8960  -5.6972  -5.6714  -5.5237  -5.0116  -4.8374  -4.7130
    -4.4228  -4.2500  -4.1302  -4.0035  -3.9358  -3.8548  -3.7819  -3.6774
    -3.2128  -3.0329  -2.9361  -2.3181  -2.1171  -2.0232  -1.9253  -1.6850
    -1.0618  -1.0254  -0.7614  -0.6307  -0.5023  -0.4875  -0.0019   0.0851
     0.5554   0.6437   1.1875   1.2438   4.5496   4.6315   4.8337   5.1279
     5.3404   5.4349   6.9410   6.9465   7.2979   7.3081   7.5841   7.8402

          k = 0.2000 0.1740-0.0491 ( 40385 PWs)   bands (ev):

   -22.0311 -22.0020 -20.9408 -20.5571 -18.3773 -18.1375 -18.1228 -17.9855
   -15.5575 -15.5439 -12.8454 -12.7698 -12.0421 -12.0204 -10.0116  -9.7119
    -9.3040  -9.2247  -8.3877  -8.0426  -7.4130  -7.1009  -6.2466  -6.2155
    -6.0412  -5.8651  -5.7286  -5.6747  -5.4802  -5.0442  -4.8228  -4.6997
    -4.3413  -4.2786  -4.1199  -4.0664  -3.8682  -3.8547  -3.7806  -3.6854
    -3.2461  -3.0090  -2.9664  -2.3005  -2.1023  -2.0200  -1.9571  -1.6363
    -1.0463  -1.0191  -0.7543  -0.6364  -0.5371  -0.4544  -0.0602   0.1489
     0.5577   0.6314   1.2029   1.2524   4.5423   4.6343   4.9191   5.0405
     5.3730   5.4481   6.9019   7.0056   7.2103   7.2571   7.8498   7.9240

          k = 0.2000 0.1740-0.1727 ( 40410 PWs)   bands (ev):

   -22.0311 -22.0020 -20.9408 -20.5571 -18.3773 -18.1381 -18.1221 -17.9856
   -15.5584 -15.5430 -12.8452 -12.7702 -12.0415 -12.0209 -10.0102  -9.7145
    -9.3048  -9.2227  -8.3861  -8.0426  -7.4280  -7.0818  -6.2740  -6.2071
    -5.9715  -5.8494  -5.8209  -5.7071  -5.4383  -5.0372  -4.8114  -4.6530
    -4.4503  -4.2227  -4.1475  -4.0248  -3.8796  -3.8581  -3.7806  -3.6927
    -3.2370  -3.0082  -2.9657  -2.3004  -2.1568  -1.9744  -1.9466  -1.6366
    -1.0587  -1.0058  -0.7852  -0.5832  -0.5400  -0.4844  -0.0576   0.1502
     0.5556   0.6341   1.2055   1.2497   4.5120   4.6671   4.9213   5.0450
     5.3688   5.4432   6.8807   7.0338   7.1401   7.3378   7.8107   7.9021

          k = 0.2000-0.2083 0.0100 ( 40348 PWs)   bands (ev):

   -22.0295 -22.0035 -20.9412 -20.5566 -18.3762 -18.1366 -18.1237 -17.9872
   -15.5574 -15.5434 -12.8456 -12.7682 -12.0481 -12.0192 -10.0290  -9.7057
    -9.3351  -9.1973  -8.3338  -8.0706  -7.3840  -7.1447  -6.1980  -6.1255
    -6.0580  -5.9668  -5.8081  -5.5839  -5.4960  -5.0378  -4.8460  -4.7199
    -4.3674  -4.2319  -4.0858  -4.0560  -3.8852  -3.8697  -3.7812  -3.6772
    -3.2697  -3.0147  -2.9445  -2.2171  -2.1603  -2.0187  -1.9092  -1.7297
    -1.0555  -1.0096  -0.7557  -0.5948  -0.5547  -0.4863   0.0030   0.1563
     0.5451   0.6294   1.1984   1.2390   4.5005   4.6108   4.8338   5.1227
     5.3017   5.4203   6.7545   6.9282   7.3840   7.4487   7.6181   7.7819

          k = 0.2000-0.2083-0.1136 ( 40370 PWs)   bands (ev):

   -22.0295 -22.0035 -20.9412 -20.5566 -18.3761 -18.1372 -18.1231 -17.9872
   -15.5578 -15.5430 -12.8433 -12.7708 -12.0474 -12.0197 -10.0229  -9.7155
    -9.3353  -9.1933  -8.3311  -8.0739  -7.4057  -7.1028  -6.2555  -6.1935
    -6.0126  -5.8797  -5.7289  -5.7237  -5.4622  -5.0629  -4.8300  -4.6696
    -4.4049  -4.2454  -4.0963  -4.0346  -3.9210  -3.8377  -3.7808  -3.6745
    -3.2696  -3.0209  -2.9439  -2.1967  -2.1623  -2.0149  -1.9361  -1.7134
    -1.0488  -1.0256  -0.7427  -0.6159  -0.5482  -0.4841   0.0085   0.1524
     0.5477   0.6274   1.1914   1.2471   4.5103   4.6029   4.8207   5.1228
     5.3128   5.4243   6.7940   6.8944   7.3165   7.4881   7.5856   7.8107

          k = 0.4000-0.0344-0.0391 ( 40468 PWs)   bands (ev):

   -21.9539 -21.9109 -20.7238 -20.4036 -18.6400 -18.2371 -18.2172 -18.2078
   -14.8916 -14.8787 -13.1978 -13.1860 -12.5480 -12.4827  -9.9201  -9.7661
    -9.6043  -9.3932  -8.2766  -8.0662  -7.6037  -7.2598  -6.4716  -6.2777
    -6.1461  -6.0888  -5.7895  -5.6694  -5.4477  -5.2709  -4.8586  -4.6847
    -4.4847  -4.3645  -4.1735  -4.0325  -3.8877  -3.8021  -3.7338  -3.6156
    -3.4087  -3.2298  -2.9686  -2.5118  -2.2881  -2.2388  -1.9787  -1.4897
    -1.0518  -0.8299  -0.5626  -0.2325  -0.0512   0.2525   0.2980   0.3827
     0.9593   1.0583   2.2946   2.3163   4.0033   4.0582   4.8002   4.9137
     5.2249   5.4463   6.3835   6.5499   7.7970   7.8651   8.2398   8.6176

          k = 0.4000-0.0344-0.1627 ( 40425 PWs)   bands (ev):

   -21.9539 -21.9109 -20.7238 -20.4036 -18.6400 -18.2380 -18.2135 -18.2107
   -14.8920 -14.8783 -13.1978 -13.1859 -12.5468 -12.4840  -9.9212  -9.7656
    -9.6006  -9.3966  -8.2741  -8.0668  -7.6053  -7.2666  -6.4360  -6.2956
    -6.1974  -6.0265  -5.7996  -5.6716  -5.4692  -5.2698  -4.8617  -4.6768
    -4.4800  -4.3424  -4.1753  -4.0566  -3.8736  -3.7788  -3.7626  -3.6297
    -3.4066  -3.2227  -2.9633  -2.5141  -2.2777  -2.2410  -1.9960  -1.4845
    -1.0039  -0.9007  -0.5286  -0.2424  -0.0508   0.2541   0.2974   0.3816
     0.9782   1.0405   2.2747   2.3367   3.9803   4.0800   4.8023   4.9247
     5.2836   5.3539   6.4500   6.5067   7.8153   7.8423   8.2371   8.5800

          k = 0.4000 0.1568-0.0687 ( 40454 PWs)   bands (ev):

   -21.9446 -21.9203 -20.7211 -20.4065 -18.6388 -18.2339 -18.2192 -18.2100
   -14.8926 -14.8780 -13.1965 -13.1872 -12.5495 -12.4825  -9.9212  -9.7712
    -9.6044  -9.3856  -8.2493  -8.0760  -7.5998  -7.2806  -6.4453  -6.3185
    -6.1148  -6.1069  -5.7922  -5.6400  -5.5011  -5.2707  -4.9271  -4.6940
    -4.4519  -4.3412  -4.1606  -4.0866  -3.8656  -3.7924  -3.7208  -3.5909
    -3.4041  -3.2431  -3.0061  -2.4360  -2.2751  -2.2140  -1.9873  -1.5469
    -0.9985  -0.8590  -0.5152  -0.2715  -0.0266   0.2728   0.3443   0.3664
     0.9783   1.0447   2.3001   2.3353   4.0719   4.1169   4.7811   4.9320
     5.2430   5.3711   6.4729   6.4880   7.6416   7.7830   8.1796   8.2876

          k = 0.4000 0.1568-0.1923 ( 40432 PWs)   bands (ev):

   -21.9446 -21.9203 -20.7211 -20.4065 -18.6388 -18.2350 -18.2146 -18.2135
   -14.8931 -14.8776 -13.1963 -13.1874 -12.5482 -12.4839  -9.9186  -9.7745
    -9.6015  -9.3885  -8.2454  -8.0773  -7.6182  -7.2513  -6.4683  -6.3130
    -6.2024  -5.9892  -5.8054  -5.6501  -5.5123  -5.2644  -4.9274  -4.6903
    -4.4533  -4.3436  -4.1377  -4.0774  -3.8858  -3.7980  -3.7393  -3.5854
    -3.4031  -3.2356  -3.0046  -2.4340  -2.2914  -2.2006  -1.9847  -1.5471
    -0.9700  -0.9045  -0.4926  -0.2793  -0.0268   0.2744   0.3444   0.3662
     0.9929   1.0277   2.3070   2.3300   4.0841   4.1049   4.7721   4.9371
     5.2750   5.3464   6.3909   6.5657   7.6281   7.8015   8.1774   8.2827

          k = 0.4000-0.2255-0.0095 ( 40427 PWs)   bands (ev):

   -21.9434 -21.9215 -20.7216 -20.4059 -18.6382 -18.2336 -18.2195 -18.2109
   -14.8918 -14.8777 -13.2004 -13.1861 -12.5495 -12.4813  -9.9543  -9.7527
    -9.5971  -9.3839  -8.2418  -8.0699  -7.5881  -7.2993  -6.4670  -6.2473
    -6.1379  -6.0960  -5.7992  -5.7313  -5.4143  -5.2799  -4.9018  -4.6991
    -4.4649  -4.3825  -4.1625  -4.0824  -3.9060  -3.7519  -3.7196  -3.6254
    -3.4219  -3.2100  -2.9553  -2.4056  -2.3063  -2.1799  -1.9543  -1.6283
    -1.0171  -0.8562  -0.5294  -0.2585   0.0303   0.2531   0.2969   0.3797
     1.0075   1.0347   2.3201   2.3621   4.0041   4.0432   4.7501   4.9387
     5.2571   5.3541   6.3996   6.5841   7.7688   7.8873   8.0439   8.1369

          k = 0.4000-0.2255-0.1331 ( 40426 PWs)   bands (ev):

   -21.9434 -21.9215 -20.7216 -20.4059 -18.6382 -18.2345 -18.2161 -18.2133
   -14.8917 -14.8778 -13.2004 -13.1861 -12.5461 -12.4849  -9.9520  -9.7523
    -9.5934  -9.3923  -8.2352  -8.0743  -7.5989  -7.2758  -6.4567  -6.3213
    -6.1640  -6.0478  -5.7921  -5.6114  -5.5212  -5.2783  -4.9128  -4.6891
    -4.4654  -4.3699  -4.1449  -4.0658  -3.9271  -3.7819  -3.7267  -3.6082
    -3.4279  -3.2043  -2.9540  -2.4078  -2.2959  -2.1763  -1.9674  -1.6231
    -0.9847  -0.9117  -0.4947  -0.2710   0.0330   0.2511   0.2961   0.3784
     1.0052   1.0372   2.3146   2.3684   3.9822   4.0665   4.7552   4.9358
     5.2376   5.3701   6.3913   6.5922   7.7234   7.9542   8.0240   8.1409

     highest occupied, lowest unoccupied level (ev):     2.3684    3.9803

!    total energy              =    -605.38426764 Ry
     Harris-Foulkes estimate   =    -605.38426765 Ry
     estimated scf accuracy    <          6.1E-09 Ry

     total all-electron energy =     -2337.262020 Ry

     The total energy is the sum of the following terms:

     one-electron contribution =    -433.68733339 Ry
     hartree contribution      =     264.16514098 Ry
     xc contribution           =    -127.58136930 Ry
     ewald contribution        =    -127.17810947 Ry
     Dispersion Correction     =      -0.18037297 Ry
     one-center paw contrib.   =    -180.92222348 Ry

     convergence has been achieved in  17 iterations

     Forces acting on atoms (cartesian axes, Ry/au):

     atom    1 type  4   force =    -0.02846883    0.01703112   -0.05300520
     atom    2 type  4   force =     0.02846883   -0.01703112    0.05300520
     atom    3 type  3   force =    -0.00080198    0.00406367    0.00100053
     atom    4 type  3   force =     0.00080198   -0.00406367   -0.00100053
     atom    5 type  4   force =     0.02129346   -0.02669047    0.03440183
     atom    6 type  4   force =    -0.02129346    0.02669047   -0.03440183
     atom    7 type  2   force =    -0.00832633   -0.00763634   -0.05087016
     atom    8 type  2   force =     0.00832633    0.00763634    0.05087016
     atom    9 type  2   force =     0.02246159    0.00625279    0.03525111
     atom   10 type  2   force =    -0.02246159   -0.00625279   -0.03525111
     atom   11 type  2   force =    -0.02439089   -0.00119901    0.03849825
     atom   12 type  2   force =     0.02439089    0.00119901   -0.03849825
     atom   13 type  1   force =    -0.00825920   -0.02341155   -0.04094534
     atom   14 type  1   force =     0.00825920    0.02341155    0.04094534
     atom   15 type  1   force =    -0.05221932   -0.00893885    0.00032533
     atom   16 type  1   force =     0.05221932    0.00893885   -0.00032533
     atom   17 type  3   force =     0.00239407   -0.00475249    0.00177181
     atom   18 type  3   force =    -0.00239407    0.00475249   -0.00177181
     atom   19 type  1   force =    -0.00304708   -0.01409458    0.04567456
     atom   20 type  1   force =     0.00304708    0.01409458   -0.04567456
     atom   21 type  1   force =     0.01343083    0.03143425    0.03819997
     atom   22 type  1   force =    -0.01343083   -0.03143425   -0.03819997
     atom   23 type  3   force =    -0.00284702    0.00736828   -0.00325000
     atom   24 type  3   force =     0.00284702   -0.00736828    0.00325000
     atom   25 type  1   force =     0.05246352    0.01640128   -0.00768645
     atom   26 type  1   force =    -0.05246352   -0.01640128    0.00768645
     atom   27 type  3   force =    -0.00003991    0.00698366   -0.00270833
     atom   28 type  3   force =     0.00003991   -0.00698366    0.00270833
     atom   29 type  1   force =     0.01182692   -0.00127485   -0.04441297
     atom   30 type  1   force =    -0.01182692    0.00127485    0.04441297
     atom   31 type  3   force =     0.00008489    0.01238684   -0.00564437
     atom   32 type  3   force =    -0.00008489   -0.01238684    0.00564437
     atom   33 type  1   force =     0.00250969   -0.01074940    0.01170747
     atom   34 type  1   force =    -0.00250969    0.01074940   -0.01170747

     Total force =     0.239493     Total SCF correction =     0.000170


     Computing stress (Cartesian axis) and pressure

          total   stress  (Ry/bohr**3)                   (kbar)     P=   80.97
   0.00088658   0.00011182  -0.00004815        130.42     16.45     -7.08
   0.00011182   0.00015508   0.00001860         16.45     22.81      2.74
  -0.00004815   0.00001860   0.00060953         -7.08      2.74     89.66


     Writing output data file scf.save
 
     init_run     :     10.69s CPU     11.08s WALL (       1 calls)
     electrons    :    296.44s CPU    310.71s WALL (       1 calls)
     forces       :      5.37s CPU      5.41s WALL (       1 calls)
     stress       :     14.00s CPU     14.02s WALL (       1 calls)

     Called by init_run:
     wfcinit      :      6.66s CPU      6.98s WALL (       1 calls)
     potinit      :      1.42s CPU      1.46s WALL (       1 calls)

     Called by electrons:
     c_bands      :    259.90s CPU    272.28s WALL (      17 calls)
     sum_band     :     31.43s CPU     33.09s WALL (      17 calls)
     v_of_rho     :      0.70s CPU      0.79s WALL (      18 calls)
     newd         :      1.46s CPU      1.49s WALL (      18 calls)
     PAW_pot      :      2.71s CPU      2.71s WALL (      18 calls)
     mix_rho      :      0.17s CPU      0.18s WALL (      17 calls)

     Called by c_bands:
     init_us_2    :      2.77s CPU      2.78s WALL (     592 calls)
     cegterg      :    249.84s CPU    262.12s WALL (     272 calls)

     Called by sum_band:
     sum_band:bec :      0.04s CPU      0.04s WALL (     272 calls)
     addusdens    :      1.41s CPU      1.46s WALL (      17 calls)

     Called by *egterg:
     h_psi        :    153.23s CPU    163.01s WALL (    1148 calls)
     s_psi        :     23.22s CPU     23.22s WALL (    1148 calls)
     g_psi        :      1.17s CPU      1.16s WALL (     860 calls)
     cdiaghg      :     15.70s CPU     15.68s WALL (    1132 calls)

     Called by h_psi:
     h_psi:pot    :    152.05s CPU    161.81s WALL (    1148 calls)
     h_psi:calbec :     23.46s CPU     23.57s WALL (    1148 calls)
     vloc_psi     :    105.49s CPU    115.12s WALL (    1148 calls)
     add_vuspsi   :     23.10s CPU     23.11s WALL (    1148 calls)

     General routines
     calbec       :     33.86s CPU     34.00s WALL (    1500 calls)
     fft          :      0.40s CPU      0.56s WALL (     258 calls)
     fftw         :    113.13s CPU    123.34s WALL (  132436 calls)
 
     Parallel routines
     fft_scatter  :     34.75s CPU     39.92s WALL (  132694 calls)
 
     PWSCF        :  5m30.51s CPU     5m46.41s WALL

 
   This run was terminated on:   6:24:20   4Nov2017            

=------------------------------------------------------------------------------=
   JOB DONE.
=------------------------------------------------------------------------------=
