
     Program PWSCF v.6.1 (svn rev. 13369) starts on  4Nov2017 at  8:36: 6 

     This program is part of the open-source Quantum ESPRESSO suite
     for quantum simulation of materials; please cite
         "P. Giannozzi et al., J. Phys.:Condens. Matter 21 395502 (2009);
          URL http://www.quantum-espresso.org", 
     in publications or presentations arising from this work. More details at
     http://www.quantum-espresso.org/quote

     Parallel version (MPI), running on     8 processors
     R & G space division:  proc/nbgrp/npool/nimage =       8
     Waiting for input...
     Reading input from standard input

     Current dimensions of program PWSCF are:
     Max number of different atomic species (ntypx) = 10
     Max number of k-points (npk) =  40000
     Max angular momentum in pseudopotentials (lmaxx) =  3
               file C.pbe-n-kjpaw_psl.0.1.UPF: wavefunction(s)  2P renormalized
               file N.pbe-n-kjpaw_psl.0.1.UPF: wavefunction(s)  2P renormalized
               file H.pbe-kjpaw_psl.0.1.UPF: wavefunction(s)  1S renormalized
               file O.pbe-n-kjpaw_psl.0.1.UPF: wavefunction(s)  2P renormalized

     -------------------------------------
     Parameters for Dispersion Correction:
     -------------------------------------
       atom      VdW radius       C_6     

        C          2.744         60.710
        N          2.640         42.670
        H          1.892          4.857
        O          2.536         24.284

     Subspace diagonalization in iterative solution of the eigenvalue problem:
     a serial algorithm will be used

 
     Parallelization info
     --------------------
     sticks:   dense  smooth     PW     G-vecs:    dense   smooth      PW
     Min        1029    1029    270                58743    58743    7925
     Max        1030    1030    271                58746    58746    7927
     Sum        8239    8239   2161               469963   469963   63407
 


     bravais-lattice index     =            0
     lattice parameter (alat)  =      19.2771  a.u.
     unit-cell volume          =    3478.3655 (a.u.)^3
     number of atoms/cell      =           52
     number of atomic types    =            4
     number of electrons       =       160.00
     number of Kohn-Sham states=           96
     kinetic-energy cutoff     =     100.0000  Ry
     charge density cutoff     =     400.0000  Ry
     convergence threshold     =      1.0E-08
     mixing beta               =       0.5000
     number of iterations used =            8  plain     mixing
     Exchange-correlation      =  SLA  PW   PBX  PBC ( 1  4  3  4 0 0)

     celldm(1)=  19.277096  celldm(2)=   0.000000  celldm(3)=   0.000000
     celldm(4)=   0.000000  celldm(5)=   0.000000  celldm(6)=   0.000000

     crystal axes: (cart. coord. in units of alat)
               a(1) = (   1.000000   0.000000   0.000000 )  
               a(2) = (   0.000000   0.696990   0.000000 )  
               a(3) = (  -0.128742   0.000000   0.696664 )  

     reciprocal axes: (cart. coord. in units 2 pi/alat)
               b(1) = (  1.000000  0.000000  0.184798 )  
               b(2) = (  0.000000  1.434740  0.000000 )  
               b(3) = (  0.000000  0.000000  1.435412 )  


     PseudoPot. # 1 for  C read from file:
     /scratch/ahofstet/pseudo/C.pbe-n-kjpaw_psl.0.1.UPF
     MD5 check sum: 430fe95172b1e11ef3f8ed03bac87931
     Pseudo is Projector augmented-wave + core cor, Zval =  4.0
     Generated using "atomic" code by A. Dal Corso  v.5.0.99 svn rev. 10869
     Shape of augmentation charge: BESSEL
     Using radial grid of 1073 points,  4 beta functions with: 
                l(1) =   0
                l(2) =   0
                l(3) =   1
                l(4) =   1
     Q(r) pseudized with 0 coefficients 


     PseudoPot. # 2 for  N read from file:
     /scratch/ahofstet/pseudo/N.pbe-n-kjpaw_psl.0.1.UPF
     MD5 check sum: f73187c8b701007e77325f868c9291d7
     Pseudo is Projector augmented-wave + core cor, Zval =  5.0
     Generated using "atomic" code by A. Dal Corso  v.5.0.99 svn rev. 10869
     Shape of augmentation charge: PSQ
     Using radial grid of 1085 points,  4 beta functions with: 
                l(1) =   0
                l(2) =   0
                l(3) =   1
                l(4) =   1
     Q(r) pseudized with 0 coefficients 


     PseudoPot. # 3 for  H read from file:
     /scratch/ahofstet/pseudo/H.pbe-kjpaw_psl.0.1.UPF
     MD5 check sum: 94e484f906d9e9773b2f6e52662335b2
     Pseudo is Projector augmented-wave, Zval =  1.0
     Generated using "atomic" code by A. Dal Corso  v.5.0.99 svn rev. 10869
     Shape of augmentation charge: PSQ
     Using radial grid of  929 points,  2 beta functions with: 
                l(1) =   0
                l(2) =   0
     Q(r) pseudized with 0 coefficients 


     PseudoPot. # 4 for  O read from file:
     /scratch/ahofstet/pseudo/O.pbe-n-kjpaw_psl.0.1.UPF
     MD5 check sum: 3f94a2996a3169367d6eb21d9b593f20
     Pseudo is Projector augmented-wave + core cor, Zval =  6.0
     Generated using "atomic" code by A. Dal Corso  v.5.0.99 svn rev. 10869
     Shape of augmentation charge: BESSEL
     Using radial grid of 1095 points,  4 beta functions with: 
                l(1) =   0
                l(2) =   0
                l(3) =   1
                l(4) =   1
     Q(r) pseudized with 0 coefficients 


     atomic species   valence    mass     pseudopotential
        C              4.00    12.01070      C( 1.00)
        N              5.00    14.00670      N( 1.00)
        H              1.00     1.00794      H( 1.00)
        O              6.00    15.99940      O( 1.00)

      4 Sym. Ops., with inversion, found ( 2 have fractional translation)



   Cartesian axes

     site n.     atom                  positions (alat units)
         1           N   tau(   1) = (   0.1465176   0.1800823   0.3287290  )
         2           N   tau(   2) = (   0.0821467   0.1684130   0.6770611  )
         3           N   tau(   3) = (   0.7247406   0.5169082   0.3679352  )
         4           N   tau(   4) = (   0.7891115   0.5285775   0.0196031  )
         5           C   tau(   5) = (   0.2292726   0.4104462   0.3729467  )
         6           C   tau(   6) = (   0.2936435   0.6350395   0.0246145  )
         7           C   tau(   7) = (   0.6419856   0.2865443   0.3237176  )
         8           C   tau(   8) = (   0.5776147   0.0619510   0.6720497  )
         9           H   tau(   9) = (   0.1689596   0.4541911   0.4510554  )
        10           H   tau(  10) = (   0.2333305   0.5912946   0.1027233  )
        11           H   tau(  11) = (   0.7022986   0.2427994   0.2456088  )
        12           H   tau(  12) = (   0.6379277   0.1056959   0.5939409  )
        13           H   tau(  13) = (   0.1835500   0.4350343   0.2787976  )
        14           H   tau(  14) = (   0.1191791   0.6104514   0.6271297  )
        15           H   tau(  15) = (   0.6877082   0.2619562   0.4178667  )
        16           H   tau(  16) = (   0.7520791   0.0865390   0.0695345  )
        17           H   tau(  17) = (   0.3281195   0.4526963   0.3767051  )
        18           H   tau(  18) = (   0.3924904   0.5927894   0.0283730  )
        19           H   tau(  19) = (   0.5431387   0.2442941   0.3199591  )
        20           H   tau(  20) = (   0.4787677   0.1042011   0.6682913  )
        21           C   tau(  21) = (   0.2376325   0.2653381   0.3876208  )
        22           C   tau(  22) = (   0.3020034   0.0831572   0.0392887  )
        23           C   tau(  23) = (   0.6336257   0.4316524   0.3090435  )
        24           C   tau(  24) = (   0.5692548   0.6138333   0.6573756  )
        25           N   tau(  25) = (   0.3252745   0.1958883   0.4508028  )
        26           N   tau(  26) = (   0.3896454   0.1526069   0.1024707  )
        27           N   tau(  27) = (   0.5459837   0.5011021   0.2458615  )
        28           N   tau(  28) = (   0.4816128   0.5443836   0.5941936  )
        29           C   tau(  29) = (   0.2934288   0.0645932   0.4343581  )
        30           C   tau(  30) = (   0.3577997   0.2839020   0.0860260  )
        31           C   tau(  31) = (   0.5778293   0.6323973   0.2623061  )
        32           C   tau(  32) = (   0.5134584   0.4130885   0.6106383  )
        33           H   tau(  33) = (   0.3521166   0.6838747   0.4779141  )
        34           H   tau(  34) = (   0.4164875   0.3616111   0.1295819  )
        35           H   tau(  35) = (   0.5191416   0.0131158   0.2187502  )
        36           H   tau(  36) = (   0.4547707   0.3353794   0.5670823  )
        37           N   tau(  37) = (   0.9536125   0.2472409   0.1934236  )
        38           N   tau(  38) = (   0.8892416   0.1012544   0.5417557  )
        39           N   tau(  39) = (  -0.0823543   0.4497496   0.5032406  )
        40           N   tau(  40) = (  -0.0179834   0.5957361   0.1549085  )
        41           C   tau(  41) = (   0.1833553   0.0510963   0.3599781  )
        42           C   tau(  42) = (   0.2477262   0.2973989   0.0116460  )
        43           C   tau(  43) = (   0.6879028   0.6458942   0.3366862  )
        44           C   tau(  44) = (   0.6235319   0.3995916   0.6850183  )
        45           H   tau(  45) = (   0.1279464   0.6657663   0.3222366  )
        46           H   tau(  46) = (   0.0635755   0.3797195   0.6705687  )
        47           H   tau(  47) = (   0.7433118   0.0312242   0.3744276  )
        48           H   tau(  48) = (   0.8076827   0.3172710   0.0260955  )
        49           C   tau(  49) = (   0.0432991   0.2151889   0.2565317  )
        50           C   tau(  50) = (  -0.0210718   0.1333064   0.6048638  )
        51           C   tau(  51) = (   0.8279590   0.4818016   0.4401326  )
        52           C   tau(  52) = (   0.8923299   0.5636841   0.0918005  )

     number of k points=     8
                       cart. coord. in units 2pi/alat
        k(    1) = (   0.0000000   0.0000000   0.0000000), wk =   0.1111111
        k(    2) = (   0.0000000   0.0000000   0.4784706), wk =   0.2222222
        k(    3) = (   0.0000000   0.4782466   0.0000000), wk =   0.2222222
        k(    4) = (   0.0000000   0.4782466   0.4784706), wk =   0.4444444
        k(    5) = (  -0.5000000   0.0000000  -0.0923988), wk =   0.1111111
        k(    6) = (  -0.5000000   0.0000000   0.3860718), wk =   0.2222222
        k(    7) = (  -0.5000000   0.4782466  -0.0923988), wk =   0.2222222
        k(    8) = (  -0.5000000   0.4782466   0.3860718), wk =   0.4444444

     Dense  grid:   469963 G-vectors     FFT dimensions: ( 125,  90,  90)

     Estimated max dynamical RAM per process >     256.42MB

     Estimated total allocated dynamical RAM >    2051.33MB

     Check: negative/imaginary core charge=   -0.000002    0.000000

     Initial potential from superposition of free atoms

     starting charge  159.99889, renormalised to  160.00000
     Starting wfc are  148 randomized atomic wfcs
     Checking if some PAW data can be deallocated... 

     total cpu time spent up to now is       15.1 secs

     per-process dynamical memory:   229.3 Mb

     Self-consistent Calculation

     iteration #  1     ecut=   100.00 Ry     beta=0.50
     Davidson diagonalization with overlap
     ethr =  1.00E-02,  avg # of iterations =  3.4

     total cpu time spent up to now is       45.6 secs

     total energy              =    -729.79650859 Ry
     Harris-Foulkes estimate   =    -732.85120976 Ry
     estimated scf accuracy    <       5.76293387 Ry

     iteration #  2     ecut=   100.00 Ry     beta=0.50
     Davidson diagonalization with overlap
     ethr =  3.60E-03,  avg # of iterations =  2.1

     total cpu time spent up to now is       62.1 secs

     total energy              =    -729.99803846 Ry
     Harris-Foulkes estimate   =    -730.67670097 Ry
     estimated scf accuracy    <       1.31605881 Ry

     iteration #  3     ecut=   100.00 Ry     beta=0.50
     Davidson diagonalization with overlap
     ethr =  8.23E-04,  avg # of iterations =  5.9

     total cpu time spent up to now is       90.4 secs

     total energy              =    -730.72184896 Ry
     Harris-Foulkes estimate   =    -731.04678105 Ry
     estimated scf accuracy    <       0.88308156 Ry

     iteration #  4     ecut=   100.00 Ry     beta=0.50
     Davidson diagonalization with overlap
     ethr =  5.52E-04,  avg # of iterations =  1.4

     total cpu time spent up to now is      105.7 secs

     total energy              =    -730.68147256 Ry
     Harris-Foulkes estimate   =    -730.79637696 Ry
     estimated scf accuracy    <       0.18728542 Ry

     iteration #  5     ecut=   100.00 Ry     beta=0.50
     Davidson diagonalization with overlap
     ethr =  1.17E-04,  avg # of iterations =  5.8

     total cpu time spent up to now is      136.5 secs

     total energy              =    -730.82823972 Ry
     Harris-Foulkes estimate   =    -730.87449190 Ry
     estimated scf accuracy    <       0.19794312 Ry

     iteration #  6     ecut=   100.00 Ry     beta=0.50
     Davidson diagonalization with overlap
     ethr =  1.17E-04,  avg # of iterations =  1.0

     total cpu time spent up to now is      151.6 secs

     total energy              =    -730.79893352 Ry
     Harris-Foulkes estimate   =    -730.83516191 Ry
     estimated scf accuracy    <       0.10416701 Ry

     iteration #  7     ecut=   100.00 Ry     beta=0.50
     Davidson diagonalization with overlap
     ethr =  6.51E-05,  avg # of iterations =  3.0

     total cpu time spent up to now is      170.1 secs

     total energy              =    -730.81038962 Ry
     Harris-Foulkes estimate   =    -730.81512634 Ry
     estimated scf accuracy    <       0.00970268 Ry

     iteration #  8     ecut=   100.00 Ry     beta=0.50
     Davidson diagonalization with overlap
     ethr =  6.06E-06,  avg # of iterations =  7.4

     total cpu time spent up to now is      203.3 secs

     total energy              =    -730.81652518 Ry
     Harris-Foulkes estimate   =    -730.81730085 Ry
     estimated scf accuracy    <       0.00224000 Ry

     iteration #  9     ecut=   100.00 Ry     beta=0.50
     Davidson diagonalization with overlap
     ethr =  1.40E-06,  avg # of iterations =  3.5

     total cpu time spent up to now is      219.8 secs

     total energy              =    -730.81637027 Ry
     Harris-Foulkes estimate   =    -730.81664928 Ry
     estimated scf accuracy    <       0.00056001 Ry

     iteration # 10     ecut=   100.00 Ry     beta=0.50
     Davidson diagonalization with overlap
     ethr =  3.50E-07,  avg # of iterations =  4.0

     total cpu time spent up to now is      248.2 secs

     total energy              =    -730.81669191 Ry
     Harris-Foulkes estimate   =    -730.81685908 Ry
     estimated scf accuracy    <       0.00038539 Ry

     iteration # 11     ecut=   100.00 Ry     beta=0.50
     Davidson diagonalization with overlap
     ethr =  2.41E-07,  avg # of iterations =  1.0

     total cpu time spent up to now is      263.4 secs

     total energy              =    -730.81664486 Ry
     Harris-Foulkes estimate   =    -730.81670950 Ry
     estimated scf accuracy    <       0.00010422 Ry

     iteration # 12     ecut=   100.00 Ry     beta=0.50
     Davidson diagonalization with overlap
     ethr =  6.51E-08,  avg # of iterations =  4.0

     total cpu time spent up to now is      292.2 secs

     total energy              =    -730.81672894 Ry
     Harris-Foulkes estimate   =    -730.81678089 Ry
     estimated scf accuracy    <       0.00012468 Ry

     iteration # 13     ecut=   100.00 Ry     beta=0.50
     Davidson diagonalization with overlap
     ethr =  6.51E-08,  avg # of iterations =  1.0

     total cpu time spent up to now is      307.4 secs

     total energy              =    -730.81671457 Ry
     Harris-Foulkes estimate   =    -730.81673363 Ry
     estimated scf accuracy    <       0.00003737 Ry

     iteration # 14     ecut=   100.00 Ry     beta=0.50
     Davidson diagonalization with overlap
     ethr =  2.34E-08,  avg # of iterations =  4.0

     total cpu time spent up to now is      334.9 secs

     total energy              =    -730.81674089 Ry
     Harris-Foulkes estimate   =    -730.81674512 Ry
     estimated scf accuracy    <       0.00001264 Ry

     iteration # 15     ecut=   100.00 Ry     beta=0.50
     Davidson diagonalization with overlap
     ethr =  7.90E-09,  avg # of iterations =  1.0

     total cpu time spent up to now is      350.1 secs

     total energy              =    -730.81673813 Ry
     Harris-Foulkes estimate   =    -730.81674115 Ry
     estimated scf accuracy    <       0.00000568 Ry

     iteration # 16     ecut=   100.00 Ry     beta=0.50
     Davidson diagonalization with overlap
     ethr =  3.55E-09,  avg # of iterations =  4.0

     total cpu time spent up to now is      375.4 secs

     total energy              =    -730.81674164 Ry
     Harris-Foulkes estimate   =    -730.81674148 Ry
     estimated scf accuracy    <       0.00000123 Ry

     iteration # 17     ecut=   100.00 Ry     beta=0.50
     Davidson diagonalization with overlap
     ethr =  7.66E-10,  avg # of iterations =  1.0

     total cpu time spent up to now is      390.6 secs

     total energy              =    -730.81674106 Ry
     Harris-Foulkes estimate   =    -730.81674166 Ry
     estimated scf accuracy    <       0.00000154 Ry

     iteration # 18     ecut=   100.00 Ry     beta=0.50
     Davidson diagonalization with overlap
     ethr =  7.66E-10,  avg # of iterations =  1.4

     total cpu time spent up to now is      406.0 secs

     total energy              =    -730.81674086 Ry
     Harris-Foulkes estimate   =    -730.81674110 Ry
     estimated scf accuracy    <       0.00000058 Ry

     iteration # 19     ecut=   100.00 Ry     beta=0.50
     Davidson diagonalization with overlap
     ethr =  3.61E-10,  avg # of iterations =  4.0

     total cpu time spent up to now is      428.8 secs

     total energy              =    -730.81674109 Ry
     Harris-Foulkes estimate   =    -730.81674110 Ry
     estimated scf accuracy    <       0.00000004 Ry

     iteration # 20     ecut=   100.00 Ry     beta=0.50
     Davidson diagonalization with overlap
     ethr =  2.30E-11,  avg # of iterations =  4.1

     total cpu time spent up to now is      450.9 secs

     total energy              =    -730.81674109 Ry
     Harris-Foulkes estimate   =    -730.81674110 Ry
     estimated scf accuracy    <       0.00000001 Ry

     iteration # 21     ecut=   100.00 Ry     beta=0.50
     Davidson diagonalization with overlap
     ethr =  7.61E-12,  avg # of iterations =  3.0

     total cpu time spent up to now is      468.3 secs

     End of self-consistent calculation

          k = 0.0000 0.0000 0.0000 ( 58769 PWs)   bands (ev):

   -19.8017 -19.7890 -19.6705 -19.6686 -16.8997 -16.8288 -16.8279 -16.7999
   -15.7671 -15.7659 -15.7541 -15.7240 -13.1265 -13.0673 -12.9448 -12.9317
   -11.2892 -11.2505 -11.1555 -11.1519 -10.1520 -10.0615 -10.0052 -10.0026
    -8.8167  -8.7501  -8.6215  -8.5692  -6.6605  -6.6556  -6.6254  -6.5954
    -5.9882  -5.8714  -5.0368  -4.9452  -4.9001  -4.8863  -4.8628  -4.7595
    -4.6923  -4.6522  -4.5800  -4.4824  -3.8150  -3.7748  -3.7392  -3.6366
    -3.6043  -3.5860  -3.4097  -3.3822  -2.9910  -2.8855  -2.8853  -2.8618
    -2.8223  -2.7829  -2.7555  -2.6647  -2.6434  -2.3858  -2.3740  -2.3719
    -2.3339  -2.2272  -2.0236  -1.9289  -0.6712  -0.6212  -0.5037  -0.4585
    -0.3635  -0.3435   0.0202   0.0824   0.3773   0.5114   0.8109   0.9081
     4.6604   4.8301   4.9539   5.1357   5.3415   5.4273   5.6304   5.8232
     6.2481   6.3022   6.5113   6.5573   7.1009   7.3275   7.5477   7.6965

          k = 0.0000 0.0000 0.4785 ( 58752 PWs)   bands (ev):

   -19.7694 -19.7601 -19.7030 -19.7008 -16.8765 -16.8346 -16.8263 -16.8178
   -15.7628 -15.7598 -15.7524 -15.7337 -13.0857 -13.0310 -12.9972 -12.9609
   -11.2705 -11.2104 -11.2089 -11.1523 -10.1547 -10.1195  -9.9874  -9.9770
    -8.7939  -8.7586  -8.6111  -8.5830  -6.6711  -6.6492  -6.6248  -6.5981
    -5.7482  -5.6340  -5.2430  -5.1128  -4.9773  -4.9140  -4.9074  -4.8289
    -4.7327  -4.7155  -4.4970  -4.4275  -3.8284  -3.8038  -3.7904  -3.7411
    -3.5437  -3.4938  -3.4321  -3.3847  -2.9340  -2.8916  -2.8733  -2.8360
    -2.8283  -2.8242  -2.7325  -2.6812  -2.5478  -2.4345  -2.4205  -2.3777
    -2.2778  -2.2178  -1.9584  -1.9168  -0.6002  -0.5782  -0.5245  -0.4880
    -0.3782  -0.3679   0.0488   0.0805   0.4069   0.5602   0.6162   0.7567
     4.7550   4.8922   4.9321   5.0159   5.3545   5.3970   5.6864   5.7834
     6.3811   6.5128   6.7099   6.8158   7.1375   7.4237   7.5050   7.7348

          k = 0.0000 0.4782 0.0000 ( 58735 PWs)   bands (ev):

   -19.7979 -19.7916 -19.6695 -19.6686 -16.8827 -16.8477 -16.8198 -16.8054
   -15.7660 -15.7583 -15.7533 -15.7337 -13.1754 -13.1476 -12.9808 -12.9741
   -11.1586 -11.1294 -11.0913 -11.0850 -10.0510  -9.9923  -9.9863  -9.9537
    -8.7678  -8.7313  -8.6703  -8.6422  -7.0159  -7.0074  -6.8856  -6.8738
    -5.9319  -5.8672  -4.9401  -4.9199  -4.8906  -4.8785  -4.8752  -4.8023
    -4.5497  -4.4690  -4.4655  -4.4209  -3.7992  -3.7737  -3.5433  -3.5333
    -3.4317  -3.3755  -3.3584  -3.3299  -3.1394  -3.1186  -3.0231  -3.0146
    -2.7931  -2.7611  -2.7173  -2.6377  -2.5358  -2.4089  -2.3942  -2.3594
    -2.2345  -2.1883  -2.0898  -2.0068  -0.6566  -0.6339  -0.4743  -0.4491
    -0.2776  -0.2437  -0.0842  -0.0280   0.4367   0.5221   0.9277   0.9879
     4.5974   4.6713   4.9575   5.0589   5.4210   5.4987   5.5638   5.7055
     6.3973   6.4829   6.5196   6.7076   6.8514   7.1866   7.3389   7.3981

          k = 0.0000 0.4782 0.4785 ( 58725 PWs)   bands (ev):

   -19.7665 -19.7618 -19.7019 -19.7008 -16.8648 -16.8416 -16.8275 -16.8200
   -15.7609 -15.7581 -15.7507 -15.7399 -13.1305 -13.1046 -13.0344 -13.0167
   -11.1474 -11.1174 -11.1090 -11.0846 -10.0489 -10.0239  -9.9651  -9.9484
    -8.7567  -8.7373  -8.6643  -8.6493  -6.9987  -6.9782  -6.9306  -6.9095
    -5.6976  -5.6362  -5.1894  -5.1309  -4.9424  -4.8915  -4.8628  -4.8304
    -4.5794  -4.5408  -4.4070  -4.3869  -3.7304  -3.7074  -3.5836  -3.5657
    -3.4114  -3.3572  -3.3444  -3.3249  -3.1307  -3.1075  -3.0565  -3.0316
    -2.7876  -2.7702  -2.7352  -2.6800  -2.5002  -2.4250  -2.4075  -2.3732
    -2.2345  -2.2107  -2.0428  -2.0069  -0.5889  -0.5809  -0.4948  -0.4760
    -0.2691  -0.2555  -0.0537  -0.0279   0.5067   0.5924   0.7654   0.8400
     4.6756   4.7163   4.8939   4.9566   5.4395   5.4718   5.6138   5.6841
     6.4828   6.5637   6.7031   6.8510   7.0949   7.2829   7.3229   7.4476

          k =-0.5000 0.0000-0.0924 ( 58750 PWs)   bands (ev):

   -19.7958 -19.7949 -19.6700 -19.6691 -16.8797 -16.8506 -16.8188 -16.8091
   -15.7656 -15.7554 -15.7464 -15.7412 -13.1337 -13.0601 -12.9433 -12.9334
   -11.3234 -11.2169 -11.1611 -11.1462 -10.1892 -10.0739  -9.9907  -9.9632
    -8.7975  -8.7492  -8.6221  -8.5890  -6.6869  -6.6344  -6.6275  -6.5865
    -5.9331  -5.9235  -5.0732  -5.0426  -4.9623  -4.8283  -4.8160  -4.7703
    -4.7218  -4.6842  -4.4643  -4.4076  -3.8757  -3.7720  -3.7140  -3.6743
    -3.6097  -3.5197  -3.4806  -3.3158  -3.0088  -2.9268  -2.8527  -2.8519
    -2.8010  -2.7829  -2.7695  -2.7480  -2.6434  -2.4086  -2.4072  -2.3734
    -2.2278  -2.1923  -1.9807  -1.8773  -0.6725  -0.6516  -0.5356  -0.4880
    -0.3958  -0.3820   0.0281   0.0906   0.4317   0.4709   0.8284   0.8746
     4.6777   4.8072   4.9787   5.2062   5.3268   5.4364   5.6376   5.8303
     6.4011   6.4647   6.5070   6.5534   6.8887   7.3987   7.4043   7.4781

          k =-0.5000 0.0000 0.3861 ( 58747 PWs)   bands (ev):

   -19.7677 -19.7617 -19.7050 -19.6987 -16.8743 -16.8472 -16.8288 -16.8047
   -15.7684 -15.7595 -15.7444 -15.7365 -13.0895 -13.0274 -12.9965 -12.9618
   -11.2805 -11.1994 -11.1945 -11.1686 -10.1593 -10.0950 -10.0024  -9.9810
    -8.7902  -8.7682  -8.6015  -8.5870  -6.6656  -6.6358  -6.6306  -6.6121
    -5.6890  -5.6857  -5.1952  -5.1499  -4.9368  -4.9166  -4.8989  -4.8608
    -4.7328  -4.7231  -4.5130  -4.4944  -3.8561  -3.8072  -3.7398  -3.7258
    -3.5612  -3.4722  -3.4473  -3.3489  -2.9748  -2.8925  -2.8832  -2.8405
    -2.8282  -2.8180  -2.7243  -2.6772  -2.6011  -2.4347  -2.3691  -2.3507
    -2.2127  -2.1665  -1.9863  -1.9260  -0.6181  -0.5986  -0.5549  -0.5185
    -0.3586  -0.3553   0.0344   0.0669   0.4590   0.5166   0.6508   0.7133
     4.7122   4.8697   4.9518   5.1450   5.3560   5.4134   5.6775   5.7827
     6.4768   6.5686   6.7233   6.7549   7.0110   7.4433   7.4462   7.6439

          k =-0.5000 0.4782-0.0924 ( 58750 PWs)   bands (ev):

   -19.7950 -19.7945 -19.6693 -19.6689 -16.8727 -16.8583 -16.8153 -16.8103
   -15.7636 -15.7585 -15.7450 -15.7424 -13.1799 -13.1459 -12.9803 -12.9740
   -11.1829 -11.1084 -11.0908 -11.0812 -10.0752  -9.9913  -9.9598  -9.9479
    -8.7609  -8.7336  -8.6715  -8.6565  -7.0213  -6.9971  -6.8931  -6.8685
    -5.8977  -5.8932  -4.9500  -4.9366  -4.9096  -4.8715  -4.8442  -4.8160
    -4.6160  -4.5296  -4.4051  -4.3553  -3.8590  -3.7537  -3.5520  -3.5161
    -3.4020  -3.3721  -3.3206  -3.3126  -3.1681  -3.1538  -3.0099  -2.9817
    -2.7993  -2.7123  -2.7102  -2.7003  -2.6403  -2.4856  -2.3125  -2.2589
    -2.2206  -2.1473  -2.0868  -1.9783  -0.6741  -0.6634  -0.5264  -0.5009
    -0.2814  -0.2598  -0.0656  -0.0245   0.4630   0.5051   0.9407   0.9788
     4.6111   4.6396   5.0351   5.1263   5.4205   5.5021   5.5619   5.7049
     6.4330   6.5317   6.5432   6.7071   6.7999   7.2721   7.3140   7.4845

          k =-0.5000 0.4782 0.3861 ( 58732 PWs)   bands (ev):

   -19.7656 -19.7627 -19.7029 -19.6998 -16.8634 -16.8440 -16.8323 -16.8143
   -15.7628 -15.7558 -15.7486 -15.7421 -13.1327 -13.1042 -13.0326 -13.0166
   -11.1605 -11.1184 -11.0952 -11.0848 -10.0549 -10.0103  -9.9654  -9.9576
    -8.7531  -8.7406  -8.6578  -8.6514  -6.9944  -6.9797  -6.9297  -6.9154
    -5.6618  -5.6603  -5.1695  -5.1468  -4.9082  -4.9046  -4.8870  -4.8416
    -4.5947  -4.5051  -4.4355  -4.4012  -3.7863  -3.7092  -3.5809  -3.5244
    -3.3957  -3.3557  -3.3342  -3.3167  -3.1695  -3.1225  -3.0902  -3.0343
    -2.8070  -2.7765  -2.6817  -2.6595  -2.5845  -2.5077  -2.2851  -2.2611
    -2.2087  -2.1523  -2.0499  -1.9961  -0.6165  -0.6082  -0.5408  -0.5223
    -0.2646  -0.2513  -0.0621  -0.0393   0.5245   0.5710   0.7882   0.8320
     4.6481   4.7080   4.9563   5.0270   5.4401   5.4784   5.6082   5.6805
     6.5409   6.6341   6.6545   6.7419   7.1142   7.2602   7.3472   7.4787

     highest occupied, lowest unoccupied level (ev):     0.9879    4.5974

!    total energy              =    -730.81674109 Ry
     Harris-Foulkes estimate   =    -730.81674109 Ry
     estimated scf accuracy    <          4.9E-09 Ry

     total all-electron energy =     -2861.684296 Ry

     The total energy is the sum of the following terms:

     one-electron contribution =    -357.32564585 Ry
     hartree contribution      =     237.32931653 Ry
     xc contribution           =    -161.46210722 Ry
     ewald contribution        =    -216.63580702 Ry
     Dispersion Correction     =      -0.25781183 Ry
     one-center paw contrib.   =    -232.46468570 Ry

     convergence has been achieved in  21 iterations

     Forces acting on atoms (cartesian axes, Ry/au):

     atom    1 type  2   force =    -0.00238051   -0.00048335    0.00040917
     atom    2 type  2   force =    -0.00238051    0.00048335    0.00040917
     atom    3 type  2   force =     0.00238051    0.00048335   -0.00040917
     atom    4 type  2   force =     0.00238051   -0.00048335   -0.00040917
     atom    5 type  1   force =     0.00121900   -0.00790465    0.00343479
     atom    6 type  1   force =     0.00121900    0.00790465    0.00343479
     atom    7 type  1   force =    -0.00121900    0.00790465   -0.00343479
     atom    8 type  1   force =    -0.00121900   -0.00790465   -0.00343479
     atom    9 type  3   force =     0.00049225   -0.00227369   -0.00020882
     atom   10 type  3   force =     0.00049225    0.00227369   -0.00020882
     atom   11 type  3   force =    -0.00049225    0.00227369    0.00020882
     atom   12 type  3   force =    -0.00049225   -0.00227369    0.00020882
     atom   13 type  3   force =    -0.00061192    0.00207208   -0.00189541
     atom   14 type  3   force =    -0.00061192   -0.00207208   -0.00189541
     atom   15 type  3   force =     0.00061192   -0.00207208    0.00189541
     atom   16 type  3   force =     0.00061192    0.00207208    0.00189541
     atom   17 type  3   force =    -0.00100161   -0.00045791   -0.00018571
     atom   18 type  3   force =    -0.00100161    0.00045791   -0.00018571
     atom   19 type  3   force =     0.00100161    0.00045791    0.00018571
     atom   20 type  3   force =     0.00100161   -0.00045791    0.00018571
     atom   21 type  1   force =     0.00213080    0.00473946   -0.00247116
     atom   22 type  1   force =     0.00213080   -0.00473946   -0.00247116
     atom   23 type  1   force =    -0.00213080   -0.00473946    0.00247116
     atom   24 type  1   force =    -0.00213080    0.00473946    0.00247116
     atom   25 type  2   force =     0.00130759    0.00265299   -0.00101017
     atom   26 type  2   force =     0.00130759   -0.00265299   -0.00101017
     atom   27 type  2   force =    -0.00130759   -0.00265299    0.00101017
     atom   28 type  2   force =    -0.00130759    0.00265299    0.00101017
     atom   29 type  1   force =    -0.00137571   -0.00144650    0.00135482
     atom   30 type  1   force =    -0.00137571    0.00144650    0.00135482
     atom   31 type  1   force =     0.00137571    0.00144650   -0.00135482
     atom   32 type  1   force =     0.00137571   -0.00144650   -0.00135482
     atom   33 type  3   force =     0.00098938   -0.00020013    0.00031199
     atom   34 type  3   force =     0.00098938    0.00020013    0.00031199
     atom   35 type  3   force =    -0.00098938    0.00020013   -0.00031199
     atom   36 type  3   force =    -0.00098938   -0.00020013   -0.00031199
     atom   37 type  2   force =    -0.00317840    0.00095473   -0.00279020
     atom   38 type  2   force =    -0.00317840   -0.00095473   -0.00279020
     atom   39 type  2   force =     0.00317840   -0.00095473    0.00279020
     atom   40 type  2   force =     0.00317840    0.00095473    0.00279020
     atom   41 type  1   force =     0.00091165    0.00273776   -0.00154611
     atom   42 type  1   force =     0.00091165   -0.00273776   -0.00154611
     atom   43 type  1   force =    -0.00091165   -0.00273776    0.00154611
     atom   44 type  1   force =    -0.00091165    0.00273776    0.00154611
     atom   45 type  3   force =    -0.00080911    0.00110872    0.00113846
     atom   46 type  3   force =    -0.00080911   -0.00110872    0.00113846
     atom   47 type  3   force =     0.00080911   -0.00110872   -0.00113846
     atom   48 type  3   force =     0.00080911    0.00110872   -0.00113846
     atom   49 type  1   force =     0.00029334   -0.00159831    0.00164091
     atom   50 type  1   force =     0.00029334    0.00159831    0.00164091
     atom   51 type  1   force =    -0.00029334    0.00159831   -0.00164091
     atom   52 type  1   force =    -0.00029334   -0.00159831   -0.00164091

     Total force =     0.027177     Total SCF correction =     0.000091


     Computing stress (Cartesian axis) and pressure

          total   stress  (Ry/bohr**3)                   (kbar)     P=   -3.02
   0.00000333   0.00000000   0.00002640          0.49      0.00      3.88
   0.00000000  -0.00005877   0.00000000          0.00     -8.65      0.00
   0.00002640   0.00000000  -0.00000623          3.88      0.00     -0.92


     Writing output data file scf.save
 
     init_run     :     14.05s CPU     14.42s WALL (       1 calls)
     electrons    :    437.50s CPU    453.41s WALL (       1 calls)
     forces       :      7.34s CPU      7.42s WALL (       1 calls)
     stress       :     20.24s CPU     20.41s WALL (       1 calls)

     Called by init_run:
     wfcinit      :      8.58s CPU      8.86s WALL (       1 calls)
     potinit      :      1.94s CPU      1.97s WALL (       1 calls)

     Called by electrons:
     c_bands      :    380.90s CPU    394.56s WALL (      21 calls)
     sum_band     :     47.38s CPU     48.91s WALL (      21 calls)
     v_of_rho     :      1.42s CPU      1.56s WALL (      22 calls)
     newd         :      2.72s CPU      3.19s WALL (      22 calls)
     PAW_pot      :      4.67s CPU      4.67s WALL (      22 calls)
     mix_rho      :      0.34s CPU      0.36s WALL (      21 calls)

     Called by c_bands:
     init_us_2    :      3.21s CPU      3.22s WALL (     360 calls)
     cegterg      :    368.91s CPU    382.51s WALL (     168 calls)

     Called by sum_band:
     sum_band:bec :      0.04s CPU      0.04s WALL (     168 calls)
     addusdens    :      2.87s CPU      3.32s WALL (      21 calls)

     Called by *egterg:
     h_psi        :    232.15s CPU    241.19s WALL (     703 calls)
     s_psi        :     36.74s CPU     36.75s WALL (     703 calls)
     g_psi        :      1.35s CPU      1.35s WALL (     527 calls)
     cdiaghg      :     18.32s CPU     18.32s WALL (     695 calls)

     Called by h_psi:
     h_psi:pot    :    230.62s CPU    239.64s WALL (     703 calls)
     h_psi:calbec :     36.09s CPU     36.20s WALL (     703 calls)
     vloc_psi     :    157.87s CPU    166.76s WALL (     703 calls)
     add_vuspsi   :     36.67s CPU     36.68s WALL (     703 calls)

     General routines
     calbec       :     52.09s CPU     52.27s WALL (     911 calls)
     fft          :      0.91s CPU      1.14s WALL (     310 calls)
     fftw         :    170.57s CPU    180.15s WALL (  106802 calls)
 
     Parallel routines
     fft_scatter  :     36.15s CPU     41.70s WALL (  107112 calls)
 
     PWSCF        :  8m 2.92s CPU     8m20.57s WALL

 
   This run was terminated on:   8:44:26   4Nov2017            

=------------------------------------------------------------------------------=
   JOB DONE.
=------------------------------------------------------------------------------=
