
     Program PWSCF v.6.1 (svn rev. 13369) starts on 20Dec2017 at 13:37:47 

     This program is part of the open-source Quantum ESPRESSO suite
     for quantum simulation of materials; please cite
         "P. Giannozzi et al., J. Phys.:Condens. Matter 21 395502 (2009);
          URL http://www.quantum-espresso.org", 
     in publications or presentations arising from this work. More details at
     http://www.quantum-espresso.org/quote

     Parallel version (MPI), running on     8 processors
     R & G space division:  proc/nbgrp/npool/nimage =       8
     Waiting for input...
     Reading input from standard input

     Current dimensions of program PWSCF are:
     Max number of different atomic species (ntypx) = 10
     Max number of k-points (npk) =  40000
     Max angular momentum in pseudopotentials (lmaxx) =  3
               file C.pbe-n-kjpaw_psl.0.1.UPF: wavefunction(s)  2P renormalized
               file N.pbe-n-kjpaw_psl.0.1.UPF: wavefunction(s)  2P renormalized
               file H.pbe-kjpaw_psl.0.1.UPF: wavefunction(s)  1S renormalized
               file O.pbe-n-kjpaw_psl.0.1.UPF: wavefunction(s)  2P renormalized

     -------------------------------------
     Parameters for Dispersion Correction:
     -------------------------------------
       atom      VdW radius       C_6     

        C          2.744         60.710
        N          2.640         42.670
        H          1.892          4.857
        O          2.536         24.284

     Subspace diagonalization in iterative solution of the eigenvalue problem:
     a serial algorithm will be used

 
     Parallelization info
     --------------------
     sticks:   dense  smooth     PW     G-vecs:    dense   smooth      PW
     Min        2755    2755    732               208970   208970   28549
     Max        2756    2756    733               208972   208972   28550
     Sum       22047   22047   5857              1671769  1671769  228393
 


     bravais-lattice index     =            0
     lattice parameter (alat)  =      19.0106  a.u.
     unit-cell volume          =   12372.6277 (a.u.)^3
     number of atoms/cell      =          196
     number of atomic types    =            4
     number of electrons       =       592.00
     number of Kohn-Sham states=          355
     kinetic-energy cutoff     =     100.0000  Ry
     charge density cutoff     =     400.0000  Ry
     convergence threshold     =      1.0E-08
     mixing beta               =       0.5000
     number of iterations used =            8  plain     mixing
     Exchange-correlation      =  SLA  PW   PBX  PBC ( 1  4  3  4 0 0)

     celldm(1)=  19.010645  celldm(2)=   0.000000  celldm(3)=   0.000000
     celldm(4)=   0.000000  celldm(5)=   0.000000  celldm(6)=   0.000000

     crystal axes: (cart. coord. in units of alat)
               a(1) = (   1.000000   0.000000   0.000000 )  
               a(2) = (   0.000000   1.916700   0.000000 )  
               a(3) = (  -0.430554   0.000000   0.939544 )  

     reciprocal axes: (cart. coord. in units 2 pi/alat)
               b(1) = (  1.000000  0.000000  0.458258 )  
               b(2) = (  0.000000  0.521730  0.000000 )  
               b(3) = (  0.000000  0.000000  1.064346 )  


     PseudoPot. # 1 for  C read from file:
     /scratch/ahofstet/pseudo/C.pbe-n-kjpaw_psl.0.1.UPF
     MD5 check sum: 430fe95172b1e11ef3f8ed03bac87931
     Pseudo is Projector augmented-wave + core cor, Zval =  4.0
     Generated using "atomic" code by A. Dal Corso  v.5.0.99 svn rev. 10869
     Shape of augmentation charge: BESSEL
     Using radial grid of 1073 points,  4 beta functions with: 
                l(1) =   0
                l(2) =   0
                l(3) =   1
                l(4) =   1
     Q(r) pseudized with 0 coefficients 


     PseudoPot. # 2 for  N read from file:
     /scratch/ahofstet/pseudo/N.pbe-n-kjpaw_psl.0.1.UPF
     MD5 check sum: f73187c8b701007e77325f868c9291d7
     Pseudo is Projector augmented-wave + core cor, Zval =  5.0
     Generated using "atomic" code by A. Dal Corso  v.5.0.99 svn rev. 10869
     Shape of augmentation charge: PSQ
     Using radial grid of 1085 points,  4 beta functions with: 
                l(1) =   0
                l(2) =   0
                l(3) =   1
                l(4) =   1
     Q(r) pseudized with 0 coefficients 


     PseudoPot. # 3 for  H read from file:
     /scratch/ahofstet/pseudo/H.pbe-kjpaw_psl.0.1.UPF
     MD5 check sum: 94e484f906d9e9773b2f6e52662335b2
     Pseudo is Projector augmented-wave, Zval =  1.0
     Generated using "atomic" code by A. Dal Corso  v.5.0.99 svn rev. 10869
     Shape of augmentation charge: PSQ
     Using radial grid of  929 points,  2 beta functions with: 
                l(1) =   0
                l(2) =   0
     Q(r) pseudized with 0 coefficients 


     PseudoPot. # 4 for  O read from file:
     /scratch/ahofstet/pseudo/O.pbe-n-kjpaw_psl.0.1.UPF
     MD5 check sum: 3f94a2996a3169367d6eb21d9b593f20
     Pseudo is Projector augmented-wave + core cor, Zval =  6.0
     Generated using "atomic" code by A. Dal Corso  v.5.0.99 svn rev. 10869
     Shape of augmentation charge: BESSEL
     Using radial grid of 1095 points,  4 beta functions with: 
                l(1) =   0
                l(2) =   0
                l(3) =   1
                l(4) =   1
     Q(r) pseudized with 0 coefficients 


     atomic species   valence    mass     pseudopotential
        C              4.00    12.01070      C( 1.00)
        N              5.00    14.00670      N( 1.00)
        H              1.00     1.00794      H( 1.00)
        O              6.00    15.99940      O( 1.00)

      2 Sym. Ops., with inversion, found
          (note:  2 additional sym.ops. were found but ignored
           their fractional translations are incommensurate with FFT grid)


   Cartesian axes

     site n.     atom                  positions (alat units)
         1           O   tau(   1) = (  -0.0756029   0.6190855   0.5951941  )
         2           O   tau(   2) = (   0.6396740   0.3392644   0.1254219  )
         3           O   tau(   3) = (   0.6450491   1.2976143   0.3443503  )
         4           O   tau(   4) = (  -0.0702278   1.5774354   0.8141225  )
         5           O   tau(   5) = (   0.0011367   0.5236865   0.7845830  )
         6           O   tau(   6) = (   0.7164136   0.4346634   0.3148108  )
         7           O   tau(   7) = (   0.5683095   1.3930133   0.1549614  )
         8           O   tau(   8) = (  -0.1469674   1.4820364   0.6247336  )
         9           O   tau(   9) = (   0.1656618   0.1811666   0.3047958  )
        10           O   tau(  10) = (   0.4503850   0.7771833   0.7745680  )
        11           O   tau(  11) = (   0.4037844   1.7355332   0.6347486  )
        12           O   tau(  12) = (   0.1190613   1.1395165   0.1649764  )
        13           O   tau(  13) = (   0.3349831   0.1404427   0.4349510  )
        14           O   tau(  14) = (  -0.3802938   0.8179072   0.9047231  )
        15           O   tau(  15) = (   0.2344631   1.7762571   0.5045934  )
        16           O   tau(  16) = (   0.9497400   1.0987926   0.0348212  )
        17           O   tau(  17) = (   0.0696897   0.8452429   0.4027106  )
        18           O   tau(  18) = (   0.3544128   0.1131070   0.8724828  )
        19           O   tau(  19) = (   0.4997566   1.0714569   0.5368338  )
        20           O   tau(  20) = (   0.2150334   1.8035928   0.0670616  )
        21           O   tau(  21) = (   0.0943386   0.8903891   0.6135200  )
        22           O   tau(  22) = (   0.8096155   0.0679608   0.1437478  )
        23           O   tau(  23) = (   0.4751076   1.0263107   0.3260244  )
        24           O   tau(  24) = (  -0.2401693   1.8487390   0.7957966  )
        25           N   tau(  25) = (   0.2207245   0.4249453   0.6531890  )
        26           N   tau(  26) = (  -0.0639987   0.5334046   0.1834169  )
        27           N   tau(  27) = (   0.3487218   1.4917545   0.2863553  )
        28           N   tau(  28) = (   0.6334449   1.3832952   0.7561275  )
        29           N   tau(  29) = (   0.2214882   0.1831640   0.4137622  )
        30           N   tau(  30) = (   0.5062113   0.7751859   0.8835344  )
        31           N   tau(  31) = (   0.3479580   1.7335358   0.5257822  )
        32           N   tau(  32) = (   0.0632349   1.1415139   0.0560100  )
        33           N   tau(  33) = (   0.1172204   0.8224765   0.5134617  )
        34           N   tau(  34) = (   0.8324973   0.1358734   0.0436895  )
        35           N   tau(  35) = (   0.4522258   1.0942233   0.4260827  )
        36           N   tau(  36) = (  -0.2630511   1.7808264   0.8958549  )
        37           C   tau(  37) = (   0.1092751   0.4746012   0.5718958  )
        38           C   tau(  38) = (   0.8245520   0.4837487   0.1021236  )
        39           C   tau(  39) = (   0.4601711   1.4420986   0.3676486  )
        40           C   tau(  40) = (  -0.2551058   1.4329511   0.8374208  )
        41           C   tau(  41) = (   0.0460539   0.3510192   0.5000280  )
        42           C   tau(  42) = (   0.7613307   0.6073307   0.0302558  )
        43           C   tau(  43) = (   0.5233924   1.5656806   0.4395164  )
        44           C   tau(  44) = (  -0.1918845   1.3093691   0.9092886  )
        45           C   tau(  45) = (   0.1458964   0.2382135   0.5315066  )
        46           C   tau(  46) = (   0.8611733   0.7201364   0.0617344  )
        47           C   tau(  47) = (   0.4235498   1.6784863   0.4080378  )
        48           C   tau(  48) = (  -0.2917271   1.1965634   0.8778099  )
        49           C   tau(  49) = (   0.2411392   0.3022810   0.6279579  )
        50           C   tau(  50) = (  -0.0435840   0.6560689   0.1581857  )
        51           C   tau(  51) = (   0.3283071   1.6144188   0.3115865  )
        52           C   tau(  52) = (   0.6130302   1.2606309   0.7813587  )
        53           C   tau(  53) = (  -0.0868848   0.2929184   0.5595221  )
        54           C   tau(  54) = (   0.6283921   0.6654315   0.0897499  )
        55           C   tau(  55) = (   0.6563311   1.6237814   0.3800223  )
        56           C   tau(  56) = (  -0.0589458   1.2512683   0.8497945  )
        57           C   tau(  57) = (  -0.1253557   0.1792073   0.4685764  )
        58           C   tau(  58) = (   0.1593674   0.7791426   0.9383486  )
        59           C   tau(  59) = (   0.6948019   1.7374925   0.4709680  )
        60           C   tau(  60) = (   0.4100788   1.1375572   0.0011958  )
        61           C   tau(  61) = (  -0.0396674   0.0789721   0.4899147  )
        62           C   tau(  62) = (   0.6756095   0.8793778   0.0201425  )
        63           C   tau(  63) = (   0.6091136   1.8377277   0.4496297  )
        64           C   tau(  64) = (  -0.1061632   1.0373220   0.9194018  )
        65           C   tau(  65) = (   0.0568941   0.1243152   0.5962181  )
        66           C   tau(  66) = (   0.7721710   0.8340347   0.1264459  )
        67           C   tau(  67) = (   0.5125521   1.7923846   0.3433263  )
        68           C   tau(  68) = (  -0.2027247   1.0826651   0.8130985  )
        69           C   tau(  69) = (  -0.0342907   0.2144138   0.6806827  )
        70           C   tau(  70) = (   0.6809862   0.7439361   0.2109105  )
        71           C   tau(  71) = (   0.6037369   1.7022860   0.2588617  )
        72           C   tau(  72) = (  -0.1115400   1.1727637   0.7286339  )
        73           C   tau(  73) = (   0.1605435   0.5763881   0.4677128  )
        74           C   tau(  74) = (   0.4452666   0.3819618   0.9374850  )
        75           C   tau(  75) = (   0.4089027   1.3403117   0.4718315  )
        76           C   tau(  76) = (   0.1241796   1.5347380   0.0020594  )
        77           C   tau(  77) = (   0.2850400   0.5303939   0.3837075  )
        78           C   tau(  78) = (   0.5697632   0.4279560   0.8534797  )
        79           C   tau(  79) = (   0.2844062   1.3863059   0.5558369  )
        80           C   tau(  80) = (  -0.0003169   1.4887438   0.0860647  )
        81           C   tau(  81) = (   0.2874502   0.6219489   0.2638678  )
        82           C   tau(  82) = (   0.5721733   0.3364010   0.7336400  )
        83           C   tau(  83) = (   0.2819961   1.2947509   0.6756766  )
        84           C   tau(  84) = (  -0.0027271   1.5802988   0.2059044  )
        85           C   tau(  85) = (   0.3232015   0.7432403   0.3070025  )
        86           C   tau(  86) = (   0.6079246   0.2151096   0.7767747  )
        87           C   tau(  87) = (   0.2462447   1.1734595   0.6325418  )
        88           C   tau(  88) = (  -0.0384784   1.7015902   0.1627697  )
        89           C   tau(  89) = (   0.3485639   0.7331055   0.4552310  )
        90           C   tau(  90) = (  -0.3667130   0.2252444   0.9250032  )
        91           C   tau(  91) = (   0.2208823   1.1835943   0.4843134  )
        92           C   tau(  92) = (   0.9361592   1.6914554   0.0145412  )
        93           C   tau(  93) = (   0.2125224   0.7079504   0.5286782  )
        94           C   tau(  94) = (   0.9277993   0.2503995   0.0589061  )
        95           C   tau(  95) = (   0.3569238   1.2087494   0.4108661  )
        96           C   tau(  96) = (  -0.3583531   1.6663003   0.8806383  )
        97           C   tau(  97) = (   0.4013801   0.5890866   0.4652467  )
        98           C   tau(  98) = (  -0.3138968   0.3692633   0.9350189  )
        99           C   tau(  99) = (   0.1680661   1.3276132   0.4742977  )
       100           C   tau( 100) = (   0.8833430   1.5474365   0.0045255  )
       101           C   tau( 101) = (   0.0075536   0.5411717   0.6650969  )
       102           C   tau( 102) = (   0.7228305   0.4171782   0.1953247  )
       103           C   tau( 103) = (   0.5618927   1.3755281   0.2744475  )
       104           C   tau( 104) = (  -0.1533842   1.4995216   0.7442197  )
       105           C   tau( 105) = (  -0.1798856   0.6870593   0.6700740  )
       106           C   tau( 106) = (   0.5353913   0.2712906   0.2003018  )
       107           C   tau( 107) = (   0.7493318   1.2296405   0.2694704  )
       108           C   tau( 108) = (   0.0340550   1.6454092   0.7392426  )
       109           C   tau( 109) = (  -0.2591880   0.7682389   0.5718647  )
       110           C   tau( 110) = (   0.4560889   0.1901110   0.1020925  )
       111           C   tau( 111) = (   0.8286342   1.1484609   0.3676797  )
       112           C   tau( 112) = (   0.1133573   1.7265888   0.8374518  )
       113           H   tau( 113) = (   0.0352847   0.3707354   0.3934911  )
       114           H   tau( 114) = (   0.3200078   0.5876145   0.8632633  )
       115           H   tau( 115) = (   0.5341615   1.5459644   0.5460533  )
       116           H   tau( 116) = (   0.2494384   1.3290853   0.0762811  )
       117           H   tau( 117) = (   0.3212256   0.2467095   0.6758297  )
       118           H   tau( 118) = (   0.0365025   0.7116404   0.2060575  )
       119           H   tau( 119) = (   0.2482207   1.6699903   0.2637147  )
       120           H   tau( 120) = (   0.5329438   1.2050594   0.7334869  )
       121           H   tau( 121) = (  -0.1638494   0.3678985   0.5761511  )
       122           H   tau( 122) = (   0.5514275   0.5904514   0.1063790  )
       123           H   tau( 123) = (   0.7332956   1.5488013   0.3633932  )
       124           H   tau( 124) = (   0.0180187   1.3262484   0.8331654  )
       125           H   tau( 125) = (   0.7984155   0.1847649   0.3921433  )
       126           H   tau( 126) = (   0.0831387   0.7735850   0.8619155  )
       127           H   tau( 127) = (  -0.2289693   1.7319349   0.5474011  )
       128           H   tau( 128) = (   0.4863076   1.1431148   0.0776289  )
       129           H   tau( 129) = (  -0.0312566   1.9030244   0.4348409  )
       130           H   tau( 130) = (   0.2534665   0.9720253   0.9046131  )
       131           H   tau( 131) = (   0.6007028   0.0136754   0.5047035  )
       132           H   tau( 132) = (   0.3159797   0.9446745   0.0349313  )
       133           H   tau( 133) = (   0.1166052   0.0483162   0.6460473  )
       134           H   tau( 134) = (   0.8318820   0.9100337   0.1762751  )
       135           H   tau( 135) = (   0.4528411   1.8683836   0.2934971  )
       136           H   tau( 136) = (  -0.2624358   1.0066661   0.7632693  )
       137           H   tau( 137) = (  -0.1122749   0.1563491   0.7300385  )
       138           H   tau( 138) = (   0.6030020   0.8020008   0.2602663  )
       139           H   tau( 139) = (   0.6817211   1.7603507   0.2095059  )
       140           H   tau( 140) = (  -0.0335558   1.1146990   0.6792781  )
       141           H   tau( 141) = (   0.0190665   0.2759097   0.7532139  )
       142           H   tau( 142) = (   0.7343434   0.6824402   0.2834417  )
       143           H   tau( 143) = (   0.5503798   1.6407901   0.1863305  )
       144           H   tau( 144) = (  -0.1648971   1.2342596   0.6561027  )
       145           H   tau( 145) = (   0.0765959   0.5963808   0.4012712  )
       146           H   tau( 146) = (   0.3613190   0.3619691   0.8710434  )
       147           H   tau( 147) = (   0.4928503   1.3203190   0.5382731  )
       148           H   tau( 148) = (   0.2081272   1.5547307   0.0685010  )
       149           H   tau( 149) = (   0.2867625   0.4238047   0.3622956  )
       150           H   tau( 150) = (   0.5714856   0.5345452   0.8320678  )
       151           H   tau( 151) = (   0.2826837   1.4928951   0.5772488  )
       152           H   tau( 152) = (  -0.0020394   1.3821546   0.1074766  )
       153           H   tau( 153) = (   0.2535741   0.5949442   0.1647163  )
       154           H   tau( 154) = (   0.5382972   0.3634057   0.6344885  )
       155           H   tau( 155) = (   0.3158721   1.3217556   0.7748280  )
       156           H   tau( 156) = (   0.0311490   1.5532941   0.3050559  )
       157           H   tau( 157) = (   0.3262258   0.8355580   0.2509043  )
       158           H   tau( 158) = (   0.6109489   0.1227919   0.7206765  )
       159           H   tau( 159) = (   0.2432205   1.0811418   0.6886401  )
       160           H   tau( 160) = (  -0.0415026   1.7939079   0.2188679  )
       161           H   tau( 161) = (   0.4076717   0.8117034   0.5017486  )
       162           H   tau( 162) = (   0.1229486   0.1466465   0.0319765  )
       163           H   tau( 163) = (   0.1617745   1.1049964   0.4377957  )
       164           H   tau( 164) = (   0.4464976   1.7700533   0.9075679  )
       165           H   tau( 165) = (   0.2308649   0.7007964   0.6358033  )
       166           H   tau( 166) = (  -0.0538582   0.2575535   0.1660311  )
       167           H   tau( 167) = (   0.3385813   1.2159034   0.3037411  )
       168           H   tau( 168) = (   0.6233045   1.6591463   0.7735133  )
       169           H   tau( 169) = (   0.4059280   0.5521932   0.5678033  )
       170           H   tau( 170) = (   0.1212049   0.4061567   0.0980312  )
       171           H   tau( 171) = (   0.1635182   1.3645066   0.3717410  )
       172           H   tau( 172) = (   0.4482413   1.5105431   0.8415132  )
       173           H   tau( 173) = (   0.4978342   0.5770349   0.4156143  )
       174           H   tau( 174) = (  -0.2174427   0.3813150   0.8853865  )
       175           H   tau( 175) = (   0.0716121   1.3396649   0.5239301  )
       176           H   tau( 176) = (   0.7868889   1.5353848   0.0541579  )
       177           H   tau( 177) = (  -0.2402647   0.6112621   0.7205239  )
       178           H   tau( 178) = (   0.4750122   0.3470878   0.2507518  )
       179           H   tau( 179) = (   0.8097110   1.3054377   0.2190204  )
       180           H   tau( 180) = (   0.0944341   1.5696120   0.6887926  )
       181           H   tau( 181) = (  -0.1325227   0.7488633   0.7466740  )
       182           H   tau( 182) = (   0.5827542   0.2094866   0.2769018  )
       183           H   tau( 183) = (   0.7019689   1.1678365   0.1928703  )
       184           H   tau( 184) = (  -0.0133080   1.7072132   0.6626425  )
       185           H   tau( 185) = (   0.6960026   0.7035955   0.4962533  )
       186           H   tau( 186) = (   0.4112794   0.2547544   0.0264811  )
       187           H   tau( 187) = (  -0.1265563   1.2131043   0.4432911  )
       188           H   tau( 188) = (   0.1581668   1.6619454   0.9130633  )
       189           H   tau( 189) = (   0.6607054   0.8204933   0.6243927  )
       190           H   tau( 190) = (   0.3759823   0.1378566   0.1546205  )
       191           H   tau( 191) = (  -0.0912592   1.0962065   0.3151517  )
       192           H   tau( 192) = (   0.1934639   1.7788432   0.7849239  )
       193           H   tau( 193) = (  -0.1953549   0.8414986   0.5220243  )
       194           H   tau( 194) = (   0.5199220   0.1168513   0.0522521  )
       195           H   tau( 195) = (   0.7648012   1.0752012   0.4175201  )
       196           H   tau( 196) = (   0.0495243   1.7998485   0.8872923  )

     number of k points=     4
                       cart. coord. in units 2pi/alat
        k(    1) = (   0.0000000   0.0000000   0.0000000), wk =   0.5000000
        k(    2) = (   0.0000000   0.0000000  -0.5321728), wk =   0.5000000
        k(    3) = (  -0.5000000   0.0000000  -0.2291290), wk =   0.5000000
        k(    4) = (  -0.5000000   0.0000000  -0.7613019), wk =   0.5000000

     Dense  grid:  1671769 G-vectors     FFT dimensions: ( 125, 240, 125)

     Estimated max dynamical RAM per process >    2456.60MB

     Estimated total allocated dynamical RAM >   19652.80MB

     Check: negative/imaginary core charge=   -0.000002    0.000000

     Initial potential from superposition of free atoms

     starting charge  591.99591, renormalised to  592.00000
     Starting wfc are  532 randomized atomic wfcs
     Checking if some PAW data can be deallocated... 

     total cpu time spent up to now is      154.8 secs

     per-process dynamical memory:  1341.3 Mb

     Self-consistent Calculation

     iteration #  1     ecut=   100.00 Ry     beta=0.50
     Davidson diagonalization with overlap
     ethr =  1.00E-02,  avg # of iterations =  3.8

     total cpu time spent up to now is      618.2 secs

     total energy              =   -2833.63140691 Ry
     Harris-Foulkes estimate   =   -2844.33622061 Ry
     estimated scf accuracy    <      20.19514657 Ry

     iteration #  2     ecut=   100.00 Ry     beta=0.50
     Davidson diagonalization with overlap
     ethr =  3.41E-03,  avg # of iterations =  2.2

     total cpu time spent up to now is      850.1 secs

     total energy              =   -2835.08007054 Ry
     Harris-Foulkes estimate   =   -2836.53984219 Ry
     estimated scf accuracy    <       3.01986263 Ry

     iteration #  3     ecut=   100.00 Ry     beta=0.50
     Davidson diagonalization with overlap
     ethr =  5.10E-04,  avg # of iterations =  5.0

     total cpu time spent up to now is     1378.9 secs

     total energy              =   -2837.23397249 Ry
     Harris-Foulkes estimate   =   -2838.43826676 Ry
     estimated scf accuracy    <       3.18847135 Ry

     iteration #  4     ecut=   100.00 Ry     beta=0.50
     Davidson diagonalization with overlap
     ethr =  5.10E-04,  avg # of iterations =  1.2

     total cpu time spent up to now is     1597.7 secs

     total energy              =   -2836.87651154 Ry
     Harris-Foulkes estimate   =   -2837.44398768 Ry
     estimated scf accuracy    <       0.88564932 Ry

     iteration #  5     ecut=   100.00 Ry     beta=0.50
     Davidson diagonalization with overlap
     ethr =  1.50E-04,  avg # of iterations =  6.0

     total cpu time spent up to now is     2132.3 secs

     total energy              =   -2837.48470171 Ry
     Harris-Foulkes estimate   =   -2837.93653892 Ry
     estimated scf accuracy    <       1.32722042 Ry

     iteration #  6     ecut=   100.00 Ry     beta=0.50
     Davidson diagonalization with overlap
     ethr =  1.50E-04,  avg # of iterations =  1.2

     total cpu time spent up to now is     2348.5 secs

     total energy              =   -2837.36330468 Ry
     Harris-Foulkes estimate   =   -2837.55069248 Ry
     estimated scf accuracy    <       0.51335718 Ry

     iteration #  7     ecut=   100.00 Ry     beta=0.50
     Davidson diagonalization with overlap
     ethr =  8.67E-05,  avg # of iterations = 10.2

     total cpu time spent up to now is     2718.5 secs

     total energy              =   -2837.53342938 Ry
     Harris-Foulkes estimate   =   -2837.53433152 Ry
     estimated scf accuracy    <       0.00746958 Ry

     iteration #  8     ecut=   100.00 Ry     beta=0.50
     Davidson diagonalization with overlap
     c_bands:  2 eigenvalues not converged
     ethr =  1.26E-06,  avg # of iterations =  8.8

     total cpu time spent up to now is     3291.2 secs

     total energy              =   -2837.53400034 Ry
     Harris-Foulkes estimate   =   -2837.54178649 Ry
     estimated scf accuracy    <       0.01781297 Ry

     iteration #  9     ecut=   100.00 Ry     beta=0.50
     Davidson diagonalization with overlap
     c_bands:  1 eigenvalues not converged
     ethr =  1.26E-06,  avg # of iterations = 10.8

     total cpu time spent up to now is     3614.7 secs

     total energy              =   -2837.53574355 Ry
     Harris-Foulkes estimate   =   -2837.53627765 Ry
     estimated scf accuracy    <       0.00096859 Ry

     iteration # 10     ecut=   100.00 Ry     beta=0.50
     Davidson diagonalization with overlap
     ethr =  1.64E-07,  avg # of iterations =  7.8

     total cpu time spent up to now is     4102.6 secs

     total energy              =   -2837.53662183 Ry
     Harris-Foulkes estimate   =   -2837.53693148 Ry
     estimated scf accuracy    <       0.00088898 Ry

     iteration # 11     ecut=   100.00 Ry     beta=0.50
     Davidson diagonalization with overlap
     ethr =  1.50E-07,  avg # of iterations =  1.5

     total cpu time spent up to now is     4315.9 secs

     total energy              =   -2837.53659948 Ry
     Harris-Foulkes estimate   =   -2837.53666739 Ry
     estimated scf accuracy    <       0.00029558 Ry

     iteration # 12     ecut=   100.00 Ry     beta=0.50
     Davidson diagonalization with overlap
     ethr =  4.99E-08,  avg # of iterations =  4.0

     total cpu time spent up to now is     4627.7 secs

     total energy              =   -2837.53667418 Ry
     Harris-Foulkes estimate   =   -2837.53667921 Ry
     estimated scf accuracy    <       0.00001806 Ry

     iteration # 13     ecut=   100.00 Ry     beta=0.50
     Davidson diagonalization with overlap
     ethr =  3.05E-09,  avg # of iterations =  4.0

     total cpu time spent up to now is     4987.6 secs

     total energy              =   -2837.53668132 Ry
     Harris-Foulkes estimate   =   -2837.53668160 Ry
     estimated scf accuracy    <       0.00000168 Ry

     iteration # 14     ecut=   100.00 Ry     beta=0.50
     Davidson diagonalization with overlap
     ethr =  2.83E-10,  avg # of iterations =  3.5

     total cpu time spent up to now is     5268.2 secs

     total energy              =   -2837.53668151 Ry
     Harris-Foulkes estimate   =   -2837.53668170 Ry
     estimated scf accuracy    <       0.00000059 Ry

     iteration # 15     ecut=   100.00 Ry     beta=0.50
     Davidson diagonalization with overlap
     ethr =  9.95E-11,  avg # of iterations =  4.0

     total cpu time spent up to now is     5537.3 secs

     total energy              =   -2837.53668158 Ry
     Harris-Foulkes estimate   =   -2837.53668162 Ry
     estimated scf accuracy    <       0.00000010 Ry

     iteration # 16     ecut=   100.00 Ry     beta=0.50
     Davidson diagonalization with overlap
     ethr =  1.74E-11,  avg # of iterations =  4.0

     total cpu time spent up to now is     5966.6 secs

     total energy              =   -2837.53668165 Ry
     Harris-Foulkes estimate   =   -2837.53668165 Ry
     estimated scf accuracy    <       0.00000002 Ry

     iteration # 17     ecut=   100.00 Ry     beta=0.50
     Davidson diagonalization with overlap
     ethr =  2.83E-12,  avg # of iterations =  2.8

     total cpu time spent up to now is     6203.4 secs

     End of self-consistent calculation

          k = 0.0000 0.0000 0.0000 (208945 PWs)   bands (ev):

   -24.5104 -24.5104 -24.4935 -24.4935 -24.3113 -24.3113 -24.3092 -24.3092
   -21.3143 -21.3143 -21.3119 -21.3119 -20.1116 -20.1116 -20.0908 -20.0908
   -19.8884 -19.8883 -19.8868 -19.8867 -19.0793 -19.0793 -19.0757 -19.0756
   -17.7087 -17.7079 -17.6972 -17.6966 -16.0778 -16.0719 -16.0716 -16.0665
   -15.7533 -15.7526 -15.7497 -15.7495 -13.7664 -13.7602 -13.7567 -13.7528
   -13.4330 -13.4170 -13.4129 -13.4124 -13.1682 -13.1678 -13.1369 -13.1327
   -12.4938 -12.4827 -12.4762 -12.4736 -11.8396 -11.8246 -11.8179 -11.8126
   -11.2914 -11.2788 -11.2432 -11.2321 -11.2063 -11.1694 -11.1597 -11.1348
   -10.9670 -10.9333 -10.9283 -10.9205 -10.0444 -10.0248  -9.9847  -9.9683
    -9.7962  -9.7615  -9.7595  -9.7298  -9.4946  -9.4821  -9.4486  -9.4231
    -8.3483  -8.3214  -8.2500  -8.2480  -8.1465  -8.1141  -8.0827  -8.0416
    -7.9112  -7.8967  -7.8864  -7.8859  -7.7744  -7.7458  -7.7383  -7.7346
    -7.6428  -7.6203  -7.6126  -7.5987  -7.3399  -7.2977  -7.2373  -7.2369
    -7.2282  -7.2115  -7.1094  -7.0577  -7.0307  -6.9301  -6.8920  -6.8910
    -6.8653  -6.8244  -6.7961  -6.7661  -6.7204  -6.6553  -6.6549  -6.6118
    -6.5483  -6.5259  -6.4743  -6.4549  -6.4379  -6.4309  -6.3886  -6.3678
    -6.3315  -6.3276  -6.2602  -6.2469  -6.2347  -6.2233  -6.1628  -6.1438
    -6.0568  -6.0434  -6.0269  -5.9869  -5.9822  -5.9663  -5.8913  -5.8079
    -5.6207  -5.6066  -5.6032  -5.5781  -5.4578  -5.4402  -5.4310  -5.3966
    -5.1395  -5.1287  -5.0744  -5.0629  -4.9213  -4.9145  -4.9000  -4.8645
    -4.6917  -4.6662  -4.5437  -4.5092  -4.3338  -4.3027  -4.3002  -4.2565
    -3.8814  -3.8574  -3.8473  -3.8451  -3.5878  -3.5695  -3.5589  -3.5585
    -3.5299  -3.5035  -3.4136  -3.4133  -3.2722  -3.2659  -3.2566  -3.2328
    -3.1867  -3.1427  -3.1321  -3.0958  -3.0741  -3.0488  -3.0319  -3.0266
    -2.9083  -2.9030  -2.8915  -2.8216  -2.8041  -2.7997  -2.7888  -2.7496
    -2.6679  -2.6043  -2.5871  -2.5741  -2.4560  -2.4526  -2.4116  -2.3736
    -2.3684  -2.3603  -2.3514  -2.3213  -2.2240  -2.2000  -2.1913  -2.1722
    -2.1583  -2.1408  -2.1351  -2.1328  -2.1266  -2.1204  -2.1083  -2.0906
    -2.0824  -2.0055  -1.9979  -1.9954  -1.9826  -1.9744  -1.9638  -1.9264
    -1.9074  -1.8905  -1.8617  -1.8466  -1.7292  -1.7157  -1.7087  -1.7029
    -1.6551  -1.6358  -1.6296  -1.6256  -1.5195  -1.4852  -1.4847  -1.4836
    -1.4824  -1.4047  -1.3154  -1.3134  -1.2697  -1.2517  -1.2448  -1.2222
    -1.0926  -1.0536  -1.0311  -1.0141  -0.8843  -0.8823  -0.8774  -0.8403
    -0.8353  -0.8272  -0.8157  -0.7875  -0.7155  -0.6975  -0.6751  -0.6705
    -0.5832  -0.5788  -0.5090  -0.4879  -0.2784  -0.2718  -0.2510  -0.2274
    -0.0569  -0.0541   0.0066   0.0176   0.0280   0.0403   0.0694   0.0775
     0.5262   0.5402   0.5462   0.5515   0.5534   0.5699   0.7245   0.7634
     3.2205   3.2315   3.2849   3.2870   3.3739   3.3868   3.4130   3.4214
     4.5379   4.5440   4.5510   4.5590   5.1457   5.1825   5.1997   5.2015
     5.3646   5.4190   5.4451   5.4677   5.4986   5.5297   5.6915   5.7122
     6.3943   6.7230   6.7948   6.9840   7.1586   7.3287   7.3406   7.3751
     7.3952   7.4376   7.4894   7.5565   7.5859   7.6519   7.7026   7.7071
     7.7563   7.8455   8.0100   8.0391   8.0507   8.0510   8.0683   8.1085
     8.1094   8.1890   8.3257   8.3375   8.3599   8.3794   8.3934   8.4189
     8.4813   8.4881   8.5624

          k = 0.0000 0.0000-0.5322 (208926 PWs)   bands (ev):

   -24.5104 -24.5104 -24.4935 -24.4935 -24.3113 -24.3113 -24.3092 -24.3092
   -21.3131 -21.3131 -21.3131 -21.3131 -20.1116 -20.1116 -20.0908 -20.0908
   -19.8884 -19.8884 -19.8868 -19.8867 -19.0775 -19.0775 -19.0775 -19.0775
   -17.7030 -17.7030 -17.7023 -17.7023 -16.0748 -16.0748 -16.0691 -16.0691
   -15.7519 -15.7519 -15.7506 -15.7506 -13.7607 -13.7607 -13.7555 -13.7555
   -13.4247 -13.4247 -13.4158 -13.4158 -13.1521 -13.1521 -13.1491 -13.1491
   -12.4909 -12.4909 -12.4741 -12.4741 -11.8301 -11.8301 -11.8168 -11.8168
   -11.2655 -11.2655 -11.2585 -11.2585 -11.1884 -11.1884 -11.1487 -11.1487
   -10.9508 -10.9508 -10.9215 -10.9215 -10.0357 -10.0357  -9.9756  -9.9756
    -9.7762  -9.7762  -9.7421  -9.7421  -9.4719  -9.4719  -9.4532  -9.4532
    -8.2913  -8.2913  -8.2711  -8.2711  -8.1440  -8.1440  -8.0773  -8.0773
    -7.9462  -7.9462  -7.9072  -7.9072  -7.7466  -7.7466  -7.7345  -7.7345
    -7.6066  -7.6066  -7.5851  -7.5851  -7.2744  -7.2744  -7.2461  -7.2461
    -7.1861  -7.1861  -7.1451  -7.1451  -6.9886  -6.9886  -6.8863  -6.8863
    -6.8453  -6.8453  -6.8050  -6.8050  -6.6911  -6.6911  -6.6334  -6.6334
    -6.5553  -6.5553  -6.4678  -6.4678  -6.4415  -6.4415  -6.3712  -6.3712
    -6.2765  -6.2764  -6.2344  -6.2344  -6.2238  -6.2238  -6.1379  -6.1379
    -6.0911  -6.0911  -6.0048  -6.0048  -5.9508  -5.9508  -5.8514  -5.8514
    -5.6146  -5.6146  -5.6056  -5.6056  -5.4456  -5.4456  -5.3992  -5.3992
    -5.1179  -5.1179  -5.1020  -5.1020  -4.9110  -4.9110  -4.8762  -4.8762
    -4.6231  -4.6231  -4.5941  -4.5941  -4.3229  -4.3229  -4.2649  -4.2649
    -3.8665  -3.8665  -3.8375  -3.8375  -3.5611  -3.5611  -3.5562  -3.5562
    -3.5195  -3.5195  -3.4916  -3.4916  -3.2693  -3.2693  -3.2439  -3.2439
    -3.1693  -3.1693  -3.1238  -3.1238  -3.0626  -3.0626  -3.0417  -3.0417
    -2.8863  -2.8863  -2.8581  -2.8581  -2.8274  -2.8274  -2.7695  -2.7695
    -2.6277  -2.6277  -2.5171  -2.5171  -2.4632  -2.4632  -2.4256  -2.4256
    -2.3700  -2.3700  -2.3176  -2.3176  -2.2172  -2.2172  -2.1845  -2.1845
    -2.1679  -2.1679  -2.1405  -2.1405  -2.1096  -2.1096  -2.0919  -2.0919
    -2.0256  -2.0256  -2.0193  -2.0193  -1.9952  -1.9952  -1.9375  -1.9375
    -1.8822  -1.8822  -1.8602  -1.8602  -1.7386  -1.7386  -1.7038  -1.7038
    -1.6480  -1.6480  -1.6013  -1.6013  -1.5164  -1.5164  -1.4624  -1.4624
    -1.4489  -1.4489  -1.3258  -1.3258  -1.2717  -1.2717  -1.2457  -1.2457
    -1.0291  -1.0291  -1.0077  -1.0077  -0.8747  -0.8747  -0.8378  -0.8378
    -0.8243  -0.8243  -0.8167  -0.8167  -0.6893  -0.6893  -0.6545  -0.6545
    -0.5861  -0.5861  -0.5184  -0.5184  -0.2807  -0.2806  -0.2688  -0.2687
    -0.0284  -0.0284  -0.0222  -0.0222   0.0626   0.0626   0.0742   0.0742
     0.5240   0.5240   0.5503   0.5503   0.5633   0.5633   0.7404   0.7404
     3.2358   3.2358   3.2869   3.2869   3.3768   3.3768   3.4210   3.4210
     4.5400   4.5400   4.5594   4.5594   5.1722   5.1722   5.1962   5.1962
     5.3796   5.3796   5.4527   5.4527   5.4856   5.4856   5.7031   5.7031
     6.6631   6.6631   6.9235   6.9235   7.1091   7.1091   7.3289   7.3289
     7.3894   7.3894   7.4693   7.4693   7.6422   7.6422   7.7598   7.7598
     7.7781   7.7781   7.9495   7.9495   8.0158   8.0158   8.1135   8.1135
     8.1589   8.1589   8.2820   8.2821   8.3902   8.3903   8.4134   8.4135
     8.4706   8.4707   8.5804

          k =-0.5000 0.0000-0.2291 (208948 PWs)   bands (ev):

   -24.5104 -24.5104 -24.4935 -24.4935 -24.3113 -24.3113 -24.3092 -24.3092
   -21.3131 -21.3131 -21.3131 -21.3131 -20.1116 -20.1116 -20.0908 -20.0908
   -19.8884 -19.8883 -19.8868 -19.8868 -19.0775 -19.0775 -19.0775 -19.0775
   -17.7030 -17.7030 -17.7022 -17.7022 -16.0757 -16.0757 -16.0692 -16.0692
   -15.7553 -15.7553 -15.7464 -15.7464 -13.7576 -13.7576 -13.7549 -13.7549
   -13.4234 -13.4234 -13.4137 -13.4137 -13.1530 -13.1530 -13.1503 -13.1503
   -12.4982 -12.4982 -12.4803 -12.4803 -11.8394 -11.8394 -11.8082 -11.8082
   -11.2804 -11.2804 -11.2630 -11.2630 -11.1673 -11.1673 -11.1547 -11.1547
   -10.9431 -10.9431 -10.9090 -10.9090 -10.0365 -10.0365  -9.9775  -9.9775
    -9.7719  -9.7719  -9.7202  -9.7202  -9.4850  -9.4850  -9.4575  -9.4575
    -8.3199  -8.3199  -8.2721  -8.2721  -8.1072  -8.1072  -8.0812  -8.0812
    -7.9448  -7.9448  -7.9075  -7.9075  -7.7618  -7.7618  -7.7303  -7.7303
    -7.6401  -7.6401  -7.5756  -7.5756  -7.2992  -7.2992  -7.2658  -7.2658
    -7.1642  -7.1642  -7.1372  -7.1372  -7.0035  -7.0035  -6.8688  -6.8688
    -6.8398  -6.8398  -6.8074  -6.8074  -6.6756  -6.6756  -6.6239  -6.6239
    -6.5661  -6.5661  -6.5070  -6.5070  -6.4554  -6.4554  -6.3297  -6.3297
    -6.2714  -6.2714  -6.2523  -6.2523  -6.2180  -6.2180  -6.1396  -6.1396
    -6.0514  -6.0514  -6.0013  -6.0013  -5.9358  -5.9358  -5.8761  -5.8761
    -5.6292  -5.6292  -5.5834  -5.5834  -5.4523  -5.4523  -5.4184  -5.4184
    -5.1148  -5.1148  -5.0929  -5.0929  -4.8894  -4.8894  -4.8634  -4.8634
    -4.6113  -4.6113  -4.5810  -4.5810  -4.3167  -4.3167  -4.2813  -4.2813
    -3.8824  -3.8824  -3.8298  -3.8298  -3.5916  -3.5916  -3.5814  -3.5814
    -3.5031  -3.5031  -3.4981  -3.4981  -3.3128  -3.3128  -3.2557  -3.2557
    -3.1717  -3.1717  -3.0890  -3.0890  -3.0326  -3.0326  -3.0098  -3.0098
    -2.9739  -2.9739  -2.8956  -2.8956  -2.7597  -2.7597  -2.7303  -2.7303
    -2.5987  -2.5987  -2.5651  -2.5651  -2.4481  -2.4481  -2.4253  -2.4253
    -2.3675  -2.3675  -2.3484  -2.3484  -2.2088  -2.2088  -2.1796  -2.1796
    -2.1406  -2.1406  -2.1343  -2.1343  -2.1183  -2.1183  -2.1026  -2.1026
    -2.0767  -2.0767  -2.0154  -2.0154  -1.9512  -1.9512  -1.9413  -1.9413
    -1.8701  -1.8701  -1.8324  -1.8324  -1.7346  -1.7346  -1.7199  -1.7199
    -1.6495  -1.6495  -1.6106  -1.6106  -1.5297  -1.5297  -1.4541  -1.4541
    -1.4334  -1.4334  -1.3230  -1.3230  -1.2748  -1.2748  -1.2349  -1.2349
    -1.0488  -1.0488  -1.0210  -1.0210  -0.8692  -0.8692  -0.8465  -0.8465
    -0.8358  -0.8358  -0.7945  -0.7945  -0.7020  -0.7020  -0.6827  -0.6827
    -0.5724  -0.5724  -0.5125  -0.5125  -0.2805  -0.2805  -0.2643  -0.2643
    -0.0276  -0.0276  -0.0201  -0.0201   0.0643   0.0643   0.0710   0.0710
     0.5073   0.5073   0.5438   0.5438   0.6014   0.6014   0.7226   0.7226
     3.2281   3.2281   3.2804   3.2804   3.3851   3.3851   3.4180   3.4180
     4.5511   4.5511   4.5549   4.5549   5.1582   5.1582   5.2066   5.2066
     5.3585   5.3585   5.4354   5.4354   5.5639   5.5639   5.7275   5.7275
     6.7507   6.7507   6.8944   6.8944   7.1141   7.1141   7.2740   7.2740
     7.4205   7.4205   7.4248   7.4248   7.6687   7.6687   7.7222   7.7222
     7.8344   7.8344   7.9642   7.9642   8.0219   8.0219   8.0671   8.0671
     8.1836   8.1836   8.2537   8.2537   8.3242   8.3242   8.4228   8.4228
     8.4362   8.4363   8.4737

          k =-0.5000 0.0000-0.7613 (208950 PWs)   bands (ev):

   -24.5104 -24.5104 -24.4935 -24.4935 -24.3113 -24.3113 -24.3092 -24.3092
   -21.3143 -21.3143 -21.3119 -21.3119 -20.1116 -20.1116 -20.0908 -20.0908
   -19.8884 -19.8883 -19.8868 -19.8867 -19.0794 -19.0794 -19.0756 -19.0756
   -17.7086 -17.7078 -17.6975 -17.6965 -16.0805 -16.0726 -16.0709 -16.0658
   -15.7649 -15.7548 -15.7457 -15.7383 -13.7659 -13.7651 -13.7475 -13.7454
   -13.4330 -13.4309 -13.4072 -13.4000 -13.1633 -13.1615 -13.1434 -13.1396
   -12.5168 -12.4921 -12.4756 -12.4727 -11.8427 -11.8357 -11.8137 -11.8034
   -11.2951 -11.2792 -11.2492 -11.2440 -11.1758 -11.1709 -11.1637 -11.1523
   -10.9482 -10.9433 -10.9295 -10.8894 -10.0427 -10.0349  -9.9890  -9.9684
    -9.8147  -9.7631  -9.7320  -9.6825  -9.4968  -9.4645  -9.4614  -9.4432
    -8.4210  -8.3430  -8.2524  -8.2390  -8.1098  -8.0735  -8.0665  -8.0506
    -7.9856  -7.9131  -7.8860  -7.8805  -7.7554  -7.7543  -7.7520  -7.7009
    -7.6376  -7.6278  -7.6190  -7.5769  -7.3281  -7.3168  -7.3109  -7.2414
    -7.2006  -7.1934  -7.0836  -7.0621  -7.0028  -6.9684  -6.9071  -6.8617
    -6.8516  -6.8170  -6.7818  -6.7720  -6.6896  -6.6849  -6.6492  -6.6200
    -6.5560  -6.5231  -6.5157  -6.4813  -6.4560  -6.4452  -6.3774  -6.3415
    -6.3326  -6.3088  -6.2844  -6.2357  -6.2164  -6.1765  -6.1602  -6.1279
    -6.0915  -6.0582  -6.0371  -6.0287  -5.9466  -5.9155  -5.8723  -5.8249
    -5.6247  -5.6133  -5.5736  -5.5289  -5.4844  -5.4421  -5.4252  -5.4214
    -5.1212  -5.1151  -5.1043  -5.0981  -4.8961  -4.8838  -4.8695  -4.8352
    -4.7118  -4.6806  -4.5497  -4.5301  -4.3384  -4.2995  -4.2867  -4.2219
    -3.8709  -3.8555  -3.8533  -3.7914  -3.6498  -3.5906  -3.5743  -3.5394
    -3.5390  -3.5370  -3.4277  -3.4275  -3.3816  -3.3014  -3.2525  -3.2231
    -3.2173  -3.2002  -3.1168  -3.1130  -3.0697  -3.0590  -3.0427  -3.0185
    -2.9495  -2.9318  -2.8695  -2.8012  -2.7687  -2.7607  -2.6920  -2.6902
    -2.6333  -2.5685  -2.5489  -2.5423  -2.4601  -2.4600  -2.4357  -2.4037
    -2.3677  -2.3556  -2.3262  -2.3198  -2.2938  -2.2459  -2.2329  -2.1812
    -2.1662  -2.1548  -2.1410  -2.1155  -2.1101  -2.0946  -2.0873  -2.0754
    -2.0665  -2.0532  -2.0530  -2.0163  -1.9783  -1.9501  -1.9434  -1.9409
    -1.8375  -1.8318  -1.8233  -1.8206  -1.7654  -1.7447  -1.7345  -1.7143
    -1.6759  -1.6395  -1.6377  -1.6151  -1.5342  -1.5222  -1.5117  -1.5051
    -1.4620  -1.3909  -1.3105  -1.3023  -1.2631  -1.2510  -1.2330  -1.2045
    -1.0500  -1.0285  -1.0236  -1.0102  -0.8960  -0.8959  -0.8902  -0.8473
    -0.8221  -0.8185  -0.8030  -0.7848  -0.7209  -0.7077  -0.6937  -0.6613
    -0.5849  -0.5755  -0.5250  -0.5134  -0.2840  -0.2718  -0.2414  -0.2327
    -0.0666  -0.0547   0.0030   0.0049   0.0497   0.0517   0.0576   0.0721
     0.5276   0.5315   0.5400   0.5642   0.5887   0.6335   0.7006   0.7388
     3.2285   3.2374   3.2842   3.2890   3.3748   3.3784   3.4097   3.4141
     4.5492   4.5526   4.5529   4.5536   5.1616   5.1631   5.1928   5.2266
     5.3546   5.3856   5.5024   5.5061   5.5218   5.5273   5.6627   5.7157
     6.5863   6.6348   6.8581   6.8895   7.1295   7.3008   7.3056   7.3334
     7.4026   7.4932   7.5217   7.5393   7.6088   7.6456   7.6684   7.6908
     7.7484   7.7701   7.8196   7.9001   7.9154   8.0146   8.0923   8.0986
     8.1468   8.1658   8.2213   8.3096   8.4135   8.4499   8.4624   8.4862
     8.4867   8.4931   8.5312

     highest occupied, lowest unoccupied level (ev):     0.7634    3.2205

!    total energy              =   -2837.53668165 Ry
     Harris-Foulkes estimate   =   -2837.53668165 Ry
     estimated scf accuracy    <          7.3E-09 Ry

     total all-electron energy =    -10815.519057 Ry

     The total energy is the sum of the following terms:

     one-electron contribution =   -1877.11129580 Ry
     hartree contribution      =    1164.53977799 Ry
     xc contribution           =    -616.37377607 Ry
     ewald contribution        =    -674.16355176 Ry
     Dispersion Correction     =      -0.94110009 Ry
     one-center paw contrib.   =    -833.48673591 Ry

     convergence has been achieved in  17 iterations

     Forces acting on atoms (cartesian axes, Ry/au):

     atom    1 type  4   force =     0.00025504    0.00015957    0.00018958
     atom    2 type  4   force =     0.00025611   -0.00016035    0.00018967
     atom    3 type  4   force =    -0.00025504   -0.00015957   -0.00018958
     atom    4 type  4   force =    -0.00025611    0.00016035   -0.00018967
     atom    5 type  4   force =    -0.00001859    0.00021430   -0.00042930
     atom    6 type  4   force =    -0.00001801   -0.00021500   -0.00042902
     atom    7 type  4   force =     0.00001859   -0.00021430    0.00042930
     atom    8 type  4   force =     0.00001801    0.00021500    0.00042902
     atom    9 type  4   force =     0.00059473   -0.00011623   -0.00008231
     atom   10 type  4   force =     0.00059590    0.00011687   -0.00008078
     atom   11 type  4   force =    -0.00059473    0.00011623    0.00008231
     atom   12 type  4   force =    -0.00059590   -0.00011687    0.00008078
     atom   13 type  4   force =    -0.00037093    0.00022203    0.00001012
     atom   14 type  4   force =    -0.00036942   -0.00022117    0.00001066
     atom   15 type  4   force =     0.00037093   -0.00022203   -0.00001012
     atom   16 type  4   force =     0.00036942    0.00022117   -0.00001066
     atom   17 type  4   force =     0.00014145   -0.00017597    0.00004428
     atom   18 type  4   force =     0.00013704    0.00017310    0.00003537
     atom   19 type  4   force =    -0.00014145    0.00017597   -0.00004428
     atom   20 type  4   force =    -0.00013704   -0.00017310   -0.00003537
     atom   21 type  4   force =     0.00025416   -0.00102916   -0.00011498
     atom   22 type  4   force =     0.00025601    0.00103656   -0.00012517
     atom   23 type  4   force =    -0.00025416    0.00102916    0.00011498
     atom   24 type  4   force =    -0.00025601   -0.00103656    0.00012517
     atom   25 type  2   force =    -0.00047950    0.00068879    0.00049823
     atom   26 type  2   force =    -0.00047892   -0.00068685    0.00049889
     atom   27 type  2   force =     0.00047950   -0.00068879   -0.00049823
     atom   28 type  2   force =     0.00047892    0.00068685   -0.00049889
     atom   29 type  2   force =    -0.00033057    0.00023376   -0.00017125
     atom   30 type  2   force =    -0.00033317   -0.00023431   -0.00017334
     atom   31 type  2   force =     0.00033057   -0.00023376    0.00017125
     atom   32 type  2   force =     0.00033317    0.00023431    0.00017334
     atom   33 type  2   force =     0.00038080    0.00069145    0.00049068
     atom   34 type  2   force =     0.00038265   -0.00069463    0.00050576
     atom   35 type  2   force =    -0.00038080   -0.00069145   -0.00049068
     atom   36 type  2   force =    -0.00038265    0.00069463   -0.00050576
     atom   37 type  1   force =    -0.00016831    0.00001835   -0.00018822
     atom   38 type  1   force =    -0.00016512   -0.00001826   -0.00018116
     atom   39 type  1   force =     0.00016831   -0.00001835    0.00018822
     atom   40 type  1   force =     0.00016512    0.00001826    0.00018116
     atom   41 type  1   force =    -0.00006422   -0.00018061    0.00000633
     atom   42 type  1   force =    -0.00006104    0.00018182    0.00000259
     atom   43 type  1   force =     0.00006422    0.00018061   -0.00000633
     atom   44 type  1   force =     0.00006104   -0.00018182   -0.00000259
     atom   45 type  1   force =     0.00009169    0.00043718   -0.00000387
     atom   46 type  1   force =     0.00008863   -0.00043683   -0.00001549
     atom   47 type  1   force =    -0.00009169   -0.00043718    0.00000387
     atom   48 type  1   force =    -0.00008863    0.00043683    0.00001549
     atom   49 type  1   force =     0.00020549   -0.00038116    0.00010646
     atom   50 type  1   force =     0.00020859    0.00038171    0.00010605
     atom   51 type  1   force =    -0.00020549    0.00038116   -0.00010646
     atom   52 type  1   force =    -0.00020859   -0.00038171   -0.00010605
     atom   53 type  1   force =    -0.00001285   -0.00044192   -0.00012960
     atom   54 type  1   force =    -0.00000831    0.00044152   -0.00012317
     atom   55 type  1   force =     0.00001285    0.00044192    0.00012960
     atom   56 type  1   force =     0.00000831   -0.00044152    0.00012317
     atom   57 type  1   force =     0.00081689   -0.00030627   -0.00007924
     atom   58 type  1   force =     0.00082365    0.00030541   -0.00007044
     atom   59 type  1   force =    -0.00081689    0.00030627    0.00007924
     atom   60 type  1   force =    -0.00082365   -0.00030541    0.00007044
     atom   61 type  1   force =     0.00048148    0.00058514    0.00027398
     atom   62 type  1   force =     0.00048691   -0.00058615    0.00028272
     atom   63 type  1   force =    -0.00048148   -0.00058514   -0.00027398
     atom   64 type  1   force =    -0.00048691    0.00058615   -0.00028272
     atom   65 type  1   force =    -0.00002754    0.00095688    0.00016639
     atom   66 type  1   force =    -0.00002156   -0.00095751    0.00017572
     atom   67 type  1   force =     0.00002754   -0.00095688   -0.00016639
     atom   68 type  1   force =     0.00002156    0.00095751   -0.00017572
     atom   69 type  1   force =    -0.00002464    0.00008751   -0.00055681
     atom   70 type  1   force =    -0.00002632   -0.00008861   -0.00056160
     atom   71 type  1   force =     0.00002464   -0.00008751    0.00055681
     atom   72 type  1   force =     0.00002632    0.00008861    0.00056160
     atom   73 type  1   force =     0.00005816    0.00007995    0.00036507
     atom   74 type  1   force =     0.00005732   -0.00007946    0.00037222
     atom   75 type  1   force =    -0.00005816   -0.00007995   -0.00036507
     atom   76 type  1   force =    -0.00005732    0.00007946   -0.00037222
     atom   77 type  1   force =    -0.00036285    0.00042197    0.00029005
     atom   78 type  1   force =    -0.00036429   -0.00042161    0.00029404
     atom   79 type  1   force =     0.00036285   -0.00042197   -0.00029005
     atom   80 type  1   force =     0.00036429    0.00042161   -0.00029404
     atom   81 type  1   force =     0.00056154   -0.00039844    0.00082489
     atom   82 type  1   force =     0.00056342    0.00039927    0.00083043
     atom   83 type  1   force =    -0.00056154    0.00039844   -0.00082489
     atom   84 type  1   force =    -0.00056342   -0.00039927   -0.00083043
     atom   85 type  1   force =    -0.00068556   -0.00029524    0.00038156
     atom   86 type  1   force =    -0.00068313    0.00029436    0.00037261
     atom   87 type  1   force =     0.00068556    0.00029524   -0.00038156
     atom   88 type  1   force =     0.00068313   -0.00029436   -0.00037261
     atom   89 type  1   force =    -0.00021855    0.00019876   -0.00020724
     atom   90 type  1   force =    -0.00022054   -0.00019908   -0.00021724
     atom   91 type  1   force =     0.00021855   -0.00019876    0.00020724
     atom   92 type  1   force =     0.00022054    0.00019908    0.00021724
     atom   93 type  1   force =     0.00010191    0.00108365   -0.00000196
     atom   94 type  1   force =     0.00009845   -0.00108490    0.00000235
     atom   95 type  1   force =    -0.00010191   -0.00108365    0.00000196
     atom   96 type  1   force =    -0.00009845    0.00108490   -0.00000235
     atom   97 type  1   force =    -0.00029325   -0.00029019   -0.00016488
     atom   98 type  1   force =    -0.00029829    0.00029039   -0.00017421
     atom   99 type  1   force =     0.00029325    0.00029019    0.00016488
     atom  100 type  1   force =     0.00029829   -0.00029039    0.00017421
     atom  101 type  1   force =     0.00018880   -0.00062113   -0.00033210
     atom  102 type  1   force =     0.00018893    0.00062119   -0.00033236
     atom  103 type  1   force =    -0.00018880    0.00062113    0.00033210
     atom  104 type  1   force =    -0.00018893   -0.00062119    0.00033236
     atom  105 type  1   force =     0.00010904   -0.00011774    0.00017554
     atom  106 type  1   force =     0.00010814    0.00011751    0.00017893
     atom  107 type  1   force =    -0.00010904    0.00011774   -0.00017554
     atom  108 type  1   force =    -0.00010814   -0.00011751   -0.00017893
     atom  109 type  1   force =     0.00028896   -0.00051017    0.00011993
     atom  110 type  1   force =     0.00029324    0.00051018    0.00012596
     atom  111 type  1   force =    -0.00028896    0.00051017   -0.00011993
     atom  112 type  1   force =    -0.00029324   -0.00051018   -0.00012596
     atom  113 type  3   force =    -0.00048145    0.00073517    0.00019287
     atom  114 type  3   force =    -0.00048134   -0.00073516    0.00019219
     atom  115 type  3   force =     0.00048145   -0.00073517   -0.00019287
     atom  116 type  3   force =     0.00048134    0.00073516   -0.00019219
     atom  117 type  3   force =    -0.00008423   -0.00026753   -0.00008242
     atom  118 type  3   force =    -0.00008428    0.00026791   -0.00008186
     atom  119 type  3   force =     0.00008423    0.00026753    0.00008242
     atom  120 type  3   force =     0.00008428   -0.00026791    0.00008186
     atom  121 type  3   force =    -0.00026970    0.00019669    0.00012418
     atom  122 type  3   force =    -0.00026968   -0.00019691    0.00012423
     atom  123 type  3   force =     0.00026970   -0.00019669   -0.00012418
     atom  124 type  3   force =     0.00026968    0.00019691   -0.00012423
     atom  125 type  3   force =     0.00046683   -0.00008408   -0.00006595
     atom  126 type  3   force =     0.00046713    0.00008375   -0.00006536
     atom  127 type  3   force =    -0.00046683    0.00008408    0.00006595
     atom  128 type  3   force =    -0.00046713   -0.00008375    0.00006536
     atom  129 type  3   force =    -0.00038424    0.00017300   -0.00003549
     atom  130 type  3   force =    -0.00038380   -0.00017318   -0.00003545
     atom  131 type  3   force =     0.00038424   -0.00017300    0.00003549
     atom  132 type  3   force =     0.00038380    0.00017318    0.00003545
     atom  133 type  3   force =     0.00054166    0.00006801   -0.00011121
     atom  134 type  3   force =     0.00054209   -0.00006845   -0.00011107
     atom  135 type  3   force =    -0.00054166   -0.00006801    0.00011121
     atom  136 type  3   force =    -0.00054209    0.00006845    0.00011107
     atom  137 type  3   force =     0.00010772   -0.00006598   -0.00003430
     atom  138 type  3   force =     0.00010816    0.00006550   -0.00003395
     atom  139 type  3   force =    -0.00010772    0.00006598    0.00003430
     atom  140 type  3   force =    -0.00010816   -0.00006550    0.00003395
     atom  141 type  3   force =    -0.00039295   -0.00017823   -0.00003533
     atom  142 type  3   force =    -0.00039234    0.00017814   -0.00003509
     atom  143 type  3   force =     0.00039295    0.00017823    0.00003533
     atom  144 type  3   force =     0.00039234   -0.00017814    0.00003509
     atom  145 type  3   force =     0.00006672    0.00001908    0.00020855
     atom  146 type  3   force =     0.00006694   -0.00001872    0.00020859
     atom  147 type  3   force =    -0.00006672   -0.00001908   -0.00020855
     atom  148 type  3   force =    -0.00006694    0.00001872   -0.00020859
     atom  149 type  3   force =     0.00001823   -0.00080171    0.00001793
     atom  150 type  3   force =     0.00001824    0.00080176    0.00001800
     atom  151 type  3   force =    -0.00001823    0.00080171   -0.00001793
     atom  152 type  3   force =    -0.00001824   -0.00080176   -0.00001800
     atom  153 type  3   force =    -0.00001172   -0.00041599   -0.00011931
     atom  154 type  3   force =    -0.00001114    0.00041591   -0.00011861
     atom  155 type  3   force =     0.00001172    0.00041599    0.00011931
     atom  156 type  3   force =     0.00001114   -0.00041591    0.00011861
     atom  157 type  3   force =     0.00001450   -0.00017690   -0.00010072
     atom  158 type  3   force =     0.00001531    0.00017639   -0.00010082
     atom  159 type  3   force =    -0.00001450    0.00017690    0.00010072
     atom  160 type  3   force =    -0.00001531   -0.00017639    0.00010082
     atom  161 type  3   force =     0.00039400    0.00039252   -0.00000221
     atom  162 type  3   force =     0.00039383   -0.00039236   -0.00000247
     atom  163 type  3   force =    -0.00039400   -0.00039252    0.00000221
     atom  164 type  3   force =    -0.00039383    0.00039236    0.00000247
     atom  165 type  3   force =    -0.00018414    0.00000785   -0.00029643
     atom  166 type  3   force =    -0.00018451   -0.00000838   -0.00029621
     atom  167 type  3   force =     0.00018414   -0.00000785    0.00029643
     atom  168 type  3   force =     0.00018451    0.00000838    0.00029621
     atom  169 type  3   force =     0.00018255   -0.00009280    0.00033048
     atom  170 type  3   force =     0.00018249    0.00009260    0.00032993
     atom  171 type  3   force =    -0.00018255    0.00009280   -0.00033048
     atom  172 type  3   force =    -0.00018249   -0.00009260   -0.00032993
     atom  173 type  3   force =    -0.00013683    0.00023659   -0.00044305
     atom  174 type  3   force =    -0.00013708   -0.00023669   -0.00044295
     atom  175 type  3   force =     0.00013683   -0.00023659    0.00044305
     atom  176 type  3   force =     0.00013708    0.00023669    0.00044295
     atom  177 type  3   force =    -0.00026068   -0.00075017    0.00023408
     atom  178 type  3   force =    -0.00026053    0.00075011    0.00023425
     atom  179 type  3   force =     0.00026068    0.00075017   -0.00023408
     atom  180 type  3   force =     0.00026053   -0.00075011   -0.00023425
     atom  181 type  3   force =     0.00067398    0.00027850   -0.00008710
     atom  182 type  3   force =     0.00067425   -0.00027861   -0.00008695
     atom  183 type  3   force =    -0.00067398   -0.00027850    0.00008710
     atom  184 type  3   force =    -0.00067425    0.00027861    0.00008695
     atom  185 type  3   force =    -0.00038383    0.00022527    0.00023361
     atom  186 type  3   force =    -0.00038385   -0.00022530    0.00023393
     atom  187 type  3   force =     0.00038383   -0.00022527   -0.00023361
     atom  188 type  3   force =     0.00038385    0.00022530   -0.00023393
     atom  189 type  3   force =    -0.00033027    0.00042080   -0.00002182
     atom  190 type  3   force =    -0.00032984   -0.00042051   -0.00002177
     atom  191 type  3   force =     0.00033027   -0.00042080    0.00002182
     atom  192 type  3   force =     0.00032984    0.00042051    0.00002177
     atom  193 type  3   force =    -0.00028296    0.00050248   -0.00012610
     atom  194 type  3   force =    -0.00028285   -0.00050254   -0.00012554
     atom  195 type  3   force =     0.00028296   -0.00050248    0.00012610
     atom  196 type  3   force =     0.00028285    0.00050254    0.00012554

     Total force =     0.008541     Total SCF correction =     0.000178


     Computing stress (Cartesian axis) and pressure

          total   stress  (Ry/bohr**3)                   (kbar)     P=   -6.24
  -0.00004816  -0.00000000  -0.00000009         -7.08     -0.00     -0.01
  -0.00000000  -0.00003613  -0.00000000         -0.00     -5.32     -0.00
  -0.00000009  -0.00000000  -0.00004293         -0.01     -0.00     -6.31


     Writing output data file scf.save
 
     init_run     :    149.80s CPU    154.06s WALL (       1 calls)
     electrons    :   5900.81s CPU   6049.12s WALL (       1 calls)
     forces       :     76.36s CPU     76.96s WALL (       1 calls)
     stress       :    360.77s CPU    361.45s WALL (       1 calls)

     Called by init_run:
     wfcinit      :    128.26s CPU    132.19s WALL (       1 calls)
     potinit      :      7.56s CPU      7.62s WALL (       1 calls)

     Called by electrons:
     c_bands      :   5396.49s CPU   5519.82s WALL (      17 calls)
     sum_band     :    469.16s CPU    489.99s WALL (      17 calls)
     v_of_rho     :      4.92s CPU      5.38s WALL (      18 calls)
     newd         :     15.59s CPU     19.13s WALL (      18 calls)
     PAW_pot      :     13.76s CPU     13.77s WALL (      18 calls)
     mix_rho      :      1.24s CPU      1.31s WALL (      17 calls)

     Called by c_bands:
     init_us_2    :     14.22s CPU     14.38s WALL (     148 calls)
     cegterg      :   5328.45s CPU   5451.71s WALL (      68 calls)

     Called by sum_band:
     sum_band:bec :      0.17s CPU      0.17s WALL (      68 calls)
     addusdens    :     15.02s CPU     18.40s WALL (      17 calls)

     Called by *egterg:
     h_psi        :   2571.61s CPU   2672.34s WALL (     395 calls)
     s_psi        :    698.82s CPU    698.81s WALL (     395 calls)
     g_psi        :      8.02s CPU      8.03s WALL (     323 calls)
     cdiaghg      :    293.02s CPU    293.12s WALL (     391 calls)

     Called by h_psi:
     h_psi:pot    :   2560.59s CPU   2661.15s WALL (     395 calls)
     h_psi:calbec :    700.88s CPU    701.56s WALL (     395 calls)
     vloc_psi     :   1160.11s CPU   1260.04s WALL (     395 calls)
     add_vuspsi   :    699.60s CPU    699.55s WALL (     395 calls)

     General routines
     calbec       :   1007.19s CPU   1008.19s WALL (     483 calls)
     fft          :      8.93s CPU      9.73s WALL (     258 calls)
     fftw         :   1221.33s CPU   1337.99s WALL (  171316 calls)
 
     Parallel routines
     fft_scatter  :    369.73s CPU    486.91s WALL (  171574 calls)
 
     PWSCF        :     1h48m CPU        1h51m WALL

 
   This run was terminated on:  15:29:35  20Dec2017            

=------------------------------------------------------------------------------=
   JOB DONE.
=------------------------------------------------------------------------------=
