
     Program PWSCF v.6.1 (svn rev. 13369) starts on  3Nov2017 at 23:59:20 

     This program is part of the open-source Quantum ESPRESSO suite
     for quantum simulation of materials; please cite
         "P. Giannozzi et al., J. Phys.:Condens. Matter 21 395502 (2009);
          URL http://www.quantum-espresso.org", 
     in publications or presentations arising from this work. More details at
     http://www.quantum-espresso.org/quote

     Parallel version (MPI), running on     8 processors
     R & G space division:  proc/nbgrp/npool/nimage =       8
     Waiting for input...
     Reading input from standard input

     Current dimensions of program PWSCF are:
     Max number of different atomic species (ntypx) = 10
     Max number of k-points (npk) =  40000
     Max angular momentum in pseudopotentials (lmaxx) =  3
               file C.pbe-n-kjpaw_psl.0.1.UPF: wavefunction(s)  2P renormalized
               file N.pbe-n-kjpaw_psl.0.1.UPF: wavefunction(s)  2P renormalized
               file H.pbe-kjpaw_psl.0.1.UPF: wavefunction(s)  1S renormalized
               file O.pbe-n-kjpaw_psl.0.1.UPF: wavefunction(s)  2P renormalized

     -------------------------------------
     Parameters for Dispersion Correction:
     -------------------------------------
       atom      VdW radius       C_6     

        C          2.744         60.710
        N          2.640         42.670
        H          1.892          4.857
        O          2.536         24.284

     Subspace diagonalization in iterative solution of the eigenvalue problem:
     a serial algorithm will be used

 
     Parallelization info
     --------------------
     sticks:   dense  smooth     PW     G-vecs:    dense   smooth      PW
     Min         638     638    173                56090    56090    7893
     Max         639     639    174                56093    56093    7896
     Sum        5107    5107   1387               448725   448725   63151
 


     bravais-lattice index     =            0
     lattice parameter (alat)  =      16.4495  a.u.
     unit-cell volume          =    3321.4306 (a.u.)^3
     number of atoms/cell      =           48
     number of atomic types    =            4
     number of electrons       =       208.00
     number of Kohn-Sham states=          124
     kinetic-energy cutoff     =     100.0000  Ry
     charge density cutoff     =     400.0000  Ry
     convergence threshold     =      1.0E-08
     mixing beta               =       0.5000
     number of iterations used =            8  plain     mixing
     Exchange-correlation      =  SLA  PW   PBX  PBC ( 1  4  3  4 0 0)

     celldm(1)=  16.449499  celldm(2)=   0.000000  celldm(3)=   0.000000
     celldm(4)=   0.000000  celldm(5)=   0.000000  celldm(6)=   0.000000

     crystal axes: (cart. coord. in units of alat)
               a(1) = (   1.000000   0.000000   0.000000 )  
               a(2) = (   0.000000   0.593105   0.000000 )  
               a(3) = (   0.000000   0.000000   1.258159 )  

     reciprocal axes: (cart. coord. in units 2 pi/alat)
               b(1) = (  1.000000  0.000000  0.000000 )  
               b(2) = (  0.000000  1.686042  0.000000 )  
               b(3) = (  0.000000  0.000000  0.794812 )  


     PseudoPot. # 1 for  C read from file:
     /scratch/ahofstet/pseudo/C.pbe-n-kjpaw_psl.0.1.UPF
     MD5 check sum: 430fe95172b1e11ef3f8ed03bac87931
     Pseudo is Projector augmented-wave + core cor, Zval =  4.0
     Generated using "atomic" code by A. Dal Corso  v.5.0.99 svn rev. 10869
     Shape of augmentation charge: BESSEL
     Using radial grid of 1073 points,  4 beta functions with: 
                l(1) =   0
                l(2) =   0
                l(3) =   1
                l(4) =   1
     Q(r) pseudized with 0 coefficients 


     PseudoPot. # 2 for  N read from file:
     /scratch/ahofstet/pseudo/N.pbe-n-kjpaw_psl.0.1.UPF
     MD5 check sum: f73187c8b701007e77325f868c9291d7
     Pseudo is Projector augmented-wave + core cor, Zval =  5.0
     Generated using "atomic" code by A. Dal Corso  v.5.0.99 svn rev. 10869
     Shape of augmentation charge: PSQ
     Using radial grid of 1085 points,  4 beta functions with: 
                l(1) =   0
                l(2) =   0
                l(3) =   1
                l(4) =   1
     Q(r) pseudized with 0 coefficients 


     PseudoPot. # 3 for  H read from file:
     /scratch/ahofstet/pseudo/H.pbe-kjpaw_psl.0.1.UPF
     MD5 check sum: 94e484f906d9e9773b2f6e52662335b2
     Pseudo is Projector augmented-wave, Zval =  1.0
     Generated using "atomic" code by A. Dal Corso  v.5.0.99 svn rev. 10869
     Shape of augmentation charge: PSQ
     Using radial grid of  929 points,  2 beta functions with: 
                l(1) =   0
                l(2) =   0
     Q(r) pseudized with 0 coefficients 


     PseudoPot. # 4 for  O read from file:
     /scratch/ahofstet/pseudo/O.pbe-n-kjpaw_psl.0.1.UPF
     MD5 check sum: 3f94a2996a3169367d6eb21d9b593f20
     Pseudo is Projector augmented-wave + core cor, Zval =  6.0
     Generated using "atomic" code by A. Dal Corso  v.5.0.99 svn rev. 10869
     Shape of augmentation charge: BESSEL
     Using radial grid of 1095 points,  4 beta functions with: 
                l(1) =   0
                l(2) =   0
                l(3) =   1
                l(4) =   1
     Q(r) pseudized with 0 coefficients 


     atomic species   valence    mass     pseudopotential
        C              4.00    12.01070      C( 1.00)
        N              5.00    14.00670      N( 1.00)
        H              1.00     1.00794      H( 1.00)
        O              6.00    15.99940      O( 1.00)

     No symmetry found
          (note:  1 additional sym.ops. were found but ignored
           their fractional translations are incommensurate with FFT grid)


   Cartesian axes

     site n.     atom                  positions (alat units)
         1           O   tau(   1) = (   0.4740543   0.0643737   1.0154298  )
         2           O   tau(   2) = (   0.5259457   0.5287312   0.3863501  )
         3           O   tau(   3) = (   0.9740818   0.5287094   1.0153854  )
         4           O   tau(   4) = (   0.0259182   0.0643954   0.3863057  )
         5           O   tau(   5) = (   0.5689510   0.4651597   0.0302254  )
         6           O   tau(   6) = (   0.4310490   0.1279452   0.6593051  )
         7           O   tau(   7) = (   0.0688867   0.1279664   0.0302142  )
         8           O   tau(   8) = (   0.9311133   0.4651385   0.6592939  )
         9           H   tau(   9) = (   0.5062393   0.5636504   0.0552969  )
        10           H   tau(  10) = (   0.4937607   0.0294545   0.6843766  )
        11           H   tau(  11) = (   0.0062168   0.0294555   0.0552931  )
        12           H   tau(  12) = (   0.9937832   0.5636494   0.6843728  )
        13           O   tau(  13) = (   0.7533278   0.2114990   1.1790212  )
        14           O   tau(  14) = (   0.2466722   0.3816059   0.5499415  )
        15           O   tau(  15) = (   0.2532542   0.3816245   1.1790192  )
        16           O   tau(  16) = (   0.7467458   0.2114803   0.5499395  )
        17           H   tau(  17) = (   0.7430570   0.2301141   0.0386480  )
        18           H   tau(  18) = (   0.2569430   0.3629907   0.6677277  )
        19           H   tau(  19) = (   0.2430196   0.3630081   0.0386573  )
        20           H   tau(  20) = (   0.7569804   0.2300967   0.6677370  )
        21           O   tau(  21) = (   0.7620212   0.2194137   0.8440691  )
        22           O   tau(  22) = (   0.2379788   0.3736911   0.2149894  )
        23           O   tau(  23) = (   0.2620743   0.3736777   0.8440660  )
        24           O   tau(  24) = (   0.7379257   0.2194272   0.2149863  )
        25           O   tau(  25) = (   0.5856533   0.4843630   0.7371539  )
        26           O   tau(  26) = (   0.4143467   0.1087419   0.1080742  )
        27           O   tau(  27) = (   0.0856536   0.1087528   0.7371309  )
        28           O   tau(  28) = (   0.9143464   0.4843521   0.1080512  )
        29           C   tau(  29) = (   0.5483744   0.5368778   1.0128873  )
        30           C   tau(  30) = (   0.4516256   0.0562271   0.3838076  )
        31           C   tau(  31) = (   0.0483532   0.0562258   1.0128669  )
        32           C   tau(  32) = (   0.9516468   0.5368791   0.3837872  )
        33           C   tau(  33) = (   0.5960416   0.4415851   1.1443251  )
        34           C   tau(  34) = (   0.4039584   0.1515198   0.5152454  )
        35           C   tau(  35) = (   0.0959632   0.1515472   1.1443093  )
        36           C   tau(  36) = (   0.9040368   0.4415576   0.5152296  )
        37           C   tau(  37) = (   0.6816052   0.3109997   1.0940089  )
        38           C   tau(  38) = (   0.3183948   0.2821051   0.4649292  )
        39           C   tau(  39) = (   0.1815240   0.2821455   1.0940110  )
        40           C   tau(  40) = (   0.8184760   0.3109594   0.4649314  )
        41           C   tau(  41) = (   0.6905656   0.3114165   0.9266997  )
        42           C   tau(  42) = (   0.3094344   0.2816884   0.2976200  )
        43           C   tau(  43) = (   0.1905501   0.2816851   0.9267065  )
        44           C   tau(  44) = (   0.8094499   0.3114198   0.2976268  )
        45           C   tau(  45) = (   0.6042795   0.4507437   0.8735229  )
        46           C   tau(  46) = (   0.3957205   0.1423612   0.2444432  )
        47           C   tau(  47) = (   0.1042776   0.1423792   0.8735278  )
        48           C   tau(  48) = (   0.8957224   0.4507256   0.2444481  )

     number of k points=    12
                       cart. coord. in units 2pi/alat
        k(    1) = (   0.0000000   0.0000000   0.0000000), wk =   0.1250000
        k(    2) = (   0.0000000   0.0000000  -0.3974059), wk =   0.1250000
        k(    3) = (   0.0000000   0.4215106   0.0000000), wk =   0.2500000
        k(    4) = (   0.0000000   0.4215106  -0.3974059), wk =   0.2500000
        k(    5) = (   0.0000000  -0.8430212   0.0000000), wk =   0.1250000
        k(    6) = (   0.0000000  -0.8430212  -0.3974059), wk =   0.1250000
        k(    7) = (  -0.5000000   0.0000000   0.0000000), wk =   0.1250000
        k(    8) = (  -0.5000000   0.0000000  -0.3974059), wk =   0.1250000
        k(    9) = (  -0.5000000   0.4215106   0.0000000), wk =   0.2500000
        k(   10) = (  -0.5000000   0.4215106  -0.3974059), wk =   0.2500000
        k(   11) = (  -0.5000000  -0.8430212   0.0000000), wk =   0.1250000
        k(   12) = (  -0.5000000  -0.8430212  -0.3974059), wk =   0.1250000

     Dense  grid:   448725 G-vectors     FFT dimensions: ( 108,  64, 135)

     Estimated max dynamical RAM per process >     355.77MB

     Estimated total allocated dynamical RAM >    2846.13MB

     Check: negative/imaginary core charge=   -0.000003    0.000000

     Initial potential from superposition of free atoms

     starting charge  207.99906, renormalised to  208.00000
     Starting wfc are  168 randomized atomic wfcs
     Checking if some PAW data can be deallocated... 

     total cpu time spent up to now is       14.0 secs

     per-process dynamical memory:   328.8 Mb

     Self-consistent Calculation

     iteration #  1     ecut=   100.00 Ry     beta=0.50
     Davidson diagonalization with overlap
     ethr =  1.00E-02,  avg # of iterations =  3.1

     total cpu time spent up to now is       53.2 secs

     total energy              =   -1210.19514237 Ry
     Harris-Foulkes estimate   =   -1212.63790224 Ry
     estimated scf accuracy    <       4.41385119 Ry

     iteration #  2     ecut=   100.00 Ry     beta=0.50
     Davidson diagonalization with overlap
     ethr =  2.12E-03,  avg # of iterations =  3.0

     total cpu time spent up to now is       81.0 secs

     total energy              =   -1210.78966849 Ry
     Harris-Foulkes estimate   =   -1211.59962411 Ry
     estimated scf accuracy    <       1.73570134 Ry

     iteration #  3     ecut=   100.00 Ry     beta=0.50
     Davidson diagonalization with overlap
     ethr =  8.34E-04,  avg # of iterations =  2.1

     total cpu time spent up to now is      103.9 secs

     total energy              =   -1211.16549543 Ry
     Harris-Foulkes estimate   =   -1211.23751636 Ry
     estimated scf accuracy    <       0.20422603 Ry

     iteration #  4     ecut=   100.00 Ry     beta=0.50
     Davidson diagonalization with overlap
     ethr =  9.82E-05,  avg # of iterations =  5.5

     total cpu time spent up to now is      142.1 secs

     total energy              =   -1211.21702643 Ry
     Harris-Foulkes estimate   =   -1211.24736600 Ry
     estimated scf accuracy    <       0.07817955 Ry

     iteration #  5     ecut=   100.00 Ry     beta=0.50
     Davidson diagonalization with overlap
     ethr =  3.76E-05,  avg # of iterations =  2.0

     total cpu time spent up to now is      164.3 secs

     total energy              =   -1211.22726208 Ry
     Harris-Foulkes estimate   =   -1211.23138793 Ry
     estimated scf accuracy    <       0.01179907 Ry

     iteration #  6     ecut=   100.00 Ry     beta=0.50
     Davidson diagonalization with overlap
     ethr =  5.67E-06,  avg # of iterations =  5.4

     total cpu time spent up to now is      201.0 secs

     total energy              =   -1211.23013886 Ry
     Harris-Foulkes estimate   =   -1211.23368584 Ry
     estimated scf accuracy    <       0.01450856 Ry

     iteration #  7     ecut=   100.00 Ry     beta=0.50
     Davidson diagonalization with overlap
     ethr =  5.67E-06,  avg # of iterations =  4.4

     total cpu time spent up to now is      224.8 secs

     total energy              =   -1211.23115403 Ry
     Harris-Foulkes estimate   =   -1211.23197412 Ry
     estimated scf accuracy    <       0.00227516 Ry

     iteration #  8     ecut=   100.00 Ry     beta=0.50
     Davidson diagonalization with overlap
     ethr =  1.09E-06,  avg # of iterations =  4.4

     total cpu time spent up to now is      252.6 secs

     total energy              =   -1211.23170167 Ry
     Harris-Foulkes estimate   =   -1211.23175528 Ry
     estimated scf accuracy    <       0.00019810 Ry

     iteration #  9     ecut=   100.00 Ry     beta=0.50
     Davidson diagonalization with overlap
     ethr =  9.52E-08,  avg # of iterations =  3.8

     total cpu time spent up to now is      285.1 secs

     total energy              =   -1211.23175214 Ry
     Harris-Foulkes estimate   =   -1211.23178436 Ry
     estimated scf accuracy    <       0.00010861 Ry

     iteration # 10     ecut=   100.00 Ry     beta=0.50
     Davidson diagonalization with overlap
     ethr =  5.22E-08,  avg # of iterations =  1.7

     total cpu time spent up to now is      306.2 secs

     total energy              =   -1211.23175657 Ry
     Harris-Foulkes estimate   =   -1211.23176351 Ry
     estimated scf accuracy    <       0.00002064 Ry

     iteration # 11     ecut=   100.00 Ry     beta=0.50
     Davidson diagonalization with overlap
     ethr =  9.92E-09,  avg # of iterations =  3.1

     total cpu time spent up to now is      337.7 secs

     total energy              =   -1211.23176293 Ry
     Harris-Foulkes estimate   =   -1211.23176388 Ry
     estimated scf accuracy    <       0.00000254 Ry

     iteration # 12     ecut=   100.00 Ry     beta=0.50
     Davidson diagonalization with overlap
     ethr =  1.22E-09,  avg # of iterations =  2.7

     total cpu time spent up to now is      361.4 secs

     total energy              =   -1211.23176338 Ry
     Harris-Foulkes estimate   =   -1211.23176362 Ry
     estimated scf accuracy    <       0.00000074 Ry

     iteration # 13     ecut=   100.00 Ry     beta=0.50
     Davidson diagonalization with overlap
     ethr =  3.57E-10,  avg # of iterations =  2.8

     total cpu time spent up to now is      384.8 secs

     total energy              =   -1211.23176353 Ry
     Harris-Foulkes estimate   =   -1211.23176355 Ry
     estimated scf accuracy    <       0.00000006 Ry

     iteration # 14     ecut=   100.00 Ry     beta=0.50
     Davidson diagonalization with overlap
     ethr =  2.75E-11,  avg # of iterations =  4.0

     total cpu time spent up to now is      425.5 secs

     total energy              =   -1211.23176358 Ry
     Harris-Foulkes estimate   =   -1211.23176358 Ry
     estimated scf accuracy    <       0.00000002 Ry

     iteration # 15     ecut=   100.00 Ry     beta=0.50
     Davidson diagonalization with overlap
     ethr =  7.80E-12,  avg # of iterations =  2.6

     total cpu time spent up to now is      448.6 secs

     End of self-consistent calculation

          k = 0.0000 0.0000 0.0000 ( 56119 PWs)   bands (ev):

   -20.1268 -19.9798 -19.9508 -19.9365 -19.5355 -19.4109 -19.3959 -19.3804
   -19.1782 -19.1335 -19.0891 -19.0881 -18.5487 -18.5141 -18.4142 -18.3438
   -18.1954 -18.1849 -18.1681 -18.1649 -13.6064 -13.5614 -13.5599 -13.4325
    -9.6777  -9.6304  -9.5575  -9.5085  -9.2593  -9.1512  -9.0994  -9.0517
    -7.7620  -7.7170  -7.3393  -7.2152  -6.8558  -6.7793  -6.4035  -6.2506
    -6.1103  -5.8769  -5.8623  -5.6948  -5.6519  -5.3330  -5.1581  -4.5605
    -4.3251  -4.2747  -4.1625  -3.9056  -3.8600  -3.8546  -3.8489  -3.6450
    -3.5508  -3.5421  -3.4846  -3.3928  -3.0796  -3.0570  -2.9612  -2.9303
    -2.8766  -2.8294  -2.8014  -2.7600  -2.6500  -2.6400  -2.5842  -2.3523
    -2.0449  -1.9268  -1.8401  -1.8357  -1.7064  -1.6440  -1.5191  -1.3941
    -1.3373  -1.3140  -1.2718  -1.1855  -1.1111  -1.0683  -1.0631  -0.9701
    -0.1858  -0.1008   0.0600   0.0845   0.5581   0.7097   1.1000   1.3571
     1.4350   1.5143   1.7582   1.7882   1.9229   2.0309   2.0402   2.0572
     3.9410   4.2023   4.2079   4.2512   4.5521   4.6593   4.7215   4.7932
     7.2274   8.7578   8.8628   8.8801   8.9027   8.9203   8.9371   9.0259
     9.1750   9.2143   9.5401   9.5420

          k = 0.0000 0.0000-0.3974 ( 56226 PWs)   bands (ev):

   -20.0618 -20.0617 -19.9405 -19.9405 -19.4951 -19.4951 -19.3651 -19.3651
   -19.1534 -19.1534 -19.0876 -19.0876 -18.4867 -18.4866 -18.4248 -18.4248
   -18.1814 -18.1814 -18.1748 -18.1748 -13.5588 -13.5588 -13.5205 -13.5205
    -9.5443  -9.5442  -9.4801  -9.4801  -9.3045  -9.3045  -9.2195  -9.2194
    -7.4848  -7.4847  -7.4004  -7.4004  -6.6937  -6.6937  -6.6456  -6.6456
    -5.9487  -5.9487  -5.9377  -5.9377  -5.0456  -5.0456  -4.9689  -4.9689
    -4.2720  -4.2719  -3.8838  -3.8838  -3.8781  -3.8780  -3.7478  -3.7478
    -3.7314  -3.7314  -3.6329  -3.6329  -3.0295  -3.0295  -2.9610  -2.9610
    -2.8811  -2.8811  -2.7823  -2.7823  -2.5081  -2.5081  -2.4844  -2.4844
    -1.9440  -1.9440  -1.8977  -1.8977  -1.5858  -1.5858  -1.4784  -1.4784
    -1.3105  -1.3105  -1.2882  -1.2882  -1.1128  -1.1128  -1.0238  -1.0238
    -0.0503  -0.0503  -0.0258  -0.0258   0.9540   0.9540   0.9740   0.9740
     1.4659   1.4659   1.7558   1.7558   1.9986   1.9986   2.0430   2.0430
     4.0713   4.0714   4.2146   4.2146   4.6163   4.6163   4.7622   4.7622
     7.7658   7.7659   8.8493   8.8493   8.9541   8.9541   9.0223   9.0223
     9.1463   9.1464   9.6115   9.6115

          k = 0.0000 0.4215 0.0000 ( 56035 PWs)   bands (ev):

   -20.0792 -19.9700 -19.9497 -19.9011 -19.5356 -19.4324 -19.4270 -19.3758
   -19.2091 -19.1229 -19.0896 -19.0718 -18.5881 -18.5294 -18.4215 -18.3729
   -18.1850 -18.1749 -18.1574 -18.1543 -13.6274 -13.5760 -13.5756 -13.4610
    -9.6692  -9.6422  -9.5398  -9.4768  -9.2439  -9.1637  -9.0506  -9.0141
    -7.7632  -7.7220  -7.3671  -7.2089  -6.8765  -6.7116  -6.3580  -6.2472
    -6.0576  -5.9263  -5.8629  -5.7327  -5.5926  -5.2696  -5.1126  -4.7167
    -4.5458  -4.4788  -4.2065  -4.1217  -4.0411  -3.8693  -3.8242  -3.6333
    -3.6156  -3.4948  -3.4790  -3.3765  -3.1341  -3.0905  -3.0030  -2.9222
    -2.8970  -2.8555  -2.7706  -2.6013  -2.5066  -2.2940  -2.2655  -2.2526
    -2.0041  -1.9517  -1.8339  -1.7609  -1.6185  -1.6157  -1.4837  -1.3992
    -1.3272  -1.3142  -1.1912  -1.1784  -1.1518  -1.1145  -1.0458  -1.0226
    -0.1646  -0.1073   0.0629   0.0683   0.5129   0.7151   1.0694   1.3535
     1.5266   1.6045   1.8521   1.8908   1.9816   1.9938   2.0253   2.0779
     3.9995   4.1133   4.2028   4.2959   4.3330   4.4049   4.4362   4.4726
     7.7977   8.8381   8.8401   8.9143   8.9915   9.0549   9.0616   9.1117
     9.1886   9.3147   9.6407   9.7912

          k = 0.0000 0.4215-0.3974 ( 56106 PWs)   bands (ev):

   -20.0238 -20.0238 -19.9301 -19.9301 -19.4970 -19.4970 -19.4019 -19.4019
   -19.1466 -19.1465 -19.0840 -19.0840 -18.5013 -18.5012 -18.4554 -18.4554
   -18.1716 -18.1716 -18.1635 -18.1634 -13.5746 -13.5746 -13.5445 -13.5444
    -9.5410  -9.5410  -9.4552  -9.4551  -9.3028  -9.3028  -9.1893  -9.1893
    -7.5014  -7.5013  -7.3828  -7.3828  -6.7059  -6.7059  -6.5782  -6.5781
    -6.0109  -6.0109  -5.8623  -5.8623  -5.1158  -5.1158  -4.8970  -4.8970
    -4.4963  -4.4963  -4.1471  -4.1470  -3.8947  -3.8947  -3.7583  -3.7583
    -3.7392  -3.7392  -3.6064  -3.6063  -3.0244  -3.0243  -2.9620  -2.9620
    -2.8391  -2.8391  -2.6315  -2.6315  -2.4780  -2.4780  -2.2412  -2.2412
    -1.9119  -1.9119  -1.8593  -1.8593  -1.5187  -1.5187  -1.4480  -1.4479
    -1.3310  -1.3310  -1.2162  -1.2162  -1.1634  -1.1633  -1.0520  -1.0520
    -0.0477  -0.0477  -0.0370  -0.0370   0.9267   0.9267   0.9755   0.9755
     1.5685   1.5685   1.8260   1.8260   2.0136   2.0136   2.0522   2.0522
     4.0712   4.0712   4.2260   4.2260   4.3809   4.3809   4.4553   4.4553
     8.2841   8.2842   8.8384   8.8385   8.9924   8.9924   9.0745   9.0745
     9.1260   9.1261   9.8552   9.8552

          k = 0.0000-0.8430 0.0000 ( 56008 PWs)   bands (ev):

   -19.9955 -19.9798 -19.9568 -19.8643 -19.5280 -19.4962 -19.4317 -19.3923
   -19.1760 -19.1541 -19.0910 -19.0547 -18.6265 -18.5452 -18.4212 -18.4082
   -18.1740 -18.1660 -18.1475 -18.1468 -13.6482 -13.5911 -13.5888 -13.4906
    -9.6596  -9.6526  -9.5268  -9.4424  -9.2304  -9.1762  -9.0019  -8.9767
    -7.7682  -7.7227  -7.3847  -7.2051  -6.9009  -6.6384  -6.3054  -6.2508
    -5.9817  -5.9684  -5.8876  -5.7655  -5.5341  -5.2792  -5.1018  -4.7070
    -4.6522  -4.5431  -4.4546  -4.3280  -4.1864  -3.8180  -3.7484  -3.7280
    -3.6008  -3.4946  -3.4803  -3.3590  -3.1657  -3.1102  -3.0171  -3.0089
    -2.9671  -2.9524  -2.8779  -2.3414  -2.2820  -2.2062  -2.0834  -1.9416
    -1.9138  -1.8928  -1.7453  -1.7283  -1.5084  -1.5055  -1.4809  -1.4003
    -1.3938  -1.3742  -1.2304  -1.1711  -1.1153  -1.1032  -1.0895  -1.0397
    -0.1672  -0.0927   0.0551   0.0561   0.4704   0.7034   1.0970   1.3190
     1.6821   1.7459   1.9123   1.9595   1.9949   2.0232   2.0451   2.0902
     3.9797   4.0016   4.0650   4.1428   4.1578   4.1782   4.1821   4.3796
     8.8124   8.8207   8.9218   8.9516   9.0360   9.0508   9.1150   9.1279
     9.3526   9.3907   9.8891   9.9806

          k = 0.0000-0.8430-0.3974 ( 56076 PWs)   bands (ev):

   -19.9736 -19.9736 -19.9271 -19.9271 -19.4811 -19.4810 -19.4668 -19.4668
   -19.1163 -19.1163 -19.0973 -19.0973 -18.5125 -18.5124 -18.4885 -18.4885
   -18.1593 -18.1593 -18.1567 -18.1567 -13.5879 -13.5879 -13.5704 -13.5703
    -9.5353  -9.5352  -9.4426  -9.4426  -9.2877  -9.2877  -9.1642  -9.1642
    -7.5062  -7.5062  -7.3759  -7.3759  -6.6989  -6.6989  -6.5264  -6.5264
    -6.0403  -6.0403  -5.8275  -5.8275  -5.1327  -5.1327  -4.9152  -4.9152
    -4.5724  -4.5724  -4.3797  -4.3797  -3.8941  -3.8940  -3.7887  -3.7887
    -3.7015  -3.7015  -3.6316  -3.6316  -3.0450  -3.0450  -3.0082  -3.0082
    -2.8837  -2.8837  -2.7030  -2.7030  -2.2095  -2.2095  -1.9365  -1.9365
    -1.8564  -1.8564  -1.8223  -1.8223  -1.4553  -1.4553  -1.4306  -1.4305
    -1.3348  -1.3348  -1.2577  -1.2577  -1.1894  -1.1894  -1.0573  -1.0572
    -0.0457  -0.0457  -0.0412  -0.0412   0.9200   0.9200   0.9558   0.9558
     1.7615   1.7615   1.8478   1.8478   1.9995   1.9995   2.0971   2.0971
     3.9911   3.9911   4.1010   4.1011   4.1864   4.1864   4.2744   4.2745
     8.8138   8.8138   8.9511   8.9512   9.0940   9.0940   9.1258   9.1259
     9.5202   9.5203   9.7691   9.7692

          k =-0.5000 0.0000 0.0000 ( 56104 PWs)   bands (ev):

   -20.0625 -20.0622 -19.9431 -19.9426 -19.4806 -19.4798 -19.3574 -19.3566
   -19.1914 -19.1910 -19.0701 -19.0689 -18.5339 -18.5330 -18.3772 -18.3765
   -18.1910 -18.1900 -18.1664 -18.1656 -13.6017 -13.6010 -13.4793 -13.4787
    -9.6574  -9.6566  -9.5336  -9.5335  -9.2039  -9.2033  -9.0717  -9.0716
    -7.7438  -7.7432  -7.2780  -7.2769  -6.8215  -6.8205  -6.3272  -6.3269
    -6.0246  -6.0244  -5.7398  -5.7395  -5.5464  -5.5463  -4.7956  -4.7954
    -4.3346  -4.3341  -4.1028  -4.1024  -3.9429  -3.9424  -3.6186  -3.6186
    -3.5666  -3.5664  -3.3956  -3.3950  -3.0729  -3.0725  -2.9758  -2.9755
    -2.7666  -2.7663  -2.7124  -2.7123  -2.6631  -2.6630  -2.5531  -2.5526
    -2.0295  -2.0293  -1.7517  -1.7514  -1.6328  -1.6321  -1.4299  -1.4293
    -1.3659  -1.3657  -1.2328  -1.2327  -1.1458  -1.1456  -1.0338  -1.0335
    -0.1286  -0.1269   0.0731   0.0741   0.5903   0.5903   1.2678   1.2680
     1.5877   1.5880   1.6636   1.6639   1.9591   1.9596   2.0357   2.0362
     4.0589   4.0597   4.2336   4.2343   4.6594   4.6595   4.7415   4.7416
     7.9404   7.9405   8.8421   8.8424   8.9387   8.9393   9.0459   9.0462
     9.0740   9.0746   9.5556   9.5557

          k =-0.5000 0.0000-0.3974 ( 56048 PWs)   bands (ev):

   -20.0080 -20.0080 -20.0074 -20.0074 -19.4250 -19.4250 -19.4246 -19.4246
   -19.1214 -19.1214 -19.1193 -19.1193 -18.4566 -18.4565 -18.4528 -18.4528
   -18.1785 -18.1785 -18.1776 -18.1776 -13.5402 -13.5402 -13.5393 -13.5393
    -9.5173  -9.5172  -9.5166  -9.5166  -9.2570  -9.2570  -9.2564  -9.2564
    -7.4433  -7.4433  -7.4424  -7.4424  -6.6701  -6.6700  -6.6694  -6.6694
    -5.9443  -5.9443  -5.9441  -5.9440  -4.9951  -4.9950  -4.9948  -4.9948
    -4.1831  -4.1831  -4.1824  -4.1823  -3.8099  -3.8099  -3.8090  -3.8090
    -3.6027  -3.6026  -3.6020  -3.6020  -3.0139  -3.0139  -3.0135  -3.0135
    -2.7365  -2.7365  -2.7358  -2.7358  -2.5814  -2.5814  -2.5807  -2.5807
    -1.8928  -1.8928  -1.8927  -1.8927  -1.5053  -1.5053  -1.5045  -1.5045
    -1.2894  -1.2894  -1.2891  -1.2891  -1.1182  -1.1182  -1.1177  -1.1177
    -0.0400  -0.0400  -0.0388  -0.0387   0.9641   0.9641   0.9645   0.9645
     1.6176   1.6176   1.6180   1.6180   2.0043   2.0043   2.0052   2.0052
     4.1395   4.1395   4.1406   4.1406   4.7064   4.7064   4.7067   4.7067
     8.4119   8.4119   8.4122   8.4123   8.9840   8.9841   8.9844   8.9844
     9.0421   9.0421   9.0423   9.0423

          k =-0.5000 0.4215 0.0000 ( 56122 PWs)   bands (ev):

   -20.0298 -20.0296 -19.9262 -19.9258 -19.4938 -19.4931 -19.3801 -19.3796
   -19.1851 -19.1845 -19.0700 -19.0686 -18.5604 -18.5596 -18.3955 -18.3948
   -18.1802 -18.1794 -18.1561 -18.1555 -13.6185 -13.6178 -13.5023 -13.5017
    -9.6565  -9.6556  -9.5088  -9.5087  -9.2037  -9.2030  -9.0320  -9.0320
    -7.7484  -7.7478  -7.2850  -7.2839  -6.8019  -6.8010  -6.2961  -6.2957
    -6.0104  -6.0102  -5.7357  -5.7355  -5.5431  -5.5430  -4.8168  -4.8166
    -4.4748  -4.4747  -4.2620  -4.2620  -4.0115  -4.0111  -3.6569  -3.6564
    -3.5776  -3.5767  -3.3983  -3.3979  -3.1500  -3.1496  -2.9688  -2.9686
    -2.9085  -2.9079  -2.5368  -2.5361  -2.4248  -2.4246  -2.3125  -2.3122
    -2.0090  -2.0088  -1.7540  -1.7537  -1.6102  -1.6096  -1.3785  -1.3781
    -1.2963  -1.2960  -1.2583  -1.2576  -1.1434  -1.1428  -1.0505  -1.0504
    -0.1315  -0.1299   0.0719   0.0729   0.5765   0.5766   1.2519   1.2520
     1.6325   1.6330   1.7989   1.7992   1.9858   1.9865   2.0436   2.0442
     4.0757   4.0767   4.2260   4.2268   4.3824   4.3828   4.4445   4.4450
     8.3760   8.3762   8.8864   8.8869   8.9820   8.9822   9.0141   9.0145
     9.1378   9.1383   9.8385   9.8386

          k =-0.5000 0.4215-0.3974 ( 56124 PWs)   bands (ev):

   -19.9817 -19.9817 -19.9802 -19.9802 -19.4501 -19.4500 -19.4433 -19.4432
   -19.1191 -19.1191 -19.1106 -19.1105 -18.4814 -18.4814 -18.4741 -18.4741
   -18.1692 -18.1692 -18.1656 -18.1656 -13.5602 -13.5601 -13.5590 -13.5589
    -9.5140  -9.5140  -9.5021  -9.5021  -9.2404  -9.2403  -9.2307  -9.2307
    -7.4556  -7.4556  -7.4410  -7.4410  -6.6523  -6.6523  -6.6185  -6.6185
    -5.9547  -5.9546  -5.9328  -5.9327  -5.0115  -5.0115  -4.9875  -4.9875
    -4.3735  -4.3735  -4.3343  -4.3343  -3.8502  -3.8502  -3.8177  -3.8177
    -3.6429  -3.6429  -3.6372  -3.6372  -3.0219  -3.0219  -3.0169  -3.0169
    -2.7237  -2.7237  -2.7169  -2.7169  -2.3602  -2.3602  -2.3565  -2.3565
    -1.8731  -1.8731  -1.8640  -1.8640  -1.4873  -1.4873  -1.4392  -1.4392
    -1.2842  -1.2842  -1.2464  -1.2464  -1.1543  -1.1543  -1.1257  -1.1257
    -0.0394  -0.0394  -0.0371  -0.0371   0.9407   0.9407   0.9609   0.9609
     1.6988   1.6988   1.7035   1.7035   2.0169   2.0169   2.0358   2.0358
     4.1452   4.1453   4.1474   4.1474   4.4155   4.4155   4.4252   4.4252
     8.7833   8.7833   8.7844   8.7844   8.9803   8.9803   8.9848   8.9848
     9.1065   9.1065   9.1076   9.1076

          k =-0.5000-0.8430 0.0000 ( 56072 PWs)   bands (ev):

   -19.9904 -19.9903 -19.9112 -19.9108 -19.5121 -19.5114 -19.4063 -19.4061
   -19.1685 -19.1684 -19.0751 -19.0741 -18.5862 -18.5854 -18.4131 -18.4123
   -18.1703 -18.1696 -18.1472 -18.1467 -13.6348 -13.6341 -13.5252 -13.5245
    -9.6567  -9.6558  -9.4846  -9.4845  -9.2031  -9.2024  -8.9916  -8.9915
    -7.7511  -7.7505  -7.2954  -7.2943  -6.7806  -6.7797  -6.2647  -6.2643
    -5.9943  -5.9940  -5.7369  -5.7369  -5.5424  -5.5424  -4.8916  -4.8914
    -4.4632  -4.4630  -4.3806  -4.3806  -4.0125  -4.0121  -3.8458  -3.8453
    -3.6083  -3.6076  -3.4212  -3.4208  -3.1890  -3.1886  -3.0349  -3.0347
    -2.9043  -2.9042  -2.5561  -2.5554  -2.1770  -2.1768  -2.0304  -2.0302
    -1.8797  -1.8791  -1.8009  -1.8006  -1.5427  -1.5426  -1.3919  -1.3916
    -1.2653  -1.2651  -1.2176  -1.2174  -1.1373  -1.1372  -1.0987  -1.0986
    -0.1407  -0.1391   0.0708   0.0717   0.5518   0.5520   1.2378   1.2379
     1.7288   1.7293   1.9183   1.9184   2.0038   2.0045   2.0838   2.0842
     4.0609   4.0615   4.0755   4.0764   4.1212   4.1222   4.2515   4.2527
     8.8818   8.8824   8.9325   8.9328   9.0733   9.0736   9.1234   9.1236
     9.3112   9.3113   9.8091   9.8092

          k =-0.5000-0.8430-0.3974 ( 56072 PWs)   bands (ev):

   -19.9514 -19.9514 -19.9508 -19.9508 -19.4731 -19.4731 -19.4724 -19.4724
   -19.1088 -19.1088 -19.1064 -19.1064 -18.5019 -18.5019 -18.4985 -18.4985
   -18.1582 -18.1582 -18.1576 -18.1576 -13.5796 -13.5795 -13.5786 -13.5786
    -9.5011  -9.5011  -9.5004  -9.5004  -9.2139  -9.2139  -9.2134  -9.2134
    -7.4532  -7.4531  -7.4523  -7.4523  -6.5999  -6.5999  -6.5993  -6.5993
    -5.9440  -5.9440  -5.9437  -5.9437  -5.0372  -5.0372  -5.0370  -5.0370
    -4.4019  -4.4019  -4.4017  -4.4016  -3.8450  -3.8450  -3.8441  -3.8441
    -3.7676  -3.7676  -3.7669  -3.7669  -3.0264  -3.0264  -3.0258  -3.0258
    -2.7591  -2.7591  -2.7584  -2.7584  -2.0874  -2.0874  -2.0871  -2.0871
    -1.8212  -1.8212  -1.8207  -1.8207  -1.4337  -1.4337  -1.4335  -1.4335
    -1.2501  -1.2501  -1.2499  -1.2498  -1.1637  -1.1637  -1.1626  -1.1626
    -0.0450  -0.0450  -0.0439  -0.0438   0.9356   0.9356   0.9360   0.9360
     1.8035   1.8035   1.8038   1.8038   2.0583   2.0583   2.0590   2.0590
     4.0637   4.0637   4.0645   4.0646   4.1942   4.1942   4.1954   4.1954
     8.8962   8.8963   8.8971   8.8971   9.1335   9.1335   9.1339   9.1339
     9.5842   9.5843   9.5845   9.5845

     highest occupied, lowest unoccupied level (ev):     2.0971    3.9410

!    total energy              =   -1211.23176358 Ry
     Harris-Foulkes estimate   =   -1211.23176358 Ry
     estimated scf accuracy    <          4.6E-09 Ry

     total all-electron energy =     -4543.451605 Ry

     The total energy is the sum of the following terms:

     one-electron contribution =    -469.03031744 Ry
     hartree contribution      =     328.12084550 Ry
     xc contribution           =    -235.84401786 Ry
     ewald contribution        =    -510.84965143 Ry
     Dispersion Correction     =      -0.24386908 Ry
     one-center paw contrib.   =    -323.38475327 Ry

     convergence has been achieved in  15 iterations

     Forces acting on atoms (cartesian axes, Ry/au):

     atom    1 type  4   force =     0.01169610   -0.01701910   -0.00011959
     atom    2 type  4   force =    -0.01169518    0.01701371   -0.00012551
     atom    3 type  4   force =     0.01158118    0.01689411   -0.00010214
     atom    4 type  4   force =    -0.01158058   -0.01689308   -0.00010703
     atom    5 type  4   force =     0.00099851    0.00349209   -0.00034716
     atom    6 type  4   force =    -0.00099671   -0.00349419   -0.00033384
     atom    7 type  4   force =     0.00105614   -0.00342215   -0.00042305
     atom    8 type  4   force =    -0.00105417    0.00342337   -0.00042288
     atom    9 type  3   force =    -0.00063513   -0.00038565    0.00065915
     atom   10 type  3   force =     0.00063485    0.00038573    0.00065915
     atom   11 type  3   force =    -0.00069621    0.00033203    0.00067972
     atom   12 type  3   force =     0.00069596   -0.00033192    0.00067950
     atom   13 type  4   force =    -0.00975931   -0.00100843   -0.00180468
     atom   14 type  4   force =     0.00976121    0.00100141   -0.00181254
     atom   15 type  4   force =    -0.00968294    0.00111208   -0.00161983
     atom   16 type  4   force =     0.00968796   -0.00110690   -0.00162579
     atom   17 type  3   force =     0.00063730    0.00038913   -0.00041663
     atom   18 type  3   force =    -0.00063760   -0.00038941   -0.00041778
     atom   19 type  3   force =     0.00063555   -0.00038047   -0.00049341
     atom   20 type  3   force =    -0.00063541    0.00038070   -0.00049455
     atom   21 type  4   force =    -0.00563710   -0.00159183    0.00168211
     atom   22 type  4   force =     0.00564557    0.00157938    0.00169390
     atom   23 type  4   force =    -0.00601248    0.00115111    0.00209893
     atom   24 type  4   force =     0.00601494   -0.00114475    0.00210697
     atom   25 type  4   force =     0.00054249    0.00012015   -0.00083215
     atom   26 type  4   force =    -0.00054730   -0.00011328   -0.00081280
     atom   27 type  4   force =     0.00062305    0.00002625   -0.00029161
     atom   28 type  4   force =    -0.00062645   -0.00003241   -0.00027296
     atom   29 type  1   force =    -0.01629376    0.00247197   -0.00240366
     atom   30 type  1   force =     0.01628976   -0.00246859   -0.00239431
     atom   31 type  1   force =    -0.01617716   -0.00226759   -0.00239900
     atom   32 type  1   force =     0.01617645    0.00226471   -0.00238741
     atom   33 type  1   force =     0.00469741   -0.01079916   -0.00145435
     atom   34 type  1   force =    -0.00470349    0.01080438   -0.00143964
     atom   35 type  1   force =     0.00473856    0.01074803   -0.00130660
     atom   36 type  1   force =    -0.00473931   -0.01074914   -0.00128256
     atom   37 type  1   force =     0.00825073    0.01932145   -0.00369626
     atom   38 type  1   force =    -0.00825452   -0.01931915   -0.00369994
     atom   39 type  1   force =     0.00828587   -0.01948732   -0.00384486
     atom   40 type  1   force =    -0.00828556    0.01948779   -0.00384431
     atom   41 type  1   force =     0.00291292    0.01019541    0.00727399
     atom   42 type  1   force =    -0.00291363   -0.01019632    0.00725747
     atom   43 type  1   force =     0.00326386   -0.00965363    0.00688688
     atom   44 type  1   force =    -0.00326110    0.00965852    0.00687239
     atom   45 type  1   force =     0.00172838   -0.00505822    0.00142356
     atom   46 type  1   force =    -0.00173021    0.00506013    0.00143469
     atom   47 type  1   force =     0.00157367    0.00483409    0.00080156
     atom   48 type  1   force =    -0.00157310   -0.00483505    0.00081886

     Total force =     0.080941     Total SCF correction =     0.000102


     Computing stress (Cartesian axis) and pressure

          total   stress  (Ry/bohr**3)                   (kbar)     P=  -14.84
  -0.00005622  -0.00000014   0.00000001         -8.27     -0.02      0.00
  -0.00000014  -0.00013544   0.00000000         -0.02    -19.92      0.00
   0.00000001   0.00000000  -0.00011089          0.00      0.00    -16.31


     Writing output data file scf.save
 
     init_run     :     12.87s CPU     13.47s WALL (       1 calls)
     electrons    :    411.55s CPU    434.75s WALL (       1 calls)
     forces       :      5.65s CPU      5.73s WALL (       1 calls)
     stress       :     33.88s CPU     34.01s WALL (       1 calls)

     Called by init_run:
     wfcinit      :     10.04s CPU     10.55s WALL (       1 calls)
     potinit      :      1.00s CPU      1.05s WALL (       1 calls)

     Called by electrons:
     c_bands      :    362.79s CPU    383.42s WALL (      15 calls)
     sum_band     :     43.62s CPU     45.97s WALL (      15 calls)
     v_of_rho     :      0.78s CPU      0.89s WALL (      16 calls)
     newd         :      1.41s CPU      1.45s WALL (      16 calls)
     PAW_pot      :      2.64s CPU      2.64s WALL (      16 calls)
     mix_rho      :      0.20s CPU      0.22s WALL (      15 calls)

     Called by c_bands:
     init_us_2    :      4.16s CPU      4.17s WALL (     396 calls)
     cegterg      :    348.74s CPU    369.32s WALL (     180 calls)

     Called by sum_band:
     sum_band:bec :      0.05s CPU      0.05s WALL (     180 calls)
     addusdens    :      1.53s CPU      1.56s WALL (      15 calls)

     Called by *egterg:
     h_psi        :    213.52s CPU    228.00s WALL (     798 calls)
     s_psi        :     32.25s CPU     32.26s WALL (     798 calls)
     g_psi        :      1.78s CPU      1.78s WALL (     606 calls)
     cdiaghg      :     25.10s CPU     25.09s WALL (     786 calls)

     Called by h_psi:
     h_psi:pot    :    211.06s CPU    225.50s WALL (     798 calls)
     h_psi:calbec :     29.67s CPU     29.82s WALL (     798 calls)
     vloc_psi     :    149.22s CPU    163.49s WALL (     798 calls)
     add_vuspsi   :     32.18s CPU     32.18s WALL (     798 calls)

     General routines
     calbec       :     45.19s CPU     45.42s WALL (    1038 calls)
     fft          :      0.66s CPU      0.82s WALL (     232 calls)
     fftw         :    158.89s CPU    174.66s WALL (  145274 calls)
 
     Parallel routines
     fft_scatter  :     46.46s CPU     55.83s WALL (  145506 calls)
 
     PWSCF        :  7m49.44s CPU     8m14.72s WALL

 
   This run was terminated on:   0: 7:35   4Nov2017            

=------------------------------------------------------------------------------=
   JOB DONE.
=------------------------------------------------------------------------------=
