
     Program PWSCF v.6.1 (svn rev. 13369) starts on 18Nov2017 at  2: 8:50 

     This program is part of the open-source Quantum ESPRESSO suite
     for quantum simulation of materials; please cite
         "P. Giannozzi et al., J. Phys.:Condens. Matter 21 395502 (2009);
          URL http://www.quantum-espresso.org", 
     in publications or presentations arising from this work. More details at
     http://www.quantum-espresso.org/quote

     Parallel version (MPI), running on     8 processors
     R & G space division:  proc/nbgrp/npool/nimage =       8
     Waiting for input...
     Reading input from standard input

     Current dimensions of program PWSCF are:
     Max number of different atomic species (ntypx) = 10
     Max number of k-points (npk) =  40000
     Max angular momentum in pseudopotentials (lmaxx) =  3
               file C.pbe-n-kjpaw_psl.0.1.UPF: wavefunction(s)  2P renormalized
               file N.pbe-n-kjpaw_psl.0.1.UPF: wavefunction(s)  2P renormalized
               file H.pbe-kjpaw_psl.0.1.UPF: wavefunction(s)  1S renormalized
               file O.pbe-n-kjpaw_psl.0.1.UPF: wavefunction(s)  2P renormalized

     -------------------------------------
     Parameters for Dispersion Correction:
     -------------------------------------
       atom      VdW radius       C_6     

        C          2.744         60.710
        N          2.640         42.670
        H          1.892          4.857
        O          2.536         24.284

     Subspace diagonalization in iterative solution of the eigenvalue problem:
     a serial algorithm will be used

 
     Parallelization info
     --------------------
     sticks:   dense  smooth     PW     G-vecs:    dense   smooth      PW
     Min         936     936    247                65020    65020    8821
     Max         937     937    248                65024    65024    8825
     Sum        7489    7489   1981               520177   520177   70585
 


     bravais-lattice index     =            0
     lattice parameter (alat)  =      13.0162  a.u.
     unit-cell volume          =    3850.8125 (a.u.)^3
     number of atoms/cell      =           68
     number of atomic types    =            4
     number of electrons       =       240.00
     number of Kohn-Sham states=          144
     kinetic-energy cutoff     =     100.0000  Ry
     charge density cutoff     =     400.0000  Ry
     convergence threshold     =      1.0E-08
     mixing beta               =       0.5000
     number of iterations used =            8  plain     mixing
     Exchange-correlation      =  SLA  PW   PBX  PBC ( 1  4  3  4 0 0)

     celldm(1)=  13.016245  celldm(2)=   0.000000  celldm(3)=   0.000000
     celldm(4)=   0.000000  celldm(5)=   0.000000  celldm(6)=   0.000000

     crystal axes: (cart. coord. in units of alat)
               a(1) = (   1.000000   0.000000   0.000000 )  
               a(2) = (   0.000000   1.389408   0.000000 )  
               a(3) = (  -0.353815   0.000000   1.256798 )  

     reciprocal axes: (cart. coord. in units 2 pi/alat)
               b(1) = (  1.000000  0.000000  0.281521 )  
               b(2) = (  0.000000  0.719731  0.000000 )  
               b(3) = (  0.000000  0.000000  0.795673 )  


     PseudoPot. # 1 for  C read from file:
     /scratch/ahofstet/pseudo/C.pbe-n-kjpaw_psl.0.1.UPF
     MD5 check sum: 430fe95172b1e11ef3f8ed03bac87931
     Pseudo is Projector augmented-wave + core cor, Zval =  4.0
     Generated using "atomic" code by A. Dal Corso  v.5.0.99 svn rev. 10869
     Shape of augmentation charge: BESSEL
     Using radial grid of 1073 points,  4 beta functions with: 
                l(1) =   0
                l(2) =   0
                l(3) =   1
                l(4) =   1
     Q(r) pseudized with 0 coefficients 


     PseudoPot. # 2 for  N read from file:
     /scratch/ahofstet/pseudo/N.pbe-n-kjpaw_psl.0.1.UPF
     MD5 check sum: f73187c8b701007e77325f868c9291d7
     Pseudo is Projector augmented-wave + core cor, Zval =  5.0
     Generated using "atomic" code by A. Dal Corso  v.5.0.99 svn rev. 10869
     Shape of augmentation charge: PSQ
     Using radial grid of 1085 points,  4 beta functions with: 
                l(1) =   0
                l(2) =   0
                l(3) =   1
                l(4) =   1
     Q(r) pseudized with 0 coefficients 


     PseudoPot. # 3 for  H read from file:
     /scratch/ahofstet/pseudo/H.pbe-kjpaw_psl.0.1.UPF
     MD5 check sum: 94e484f906d9e9773b2f6e52662335b2
     Pseudo is Projector augmented-wave, Zval =  1.0
     Generated using "atomic" code by A. Dal Corso  v.5.0.99 svn rev. 10869
     Shape of augmentation charge: PSQ
     Using radial grid of  929 points,  2 beta functions with: 
                l(1) =   0
                l(2) =   0
     Q(r) pseudized with 0 coefficients 


     PseudoPot. # 4 for  O read from file:
     /scratch/ahofstet/pseudo/O.pbe-n-kjpaw_psl.0.1.UPF
     MD5 check sum: 3f94a2996a3169367d6eb21d9b593f20
     Pseudo is Projector augmented-wave + core cor, Zval =  6.0
     Generated using "atomic" code by A. Dal Corso  v.5.0.99 svn rev. 10869
     Shape of augmentation charge: BESSEL
     Using radial grid of 1095 points,  4 beta functions with: 
                l(1) =   0
                l(2) =   0
                l(3) =   1
                l(4) =   1
     Q(r) pseudized with 0 coefficients 


     atomic species   valence    mass     pseudopotential
        C              4.00    12.01070      C( 1.00)
        N              5.00    14.00670      N( 1.00)
        H              1.00     1.00794      H( 1.00)
        O              6.00    15.99940      O( 1.00)

      4 Sym. Ops., with inversion, found ( 2 have fractional translation)



   Cartesian axes

     site n.     atom                  positions (alat units)
         1           O   tau(   1) = (   0.4909429   0.3999956   0.2865818  )
         2           O   tau(   2) = (   0.3321498   1.0946993   0.3418174  )
         3           O   tau(   3) = (   0.1552426   0.9894120   0.9702166  )
         4           O   tau(   4) = (   0.3140356   0.2947082   0.9149810  )
         5           N   tau(   5) = (   0.5919356   0.2411394   0.5619750  )
         6           N   tau(   6) = (   0.2311572   0.9358431   0.0664242  )
         7           N   tau(   7) = (   0.0542499   1.1482682   0.6948234  )
         8           N   tau(   8) = (   0.4150283   0.4535644   1.1903742  )
         9           N   tau(   9) = (   0.5751375   0.0578533   0.4722644  )
        10           N   tau(  10) = (   0.2479552   0.7525570   0.1561348  )
        11           N   tau(  11) = (   0.0710479   1.3315542   0.7845340  )
        12           N   tau(  12) = (   0.3982303   0.6368505   1.1006636  )
        13           N   tau(  13) = (   0.5138663   0.5678489   0.5738467  )
        14           N   tau(  14) = (   0.3092264   1.2625526   0.0545525  )
        15           N   tau(  15) = (   0.1323191   0.8215587   0.6829517  )
        16           N   tau(  16) = (   0.3369591   0.1268549   1.2022459  )
        17           N   tau(  17) = (   0.5198612   0.7426441   0.4632833  )
        18           N   tau(  18) = (   0.3032316   0.0479403   0.1651159  )
        19           N   tau(  19) = (   0.1263243   0.6467635   0.7935151  )
        20           N   tau(  20) = (   0.3429539   1.3414672   1.0916826  )
        21           C   tau(  21) = (   0.5307761   0.3993702   0.4611376  )
        22           C   tau(  22) = (   0.2923166   1.0940740   0.1672616  )
        23           C   tau(  23) = (   0.1154094   0.9900373   0.7956608  )
        24           C   tau(  24) = (   0.3538688   0.2953335   1.0895368  )
        25           O   tau(  25) = (  -0.0447350   0.2295890   0.2858667  )
        26           O   tau(  26) = (   0.8678278   0.9242928   0.3425325  )
        27           O   tau(  27) = (   0.6909205   1.1598185   0.9709317  )
        28           O   tau(  28) = (  -0.2216423   0.4651147   0.9142660  )
        29           O   tau(  29) = (  -0.0683064   0.5285456   0.3911658  )
        30           O   tau(  30) = (   0.8913992   1.2232494   0.2372334  )
        31           O   tau(  31) = (   0.7144919   0.8608619   0.8656326  )
        32           O   tau(  32) = (  -0.2452137   0.1661581   1.0195650  )
        33           O   tau(  33) = (   0.1205319   0.3206794   0.5405376  )
        34           O   tau(  34) = (   0.7025609   1.0153831   0.0878616  )
        35           O   tau(  35) = (   0.5256536   1.0687282   0.7162608  )
        36           O   tau(  36) = (  -0.0563754   0.3740244   1.1689368  )
        37           N   tau(  37) = (   0.0022632   0.3603764   0.4064984  )
        38           N   tau(  38) = (   0.8208295   1.0550802   0.2219008  )
        39           N   tau(  39) = (   0.6439222   1.0290311   0.8503001  )
        40           N   tau(  40) = (  -0.1746440   0.3343273   1.0348976  )
        41           H   tau(  41) = (   0.6553341   0.7682090   0.3996629  )
        42           H   tau(  42) = (   0.1677587   0.0735053   0.2287363  )
        43           H   tau(  43) = (  -0.0091486   0.6211985   0.8571355  )
        44           H   tau(  44) = (   0.4784268   1.3159023   1.0280621  )
        45           H   tau(  45) = (   0.5972241   0.5773136   0.6965615  )
        46           H   tau(  46) = (  -0.1279459   1.2720174   1.1886361  )
        47           H   tau(  47) = (   0.0489613   0.8120939   0.5602369  )
        48           H   tau(  48) = (   0.7741314   0.1173902   0.0681623  )
        49           H   tau(  49) = (   0.7098598   0.0107677   0.4292589  )
        50           H   tau(  50) = (   0.1132329   0.7054715   0.1991403  )
        51           H   tau(  51) = (  -0.0636743   1.3786398   0.8275395  )
        52           H   tau(  52) = (   0.5329525   0.6839361   1.0576581  )
        53           H   tau(  53) = (   0.6103089   0.2477791   0.7090708  )
        54           H   tau(  54) = (  -0.1410307   0.9424828   1.1761268  )
        55           H   tau(  55) = (   0.0358765   1.1416284   0.5477276  )
        56           H   tau(  56) = (   0.7872162   0.4469247   0.0806716  )
        57           H   tau(  57) = (   0.5203173   1.3480688   0.5688549  )
        58           H   tau(  58) = (   0.3027754   0.6533650   0.0595443  )
        59           H   tau(  59) = (   0.1258682   0.0413388   0.6879435  )
        60           H   tau(  60) = (   0.3434100   0.7360425   1.1972541  )
        61           H   tau(  61) = (   0.4922619   0.8596610   0.5563517  )
        62           H   tau(  62) = (   0.3308308   0.1649572   0.0720475  )
        63           H   tau(  63) = (   0.1539236   0.5297465   0.7004467  )
        64           H   tau(  64) = (   0.3153546   1.2244503   1.1847510  )
        65           H   tau(  65) = (   0.4101579   0.7428811   0.3511567  )
        66           H   tau(  66) = (   0.4129348   0.0481774   0.2772425  )
        67           H   tau(  67) = (   0.2360275   0.6465264   0.9056417  )
        68           H   tau(  68) = (   0.2332507   1.3412301   0.9795559  )

     number of k points=     8
                       cart. coord. in units 2pi/alat
        k(    1) = (   0.0000000   0.0000000   0.0000000), wk =   0.1666667
        k(    2) = (   0.0000000   0.0000000  -0.3978363), wk =   0.1666667
        k(    3) = (   0.0000000  -0.3598656   0.0000000), wk =   0.1666667
        k(    4) = (   0.0000000  -0.3598656  -0.3978363), wk =   0.1666667
        k(    5) = (   0.3333333   0.0000000   0.0938402), wk =   0.3333333
        k(    6) = (   0.3333333   0.0000000  -0.3039961), wk =   0.3333333
        k(    7) = (   0.3333333  -0.3598656   0.0938402), wk =   0.3333333
        k(    8) = (   0.3333333  -0.3598656  -0.3039961), wk =   0.3333333

     Dense  grid:   520177 G-vectors     FFT dimensions: (  90, 120, 120)

     Estimated max dynamical RAM per process >     401.34MB

     Estimated total allocated dynamical RAM >    3210.70MB

     Check: negative/imaginary core charge=   -0.000002    0.000000

     Initial potential from superposition of free atoms

     starting charge  239.99940, renormalised to  240.00000
     Starting wfc are  188 randomized atomic wfcs
     Checking if some PAW data can be deallocated... 

     total cpu time spent up to now is       23.7 secs

     per-process dynamical memory:   327.1 Mb

     Self-consistent Calculation

     iteration #  1     ecut=   100.00 Ry     beta=0.50
     Davidson diagonalization with overlap
     ethr =  1.00E-02,  avg # of iterations =  3.0

     total cpu time spent up to now is       72.7 secs

     total energy              =   -1335.42719517 Ry
     Harris-Foulkes estimate   =   -1339.26391959 Ry
     estimated scf accuracy    <       6.95988806 Ry

     iteration #  2     ecut=   100.00 Ry     beta=0.50
     Davidson diagonalization with overlap
     ethr =  2.90E-03,  avg # of iterations =  3.4

     total cpu time spent up to now is      115.2 secs

     total energy              =   -1336.87412366 Ry
     Harris-Foulkes estimate   =   -1337.70529632 Ry
     estimated scf accuracy    <       1.81145789 Ry

     iteration #  3     ecut=   100.00 Ry     beta=0.50
     Davidson diagonalization with overlap
     ethr =  7.55E-04,  avg # of iterations =  4.6

     total cpu time spent up to now is      154.7 secs

     total energy              =   -1337.23952148 Ry
     Harris-Foulkes estimate   =   -1337.30507387 Ry
     estimated scf accuracy    <       0.20643288 Ry

     iteration #  4     ecut=   100.00 Ry     beta=0.50
     Davidson diagonalization with overlap
     ethr =  8.60E-05,  avg # of iterations =  9.8

     total cpu time spent up to now is      198.7 secs

     total energy              =   -1337.26431888 Ry
     Harris-Foulkes estimate   =   -1337.27356242 Ry
     estimated scf accuracy    <       0.03485247 Ry

     iteration #  5     ecut=   100.00 Ry     beta=0.50
     Davidson diagonalization with overlap
     ethr =  1.45E-05,  avg # of iterations =  6.4

     total cpu time spent up to now is      245.4 secs

     total energy              =   -1337.26954079 Ry
     Harris-Foulkes estimate   =   -1337.27346312 Ry
     estimated scf accuracy    <       0.00985355 Ry

     iteration #  6     ecut=   100.00 Ry     beta=0.50
     Davidson diagonalization with overlap
     ethr =  4.11E-06,  avg # of iterations =  3.9

     total cpu time spent up to now is      282.4 secs

     total energy              =   -1337.27137518 Ry
     Harris-Foulkes estimate   =   -1337.27191167 Ry
     estimated scf accuracy    <       0.00136429 Ry

     iteration #  7     ecut=   100.00 Ry     beta=0.50
     Davidson diagonalization with overlap
     ethr =  5.68E-07,  avg # of iterations =  3.1

     total cpu time spent up to now is      319.9 secs

     total energy              =   -1337.27169599 Ry
     Harris-Foulkes estimate   =   -1337.27178644 Ry
     estimated scf accuracy    <       0.00026048 Ry

     iteration #  8     ecut=   100.00 Ry     beta=0.50
     Davidson diagonalization with overlap
     ethr =  1.09E-07,  avg # of iterations =  2.0

     total cpu time spent up to now is      354.1 secs

     total energy              =   -1337.27175098 Ry
     Harris-Foulkes estimate   =   -1337.27175248 Ry
     estimated scf accuracy    <       0.00001968 Ry

     iteration #  9     ecut=   100.00 Ry     beta=0.50
     Davidson diagonalization with overlap
     ethr =  8.20E-09,  avg # of iterations =  3.0

     total cpu time spent up to now is      396.1 secs

     total energy              =   -1337.27175606 Ry
     Harris-Foulkes estimate   =   -1337.27175628 Ry
     estimated scf accuracy    <       0.00000261 Ry

     iteration # 10     ecut=   100.00 Ry     beta=0.50
     Davidson diagonalization with overlap
     ethr =  1.09E-09,  avg # of iterations =  2.9

     total cpu time spent up to now is      433.4 secs

     total energy              =   -1337.27175655 Ry
     Harris-Foulkes estimate   =   -1337.27175678 Ry
     estimated scf accuracy    <       0.00000086 Ry

     iteration # 11     ecut=   100.00 Ry     beta=0.50
     Davidson diagonalization with overlap
     ethr =  3.58E-10,  avg # of iterations =  2.0

     total cpu time spent up to now is      466.7 secs

     total energy              =   -1337.27175673 Ry
     Harris-Foulkes estimate   =   -1337.27175676 Ry
     estimated scf accuracy    <       0.00000014 Ry

     iteration # 12     ecut=   100.00 Ry     beta=0.50
     Davidson diagonalization with overlap
     ethr =  5.90E-11,  avg # of iterations =  2.5

     total cpu time spent up to now is      505.4 secs

     total energy              =   -1337.27175676 Ry
     Harris-Foulkes estimate   =   -1337.27175677 Ry
     estimated scf accuracy    <       0.00000001 Ry

     iteration # 13     ecut=   100.00 Ry     beta=0.50
     Davidson diagonalization with overlap
     ethr =  5.48E-12,  avg # of iterations =  2.5

     total cpu time spent up to now is      544.7 secs

     End of self-consistent calculation

          k = 0.0000 0.0000 0.0000 ( 65029 PWs)   bands (ev):

   -23.9373 -23.9282 -23.9259 -23.9181 -19.5027 -19.4292 -19.3844 -19.3837
   -18.4788 -18.4581 -18.4487 -18.4444 -18.4312 -18.3988 -18.3792 -18.3557
   -17.9513 -17.9250 -17.8424 -17.7568 -17.1159 -17.0696 -17.0387 -17.0358
   -14.1024 -13.9976 -13.7819 -13.7677 -12.1999 -12.1459 -12.0008 -11.9782
    -8.4840  -8.3451  -7.9481  -7.9319  -7.9041  -7.7537  -7.7125  -7.6631
    -7.3030  -7.2142  -7.1137  -7.0527  -6.7495  -6.7443  -6.6777  -6.6290
    -6.4146  -6.3324  -6.2322  -6.2220  -6.1534  -6.0903  -6.0046  -5.7788
    -5.6772  -5.6492  -5.5209  -5.4959  -5.4086  -5.3032  -5.2510  -5.1647
    -5.1429  -5.1130  -5.0153  -5.0135  -4.8625  -4.8334  -4.7086  -4.6755
    -4.5705  -4.5405  -4.2002  -4.1812  -3.2005  -3.0603  -2.9985  -2.8586
    -2.7408  -2.6756  -2.4383  -2.4020  -0.7427  -0.7253  -0.6130  -0.5374
    -0.5125  -0.5052  -0.3467  -0.3205  -0.2569  -0.2363  -0.1672  -0.1304
    -0.0868  -0.0740  -0.0242   0.0175   0.0331   0.1226   0.1570   0.1990
     0.4098   0.7212   0.7597   0.7977   0.9078   0.9560   1.0508   1.1062
     1.3574   1.4328   1.4521   1.4582   1.5111   1.5784   1.5916   1.6564
     4.9250   5.0386   5.2492   5.3324   6.9524   7.1839   7.1880   7.3089
     7.5972   8.0839   8.3772   8.3858   8.6075   8.7050   9.1056   9.2389
     9.4432   9.4823   9.6153   9.7411   9.9728  10.0221  10.1121  10.3767

          k = 0.0000 0.0000-0.3978 ( 65030 PWs)   bands (ev):

   -23.9328 -23.9328 -23.9220 -23.9220 -19.4744 -19.4744 -19.3768 -19.3768
   -18.4692 -18.4692 -18.4464 -18.4464 -18.4104 -18.4104 -18.3690 -18.3690
   -17.9484 -17.9484 -17.7893 -17.7893 -17.0848 -17.0848 -17.0466 -17.0466
   -14.0607 -14.0607 -13.7651 -13.7651 -12.1748 -12.1748 -11.9882 -11.9882
    -8.3652  -8.3652  -7.9508  -7.9508  -7.8222  -7.8222  -7.6946  -7.6946
    -7.3086  -7.3086  -7.0544  -7.0544  -6.7771  -6.7771  -6.6273  -6.6273
    -6.4977  -6.4977  -6.2107  -6.2107  -6.0317  -6.0317  -5.9534  -5.9534
    -5.7216  -5.7216  -5.4803  -5.4803  -5.3322  -5.3322  -5.2189  -5.2189
    -5.0487  -5.0487  -4.9468  -4.9468  -4.8898  -4.8898  -4.7386  -4.7386
    -4.4701  -4.4701  -4.2526  -4.2526  -3.1407  -3.1407  -2.8097  -2.8097
    -2.6362  -2.6362  -2.5886  -2.5886  -0.7828  -0.7828  -0.6174  -0.6174
    -0.4896  -0.4896  -0.3597  -0.3597  -0.1852  -0.1852  -0.1388  -0.1388
    -0.0818  -0.0818  -0.0235  -0.0235   0.1260   0.1260   0.1985   0.1985
     0.6094   0.6094   0.7674   0.7674   0.8515   0.8515   1.1155   1.1155
     1.3442   1.3442   1.4568   1.4568   1.5509   1.5509   1.6401   1.6401
     4.9718   4.9718   5.2923   5.2923   7.2280   7.2280   7.2991   7.2991
     7.5140   7.5140   8.3884   8.3884   8.7411   8.7411   9.0792   9.0792
     9.5787   9.5787   9.8414   9.8414  10.0870  10.0870  10.1321  10.1321

          k = 0.0000-0.3599 0.0000 ( 64974 PWs)   bands (ev):

   -23.9316 -23.9316 -23.9232 -23.9232 -19.4564 -19.4564 -19.3969 -19.3969
   -18.4586 -18.4586 -18.4486 -18.4486 -18.4113 -18.4113 -18.3786 -18.3786
   -17.8965 -17.8965 -17.8405 -17.8405 -17.0950 -17.0950 -17.0343 -17.0343
   -13.9614 -13.9614 -13.8708 -13.8708 -12.1042 -12.1042 -12.0584 -12.0584
    -8.2789  -8.2789  -8.1476  -8.1476  -7.7951  -7.7951  -7.6248  -7.6248
    -7.2024  -7.2024  -7.0917  -7.0917  -6.7035  -6.7035  -6.6382  -6.6382
    -6.4547  -6.4547  -6.2010  -6.2010  -6.1286  -6.1286  -5.9860  -5.9860
    -5.6064  -5.6064  -5.5040  -5.5040  -5.4672  -5.4672  -5.3412  -5.3412
    -5.0463  -5.0463  -4.9260  -4.9260  -4.9225  -4.9225  -4.8411  -4.8411
    -4.2268  -4.2268  -4.2122  -4.2122  -3.0333  -3.0333  -2.9255  -2.9255
    -2.8518  -2.8518  -2.4452  -2.4452  -0.6897  -0.6897  -0.5735  -0.5735
    -0.4323  -0.4323  -0.3608  -0.3608  -0.1953  -0.1953  -0.1895  -0.1895
    -0.1208  -0.1208   0.0144   0.0144   0.0901   0.0901   0.1326   0.1326
     0.5646   0.5646   0.8452   0.8452   0.9010   0.9010   1.1086   1.1086
     1.3505   1.3505   1.3909   1.3909   1.5385   1.5385   1.6254   1.6254
     5.0966   5.0966   5.1929   5.1929   7.1575   7.1575   7.4107   7.4107
     7.5565   7.5565   8.5777   8.5777   8.7536   8.7536   9.0148   9.0148
     9.4679   9.4679   9.7049   9.7049   9.8014   9.8014  10.1854  10.1854

          k = 0.0000-0.3599-0.3978 ( 65032 PWs)   bands (ev):

   -23.9276 -23.9276 -23.9272 -23.9272 -19.4460 -19.4460 -19.4097 -19.4097
   -18.4545 -18.4545 -18.4469 -18.4469 -18.4028 -18.4028 -18.3882 -18.3882
   -17.8951 -17.8951 -17.8433 -17.8433 -17.0716 -17.0716 -17.0591 -17.0591
   -13.9510 -13.9510 -13.8829 -13.8829 -12.1025 -12.1025 -12.0593 -12.0593
    -8.1875  -8.1875  -8.1040  -8.1040  -7.8794  -7.8794  -7.7297  -7.7297
    -7.1446  -7.1446  -7.0785  -7.0785  -6.6873  -6.6873  -6.6694  -6.6694
    -6.4347  -6.4347  -6.2113  -6.2113  -6.1238  -6.1238  -6.0876  -6.0876
    -5.6457  -5.6457  -5.5079  -5.5079  -5.3555  -5.3555  -5.3174  -5.3174
    -4.9919  -4.9919  -4.9615  -4.9615  -4.9218  -4.9218  -4.9027  -4.9027
    -4.2131  -4.2131  -4.1961  -4.1961  -2.9644  -2.9644  -2.9515  -2.9515
    -2.6804  -2.6804  -2.6382  -2.6382  -0.6609  -0.6609  -0.5622  -0.5622
    -0.5502  -0.5502  -0.4766  -0.4766  -0.1243  -0.1243  -0.1219  -0.1219
    -0.0658  -0.0658  -0.0414  -0.0414   0.1169   0.1169   0.1981   0.1981
     0.6330   0.6330   0.7541   0.7541   0.9658   0.9658   0.9924   0.9924
     1.3607   1.3607   1.4059   1.4059   1.5234   1.5234   1.6253   1.6253
     5.1295   5.1295   5.1530   5.1530   7.2398   7.2398   7.3802   7.3802
     7.7795   7.7795   8.0354   8.0354   8.8990   8.8990   8.9882   8.9882
     9.6257   9.6257   9.7706   9.7706   9.9794   9.9794  10.1867  10.1867

          k = 0.3333 0.0000 0.0938 ( 65039 PWs)   bands (ev):

   -23.9368 -23.9281 -23.9257 -23.9180 -19.5112 -19.4356 -19.3892 -19.3808
   -18.4688 -18.4522 -18.4437 -18.4416 -18.4310 -18.3910 -18.3833 -18.3550
   -17.9762 -17.9316 -17.8355 -17.7402 -17.1100 -17.0761 -17.0516 -17.0251
   -14.1071 -14.0023 -13.7761 -13.7656 -12.1972 -12.1485 -11.9991 -11.9818
    -8.4202  -8.3643  -8.0043  -7.9740  -7.8535  -7.7588  -7.7048  -7.6407
    -7.2679  -7.2626  -7.1310  -7.0806  -6.8081  -6.7062  -6.6652  -6.5540
    -6.4262  -6.2531  -6.2523  -6.2059  -6.0773  -6.0409  -5.9603  -5.9227
    -5.7345  -5.7166  -5.4741  -5.4508  -5.3528  -5.3206  -5.2606  -5.2187
    -5.0900  -5.0678  -5.0342  -4.9752  -4.9653  -4.9342  -4.7437  -4.6841
    -4.5021  -4.4678  -4.2375  -4.2255  -3.1835  -3.1104  -2.9381  -2.8363
    -2.7750  -2.7327  -2.4827  -2.4493  -0.7549  -0.7393  -0.6393  -0.6170
    -0.5854  -0.4530  -0.4199  -0.3898  -0.2632  -0.2129  -0.1872  -0.1023
    -0.0705  -0.0058   0.0233   0.0929   0.1213   0.2055   0.2116   0.2590
     0.4767   0.6993   0.7094   0.7500   0.9359   0.9484   1.0240   1.1044
     1.3382   1.3631   1.4126   1.4450   1.5411   1.6258   1.6698   1.6888
     4.8660   5.0459   5.1946   5.3006   7.1649   7.2092   7.2130   7.3831
     7.6533   8.3428   8.4139   8.5410   8.6566   8.7789   9.0895   9.1433
     9.1676   9.4888   9.6159   9.8053   9.9470  10.0201  10.1828  10.2161

          k = 0.3333 0.0000-0.3040 ( 64991 PWs)   bands (ev):

   -23.9326 -23.9324 -23.9219 -23.9218 -19.4770 -19.4746 -19.3843 -19.3803
   -18.4649 -18.4582 -18.4426 -18.4414 -18.4190 -18.4090 -18.3697 -18.3678
   -17.9638 -17.9568 -17.7819 -17.7797 -17.0826 -17.0732 -17.0553 -17.0472
   -14.0552 -14.0540 -13.7712 -13.7707 -12.1763 -12.1729 -11.9903 -11.9875
    -8.4655  -8.3939  -7.9550  -7.9271  -7.8975  -7.8355  -7.6671  -7.6314
    -7.2280  -7.2267  -7.0949  -7.0637  -6.7729  -6.7348  -6.6851  -6.6422
    -6.4369  -6.2162  -6.1972  -6.1876  -6.1169  -6.0065  -6.0011  -5.8756
    -5.7528  -5.7491  -5.4519  -5.4311  -5.3414  -5.3342  -5.2552  -5.2190
    -5.0777  -5.0692  -5.0416  -5.0078  -4.9597  -4.9507  -4.6995  -4.6964
    -4.5499  -4.5446  -4.2011  -4.1927  -3.1843  -3.1491  -2.8536  -2.8359
    -2.6999  -2.6679  -2.6214  -2.6193  -0.7512  -0.6933  -0.6254  -0.5745
    -0.5189  -0.4626  -0.3916  -0.3635  -0.2206  -0.2077  -0.1186  -0.0973
    -0.0845  -0.0806   0.0136   0.0857   0.1120   0.1498   0.1979   0.2500
     0.6084   0.6504   0.7305   0.7675   0.8071   0.8866   1.0840   1.1040
     1.3666   1.3723   1.4266   1.4290   1.5489   1.5578   1.6753   1.6922
     4.9017   4.9823   5.2292   5.2547   7.1918   7.2294   7.3735   7.4181
     7.7220   8.0211   8.4130   8.4858   8.7057   8.7843   8.9579   9.0224
     9.2584   9.3164   9.8337   9.8474   9.9799  10.0753  10.1660  10.2322

          k = 0.3333-0.3599 0.0938 ( 64994 PWs)   bands (ev):

   -23.9313 -23.9313 -23.9231 -23.9231 -19.4620 -19.4620 -19.4001 -19.4001
   -18.4527 -18.4527 -18.4412 -18.4412 -18.4141 -18.4141 -18.3759 -18.3759
   -17.9094 -17.9094 -17.8306 -17.8306 -17.0949 -17.0949 -17.0359 -17.0359
   -13.9592 -13.9592 -13.8740 -13.8740 -12.1008 -12.1008 -12.0622 -12.0622
    -8.2209  -8.2209  -8.1473  -8.1473  -7.8245  -7.8245  -7.7325  -7.7325
    -7.1564  -7.1564  -7.0492  -7.0492  -6.6907  -6.6907  -6.6535  -6.6535
    -6.3712  -6.3712  -6.2185  -6.2185  -6.0797  -6.0797  -5.9752  -5.9752
    -5.7448  -5.7448  -5.4824  -5.4824  -5.4182  -5.4182  -5.3433  -5.3433
    -5.0331  -5.0331  -4.9827  -4.9827  -4.9413  -4.9413  -4.8785  -4.8785
    -4.2139  -4.2139  -4.1891  -4.1891  -3.0248  -3.0248  -2.9308  -2.9308
    -2.8762  -2.8762  -2.4853  -2.4853  -0.6760  -0.6760  -0.5980  -0.5980
    -0.5309  -0.5309  -0.4374  -0.4374  -0.2453  -0.2453  -0.1260  -0.1260
    -0.0079  -0.0079   0.0411   0.0411   0.1470   0.1470   0.2126   0.2126
     0.5555   0.5555   0.8401   0.8401   0.9108   0.9108   1.0810   1.0810
     1.2593   1.2593   1.4482   1.4482   1.5719   1.5719   1.6479   1.6479
     5.0390   5.0390   5.1837   5.1837   7.1781   7.1781   7.3971   7.3971
     7.9270   7.9270   8.6948   8.6948   8.8571   8.8571   9.0539   9.0539
     9.2502   9.2502   9.5402   9.5402   9.8473   9.8473  10.0559  10.0559

          k = 0.3333-0.3599-0.3040 ( 65086 PWs)   bands (ev):

   -23.9274 -23.9274 -23.9270 -23.9270 -19.4478 -19.4478 -19.4143 -19.4143
   -18.4501 -18.4501 -18.4427 -18.4427 -18.4070 -18.4070 -18.3866 -18.3866
   -17.9079 -17.9079 -17.8315 -17.8315 -17.0687 -17.0687 -17.0599 -17.0599
   -13.9466 -13.9466 -13.8864 -13.8864 -12.0995 -12.0995 -12.0641 -12.0641
    -8.2534  -8.2534  -8.1965  -8.1965  -7.7878  -7.7878  -7.6453  -7.6453
    -7.1522  -7.1522  -7.1188  -7.1188  -6.7117  -6.7117  -6.5960  -6.5960
    -6.3379  -6.3379  -6.2195  -6.2195  -6.1070  -6.1070  -5.9780  -5.9780
    -5.7664  -5.7664  -5.4632  -5.4632  -5.4066  -5.4066  -5.3292  -5.3292
    -5.0557  -5.0557  -5.0280  -5.0280  -4.9006  -4.9006  -4.8634  -4.8634
    -4.2273  -4.2273  -4.2030  -4.2030  -3.0383  -3.0383  -2.9562  -2.9562
    -2.7088  -2.7088  -2.6755  -2.6755  -0.6325  -0.6325  -0.6095  -0.6095
    -0.4655  -0.4655  -0.4165  -0.4165  -0.1923  -0.1923  -0.1226  -0.1226
    -0.0397  -0.0397   0.0067   0.0067   0.1549   0.1549   0.1769   0.1769
     0.6182   0.6182   0.7593   0.7593   0.9436   0.9436   1.0479   1.0479
     1.3430   1.3430   1.4023   1.4023   1.5474   1.5474   1.6342   1.6342
     5.0745   5.0745   5.1315   5.1315   7.2425   7.2425   7.3901   7.3901
     8.1186   8.1186   8.4010   8.4010   8.8352   8.8352   8.9395   8.9395
     9.2274   9.2274   9.5123   9.5123   9.8735   9.8735  10.2359  10.2360

     highest occupied, lowest unoccupied level (ev):     1.6922    4.8660

!    total energy              =   -1337.27175677 Ry
     Harris-Foulkes estimate   =   -1337.27175677 Ry
     estimated scf accuracy    <          1.3E-09 Ry

     total all-electron energy =     -4935.854342 Ry

     The total energy is the sum of the following terms:

     one-electron contribution =    -589.53392968 Ry
     hartree contribution      =     399.58910169 Ry
     xc contribution           =    -263.90895049 Ry
     ewald contribution        =    -538.68796694 Ry
     Dispersion Correction     =      -0.33820018 Ry
     one-center paw contrib.   =    -344.39181117 Ry

     convergence has been achieved in  13 iterations

     Forces acting on atoms (cartesian axes, Ry/au):

     atom    1 type  4   force =    -0.00039244    0.00114357   -0.00157204
     atom    2 type  4   force =     0.00039244    0.00114357    0.00157204
     atom    3 type  4   force =     0.00039244   -0.00114357    0.00157204
     atom    4 type  4   force =    -0.00039244   -0.00114357   -0.00157204
     atom    5 type  2   force =    -0.00146078   -0.00128034    0.00134406
     atom    6 type  2   force =     0.00146078   -0.00128034   -0.00134406
     atom    7 type  2   force =     0.00146078    0.00128034   -0.00134406
     atom    8 type  2   force =    -0.00146078    0.00128034    0.00134406
     atom    9 type  2   force =    -0.00033583    0.00082538    0.00059690
     atom   10 type  2   force =     0.00033583    0.00082538   -0.00059690
     atom   11 type  2   force =     0.00033583   -0.00082538   -0.00059690
     atom   12 type  2   force =    -0.00033583   -0.00082538    0.00059690
     atom   13 type  2   force =     0.00129365    0.00085442   -0.00041444
     atom   14 type  2   force =    -0.00129365    0.00085442    0.00041444
     atom   15 type  2   force =    -0.00129365   -0.00085442    0.00041444
     atom   16 type  2   force =     0.00129365   -0.00085442   -0.00041444
     atom   17 type  2   force =    -0.00017283   -0.00100805    0.00058832
     atom   18 type  2   force =     0.00017283   -0.00100805   -0.00058832
     atom   19 type  2   force =     0.00017283    0.00100805   -0.00058832
     atom   20 type  2   force =    -0.00017283    0.00100805    0.00058832
     atom   21 type  1   force =    -0.00010829    0.00094844   -0.00063213
     atom   22 type  1   force =     0.00010829    0.00094844    0.00063213
     atom   23 type  1   force =     0.00010829   -0.00094844    0.00063213
     atom   24 type  1   force =    -0.00010829   -0.00094844   -0.00063213
     atom   25 type  4   force =    -0.00004349    0.00015655   -0.00039409
     atom   26 type  4   force =     0.00004349    0.00015655    0.00039409
     atom   27 type  4   force =     0.00004349   -0.00015655    0.00039409
     atom   28 type  4   force =    -0.00004349   -0.00015655   -0.00039409
     atom   29 type  4   force =     0.00150260    0.00138735   -0.00149888
     atom   30 type  4   force =    -0.00150260    0.00138735    0.00149888
     atom   31 type  4   force =    -0.00150260   -0.00138735    0.00149888
     atom   32 type  4   force =     0.00150260   -0.00138735   -0.00149888
     atom   33 type  4   force =     0.00027474   -0.00197984    0.00250819
     atom   34 type  4   force =    -0.00027474   -0.00197984   -0.00250819
     atom   35 type  4   force =    -0.00027474    0.00197984   -0.00250819
     atom   36 type  4   force =     0.00027474    0.00197984    0.00250819
     atom   37 type  2   force =    -0.00160346   -0.00086039   -0.00195755
     atom   38 type  2   force =     0.00160346   -0.00086039    0.00195755
     atom   39 type  2   force =     0.00160346    0.00086039    0.00195755
     atom   40 type  2   force =    -0.00160346    0.00086039   -0.00195755
     atom   41 type  3   force =     0.00050187    0.00021431   -0.00059098
     atom   42 type  3   force =    -0.00050187    0.00021431    0.00059098
     atom   43 type  3   force =    -0.00050187   -0.00021431    0.00059098
     atom   44 type  3   force =     0.00050187   -0.00021431   -0.00059098
     atom   45 type  3   force =    -0.00059117   -0.00007612   -0.00003120
     atom   46 type  3   force =     0.00059117   -0.00007612    0.00003120
     atom   47 type  3   force =     0.00059117    0.00007612    0.00003120
     atom   48 type  3   force =    -0.00059117    0.00007612   -0.00003120
     atom   49 type  3   force =     0.00046540    0.00032669   -0.00033856
     atom   50 type  3   force =    -0.00046540    0.00032669    0.00033856
     atom   51 type  3   force =    -0.00046540   -0.00032669    0.00033856
     atom   52 type  3   force =     0.00046540   -0.00032669   -0.00033856
     atom   53 type  3   force =    -0.00022618    0.00006154    0.00057409
     atom   54 type  3   force =     0.00022618    0.00006154   -0.00057409
     atom   55 type  3   force =     0.00022618   -0.00006154   -0.00057409
     atom   56 type  3   force =    -0.00022618   -0.00006154    0.00057409
     atom   57 type  3   force =     0.00010807   -0.00062305    0.00009958
     atom   58 type  3   force =    -0.00010807   -0.00062305   -0.00009958
     atom   59 type  3   force =    -0.00010807    0.00062305   -0.00009958
     atom   60 type  3   force =     0.00010807    0.00062305    0.00009958
     atom   61 type  3   force =    -0.00049073    0.00037239    0.00023618
     atom   62 type  3   force =     0.00049073    0.00037239   -0.00023618
     atom   63 type  3   force =     0.00049073   -0.00037239   -0.00023618
     atom   64 type  3   force =    -0.00049073   -0.00037239    0.00023618
     atom   65 type  3   force =     0.00013274   -0.00019249    0.00036985
     atom   66 type  3   force =    -0.00013274   -0.00019249   -0.00036985
     atom   67 type  3   force =    -0.00013274    0.00019249   -0.00036985
     atom   68 type  3   force =     0.00013274    0.00019249    0.00036985

     Total force =     0.013091     Total SCF correction =     0.000053


     Computing stress (Cartesian axis) and pressure

          total   stress  (Ry/bohr**3)                   (kbar)     P=   -0.90
   0.00001134   0.00000000  -0.00000607          1.67      0.00     -0.89
   0.00000000  -0.00001193   0.00000000          0.00     -1.76      0.00
  -0.00000607   0.00000000  -0.00001770         -0.89      0.00     -2.60


     Writing output data file scf.save
 
     init_run     :     20.14s CPU     21.30s WALL (       1 calls)
     electrons    :    501.13s CPU    521.33s WALL (       1 calls)
     forces       :     10.98s CPU     11.06s WALL (       1 calls)
     stress       :     33.59s CPU     33.69s WALL (       1 calls)

     Called by init_run:
     wfcinit      :     13.89s CPU     14.73s WALL (       1 calls)
     potinit      :      2.23s CPU      2.28s WALL (       1 calls)

     Called by electrons:
     c_bands      :    441.52s CPU    458.63s WALL (      13 calls)
     sum_band     :     52.18s CPU     54.55s WALL (      13 calls)
     v_of_rho     :      1.07s CPU      1.21s WALL (      14 calls)
     newd         :      2.14s CPU      2.49s WALL (      14 calls)
     PAW_pot      :      3.84s CPU      3.84s WALL (      14 calls)
     mix_rho      :      0.19s CPU      0.21s WALL (      13 calls)

     Called by c_bands:
     init_us_2    :      2.75s CPU      2.76s WALL (     232 calls)
     cegterg      :    431.08s CPU    448.17s WALL (     104 calls)

     Called by sum_band:
     sum_band:bec :      0.04s CPU      0.04s WALL (     104 calls)
     addusdens    :      2.12s CPU      2.43s WALL (      13 calls)

     Called by *egterg:
     h_psi        :    255.12s CPU    267.96s WALL (     504 calls)
     s_psi        :     44.44s CPU     44.44s WALL (     504 calls)
     g_psi        :      1.28s CPU      1.28s WALL (     392 calls)
     cdiaghg      :     27.75s CPU     27.96s WALL (     496 calls)

     Called by h_psi:
     h_psi:pot    :    253.59s CPU    266.39s WALL (     504 calls)
     h_psi:calbec :     44.79s CPU     44.90s WALL (     504 calls)
     vloc_psi     :    164.41s CPU    177.10s WALL (     504 calls)
     add_vuspsi   :     44.38s CPU     44.38s WALL (     504 calls)

     General routines
     calbec       :     66.63s CPU     66.78s WALL (     648 calls)
     fft          :      0.63s CPU      1.07s WALL (     206 calls)
     fftw         :    179.11s CPU    192.87s WALL (   96436 calls)
 
     Parallel routines
     fft_scatter  :     43.93s CPU     53.54s WALL (   96642 calls)
 
     PWSCF        :  9m33.15s CPU     9m56.24s WALL

 
   This run was terminated on:   2:18:46  18Nov2017            

=------------------------------------------------------------------------------=
   JOB DONE.
=------------------------------------------------------------------------------=
