
     Program PWSCF v.6.1 (svn rev. 13369) starts on 19Dec2017 at  7:12:24 

     This program is part of the open-source Quantum ESPRESSO suite
     for quantum simulation of materials; please cite
         "P. Giannozzi et al., J. Phys.:Condens. Matter 21 395502 (2009);
          URL http://www.quantum-espresso.org", 
     in publications or presentations arising from this work. More details at
     http://www.quantum-espresso.org/quote

     Parallel version (MPI), running on     8 processors
     R & G space division:  proc/nbgrp/npool/nimage =       8
     Waiting for input...
     Reading input from standard input

     Current dimensions of program PWSCF are:
     Max number of different atomic species (ntypx) = 10
     Max number of k-points (npk) =  40000
     Max angular momentum in pseudopotentials (lmaxx) =  3
               file C.pbe-n-kjpaw_psl.0.1.UPF: wavefunction(s)  2P renormalized
               file N.pbe-n-kjpaw_psl.0.1.UPF: wavefunction(s)  2P renormalized
               file H.pbe-kjpaw_psl.0.1.UPF: wavefunction(s)  1S renormalized
               file O.pbe-n-kjpaw_psl.0.1.UPF: wavefunction(s)  2P renormalized

     -------------------------------------
     Parameters for Dispersion Correction:
     -------------------------------------
       atom      VdW radius       C_6     

        C          2.744         60.710
        N          2.640         42.670
        H          1.892          4.857
        O          2.536         24.284

     Subspace diagonalization in iterative solution of the eigenvalue problem:
     a serial algorithm will be used

 
     Parallelization info
     --------------------
     sticks:   dense  smooth     PW     G-vecs:    dense   smooth      PW
     Min        1236    1236    326               108473   108473   14765
     Max        1237    1237    327               108474   108474   14768
     Sum        9893    9893   2611               867791   867791  118127
 


     bravais-lattice index     =            0
     lattice parameter (alat)  =      15.1505  a.u.
     unit-cell volume          =    6423.4604 (a.u.)^3
     number of atoms/cell      =          116
     number of atomic types    =            4
     number of electrons       =       320.00
     number of Kohn-Sham states=          192
     kinetic-energy cutoff     =     100.0000  Ry
     charge density cutoff     =     400.0000  Ry
     convergence threshold     =      1.0E-08
     mixing beta               =       0.5000
     number of iterations used =            8  plain     mixing
     Exchange-correlation      =  SLA  PW   PBX  PBC ( 1  4  3  4 0 0)

     celldm(1)=  15.150501  celldm(2)=   0.000000  celldm(3)=   0.000000
     celldm(4)=   0.000000  celldm(5)=   0.000000  celldm(6)=   0.000000

     crystal axes: (cart. coord. in units of alat)
               a(1) = (   1.000000   0.000000   0.000000 )  
               a(2) = (   0.060953   1.352699   0.000000 )  
               a(3) = (   0.471877   0.028461   1.365485 )  

     reciprocal axes: (cart. coord. in units 2 pi/alat)
               b(1) = (  1.000000 -0.045060 -0.344635 )  
               b(2) = (  0.000000  0.739263 -0.015409 )  
               b(3) = (  0.000000  0.000000  0.732341 )  


     PseudoPot. # 1 for  C read from file:
     /scratch/ahofstet/pseudo/C.pbe-n-kjpaw_psl.0.1.UPF
     MD5 check sum: 430fe95172b1e11ef3f8ed03bac87931
     Pseudo is Projector augmented-wave + core cor, Zval =  4.0
     Generated using "atomic" code by A. Dal Corso  v.5.0.99 svn rev. 10869
     Shape of augmentation charge: BESSEL
     Using radial grid of 1073 points,  4 beta functions with: 
                l(1) =   0
                l(2) =   0
                l(3) =   1
                l(4) =   1
     Q(r) pseudized with 0 coefficients 


     PseudoPot. # 2 for  N read from file:
     /scratch/ahofstet/pseudo/N.pbe-n-kjpaw_psl.0.1.UPF
     MD5 check sum: f73187c8b701007e77325f868c9291d7
     Pseudo is Projector augmented-wave + core cor, Zval =  5.0
     Generated using "atomic" code by A. Dal Corso  v.5.0.99 svn rev. 10869
     Shape of augmentation charge: PSQ
     Using radial grid of 1085 points,  4 beta functions with: 
                l(1) =   0
                l(2) =   0
                l(3) =   1
                l(4) =   1
     Q(r) pseudized with 0 coefficients 


     PseudoPot. # 3 for  H read from file:
     /scratch/ahofstet/pseudo/H.pbe-kjpaw_psl.0.1.UPF
     MD5 check sum: 94e484f906d9e9773b2f6e52662335b2
     Pseudo is Projector augmented-wave, Zval =  1.0
     Generated using "atomic" code by A. Dal Corso  v.5.0.99 svn rev. 10869
     Shape of augmentation charge: PSQ
     Using radial grid of  929 points,  2 beta functions with: 
                l(1) =   0
                l(2) =   0
     Q(r) pseudized with 0 coefficients 


     PseudoPot. # 4 for  O read from file:
     /scratch/ahofstet/pseudo/O.pbe-n-kjpaw_psl.0.1.UPF
     MD5 check sum: 3f94a2996a3169367d6eb21d9b593f20
     Pseudo is Projector augmented-wave + core cor, Zval =  6.0
     Generated using "atomic" code by A. Dal Corso  v.5.0.99 svn rev. 10869
     Shape of augmentation charge: BESSEL
     Using radial grid of 1095 points,  4 beta functions with: 
                l(1) =   0
                l(2) =   0
                l(3) =   1
                l(4) =   1
     Q(r) pseudized with 0 coefficients 


     atomic species   valence    mass     pseudopotential
        C              4.00    12.01070      C( 1.00)
        N              5.00    14.00670      N( 1.00)
        H              1.00     1.00794      H( 1.00)
        O              6.00    15.99940      O( 1.00)

      2 Sym. Ops., with inversion, found



   Cartesian axes

     site n.     atom                  positions (alat units)
         1           O   tau(   1) = (   1.0875955   0.1034589   0.8583050  )
         2           O   tau(   2) = (   0.4452337   1.2777016   0.5071795  )
         3           N   tau(   3) = (   0.6415562   0.1627526   0.8987860  )
         4           N   tau(   4) = (   0.8912729   1.2184080   0.4666985  )
         5           N   tau(   5) = (   0.9093258   0.2765348   0.7182756  )
         6           N   tau(   6) = (   0.6235034   1.1046258   0.6472090  )
         7           N   tau(   7) = (   0.7368905   0.5191214   0.7980547  )
         8           N   tau(   8) = (   0.7959386   0.8620392   0.5674299  )
         9           H   tau(   9) = (   0.8327744   0.5980665   0.7685008  )
        10           H   tau(  10) = (   0.7000547   0.7830940   0.5969838  )
        11           H   tau(  11) = (   0.7447421   0.4964834   0.9234763  )
        12           H   tau(  12) = (   0.7880870   0.8846772   0.4420082  )
        13           N   tau(  13) = (   0.4444376   0.3307442   0.7366506  )
        14           N   tau(  14) = (   1.0883916   1.0504163   0.6288339  )
        15           H   tau(  15) = (   0.4338214   0.4177803   0.8303857  )
        16           H   tau(  16) = (   1.0990077   0.9633803   0.5350988  )
        17           H   tau(  17) = (   0.3487574   0.2469315   0.7455302  )
        18           H   tau(  18) = (   1.1840717   1.1342291   0.6199544  )
        19           C   tau(  19) = (   0.5297028   0.0921842   1.0064692  )
        20           C   tau(  20) = (   1.0031264   1.2889763   0.3590153  )
        21           H   tau(  21) = (   0.3963556   0.1077866   0.9886560  )
        22           H   tau(  22) = (   1.1364736   1.2733740   0.3768285  )
        23           C   tau(  23) = (   0.6798654   1.3544528   1.1249058  )
        24           C   tau(  24) = (   0.8529637   0.0267077   0.2405787  )
        25           H   tau(  25) = (   0.6253023   1.2864194   1.2284074  )
        26           H   tau(  26) = (   0.9075268   0.0947411   0.1370772  )
        27           C   tau(  27) = (   0.8510631   1.3677267   1.0842765  )
        28           C   tau(  28) = (   0.6817660   0.0134338   0.2812080  )
        29           H   tau(  29) = (   0.9562519   1.3119218   1.1487193  )
        30           H   tau(  30) = (   0.5765773   0.0692388   0.2167652  )
        31           C   tau(  31) = (   0.8014516   0.1146846   0.9423077  )
        32           C   tau(  32) = (   0.7313775   1.2664760   0.4231768  )
        33           C   tau(  33) = (   0.9447295   0.1631829   0.8391921  )
        34           C   tau(  34) = (   0.5880997   1.2179777   0.5262924  )
        35           C   tau(  35) = (   1.0362363   0.3350131   0.5999198  )
        36           C   tau(  36) = (   0.4965928   1.0461475   0.7655647  )
        37           H   tau(  37) = (   1.0889501   0.2272472   0.5335538  )
        38           H   tau(  38) = (   0.4438790   1.1539133   0.8319308  )
        39           H   tau(  39) = (   1.1384129   0.3989655   0.6649625  )
        40           H   tau(  40) = (   0.3944162   0.9821950   0.7005220  )
        41           C   tau(  41) = (   0.9416379   0.4548141   0.4844936  )
        42           C   tau(  42) = (   0.5911912   0.9263464   0.8809909  )
        43           H   tau(  43) = (   0.9645887   0.5853809   0.5197916  )
        44           H   tau(  44) = (   0.5682404   0.7957797   0.8456930  )
        45           H   tau(  45) = (   0.9792885   0.4395931   0.3539748  )
        46           H   tau(  46) = (   0.5535406   0.9415674   1.0115097  )
        47           C   tau(  47) = (   0.7570399   0.4122660   0.5121713  )
        48           C   tau(  48) = (   0.7757892   0.9688945   0.8533132  )
        49           H   tau(  49) = (   0.7220261   0.3016858   0.4390436  )
        50           H   tau(  50) = (   0.8108030   1.0794748   0.9264409  )
        51           H   tau(  51) = (   0.6747352   0.5160435   0.4796022  )
        52           H   tau(  52) = (   0.8580939   0.8651171   0.8858823  )
        53           C   tau(  53) = (   0.7482120   0.3683005   0.6984424  )
        54           C   tau(  54) = (   0.7846171   1.0128601   0.6670421  )
        55           C   tau(  55) = (   0.6026155   0.2486148   0.7383873  )
        56           C   tau(  56) = (   0.9302136   1.1325457   0.6270973  )
        57           H   tau(  57) = (   0.6018974   0.1519532   0.6411104  )
        58           H   tau(  58) = (   0.9309317   1.2292074   0.7243741  )
        59           O   tau(  59) = (   0.7408836   0.6603025   1.1751469  )
        60           O   tau(  60) = (   0.7919455   0.7208580   0.1903377  )
        61           N   tau(  61) = (   0.3239964   0.4979205   0.2376169  )
        62           N   tau(  62) = (   1.2088327   0.8832401   1.1278676  )
        63           N   tau(  63) = (   0.3173472   0.7826879   0.0468598  )
        64           N   tau(  64) = (   1.2154819   0.5984726   1.3186247  )
        65           N   tau(  65) = (   0.1441882   0.8288716   0.2967332  )
        66           N   tau(  66) = (   1.3886409   0.5522889   1.0687513  )
        67           H   tau(  67) = (   1.0640863   0.7345211   0.2652110  )
        68           H   tau(  68) = (   0.4687428   0.6466395   1.1002736  )
        69           H   tau(  69) = (   1.0939272   0.9348119   0.2467175  )
        70           H   tau(  70) = (   0.4389019   0.4463487   1.1187671  )
        71           N   tau(  71) = (   0.3746289   0.6589023   0.4945285  )
        72           N   tau(  72) = (   1.1582003   0.7222583   0.8709560  )
        73           H   tau(  73) = (   0.2514806   0.6691320   0.5256384  )
        74           H   tau(  74) = (   1.2813485   0.7120285   0.8398461  )
        75           H   tau(  75) = (   0.4236237   0.5568890   0.5541736  )
        76           H   tau(  76) = (   1.1092054   0.8242716   0.8113109  )
        77           C   tau(  77) = (   0.3250683   0.3409410   0.3033054  )
        78           C   tau(  78) = (   1.2077609   1.0402195   1.0621792  )
        79           H   tau(  79) = (   0.3581874   0.3200473   0.4330456  )
        80           H   tau(  80) = (   1.1746417   1.0611133   0.9324389  )
        81           C   tau(  81) = (   0.2775498   0.2296519   0.1787268  )
        82           C   tau(  82) = (   1.2552793   1.1515087   1.1867578  )
        83           H   tau(  83) = (   0.2646259   0.0960894   0.1956990  )
        84           H   tau(  84) = (   1.2682032   1.2850712   1.1697855  )
        85           C   tau(  85) = (   0.2505246   0.3228779   0.0316085  )
        86           C   tau(  86) = (   1.2823045   1.0582826   1.3338760  )
        87           H   tau(  87) = (   0.6865704   0.3032268   1.2755904  )
        88           H   tau(  88) = (   0.8462587   1.0779337   0.0898942  )
        89           C   tau(  89) = (   0.2811883   0.4895035   0.0704170  )
        90           C   tau(  90) = (   1.2516408   0.8916571   1.2950675  )
        91           C   tau(  91) = (   0.7582855   0.6660997   1.3303834  )
        92           C   tau(  92) = (   0.7745436   0.7150609   0.0351011  )
        93           C   tau(  93) = (   0.8105262   0.9709833   1.3253687  )
        94           C   tau(  94) = (   0.7223029   0.4101772   0.0401159  )
        95           H   tau(  95) = (   0.7026534   0.9979855   1.2453750  )
        96           H   tau(  96) = (   0.8301757   0.3831750   0.1201096  )
        97           H   tau(  97) = (   0.9214119   0.9655012   1.2449052  )
        98           H   tau(  98) = (   0.6114173   0.4156594   0.1205793  )
        99           C   tau(  99) = (   0.3604865   1.0694862   0.1018153  )
       100           C   tau( 100) = (   1.1723426   0.3116744   1.2636692  )
       101           H   tau( 101) = (   0.4528258   1.1652021   0.0704790  )
       102           H   tau( 102) = (   1.0800033   0.2159584   1.2950055  )
       103           H   tau( 103) = (   0.2416573   1.1331382   0.1280336  )
       104           H   tau( 104) = (   1.2911718   0.2480224   1.2374509  )
       105           C   tau( 105) = (   0.4142934   0.9636466   0.2519305  )
       106           C   tau( 106) = (   1.1185357   0.4175140   1.1135540  )
       107           H   tau( 107) = (   0.5477573   0.9332896   0.2430047  )
       108           H   tau( 108) = (   0.9850718   0.4478710   1.1224799  )
       109           H   tau( 109) = (   0.3892872   1.0236503   0.3716453  )
       110           H   tau( 110) = (   1.1435419   0.3575103   0.9938392  )
       111           C   tau( 111) = (   0.3123468   0.8035428   0.2315758  )
       112           C   tau( 112) = (   1.2204823   0.5776178   1.1339087  )
       113           C   tau( 113) = (   0.3939524   0.6514300   0.3169928  )
       114           C   tau( 114) = (   1.1388767   0.7297306   1.0484918  )
       115           H   tau( 115) = (   0.5278977   0.6532638   0.2865166  )
       116           H   tau( 116) = (   1.0049315   0.7278967   1.0789680  )

     number of k points=     8
                       cart. coord. in units 2pi/alat
        k(    1) = (   0.0000000   0.0000000   0.0000000), wk =   0.1666667
        k(    2) = (   0.0000000   0.0000000  -0.3661704), wk =   0.1666667
        k(    3) = (   0.0000000  -0.3696313   0.0077044), wk =   0.1666667
        k(    4) = (   0.0000000  -0.3696313  -0.3584660), wk =   0.1666667
        k(    5) = (   0.3333333  -0.0150200  -0.1148784), wk =   0.3333333
        k(    6) = (   0.3333333  -0.0150200  -0.4810488), wk =   0.3333333
        k(    7) = (   0.3333333  -0.3846513  -0.1071740), wk =   0.3333333
        k(    8) = (   0.3333333  -0.3846513  -0.4733444), wk =   0.3333333

     Dense  grid:   867791 G-vectors     FFT dimensions: ( 100, 135, 144)

     Estimated max dynamical RAM per process >     882.62MB

     Estimated total allocated dynamical RAM >    7060.94MB

     Check: negative/imaginary core charge=   -0.000002    0.000000

     Initial potential from superposition of free atoms

     starting charge  319.99768, renormalised to  320.00000
     Starting wfc are  296 randomized atomic wfcs
     Checking if some PAW data can be deallocated... 

     total cpu time spent up to now is       64.7 secs

     per-process dynamical memory:   602.6 Mb

     Self-consistent Calculation

     iteration #  1     ecut=   100.00 Ry     beta=0.50
     Davidson diagonalization with overlap
     ethr =  1.00E-02,  avg # of iterations =  4.1

     total cpu time spent up to now is      246.6 secs

     total energy              =   -1420.37155738 Ry
     Harris-Foulkes estimate   =   -1426.69872834 Ry
     estimated scf accuracy    <      12.08469253 Ry

     iteration #  2     ecut=   100.00 Ry     beta=0.50
     Davidson diagonalization with overlap
     ethr =  3.78E-03,  avg # of iterations =  3.0

     total cpu time spent up to now is      344.4 secs

     total energy              =   -1421.57211961 Ry
     Harris-Foulkes estimate   =   -1422.18152616 Ry
     estimated scf accuracy    <       1.36611651 Ry

     iteration #  3     ecut=   100.00 Ry     beta=0.50
     Davidson diagonalization with overlap
     ethr =  4.27E-04,  avg # of iterations =  5.0

     total cpu time spent up to now is      544.5 secs

     total energy              =   -1422.46353924 Ry
     Harris-Foulkes estimate   =   -1422.89772146 Ry
     estimated scf accuracy    <       1.11567030 Ry

     iteration #  4     ecut=   100.00 Ry     beta=0.50
     Davidson diagonalization with overlap
     ethr =  3.49E-04,  avg # of iterations =  2.0

     total cpu time spent up to now is      632.6 secs

     total energy              =   -1422.38939066 Ry
     Harris-Foulkes estimate   =   -1422.55154727 Ry
     estimated scf accuracy    <       0.29153690 Ry

     iteration #  5     ecut=   100.00 Ry     beta=0.50
     Davidson diagonalization with overlap
     ethr =  9.11E-05,  avg # of iterations =  6.8

     total cpu time spent up to now is      832.8 secs

     total energy              =   -1422.58378363 Ry
     Harris-Foulkes estimate   =   -1422.66052913 Ry
     estimated scf accuracy    <       0.25599445 Ry

     iteration #  6     ecut=   100.00 Ry     beta=0.50
     Davidson diagonalization with overlap
     ethr =  8.00E-05,  avg # of iterations =  1.0

     total cpu time spent up to now is      918.4 secs

     total energy              =   -1422.53028530 Ry
     Harris-Foulkes estimate   =   -1422.59219519 Ry
     estimated scf accuracy    <       0.11471130 Ry

     iteration #  7     ecut=   100.00 Ry     beta=0.50
     Davidson diagonalization with overlap
     ethr =  3.58E-05,  avg # of iterations =  7.5

     total cpu time spent up to now is     1096.5 secs

     total energy              =   -1422.58121076 Ry
     Harris-Foulkes estimate   =   -1422.58530970 Ry
     estimated scf accuracy    <       0.01700865 Ry

     iteration #  8     ecut=   100.00 Ry     beta=0.50
     Davidson diagonalization with overlap
     ethr =  5.32E-06,  avg # of iterations =  2.0

     total cpu time spent up to now is     1182.6 secs

     total energy              =   -1422.57668465 Ry
     Harris-Foulkes estimate   =   -1422.58177980 Ry
     estimated scf accuracy    <       0.00930104 Ry

     iteration #  9     ecut=   100.00 Ry     beta=0.50
     Davidson diagonalization with overlap
     ethr =  2.91E-06,  avg # of iterations =  6.2

     total cpu time spent up to now is     1339.6 secs

     total energy              =   -1422.58046303 Ry
     Harris-Foulkes estimate   =   -1422.58069255 Ry
     estimated scf accuracy    <       0.00112230 Ry

     iteration # 10     ecut=   100.00 Ry     beta=0.50
     Davidson diagonalization with overlap
     ethr =  3.51E-07,  avg # of iterations =  1.9

     total cpu time spent up to now is     1423.4 secs

     total energy              =   -1422.58012217 Ry
     Harris-Foulkes estimate   =   -1422.58050041 Ry
     estimated scf accuracy    <       0.00066979 Ry

     iteration # 11     ecut=   100.00 Ry     beta=0.50
     Davidson diagonalization with overlap
     ethr =  2.09E-07,  avg # of iterations =  4.0

     total cpu time spent up to now is     1553.3 secs

     total energy              =   -1422.58039830 Ry
     Harris-Foulkes estimate   =   -1422.58040550 Ry
     estimated scf accuracy    <       0.00007814 Ry

     iteration # 12     ecut=   100.00 Ry     beta=0.50
     Davidson diagonalization with overlap
     ethr =  2.44E-08,  avg # of iterations =  2.0

     total cpu time spent up to now is     1640.7 secs

     total energy              =   -1422.58036652 Ry
     Harris-Foulkes estimate   =   -1422.58040304 Ry
     estimated scf accuracy    <       0.00006751 Ry

     iteration # 13     ecut=   100.00 Ry     beta=0.50
     Davidson diagonalization with overlap
     ethr =  2.11E-08,  avg # of iterations =  4.0

     total cpu time spent up to now is     1750.5 secs

     total energy              =   -1422.58038412 Ry
     Harris-Foulkes estimate   =   -1422.58038493 Ry
     estimated scf accuracy    <       0.00000222 Ry

     iteration # 14     ecut=   100.00 Ry     beta=0.50
     Davidson diagonalization with overlap
     ethr =  6.92E-10,  avg # of iterations =  4.0

     total cpu time spent up to now is     1907.9 secs

     total energy              =   -1422.58038507 Ry
     Harris-Foulkes estimate   =   -1422.58038531 Ry
     estimated scf accuracy    <       0.00000058 Ry

     iteration # 15     ecut=   100.00 Ry     beta=0.50
     Davidson diagonalization with overlap
     ethr =  1.81E-10,  avg # of iterations =  1.9

     total cpu time spent up to now is     1990.7 secs

     total energy              =   -1422.58038504 Ry
     Harris-Foulkes estimate   =   -1422.58038511 Ry
     estimated scf accuracy    <       0.00000013 Ry

     iteration # 16     ecut=   100.00 Ry     beta=0.50
     Davidson diagonalization with overlap
     ethr =  4.14E-11,  avg # of iterations =  4.0

     total cpu time spent up to now is     2165.6 secs

     total energy              =   -1422.58038515 Ry
     Harris-Foulkes estimate   =   -1422.58038523 Ry
     estimated scf accuracy    <       0.00000020 Ry

     iteration # 17     ecut=   100.00 Ry     beta=0.50
     Davidson diagonalization with overlap
     ethr =  4.14E-11,  avg # of iterations =  1.8

     total cpu time spent up to now is     2247.4 secs

     total energy              =   -1422.58038512 Ry
     Harris-Foulkes estimate   =   -1422.58038516 Ry
     estimated scf accuracy    <       0.00000006 Ry

     iteration # 18     ecut=   100.00 Ry     beta=0.50
     Davidson diagonalization with overlap
     ethr =  1.94E-11,  avg # of iterations =  4.0

     total cpu time spent up to now is     2417.1 secs

     total energy              =   -1422.58038517 Ry
     Harris-Foulkes estimate   =   -1422.58038520 Ry
     estimated scf accuracy    <       0.00000009 Ry

     iteration # 19     ecut=   100.00 Ry     beta=0.50
     Davidson diagonalization with overlap
     ethr =  1.94E-11,  avg # of iterations =  1.0

     total cpu time spent up to now is     2497.9 secs

     total energy              =   -1422.58038515 Ry
     Harris-Foulkes estimate   =   -1422.58038518 Ry
     estimated scf accuracy    <       0.00000005 Ry

     iteration # 20     ecut=   100.00 Ry     beta=0.50
     Davidson diagonalization with overlap
     ethr =  1.55E-11,  avg # of iterations =  4.0

     total cpu time spent up to now is     2631.3 secs

     End of self-consistent calculation

          k = 0.0000 0.0000 0.0000 (108467 PWs)   bands (ev):

   -18.9988 -18.9424 -18.8900 -18.8638 -18.0544 -18.0526 -18.0466 -18.0249
   -17.0408 -16.9811 -16.8904 -16.8874 -15.6413 -15.5669 -15.5387 -15.5293
   -14.7755 -14.7255 -14.6783 -14.5995 -13.0127 -12.9628 -12.8874 -12.8627
   -12.5669 -12.5470 -12.5438 -12.4861 -11.6580 -11.6524 -11.6351 -11.6002
   -11.0347 -11.0081 -10.9679 -10.9560  -9.7750  -9.7415  -9.6858  -9.6473
    -8.9173  -8.8964  -8.8172  -8.7539  -7.7936  -7.7684  -7.7502  -7.6742
    -7.5144  -7.4792  -7.4326  -7.4277  -7.3254  -7.2952  -7.2437  -7.2234
    -6.7432  -6.7216  -6.7135  -6.6468  -6.4982  -6.4910  -6.3901  -6.3799
    -5.8414  -5.8189  -5.7360  -5.6937  -5.3772  -5.3083  -5.2645  -5.1080
    -4.9507  -4.8239  -4.7066  -4.6327  -4.6274  -4.5745  -4.5543  -4.4466
    -4.3981  -4.3141  -4.3132  -4.2312  -4.1459  -4.1214  -3.9707  -3.9186
    -3.8163  -3.8128  -3.7252  -3.6897  -3.5507  -3.5487  -3.4684  -3.4124
    -3.4009  -3.2410  -3.1522  -3.1402  -3.0199  -2.9860  -2.9673  -2.8702
    -2.7803  -2.6973  -2.6613  -2.6550  -2.6273  -2.5986  -2.5502  -2.5358
    -2.4220  -2.3503  -2.3069  -2.3020  -2.2885  -2.2636  -2.2521  -2.1566
    -2.0460  -1.9053  -1.7747  -1.5575  -1.5055  -1.4889  -1.4625  -1.4405
    -1.4015  -1.3821  -1.2732  -1.2407  -1.2052  -1.0851  -0.9770  -0.9032
     0.0042   0.2267   0.3465   0.3856   0.5302   0.5355   0.7103   0.7694
     0.8131   0.8634   0.8733   0.9137   0.9924   1.0154   1.1098   1.1186
     1.1659   1.2089   1.2711   1.3400   1.5655   1.5695   1.6328   1.6736
     5.1323   5.1590   5.3481   5.3913   6.5424   6.7683   6.9129   6.9861
     6.9967   7.3438   7.3996   7.6322   7.7139   7.7723   8.0461   8.1236
     8.1400   8.1864   8.3316   8.3520   8.4134   8.4147   8.5622   8.6505
     8.7492   8.8428   8.9332   8.9737   9.0482   9.0826   9.1001   9.1376

          k = 0.0000 0.0000-0.3662 (108464 PWs)   bands (ev):

   -18.9984 -18.9425 -18.8904 -18.8637 -18.0573 -18.0529 -18.0445 -18.0240
   -17.0408 -16.9808 -16.8900 -16.8877 -15.6160 -15.5764 -15.5636 -15.5233
   -14.7612 -14.7383 -14.6750 -14.6019 -12.9833 -12.9633 -12.9158 -12.8643
   -12.5653 -12.5644 -12.5234 -12.4907 -11.6589 -11.6470 -11.6414 -11.5983
   -11.0238 -10.9967 -10.9867 -10.9577  -9.7862  -9.7503  -9.6631  -9.6431
    -8.9192  -8.8869  -8.8307  -8.7544  -7.8044  -7.7851  -7.7487  -7.6505
    -7.5274  -7.4790  -7.4197  -7.4159  -7.3347  -7.3060  -7.2370  -7.2254
    -6.7498  -6.7437  -6.7113  -6.6690  -6.4918  -6.4469  -6.4240  -6.3273
    -5.8698  -5.8024  -5.7010  -5.6974  -5.3781  -5.3347  -5.2617  -5.1033
    -4.9011  -4.7880  -4.7803  -4.7126  -4.6030  -4.5607  -4.5050  -4.4874
    -4.4212  -4.3654  -4.2543  -4.2061  -4.2031  -4.0583  -4.0143  -3.8958
    -3.8089  -3.7586  -3.7237  -3.6464  -3.6359  -3.5888  -3.4628  -3.4366
    -3.3402  -3.2331  -3.2255  -3.1133  -3.0776  -3.0016  -2.9220  -2.9191
    -2.7672  -2.6831  -2.6405  -2.6385  -2.5722  -2.5676  -2.5496  -2.5251
    -2.4707  -2.3478  -2.3257  -2.2869  -2.2843  -2.2578  -2.2539  -2.1629
    -2.0613  -1.8696  -1.7881  -1.5654  -1.5416  -1.5000  -1.4331  -1.4236
    -1.3798  -1.3750  -1.2863  -1.2294  -1.2065  -1.1227  -0.9727  -0.9009
     0.0236   0.2196   0.3597   0.3707   0.5049   0.5205   0.7195   0.7860
     0.7970   0.8668   0.9006   0.9156   0.9536   1.0274   1.0940   1.1378
     1.1894   1.1986   1.2971   1.3238   1.5577   1.5694   1.6321   1.6625
     5.1558   5.2182   5.2644   5.3968   6.6194   6.8211   6.8962   6.9378
     7.0567   7.1360   7.4778   7.6612   7.6661   7.8297   7.8559   7.9252
     8.1773   8.2700   8.4012   8.4079   8.4544   8.5751   8.6077   8.7398
     8.7807   8.8073   8.9103   8.9166   9.0343   9.0544   9.1208   9.2212

          k = 0.0000-0.3696 0.0077 (108470 PWs)   bands (ev):

   -18.9987 -18.9424 -18.8895 -18.8644 -18.0542 -18.0536 -18.0458 -18.0249
   -17.0407 -16.9814 -16.9061 -16.8716 -15.6388 -15.5692 -15.5394 -15.5288
   -14.7755 -14.7256 -14.6822 -14.5955 -12.9738 -12.9574 -12.9222 -12.8591
   -12.5609 -12.5554 -12.5374 -12.5035 -11.6722 -11.6507 -11.6398 -11.5826
   -11.0250 -11.0232 -11.0108 -10.9325  -9.7843  -9.7360  -9.6997  -9.6364
    -8.8454  -8.8452  -8.8161  -8.7817  -7.7931  -7.7685  -7.7112  -7.7050
    -7.5295  -7.5136  -7.4170  -7.4043  -7.3002  -7.2914  -7.2458  -7.2240
    -6.8243  -6.7747  -6.7222  -6.6719  -6.4545  -6.4428  -6.4239  -6.4100
    -5.8435  -5.8154  -5.7229  -5.6920  -5.3676  -5.3588  -5.2894  -5.1262
    -4.9059  -4.7850  -4.7438  -4.6756  -4.6356  -4.5784  -4.5533  -4.4361
    -4.4189  -4.3426  -4.2712  -4.2104  -4.1294  -4.0507  -4.0271  -3.9545
    -3.7931  -3.7771  -3.7225  -3.6903  -3.5810  -3.5700  -3.4815  -3.4195
    -3.3907  -3.2074  -3.0839  -3.0660  -3.0060  -2.9580  -2.8959  -2.8848
    -2.7236  -2.7157  -2.6727  -2.6488  -2.5927  -2.5781  -2.5501  -2.5146
    -2.4953  -2.3500  -2.3461  -2.3277  -2.3192  -2.2469  -2.2311  -2.1861
    -2.0510  -1.8651  -1.7937  -1.5678  -1.5254  -1.4889  -1.4562  -1.4503
    -1.4434  -1.4208  -1.2841  -1.2441  -1.2117  -1.0899  -1.0060  -0.8842
    -0.0154   0.2371   0.3553   0.4027   0.5300   0.5551   0.7116   0.7537
     0.8003   0.8689   0.8842   0.8912   1.0075   1.0197   1.1103   1.1158
     1.1663   1.1888   1.2946   1.3602   1.4613   1.5460   1.6587   1.7183
     5.0661   5.2994   5.3198   5.3522   6.6913   6.7454   6.9384   6.9726
     7.0649   7.0697   7.3905   7.5855   7.8576   7.8714   7.9507   8.1048
     8.1160   8.2466   8.3053   8.3661   8.4473   8.5321   8.5368   8.5620
     8.6292   8.7289   8.8532   8.9972   9.0343   9.1422   9.1963   9.2139

          k = 0.0000-0.3696-0.3585 (108444 PWs)   bands (ev):

   -18.9984 -18.9425 -18.8895 -18.8647 -18.0595 -18.0495 -18.0459 -18.0239
   -17.0409 -16.9810 -16.9060 -16.8715 -15.6151 -15.5770 -15.5654 -15.5212
   -14.7614 -14.7392 -14.6782 -14.5981 -12.9854 -12.9603 -12.9019 -12.8571
   -12.5873 -12.5385 -12.5328 -12.5073 -11.6787 -11.6503 -11.6296 -11.5824
   -11.0562 -11.0131 -10.9934 -10.9297  -9.7686  -9.7648  -9.6950  -9.6319
    -8.8855  -8.8448  -8.7825  -8.7748  -7.7821  -7.7767  -7.7222  -7.6821
    -7.5125  -7.4864  -7.4336  -7.4242  -7.3145  -7.2915  -7.2609  -7.2211
    -6.7935  -6.7884  -6.7199  -6.6685  -6.5115  -6.4834  -6.3997  -6.3826
    -5.8566  -5.7982  -5.7163  -5.6760  -5.3648  -5.3388  -5.2384  -5.1008
    -4.9418  -4.7768  -4.7446  -4.7210  -4.6246  -4.5791  -4.5486  -4.4972
    -4.4227  -4.4054  -4.2502  -4.1923  -4.1762  -4.0325  -4.0142  -3.9086
    -3.7848  -3.7364  -3.7342  -3.6529  -3.6316  -3.6148  -3.4402  -3.3938
    -3.3795  -3.2542  -3.1400  -3.0892  -2.9613  -2.9367  -2.9257  -2.8282
    -2.7244  -2.7022  -2.6852  -2.6386  -2.5991  -2.5809  -2.5761  -2.5197
    -2.4670  -2.3938  -2.3272  -2.2988  -2.2828  -2.2716  -2.2446  -2.1824
    -2.0569  -1.8550  -1.7659  -1.5608  -1.5594  -1.5020  -1.4515  -1.4339
    -1.4307  -1.3963  -1.3017  -1.2685  -1.2322  -1.0857  -1.0150  -0.8811
     0.0082   0.2203   0.3635   0.4079   0.5043   0.5331   0.7306   0.7756
     0.8054   0.8584   0.8693   0.9348   0.9422   1.0242   1.1094   1.1155
     1.1883   1.2677   1.2901   1.3132   1.4024   1.5833   1.6781   1.7029
     5.1371   5.2094   5.3318   5.3586   6.7151   6.8356   6.8833   6.9691
     7.0586   7.1724   7.2965   7.4405   7.7839   7.8022   8.0165   8.0667
     8.1645   8.1850   8.2982   8.3889   8.4351   8.6128   8.6297   8.6636
     8.7627   8.8350   8.8771   9.0343   9.0499   9.1224   9.1603   9.1892

          k = 0.3333-0.0150-0.1149 (108477 PWs)   bands (ev):

   -18.9869 -18.9543 -18.8844 -18.8613 -18.0623 -18.0542 -18.0470 -18.0310
   -17.0266 -16.9960 -16.8886 -16.8860 -15.6345 -15.5778 -15.5483 -15.5222
   -14.7762 -14.7223 -14.6717 -14.5950 -12.9930 -12.9647 -12.8832 -12.8480
   -12.5943 -12.5454 -12.5363 -12.4964 -11.6778 -11.6327 -11.6223 -11.5908
   -11.0143 -11.0084 -10.9522 -10.9341  -9.8497  -9.7567  -9.7086  -9.6808
    -8.9213  -8.8952  -8.8304  -8.7435  -7.8032  -7.7661  -7.7438  -7.6784
    -7.5243  -7.4911  -7.4386  -7.4173  -7.3323  -7.3109  -7.2904  -7.2528
    -6.7488  -6.7353  -6.7297  -6.6748  -6.4919  -6.4703  -6.3918  -6.3810
    -5.8634  -5.8149  -5.7303  -5.6950  -5.2658  -5.1430  -5.1105  -5.0330
    -4.8531  -4.7702  -4.7100  -4.6684  -4.6299  -4.5727  -4.4971  -4.4272
    -4.4104  -4.3452  -4.2975  -4.2516  -4.2289  -4.0272  -4.0086  -3.9608
    -3.8130  -3.7658  -3.7352  -3.7119  -3.6369  -3.5877  -3.5385  -3.5148
    -3.2725  -3.2047  -3.1978  -3.0876  -3.0694  -3.0416  -2.9452  -2.9272
    -2.8174  -2.7534  -2.6905  -2.6433  -2.6151  -2.5693  -2.5395  -2.4821
    -2.4369  -2.3902  -2.3397  -2.3186  -2.2873  -2.2488  -2.2213  -2.1671
    -1.9831  -1.9141  -1.7884  -1.6024  -1.5366  -1.5175  -1.4917  -1.4275
    -1.3854  -1.3551  -1.3043  -1.2133  -1.2095  -1.1157  -0.9797  -0.8922
     0.0096   0.1949   0.2736   0.3408   0.5289   0.5805   0.7416   0.7830
     0.8407   0.8606   0.9015   0.9411   0.9798   1.0176   1.0827   1.0939
     1.1493   1.1919   1.2879   1.3379   1.5325   1.5801   1.6378   1.6702
     5.0941   5.1649   5.2943   5.3845   6.7696   6.8204   6.9341   7.0490
     7.0702   7.2503   7.6366   7.6984   7.8003   7.8716   7.9733   8.0381
     8.1805   8.3012   8.3219   8.3362   8.4365   8.4880   8.5962   8.6663
     8.6839   8.7630   8.8546   8.9485   9.0282   9.0630   9.1005   9.2404

          k = 0.3333-0.0150-0.4810 (108477 PWs)   bands (ev):

   -18.9868 -18.9543 -18.8846 -18.8612 -18.0627 -18.0542 -18.0471 -18.0305
   -17.0267 -16.9958 -16.8886 -16.8859 -15.6254 -15.5747 -15.5595 -15.5253
   -14.7614 -14.7346 -14.6718 -14.5956 -12.9880 -12.9654 -12.8860 -12.8477
   -12.5905 -12.5426 -12.5353 -12.5055 -11.6610 -11.6506 -11.6254 -11.5902
   -11.0322 -11.0013 -10.9448 -10.9297  -9.7930  -9.7632  -9.7306  -9.7058
    -8.9173  -8.9019  -8.8179  -8.7572  -7.8101  -7.7720  -7.7332  -7.6643
    -7.5171  -7.4999  -7.4552  -7.4223  -7.3278  -7.3017  -7.2875  -7.2557
    -6.7502  -6.7453  -6.7276  -6.6912  -6.4928  -6.4576  -6.3886  -6.3501
    -5.8413  -5.8291  -5.7346  -5.7161  -5.2706  -5.1678  -5.1309  -5.0498
    -4.8196  -4.7538  -4.6765  -4.6380  -4.6327  -4.5469  -4.5196  -4.4567
    -4.4076  -4.3622  -4.2889  -4.2198  -4.1788  -4.0744  -4.0056  -3.9665
    -3.8691  -3.7990  -3.7862  -3.7171  -3.5907  -3.5727  -3.5156  -3.4820
    -3.3177  -3.2113  -3.1729  -3.1622  -3.0881  -2.9839  -2.9488  -2.8957
    -2.7989  -2.7585  -2.6690  -2.6241  -2.6080  -2.5782  -2.5492  -2.5310
    -2.4464  -2.3860  -2.3420  -2.3105  -2.2964  -2.2389  -2.2044  -2.1695
    -1.9736  -1.8755  -1.7749  -1.6207  -1.5745  -1.5519  -1.4661  -1.4117
    -1.3923  -1.3340  -1.2935  -1.2449  -1.1990  -1.1420  -0.9667  -0.8969
     0.0208   0.1819   0.2510   0.3452   0.5835   0.6311   0.6721   0.8014
     0.8396   0.8630   0.9082   0.9392   0.9518   1.0335   1.0638   1.1016
     1.1713   1.2212   1.2489   1.3268   1.5234   1.5862   1.6279   1.6741
     5.0988   5.1819   5.2117   5.4449   6.7879   6.8392   6.9341   7.0476
     7.0754   7.2989   7.5757   7.6891   7.8081   7.8340   7.9160   8.0576
     8.1831   8.2534   8.3100   8.4303   8.4838   8.5119   8.6192   8.6782
     8.7398   8.7551   8.8320   8.8875   8.9214   9.0526   9.0632   9.1496

          k = 0.3333-0.3847-0.1072 (108475 PWs)   bands (ev):

   -18.9868 -18.9543 -18.8838 -18.8620 -18.0619 -18.0542 -18.0473 -18.0310
   -17.0267 -16.9962 -16.9043 -16.8700 -15.6338 -15.5758 -15.5479 -15.5250
   -14.7763 -14.7222 -14.6750 -14.5917 -12.9748 -12.9570 -12.8970 -12.8410
   -12.5874 -12.5749 -12.5268 -12.5008 -11.6641 -11.6575 -11.6320 -11.5724
   -11.0367 -11.0229 -10.9704 -10.9036  -9.8082  -9.7780  -9.7464  -9.6703
    -8.8528  -8.8494  -8.8090  -8.7878  -7.7991  -7.7608  -7.7073  -7.6934
    -7.5233  -7.5044  -7.4379  -7.4233  -7.3232  -7.2987  -7.2967  -7.2533
    -6.8168  -6.8114  -6.7308  -6.6685  -6.4639  -6.4615  -6.4222  -6.4060
    -5.8531  -5.8092  -5.7192  -5.7025  -5.2793  -5.1261  -5.1125  -5.0570
    -4.8689  -4.7500  -4.7268  -4.6609  -4.6424  -4.5446  -4.5244  -4.4498
    -4.3900  -4.3562  -4.2803  -4.2561  -4.2041  -4.0622  -3.9930  -3.9740
    -3.8208  -3.7688  -3.7423  -3.6935  -3.6278  -3.5819  -3.5555  -3.5149
    -3.2580  -3.2367  -3.1364  -3.0856  -2.9946  -2.9321  -2.9091  -2.8659
    -2.7949  -2.7556  -2.7089  -2.6681  -2.6204  -2.5494  -2.5304  -2.5148
    -2.4579  -2.3807  -2.3558  -2.3376  -2.3122  -2.2511  -2.2106  -2.1785
    -1.9819  -1.8712  -1.8112  -1.6140  -1.5393  -1.5083  -1.5022  -1.4350
    -1.4219  -1.3844  -1.3266  -1.2689  -1.1919  -1.1222  -1.0123  -0.8596
     0.0034   0.2094   0.3086   0.3187   0.5238   0.5584   0.7310   0.8083
     0.8339   0.8489   0.9167   0.9244   0.9649   1.0273   1.0826   1.0948
     1.1788   1.2253   1.2810   1.3252   1.4416   1.5689   1.6474   1.7197
     5.0932   5.1736   5.3184   5.3509   6.8087   6.9048   6.9753   7.0731
     7.1333   7.2160   7.5308   7.6096   7.7615   7.8412   7.9298   8.0490
     8.1419   8.1886   8.2942   8.3689   8.4461   8.5347   8.6498   8.6836
     8.7092   8.8234   8.8967   8.9118   9.0088   9.1454   9.1675   9.1824

          k = 0.3333-0.3847-0.4733 (108523 PWs)   bands (ev):

   -18.9867 -18.9543 -18.8837 -18.8621 -18.0625 -18.0545 -18.0469 -18.0307
   -17.0268 -16.9960 -16.9045 -16.8699 -15.6267 -15.5735 -15.5579 -15.5260
   -14.7618 -14.7347 -14.6749 -14.5924 -12.9837 -12.9530 -12.8931 -12.8402
   -12.5780 -12.5543 -12.5401 -12.5178 -11.6785 -11.6402 -11.6324 -11.5743
   -11.0317 -11.0169 -10.9804 -10.9063  -9.8051  -9.7835  -9.7302  -9.6823
    -8.8723  -8.8468  -8.8127  -8.7672  -7.7919  -7.7694  -7.7124  -7.6949
    -7.5409  -7.5088  -7.4318  -7.3929  -7.3319  -7.2973  -7.2936  -7.2489
    -6.8366  -6.7838  -6.7102  -6.6653  -6.5326  -6.4731  -6.3911  -6.3805
    -5.8447  -5.8221  -5.7381  -5.6992  -5.2927  -5.1454  -5.1030  -5.0805
    -4.8074  -4.7565  -4.7136  -4.6824  -4.6608  -4.5738  -4.5025  -4.4195
    -4.4089  -4.3624  -4.2842  -4.2084  -4.1559  -4.0421  -4.0288  -3.9939
    -3.8511  -3.7998  -3.7405  -3.7239  -3.6158  -3.5740  -3.5194  -3.4798
    -3.2896  -3.2283  -3.1360  -3.0806  -2.9950  -2.9409  -2.9078  -2.8688
    -2.8071  -2.7622  -2.7179  -2.6872  -2.6231  -2.5648  -2.5292  -2.4811
    -2.4306  -2.3802  -2.3724  -2.3295  -2.3066  -2.2316  -2.2072  -2.1843
    -1.9659  -1.8589  -1.7813  -1.6353  -1.5746  -1.5648  -1.4935  -1.4467
    -1.3991  -1.3724  -1.3089  -1.2723  -1.2240  -1.1155  -1.0067  -0.8641
     0.0138   0.1788   0.2903   0.3454   0.5690   0.6038   0.7030   0.7844
     0.8291   0.8420   0.9065   0.9420   0.9842   1.0324   1.0745   1.0846
     1.1740   1.2199   1.2955   1.3176   1.4645   1.5436   1.6517   1.7135
     5.0830   5.1636   5.3308   5.3591   6.8484   6.8783   7.0000   7.0742
     7.1276   7.2055   7.4505   7.6814   7.7742   7.8294   7.9495   7.9897
     8.0738   8.2255   8.2786   8.4088   8.4422   8.5075   8.5851   8.6632
     8.7667   8.8010   8.8977   8.9947   9.0224   9.1037   9.1756   9.2218

     highest occupied, lowest unoccupied level (ev):     1.7197    5.0661

!    total energy              =   -1422.58038517 Ry
     Harris-Foulkes estimate   =   -1422.58038517 Ry
     estimated scf accuracy    <          3.5E-09 Ry

     total all-electron energy =     -5469.312587 Ry

     The total energy is the sum of the following terms:

     one-electron contribution =    -783.92188551 Ry
     hartree contribution      =     518.41366715 Ry
     xc contribution           =    -323.37748746 Ry
     ewald contribution        =    -396.59301313 Ry
     Dispersion Correction     =      -0.60853157 Ry
     one-center paw contrib.   =    -436.49313464 Ry

     convergence has been achieved in  20 iterations

     Forces acting on atoms (cartesian axes, Ry/au):

     atom    1 type  4   force =     0.00028636   -0.00215377    0.00090261
     atom    2 type  4   force =    -0.00028636    0.00215377   -0.00090261
     atom    3 type  2   force =    -0.00090075   -0.00086858   -0.00043964
     atom    4 type  2   force =     0.00090075    0.00086858    0.00043964
     atom    5 type  2   force =     0.00098245    0.00130056   -0.00067314
     atom    6 type  2   force =    -0.00098245   -0.00130056    0.00067314
     atom    7 type  2   force =     0.00002706   -0.00044058    0.00011244
     atom    8 type  2   force =    -0.00002706    0.00044058   -0.00011244
     atom    9 type  3   force =     0.00004306   -0.00030755    0.00011366
     atom   10 type  3   force =    -0.00004306    0.00030755   -0.00011366
     atom   11 type  3   force =    -0.00037389    0.00003466    0.00025052
     atom   12 type  3   force =     0.00037389   -0.00003466   -0.00025052
     atom   13 type  2   force =    -0.00053082    0.00293492   -0.00190040
     atom   14 type  2   force =     0.00053082   -0.00293492    0.00190040
     atom   15 type  3   force =     0.00045042    0.00042011    0.00011602
     atom   16 type  3   force =    -0.00045042   -0.00042011   -0.00011602
     atom   17 type  3   force =    -0.00225293   -0.00135827   -0.00016168
     atom   18 type  3   force =     0.00225293    0.00135827    0.00016168
     atom   19 type  1   force =     0.00261006    0.00161850    0.00043147
     atom   20 type  1   force =    -0.00261006   -0.00161850   -0.00043147
     atom   21 type  3   force =    -0.00095020    0.00106747   -0.00053027
     atom   22 type  3   force =     0.00095020   -0.00106747    0.00053027
     atom   23 type  1   force =     0.00022421    0.00015421   -0.00113713
     atom   24 type  1   force =    -0.00022421   -0.00015421    0.00113713
     atom   25 type  3   force =    -0.00022102   -0.00043292    0.00000665
     atom   26 type  3   force =     0.00022102    0.00043292   -0.00000665
     atom   27 type  1   force =    -0.00010344    0.00058856    0.00052012
     atom   28 type  1   force =     0.00010344   -0.00058856   -0.00052012
     atom   29 type  3   force =     0.00039609   -0.00030606   -0.00044464
     atom   30 type  3   force =    -0.00039609    0.00030606    0.00044464
     atom   31 type  1   force =     0.00002577   -0.00065566   -0.00031131
     atom   32 type  1   force =    -0.00002577    0.00065566    0.00031131
     atom   33 type  1   force =    -0.00060488    0.00197493   -0.00026015
     atom   34 type  1   force =     0.00060488   -0.00197493    0.00026015
     atom   35 type  1   force =    -0.00111697   -0.00174921    0.00131510
     atom   36 type  1   force =     0.00111697    0.00174921   -0.00131510
     atom   37 type  3   force =    -0.00067053   -0.00017468   -0.00000883
     atom   38 type  3   force =     0.00067053    0.00017468    0.00000883
     atom   39 type  3   force =     0.00023718   -0.00104300    0.00253558
     atom   40 type  3   force =    -0.00023718    0.00104300   -0.00253558
     atom   41 type  1   force =    -0.00162098    0.00002560   -0.00063736
     atom   42 type  1   force =     0.00162098   -0.00002560    0.00063736
     atom   43 type  3   force =    -0.00013786   -0.00015518   -0.00056318
     atom   44 type  3   force =     0.00013786    0.00015518    0.00056318
     atom   45 type  3   force =    -0.00002635   -0.00002583   -0.00034817
     atom   46 type  3   force =     0.00002635    0.00002583    0.00034817
     atom   47 type  1   force =     0.00200198    0.00084076   -0.00062702
     atom   48 type  1   force =    -0.00200198   -0.00084076    0.00062702
     atom   49 type  3   force =    -0.00045328    0.00076908   -0.00048349
     atom   50 type  3   force =     0.00045328   -0.00076908    0.00048349
     atom   51 type  3   force =    -0.00040343   -0.00010707    0.00013123
     atom   52 type  3   force =     0.00040343    0.00010707   -0.00013123
     atom   53 type  1   force =    -0.00096964   -0.00020469    0.00023599
     atom   54 type  1   force =     0.00096964    0.00020469   -0.00023599
     atom   55 type  1   force =     0.00290557    0.00022424   -0.00134309
     atom   56 type  1   force =    -0.00290557   -0.00022424    0.00134309
     atom   57 type  3   force =     0.00062578   -0.00041026   -0.00002941
     atom   58 type  3   force =    -0.00062578    0.00041026    0.00002941
     atom   59 type  4   force =     0.00015123   -0.00133691   -0.00105596
     atom   60 type  4   force =    -0.00015123    0.00133691    0.00105596
     atom   61 type  2   force =    -0.00075452    0.00047469    0.00025643
     atom   62 type  2   force =     0.00075452   -0.00047469   -0.00025643
     atom   63 type  2   force =     0.00012745   -0.00000145    0.00022441
     atom   64 type  2   force =    -0.00012745    0.00000145   -0.00022441
     atom   65 type  2   force =    -0.00007313   -0.00082012   -0.00060942
     atom   66 type  2   force =     0.00007313    0.00082012    0.00060942
     atom   67 type  3   force =    -0.00036953   -0.00061706   -0.00054598
     atom   68 type  3   force =     0.00036953    0.00061706    0.00054598
     atom   69 type  3   force =     0.00007738   -0.00036299   -0.00024735
     atom   70 type  3   force =    -0.00007738    0.00036299    0.00024735
     atom   71 type  2   force =    -0.00021045   -0.00027790    0.00089444
     atom   72 type  2   force =     0.00021045    0.00027790   -0.00089444
     atom   73 type  3   force =    -0.00050445    0.00091430    0.00007039
     atom   74 type  3   force =     0.00050445   -0.00091430   -0.00007039
     atom   75 type  3   force =    -0.00046207   -0.00082291    0.00005131
     atom   76 type  3   force =     0.00046207    0.00082291   -0.00005131
     atom   77 type  1   force =    -0.00034009    0.00040363    0.00002143
     atom   78 type  1   force =     0.00034009   -0.00040363   -0.00002143
     atom   79 type  3   force =     0.00019665   -0.00040848   -0.00043605
     atom   80 type  3   force =    -0.00019665    0.00040848    0.00043605
     atom   81 type  1   force =     0.00034394    0.00120798    0.00057845
     atom   82 type  1   force =    -0.00034394   -0.00120798   -0.00057845
     atom   83 type  3   force =     0.00004931   -0.00131981   -0.00031776
     atom   84 type  3   force =    -0.00004931    0.00131981    0.00031776
     atom   85 type  1   force =    -0.00115323   -0.00112382   -0.00054998
     atom   86 type  1   force =     0.00115323    0.00112382    0.00054998
     atom   87 type  3   force =     0.00037726    0.00027953    0.00012135
     atom   88 type  3   force =    -0.00037726   -0.00027953   -0.00012135
     atom   89 type  1   force =     0.00082055    0.00059485    0.00112271
     atom   90 type  1   force =    -0.00082055   -0.00059485   -0.00112271
     atom   91 type  1   force =     0.00043954    0.00019170    0.00021807
     atom   92 type  1   force =    -0.00043954   -0.00019170   -0.00021807
     atom   93 type  1   force =     0.00048463   -0.00046216    0.00080299
     atom   94 type  1   force =    -0.00048463    0.00046216   -0.00080299
     atom   95 type  3   force =    -0.00097642   -0.00073080   -0.00077022
     atom   96 type  3   force =     0.00097642    0.00073080    0.00077022
     atom   97 type  3   force =     0.00059059   -0.00042288   -0.00009484
     atom   98 type  3   force =    -0.00059059    0.00042288    0.00009484
     atom   99 type  1   force =    -0.00027955    0.00029152    0.00000331
     atom  100 type  1   force =     0.00027955   -0.00029152   -0.00000331
     atom  101 type  3   force =     0.00083087    0.00048751   -0.00000177
     atom  102 type  3   force =    -0.00083087   -0.00048751    0.00000177
     atom  103 type  3   force =     0.00032345    0.00021194   -0.00014511
     atom  104 type  3   force =    -0.00032345   -0.00021194    0.00014511
     atom  105 type  1   force =    -0.00104196   -0.00035449    0.00048550
     atom  106 type  1   force =     0.00104196    0.00035449   -0.00048550
     atom  107 type  3   force =    -0.00053249   -0.00035135    0.00022191
     atom  108 type  3   force =     0.00053249    0.00035135   -0.00022191
     atom  109 type  3   force =     0.00020797   -0.00035481    0.00005274
     atom  110 type  3   force =    -0.00020797    0.00035481   -0.00005274
     atom  111 type  1   force =     0.00029787    0.00007421    0.00020858
     atom  112 type  1   force =    -0.00029787   -0.00007421   -0.00020858
     atom  113 type  1   force =    -0.00059607    0.00126741    0.00027508
     atom  114 type  1   force =     0.00059607   -0.00126741   -0.00027508
     atom  115 type  3   force =     0.00013024    0.00020195   -0.00085311
     atom  116 type  3   force =    -0.00013024   -0.00020195    0.00085311

     Total force =     0.015169     Total SCF correction =     0.000140


     Computing stress (Cartesian axis) and pressure

          total   stress  (Ry/bohr**3)                   (kbar)     P=   -8.68
  -0.00006731  -0.00000537   0.00001174         -9.90     -0.79      1.73
  -0.00000537  -0.00005392   0.00000608         -0.79     -7.93      0.89
   0.00001174   0.00000608  -0.00005588          1.73      0.89     -8.22


     Writing output data file scf.save
 
     init_run     :     62.16s CPU     64.05s WALL (       1 calls)
     electrons    :   2476.97s CPU   2566.70s WALL (       1 calls)
     forces       :     28.45s CPU     28.71s WALL (       1 calls)
     stress       :    120.00s CPU    120.53s WALL (       1 calls)

     Called by init_run:
     wfcinit      :     50.47s CPU     52.18s WALL (       1 calls)
     potinit      :      4.03s CPU      4.06s WALL (       1 calls)

     Called by electrons:
     c_bands      :   2239.81s CPU   2315.63s WALL (      20 calls)
     sum_band     :    219.95s CPU    232.01s WALL (      20 calls)
     v_of_rho     :      2.75s CPU      3.03s WALL (      21 calls)
     newd         :      6.84s CPU      8.42s WALL (      21 calls)
     PAW_pot      :      6.53s CPU      6.54s WALL (      21 calls)
     mix_rho      :      0.69s CPU      0.74s WALL (      20 calls)

     Called by c_bands:
     init_us_2    :     10.77s CPU     10.83s WALL (     344 calls)
     cegterg      :   2196.70s CPU   2272.42s WALL (     160 calls)

     Called by sum_band:
     sum_band:bec :      0.12s CPU      0.12s WALL (     160 calls)
     addusdens    :      6.86s CPU      8.36s WALL (      20 calls)

     Called by *egterg:
     h_psi        :   1188.76s CPU   1248.47s WALL (     729 calls)
     s_psi        :    265.20s CPU    265.24s WALL (     729 calls)
     g_psi        :      5.21s CPU      5.21s WALL (     561 calls)
     cdiaghg      :    117.69s CPU    117.70s WALL (     721 calls)

     Called by h_psi:
     h_psi:pot    :   1181.32s CPU   1240.90s WALL (     729 calls)
     h_psi:calbec :    258.91s CPU    259.32s WALL (     729 calls)
     vloc_psi     :    656.77s CPU    715.90s WALL (     729 calls)
     add_vuspsi   :    265.64s CPU    265.68s WALL (     729 calls)

     General routines
     calbec       :    369.75s CPU    370.35s WALL (     929 calls)
     fft          :      2.26s CPU      2.72s WALL (     297 calls)
     fftw         :    697.87s CPU    765.92s WALL (  212254 calls)
 
     Parallel routines
     fft_scatter  :    133.52s CPU    195.20s WALL (  212551 calls)
 
     PWSCF        : 44m59.37s CPU    47m23.43s WALL

 
   This run was terminated on:   7:59:47  19Dec2017            

=------------------------------------------------------------------------------=
   JOB DONE.
=------------------------------------------------------------------------------=
