
     Program PWSCF v.6.1 (svn rev. 13369) starts on 12Nov2017 at 10: 5: 3 

     This program is part of the open-source Quantum ESPRESSO suite
     for quantum simulation of materials; please cite
         "P. Giannozzi et al., J. Phys.:Condens. Matter 21 395502 (2009);
          URL http://www.quantum-espresso.org", 
     in publications or presentations arising from this work. More details at
     http://www.quantum-espresso.org/quote

     Parallel version (MPI), running on     8 processors
     R & G space division:  proc/nbgrp/npool/nimage =       8
     Waiting for input...
     Reading input from standard input

     Current dimensions of program PWSCF are:
     Max number of different atomic species (ntypx) = 10
     Max number of k-points (npk) =  40000
     Max angular momentum in pseudopotentials (lmaxx) =  3
               file C.pbe-n-kjpaw_psl.0.1.UPF: wavefunction(s)  2P renormalized
               file N.pbe-n-kjpaw_psl.0.1.UPF: wavefunction(s)  2P renormalized
               file H.pbe-kjpaw_psl.0.1.UPF: wavefunction(s)  1S renormalized
               file O.pbe-n-kjpaw_psl.0.1.UPF: wavefunction(s)  2P renormalized

     -------------------------------------
     Parameters for Dispersion Correction:
     -------------------------------------
       atom      VdW radius       C_6     

        C          2.744         60.710
        N          2.640         42.670
        H          1.892          4.857
        O          2.536         24.284

     Subspace diagonalization in iterative solution of the eigenvalue problem:
     a serial algorithm will be used

 
     Parallelization info
     --------------------
     sticks:   dense  smooth     PW     G-vecs:    dense   smooth      PW
     Min        1003    1003    265                80563    80563   10947
     Max        1004    1004    266                80565    80565   10950
     Sum        8029    8029   2121               644511   644511   87583
 


     bravais-lattice index     =            0
     lattice parameter (alat)  =      13.8390  a.u.
     unit-cell volume          =    4771.1912 (a.u.)^3
     number of atoms/cell      =           68
     number of atomic types    =            4
     number of electrons       =       244.00
     number of Kohn-Sham states=          146
     kinetic-energy cutoff     =     100.0000  Ry
     charge density cutoff     =     400.0000  Ry
     convergence threshold     =      1.0E-08
     mixing beta               =       0.5000
     number of iterations used =            8  plain     mixing
     Exchange-correlation      =  SLA  PW   PBX  PBC ( 1  4  3  4 0 0)

     celldm(1)=  13.839031  celldm(2)=   0.000000  celldm(3)=   0.000000
     celldm(4)=   0.000000  celldm(5)=   0.000000  celldm(6)=   0.000000

     crystal axes: (cart. coord. in units of alat)
               a(1) = (   1.000000   0.000000   0.000000 )  
               a(2) = (   0.096745   1.316155   0.000000 )  
               a(3) = (   0.224722   0.263395   1.367738 )  

     reciprocal axes: (cart. coord. in units 2 pi/alat)
               b(1) = (  1.000000 -0.073506 -0.150147 )  
               b(2) = (  0.000000  0.759789 -0.146318 )  
               b(3) = (  0.000000  0.000000  0.731134 )  


     PseudoPot. # 1 for  C read from file:
     /scratch/ahofstet/pseudo/C.pbe-n-kjpaw_psl.0.1.UPF
     MD5 check sum: 430fe95172b1e11ef3f8ed03bac87931
     Pseudo is Projector augmented-wave + core cor, Zval =  4.0
     Generated using "atomic" code by A. Dal Corso  v.5.0.99 svn rev. 10869
     Shape of augmentation charge: BESSEL
     Using radial grid of 1073 points,  4 beta functions with: 
                l(1) =   0
                l(2) =   0
                l(3) =   1
                l(4) =   1
     Q(r) pseudized with 0 coefficients 


     PseudoPot. # 2 for  N read from file:
     /scratch/ahofstet/pseudo/N.pbe-n-kjpaw_psl.0.1.UPF
     MD5 check sum: f73187c8b701007e77325f868c9291d7
     Pseudo is Projector augmented-wave + core cor, Zval =  5.0
     Generated using "atomic" code by A. Dal Corso  v.5.0.99 svn rev. 10869
     Shape of augmentation charge: PSQ
     Using radial grid of 1085 points,  4 beta functions with: 
                l(1) =   0
                l(2) =   0
                l(3) =   1
                l(4) =   1
     Q(r) pseudized with 0 coefficients 


     PseudoPot. # 3 for  H read from file:
     /scratch/ahofstet/pseudo/H.pbe-kjpaw_psl.0.1.UPF
     MD5 check sum: 94e484f906d9e9773b2f6e52662335b2
     Pseudo is Projector augmented-wave, Zval =  1.0
     Generated using "atomic" code by A. Dal Corso  v.5.0.99 svn rev. 10869
     Shape of augmentation charge: PSQ
     Using radial grid of  929 points,  2 beta functions with: 
                l(1) =   0
                l(2) =   0
     Q(r) pseudized with 0 coefficients 


     PseudoPot. # 4 for  O read from file:
     /scratch/ahofstet/pseudo/O.pbe-n-kjpaw_psl.0.1.UPF
     MD5 check sum: 3f94a2996a3169367d6eb21d9b593f20
     Pseudo is Projector augmented-wave + core cor, Zval =  6.0
     Generated using "atomic" code by A. Dal Corso  v.5.0.99 svn rev. 10869
     Shape of augmentation charge: BESSEL
     Using radial grid of 1095 points,  4 beta functions with: 
                l(1) =   0
                l(2) =   0
                l(3) =   1
                l(4) =   1
     Q(r) pseudized with 0 coefficients 


     atomic species   valence    mass     pseudopotential
        C              4.00    12.01070      C( 1.00)
        N              5.00    14.00670      N( 1.00)
        H              1.00     1.00794      H( 1.00)
        O              6.00    15.99940      O( 1.00)

      2 Sym. Ops., with inversion, found



   Cartesian axes

     site n.     atom                  positions (alat units)
         1           O   tau(   1) = (   0.5353436   0.9505068   0.6346643  )
         2           O   tau(   2) = (   0.7861235   0.6290432   0.7330733  )
         3           C   tau(   3) = (   0.4360562   0.8490458   0.7267616  )
         4           C   tau(   4) = (   0.8854109   0.7305043   0.6409760  )
         5           C   tau(   5) = (   0.3744989   0.6652960   0.6720486  )
         6           C   tau(   6) = (   0.9469682   0.9142541   0.6956890  )
         7           C   tau(   7) = (   0.2653206   0.5564176   0.7809639  )
         8           C   tau(   8) = (   1.0561466   1.0231324   0.5867737  )
         9           H   tau(   9) = (   0.2189358   0.4243658   0.7311712  )
        10           H   tau(  10) = (   1.1025314   1.1551842   0.6365663  )
        11           C   tau(  11) = (   0.2121532   0.6157819   0.9539159  )
        12           C   tau(  12) = (   1.1093139   0.9637681   0.4138217  )
        13           C   tau(  13) = (   0.2645238   0.7878644   1.0190780  )
        14           C   tau(  14) = (   1.0569434   0.7916856   0.3486596  )
        15           H   tau(  15) = (   0.2208508   0.8329156   1.1538554  )
        16           H   tau(  16) = (   1.1006164   0.7466345   0.2138821  )
        17           C   tau(  17) = (   0.3662465   0.9008717   0.9087789  )
        18           C   tau(  18) = (   0.9552207   0.6786784   0.4589587  )
        19           N   tau(  19) = (   0.4222793   0.5900289   0.4944849  )
        20           N   tau(  20) = (   0.8991878   0.9895211   0.8732527  )
        21           O   tau(  21) = (   0.5247815   0.6770884   0.3914710  )
        22           O   tau(  22) = (   0.7966857   0.9024616   0.9762666  )
        23           O   tau(  23) = (   0.3548274   0.4398346   0.4505135  )
        24           O   tau(  24) = (   0.9666398   1.1397154   0.9172241  )
        25           N   tau(  25) = (   1.0968246   0.5005380   1.0645751  )
        26           N   tau(  26) = (   0.2246425   1.0790120   0.3031624  )
        27           O   tau(  27) = (   1.0555804   0.3465542   1.0055686  )
        28           O   tau(  28) = (   0.2658868   1.2329959   0.3621690  )
        29           O   tau(  29) = (   1.0428973   0.5613024   1.2139770  )
        30           O   tau(  30) = (   0.2785699   1.0182477   0.1537606  )
        31           N   tau(  31) = (   0.4064186   1.0824369   0.9800952  )
        32           N   tau(  32) = (   0.9150486   0.4971131   0.3876424  )
        33           O   tau(  33) = (   0.4211177   1.2099539   0.8706369  )
        34           O   tau(  34) = (   0.9003494   0.3695962   0.4971007  )
        35           O   tau(  35) = (   0.4205542   1.1008903   1.1487090  )
        36           O   tau(  36) = (   0.9009130   0.4786598   0.2190286  )
        37           C   tau(  37) = (   0.6415044   0.4997865   1.0920085  )
        38           C   tau(  38) = (   0.6799627   1.0797635   0.2757291  )
        39           H   tau(  39) = (   0.7101111   0.5935534   0.9992630  )
        40           H   tau(  40) = (   0.6113560   0.9859966   0.3684746  )
        41           N   tau(  41) = (   0.5910094   0.3289683   1.0500758  )
        42           N   tau(  42) = (   0.7304578   1.2505818   0.3176617  )
        43           C   tau(  43) = (   0.5023553   0.2523157   1.1978066  )
        44           C   tau(  44) = (   0.8191118   1.3272343   0.1699309  )
        45           H   tau(  45) = (   0.5451583   1.4304388   1.1949885  )
        46           H   tau(  46) = (   0.7763088   0.1491112   0.1727491  )
        47           C   tau(  47) = (   0.5002481   0.3820143   1.3323173  )
        48           C   tau(  48) = (   0.8212190   1.1975357   0.0354203  )
        49           H   tau(  49) = (   0.2229083   0.1128788   0.1028541  )
        50           H   tau(  50) = (   1.0985589   1.4666713   1.2648835  )
        51           N   tau(  51) = (   0.5867250   0.5346726   1.2632059  )
        52           N   tau(  52) = (   0.7347422   1.0448774   0.1045316  )
        53           C   tau(  53) = (   0.6304813   0.2379782   0.8770446  )
        54           C   tau(  54) = (   0.6909859   1.3415719   0.4906930  )
        55           H   tau(  55) = (   0.6863574   0.3390500   0.7820965  )
        56           H   tau(  56) = (   0.6351098   1.2405000   0.5856411  )
        57           H   tau(  57) = (   0.5041162   0.1776936   0.8244713  )
        58           H   tau(  58) = (   0.8173509   1.4018565   0.5432662  )
        59           H   tau(  59) = (   0.8283159   1.4459945   0.9005304  )
        60           H   tau(  60) = (   0.4931513   0.1335556   0.4672072  )
        61           C   tau(  61) = (   0.3979529   0.4407743  -0.0055467  )
        62           C   tau(  62) = (   0.9235143   1.1387758   1.3732843  )
        63           H   tau(  63) = (   0.5259772   0.4285694   0.0713339  )
        64           H   tau(  64) = (   0.7954900   1.1509807   1.2964037  )
        65           H   tau(  65) = (   0.2855679   0.4652685   0.0899067  )
        66           H   tau(  66) = (   1.0358993   1.1142816   1.2778309  )
        67           H   tau(  67) = (   0.6326206   0.8166248   1.2641660  )
        68           H   tau(  68) = (   0.6888466   0.7629253   0.1035715  )

     number of k points=     8
                       cart. coord. in units 2pi/alat
        k(    1) = (   0.0000000   0.0000000   0.0000000), wk =   0.1666667
        k(    2) = (   0.0000000   0.0000000  -0.3655672), wk =   0.1666667
        k(    3) = (   0.0000000  -0.3798945   0.0731591), wk =   0.1666667
        k(    4) = (   0.0000000  -0.3798945  -0.2924081), wk =   0.1666667
        k(    5) = (   0.3333333  -0.0245019  -0.0500489), wk =   0.3333333
        k(    6) = (   0.3333333  -0.0245019  -0.4156161), wk =   0.3333333
        k(    7) = (   0.3333333  -0.4043964   0.0231102), wk =   0.3333333
        k(    8) = (   0.3333333  -0.4043964  -0.3424570), wk =   0.3333333

     Dense  grid:   644511 G-vectors     FFT dimensions: (  90, 120, 125)

     Estimated max dynamical RAM per process >     503.87MB

     Estimated total allocated dynamical RAM >    4030.99MB

     Check: negative/imaginary core charge=   -0.000002    0.000000

     Initial potential from superposition of free atoms

     starting charge  243.99878, renormalised to  244.00000
     Starting wfc are  206 randomized atomic wfcs
     Checking if some PAW data can be deallocated... 

     total cpu time spent up to now is       28.2 secs

     per-process dynamical memory:   362.4 Mb

     Self-consistent Calculation

     iteration #  1     ecut=   100.00 Ry     beta=0.50
     Davidson diagonalization with overlap
     ethr =  1.00E-02,  avg # of iterations =  3.6

     total cpu time spent up to now is       97.3 secs

     total energy              =   -1294.61737356 Ry
     Harris-Foulkes estimate   =   -1298.34240120 Ry
     estimated scf accuracy    <       6.88325927 Ry

     iteration #  2     ecut=   100.00 Ry     beta=0.50
     Davidson diagonalization with overlap
     ethr =  2.82E-03,  avg # of iterations =  3.0

     total cpu time spent up to now is      143.1 secs

     total energy              =   -1295.48045329 Ry
     Harris-Foulkes estimate   =   -1296.34393335 Ry
     estimated scf accuracy    <       1.80892626 Ry

     iteration #  3     ecut=   100.00 Ry     beta=0.50
     Davidson diagonalization with overlap
     ethr =  7.41E-04,  avg # of iterations =  7.6

     total cpu time spent up to now is      206.9 secs

     total energy              =   -1296.00575568 Ry
     Harris-Foulkes estimate   =   -1296.18082317 Ry
     estimated scf accuracy    <       0.42555784 Ry

     iteration #  4     ecut=   100.00 Ry     beta=0.50
     Davidson diagonalization with overlap
     ethr =  1.74E-04,  avg # of iterations =  4.6

     total cpu time spent up to now is      247.4 secs

     total energy              =   -1296.03976553 Ry
     Harris-Foulkes estimate   =   -1296.07251450 Ry
     estimated scf accuracy    <       0.07343481 Ry

     iteration #  5     ecut=   100.00 Ry     beta=0.50
     Davidson diagonalization with overlap
     ethr =  3.01E-05,  avg # of iterations =  7.5

     total cpu time spent up to now is      319.6 secs

     total energy              =   -1296.06332325 Ry
     Harris-Foulkes estimate   =   -1296.08910610 Ry
     estimated scf accuracy    <       0.07579809 Ry

     iteration #  6     ecut=   100.00 Ry     beta=0.50
     Davidson diagonalization with overlap
     ethr =  3.01E-05,  avg # of iterations =  2.0

     total cpu time spent up to now is      358.3 secs

     total energy              =   -1296.07375585 Ry
     Harris-Foulkes estimate   =   -1296.07885975 Ry
     estimated scf accuracy    <       0.01536042 Ry

     iteration #  7     ecut=   100.00 Ry     beta=0.50
     Davidson diagonalization with overlap
     ethr =  6.30E-06,  avg # of iterations =  7.4

     total cpu time spent up to now is      405.8 secs

     total energy              =   -1296.07582176 Ry
     Harris-Foulkes estimate   =   -1296.07643331 Ry
     estimated scf accuracy    <       0.00140007 Ry

     iteration #  8     ecut=   100.00 Ry     beta=0.50
     Davidson diagonalization with overlap
     ethr =  5.74E-07,  avg # of iterations =  6.6

     total cpu time spent up to now is      476.4 secs

     total energy              =   -1296.07647978 Ry
     Harris-Foulkes estimate   =   -1296.07662266 Ry
     estimated scf accuracy    <       0.00049103 Ry

     iteration #  9     ecut=   100.00 Ry     beta=0.50
     Davidson diagonalization with overlap
     ethr =  2.01E-07,  avg # of iterations =  2.0

     total cpu time spent up to now is      514.4 secs

     total energy              =   -1296.07649672 Ry
     Harris-Foulkes estimate   =   -1296.07657081 Ry
     estimated scf accuracy    <       0.00021419 Ry

     iteration # 10     ecut=   100.00 Ry     beta=0.50
     Davidson diagonalization with overlap
     ethr =  8.78E-08,  avg # of iterations =  3.0

     total cpu time spent up to now is      553.6 secs

     total energy              =   -1296.07651200 Ry
     Harris-Foulkes estimate   =   -1296.07652909 Ry
     estimated scf accuracy    <       0.00003365 Ry

     iteration # 11     ecut=   100.00 Ry     beta=0.50
     Davidson diagonalization with overlap
     ethr =  1.38E-08,  avg # of iterations =  4.0

     total cpu time spent up to now is      620.7 secs

     total energy              =   -1296.07653036 Ry
     Harris-Foulkes estimate   =   -1296.07653642 Ry
     estimated scf accuracy    <       0.00001468 Ry

     iteration # 12     ecut=   100.00 Ry     beta=0.50
     Davidson diagonalization with overlap
     ethr =  6.02E-09,  avg # of iterations =  1.0

     total cpu time spent up to now is      656.2 secs

     total energy              =   -1296.07653076 Ry
     Harris-Foulkes estimate   =   -1296.07653185 Ry
     estimated scf accuracy    <       0.00000267 Ry

     iteration # 13     ecut=   100.00 Ry     beta=0.50
     Davidson diagonalization with overlap
     ethr =  1.09E-09,  avg # of iterations =  4.0

     total cpu time spent up to now is      722.4 secs

     total energy              =   -1296.07653272 Ry
     Harris-Foulkes estimate   =   -1296.07653306 Ry
     estimated scf accuracy    <       0.00000122 Ry

     iteration # 14     ecut=   100.00 Ry     beta=0.50
     Davidson diagonalization with overlap
     ethr =  4.99E-10,  avg # of iterations =  1.0

     total cpu time spent up to now is      757.9 secs

     total energy              =   -1296.07653260 Ry
     Harris-Foulkes estimate   =   -1296.07653279 Ry
     estimated scf accuracy    <       0.00000047 Ry

     iteration # 15     ecut=   100.00 Ry     beta=0.50
     Davidson diagonalization with overlap
     ethr =  1.93E-10,  avg # of iterations =  4.0

     total cpu time spent up to now is      811.7 secs

     total energy              =   -1296.07653274 Ry
     Harris-Foulkes estimate   =   -1296.07653275 Ry
     estimated scf accuracy    <       0.00000005 Ry

     iteration # 16     ecut=   100.00 Ry     beta=0.50
     Davidson diagonalization with overlap
     ethr =  2.15E-11,  avg # of iterations =  2.0

     total cpu time spent up to now is      851.9 secs

     total energy              =   -1296.07653274 Ry
     Harris-Foulkes estimate   =   -1296.07653275 Ry
     estimated scf accuracy    <       0.00000001 Ry

     iteration # 17     ecut=   100.00 Ry     beta=0.50
     Davidson diagonalization with overlap
     ethr =  4.43E-12,  avg # of iterations =  4.0

     total cpu time spent up to now is      911.3 secs

     End of self-consistent calculation

          k = 0.0000 0.0000 0.0000 ( 80537 PWs)   bands (ev):

   -24.0023 -23.9959 -23.9545 -23.9521 -23.9357 -23.9345 -20.1953 -20.1835
   -19.5506 -19.5408 -19.4839 -19.4622 -19.4574 -19.4536 -19.0656 -18.9769
   -17.1877 -17.1838 -15.7472 -15.6727 -14.0824 -14.0397 -13.7490 -13.7046
   -13.1960 -13.1490 -12.2803 -12.2108 -11.3930 -11.3821 -10.9322 -10.8911
   -10.8222 -10.6730 -10.1055  -9.9865  -9.1351  -9.1314  -8.4080  -8.3318
    -7.8641  -7.8375  -7.7799  -7.7720  -7.2234  -7.1099  -7.0634  -6.9123
    -6.8848  -6.7255  -6.5693  -6.4966  -6.4545  -6.4156  -6.2867  -6.2215
    -6.2080  -6.1322  -6.1247  -6.0168  -5.8482  -5.8093  -5.7485  -5.6720
    -5.6393  -5.5576  -5.2597  -5.1848  -5.1438  -5.1049  -4.8812  -4.7972
    -4.6789  -4.6638  -4.6045  -4.5212  -4.4350  -4.3745  -4.2507  -4.1400
    -3.9575  -3.5766  -3.5102  -3.3060  -3.2833  -3.1303  -3.0823  -3.0518
    -2.9296  -2.8757  -2.8223  -2.6924  -2.1371  -2.0805  -1.0753  -1.0664
    -1.0263  -0.9559  -0.9315  -0.8944  -0.8488  -0.8488  -0.7685  -0.7598
    -0.7460  -0.7138  -0.6868  -0.5950  -0.5550  -0.5071  -0.0025   0.0091
     0.0120   0.0144   0.0357   0.0695   0.1202   0.3620   0.7288   0.8956
     1.0211   1.0221   2.9108   3.1720   3.2763   3.3719   3.7091   3.8345
     5.3262   5.3665   5.5579   5.6157   5.7860   6.0804   6.1035   6.1999
     6.5685   7.5431   7.7429   7.7632   7.8635   7.9102   8.1099   8.3178
     8.5300   8.6975

          k = 0.0000 0.0000-0.3656 ( 80542 PWs)   bands (ev):

   -24.0017 -23.9962 -23.9545 -23.9527 -23.9357 -23.9342 -20.1950 -20.1839
   -19.5495 -19.5412 -19.4810 -19.4624 -19.4612 -19.4533 -19.0655 -18.9769
   -17.1907 -17.1807 -15.7462 -15.6741 -14.0829 -14.0398 -13.7403 -13.7092
   -13.1758 -13.1750 -12.2462 -12.2457 -11.3997 -11.3773 -10.9279 -10.9017
   -10.7838 -10.6999 -10.0860  -9.9949  -9.1650  -9.1034  -8.4321  -8.3824
    -7.8417  -7.8223  -7.7803  -7.7087  -7.1955  -7.1608  -7.0365  -6.9422
    -6.9025  -6.7062  -6.5495  -6.5235  -6.4376  -6.4007  -6.2971  -6.2307
    -6.2091  -6.1923  -6.0931  -6.0691  -5.8515  -5.7603  -5.7402  -5.6660
    -5.6419  -5.5839  -5.2108  -5.1868  -5.0846  -5.0223  -4.9250  -4.9162
    -4.6857  -4.6248  -4.6180  -4.5320  -4.4494  -4.3666  -4.2048  -4.2035
    -3.9535  -3.5913  -3.4989  -3.2995  -3.2887  -3.1081  -3.0850  -3.0440
    -2.9366  -2.8434  -2.8333  -2.7032  -2.1440  -2.0798  -1.0851  -1.0549
    -0.9951  -0.9786  -0.9600  -0.9117  -0.8362  -0.8324  -0.7858  -0.7819
    -0.7497  -0.7121  -0.6595  -0.5785  -0.5419  -0.5085  -0.0062  -0.0055
     0.0241   0.0331   0.0550   0.0714   0.0879   0.3738   0.7004   0.9109
     1.0141   1.0254   2.9038   3.1405   3.3214   3.3364   3.6902   3.8713
     5.2908   5.4057   5.6043   5.6214   5.7258   6.0927   6.1241   6.1859
     6.9094   6.9400   7.6610   7.8016   7.8737   7.8881   8.1276   8.4714
     8.5253   8.7170

          k = 0.0000-0.3799 0.0732 ( 80496 PWs)   bands (ev):

   -24.0021 -23.9959 -23.9545 -23.9521 -23.9359 -23.9344 -20.1952 -20.1837
   -19.5505 -19.5410 -19.4830 -19.4618 -19.4583 -19.4536 -19.0656 -18.9769
   -17.1887 -17.1829 -15.7470 -15.6730 -14.0824 -14.0395 -13.7446 -13.7050
   -13.1883 -13.1640 -12.2709 -12.2216 -11.3879 -11.3839 -10.9335 -10.8956
   -10.7815 -10.7073 -10.1009  -9.9810  -9.1385  -9.1302  -8.4298  -8.3623
    -7.8797  -7.8185  -7.7542  -7.7464  -7.2311  -7.0775  -7.0416  -6.9393
    -6.9139  -6.7313  -6.5524  -6.5212  -6.4473  -6.3848  -6.2619  -6.2401
    -6.2257  -6.1452  -6.1147  -6.0213  -5.8763  -5.8503  -5.7260  -5.6906
    -5.6077  -5.5678  -5.2049  -5.1977  -5.0470  -5.0261  -4.9304  -4.9248
    -4.6727  -4.6652  -4.6194  -4.5374  -4.4427  -4.3822  -4.2269  -4.1294
    -3.9566  -3.5377  -3.5084  -3.3101  -3.2825  -3.1189  -3.1006  -3.0446
    -2.9503  -2.9192  -2.8158  -2.6808  -2.1436  -2.0892  -1.0673  -1.0563
    -0.9953  -0.9571  -0.9448  -0.9056  -0.8947  -0.8055  -0.7757  -0.7534
    -0.7307  -0.7097  -0.6503  -0.6302  -0.5720  -0.5318  -0.0033   0.0125
     0.0195   0.0308   0.0482   0.0828   0.1149   0.3735   0.7189   0.9041
     1.0068   1.0196   2.9260   3.1826   3.2265   3.3431   3.7164   3.8699
     5.2685   5.3693   5.6009   5.6382   5.7277   6.0819   6.1338   6.2190
     6.8743   6.9486   7.5934   7.8581   7.9290   8.0925   8.2414   8.3112
     8.6360   8.6788

          k = 0.0000-0.3799-0.2924 ( 80550 PWs)   bands (ev):

   -24.0016 -23.9961 -23.9545 -23.9528 -23.9356 -23.9343 -20.1950 -20.1840
   -19.5496 -19.5411 -19.4803 -19.4628 -19.4614 -19.4530 -19.0655 -18.9769
   -17.1917 -17.1798 -15.7462 -15.6737 -14.0826 -14.0395 -13.7445 -13.7106
   -13.1735 -13.1715 -12.2557 -12.2350 -11.3941 -11.3753 -10.9430 -10.9294
   -10.7730 -10.6756 -10.0884 -10.0041  -9.1704  -9.0976  -8.3835  -8.3424
    -7.8925  -7.8453  -7.8145  -7.7143  -7.2438  -7.1066  -7.0637  -6.9437
    -6.8557  -6.7043  -6.5881  -6.4914  -6.4364  -6.4165  -6.2589  -6.2228
    -6.2013  -6.1969  -6.0769  -6.0695  -5.8393  -5.7593  -5.7363  -5.6954
    -5.6354  -5.5647  -5.2361  -5.1923  -5.1609  -5.0516  -4.9492  -4.8219
    -4.6674  -4.6414  -4.6061  -4.5064  -4.4299  -4.3950  -4.2274  -4.1828
    -3.9725  -3.5431  -3.5308  -3.2843  -3.2752  -3.1324  -3.0637  -3.0414
    -3.0023  -2.8477  -2.8123  -2.7012  -2.1363  -2.0891  -1.0684  -1.0508
    -1.0294  -0.9751  -0.9452  -0.9090  -0.8391  -0.8239  -0.8048  -0.7437
    -0.7413  -0.6882  -0.6504  -0.6341  -0.5658  -0.5073   0.0016   0.0142
     0.0178   0.0223   0.0422   0.0837   0.0995   0.3720   0.7132   0.9092
     1.0055   1.0264   2.9203   3.1635   3.2860   3.2861   3.6953   3.9125
     5.2743   5.3973   5.5785   5.6225   5.7394   6.1033   6.1146   6.2098
     6.9606   7.0152   7.2463   7.8301   7.9328   8.0353   8.2579   8.5954
     8.6662   8.7433

          k = 0.3333-0.0245-0.0500 ( 80561 PWs)   bands (ev):

   -23.9948 -23.9906 -23.9612 -23.9587 -23.9357 -23.9341 -20.1955 -20.1840
   -19.5544 -19.5386 -19.4778 -19.4645 -19.4616 -19.4509 -19.0601 -18.9827
   -17.1879 -17.1841 -15.7616 -15.6594 -14.0920 -14.0304 -13.7354 -13.7110
   -13.1912 -13.1567 -12.2752 -12.2152 -11.3999 -11.3752 -10.9235 -10.8999
   -10.8223 -10.6709 -10.0766 -10.0093  -9.1401  -9.1276  -8.4464  -8.3713
    -7.8835  -7.7954  -7.7646  -7.7357  -7.2367  -7.1673  -7.0365  -6.9020
    -6.7919  -6.6584  -6.5371  -6.4857  -6.4159  -6.3767  -6.3212  -6.2339
    -6.2110  -6.1906  -6.0825  -6.0372  -5.8826  -5.8427  -5.7728  -5.7254
    -5.6524  -5.6199  -5.2306  -5.2128  -5.1636  -5.0148  -4.9230  -4.8469
    -4.6811  -4.6619  -4.5990  -4.5006  -4.4361  -4.3525  -4.2291  -4.1696
    -3.8504  -3.5871  -3.5018  -3.3996  -3.2749  -3.2463  -3.1164  -3.0677
    -2.9442  -2.8733  -2.8251  -2.6875  -2.2511  -1.8039  -1.0993  -1.0469
    -1.0086  -0.9742  -0.9567  -0.9259  -0.8701  -0.8250  -0.7755  -0.7660
    -0.7284  -0.6982  -0.6817  -0.5890  -0.5570  -0.4953  -0.0186  -0.0062
     0.0194   0.0308   0.0554   0.0962   0.1308   0.3483   0.6901   0.9675
     1.0218   1.0623   2.9805   3.1187   3.2720   3.3474   3.7323   3.7996
     5.2537   5.3478   5.4684   5.7420   5.8136   6.0778   6.0953   6.1793
     6.8871   7.6423   7.8153   7.8454   7.9437   7.9775   8.1830   8.2839
     8.4273   8.5963

          k = 0.3333-0.0245-0.4156 ( 80573 PWs)   bands (ev):

   -23.9945 -23.9907 -23.9611 -23.9590 -23.9356 -23.9342 -20.1952 -20.1844
   -19.5544 -19.5375 -19.4772 -19.4648 -19.4607 -19.4533 -19.0601 -18.9827
   -17.1909 -17.1810 -15.7604 -15.6606 -14.0919 -14.0308 -13.7397 -13.7085
   -13.1773 -13.1676 -12.2497 -12.2414 -11.3945 -11.3851 -10.9228 -10.9080
   -10.7797 -10.7016 -10.0687 -10.0254  -9.1588  -9.1070  -8.3972  -8.3778
    -7.8745  -7.8289  -7.8052  -7.7126  -7.1853  -7.1563  -7.0692  -6.9390
    -6.8013  -6.6540  -6.5784  -6.4699  -6.4214  -6.3512  -6.3168  -6.2372
    -6.2193  -6.1660  -6.1351  -6.0334  -5.8449  -5.8054  -5.7591  -5.7254
    -5.6755  -5.6292  -5.2253  -5.2070  -5.1114  -5.0802  -4.8887  -4.8590
    -4.6868  -4.6459  -4.5987  -4.5378  -4.4275  -4.3629  -4.2224  -4.1720
    -3.8595  -3.5835  -3.5131  -3.3948  -3.2791  -3.2360  -3.1110  -3.0939
    -2.9373  -2.8515  -2.8322  -2.6800  -2.2434  -1.8073  -1.1121  -1.0220
    -1.0129  -0.9901  -0.9598  -0.9056  -0.8590  -0.8226  -0.7983  -0.7674
    -0.7354  -0.7061  -0.6404  -0.5997  -0.5577  -0.4969  -0.0428   0.0042
     0.0174   0.0324   0.0652   0.0814   0.1433   0.3432   0.6988   0.9619
     1.0207   1.0542   2.9826   3.1099   3.2794   3.3341   3.7159   3.8168
     5.2957   5.3259   5.5163   5.7234   5.7972   6.0559   6.1022   6.1485
     7.1545   7.2481   7.6335   7.7643   7.9510   8.1610   8.2677   8.4112
     8.5342   8.6594

          k = 0.3333-0.4044 0.0231 ( 80607 PWs)   bands (ev):

   -23.9947 -23.9906 -23.9612 -23.9587 -23.9358 -23.9341 -20.1955 -20.1842
   -19.5545 -19.5385 -19.4773 -19.4641 -19.4615 -19.4517 -19.0601 -18.9827
   -17.1888 -17.1833 -15.7610 -15.6596 -14.0920 -14.0304 -13.7385 -13.7110
   -13.1835 -13.1616 -12.2672 -12.2230 -11.3968 -11.3785 -10.9346 -10.9025
   -10.7727 -10.7077 -10.0767 -10.0151  -9.1391  -9.1295  -8.3796  -8.3747
    -7.9338  -7.7967  -7.7828  -7.7624  -7.2224  -7.0947  -7.0436  -6.9544
    -6.7954  -6.6696  -6.5620  -6.4807  -6.4032  -6.3567  -6.3047  -6.2500
    -6.2089  -6.1868  -6.0818  -6.0415  -5.8949  -5.8074  -5.7639  -5.7211
    -5.6543  -5.6090  -5.2277  -5.2031  -5.1718  -5.0427  -4.9271  -4.8568
    -4.6725  -4.6351  -4.6131  -4.5092  -4.4367  -4.3624  -4.2310  -4.1566
    -3.8604  -3.5581  -3.5258  -3.4075  -3.2701  -3.2255  -3.1123  -3.0880
    -2.9372  -2.9170  -2.8135  -2.6841  -2.2467  -1.8037  -1.0882  -1.0359
    -1.0084  -0.9843  -0.9421  -0.9159  -0.8785  -0.8242  -0.7912  -0.7716
    -0.7545  -0.6773  -0.6559  -0.6238  -0.5538  -0.4897  -0.0180   0.0044
     0.0181   0.0269   0.0656   0.1017   0.1337   0.3449   0.6978   0.9694
     1.0106   1.0549   2.9884   3.1250   3.2493   3.3131   3.7494   3.8228
     5.2824   5.3049   5.5086   5.7320   5.8026   6.0781   6.1260   6.1451
     7.1162   7.2499   7.6436   7.8829   7.9978   8.0657   8.1452   8.3559
     8.5468   8.6072

          k = 0.3333-0.4044-0.3425 ( 80604 PWs)   bands (ev):

   -23.9944 -23.9907 -23.9611 -23.9590 -23.9355 -23.9344 -20.1952 -20.1844
   -19.5544 -19.5375 -19.4768 -19.4643 -19.4609 -19.4538 -19.0601 -18.9826
   -17.1919 -17.1801 -15.7606 -15.6603 -14.0918 -14.0303 -13.7381 -13.7094
   -13.1822 -13.1662 -12.2569 -12.2338 -11.3916 -11.3787 -10.9460 -10.9152
   -10.7825 -10.6734 -10.0664 -10.0213  -9.1639  -9.1038  -8.4335  -8.3645
    -7.8807  -7.8213  -7.8067  -7.7034  -7.2373  -7.1552  -7.0712  -6.8634
    -6.8007  -6.6590  -6.5597  -6.4892  -6.4292  -6.3401  -6.2860  -6.2459
    -6.2219  -6.1785  -6.1267  -6.0361  -5.8509  -5.8027  -5.7862  -5.7272
    -5.6787  -5.6053  -5.2510  -5.1739  -5.1049  -5.0369  -4.9797  -4.8631
    -4.6785  -4.6681  -4.6067  -4.5149  -4.3984  -4.3784  -4.2484  -4.1415
    -3.8487  -3.5622  -3.5241  -3.3949  -3.2753  -3.2297  -3.1267  -3.0772
    -3.0012  -2.8290  -2.8131  -2.6933  -2.2524  -1.8004  -1.0904  -1.0596
    -1.0136  -1.0038  -0.9471  -0.9261  -0.8525  -0.8133  -0.7798  -0.7390
    -0.7170  -0.7062  -0.6647  -0.6314  -0.5555  -0.4916  -0.0291   0.0042
     0.0282   0.0346   0.0693   0.1022   0.1114   0.3499   0.7056   0.9673
     1.0094   1.0466   2.9927   3.1181   3.2409   3.3119   3.7224   3.8503
     5.2576   5.3557   5.5078   5.7200   5.8011   6.0659   6.1175   6.1552
     7.1799   7.3283   7.4721   7.7769   7.8707   8.1565   8.2981   8.4061
     8.4338   8.6814

     highest occupied, lowest unoccupied level (ev):     1.0623    2.9038

!    total energy              =   -1296.07653274 Ry
     Harris-Foulkes estimate   =   -1296.07653275 Ry
     estimated scf accuracy    <          4.6E-09 Ry

     total all-electron energy =     -4903.731173 Ry

     The total energy is the sum of the following terms:

     one-electron contribution =    -805.08146563 Ry
     hartree contribution      =     497.28057852 Ry
     xc contribution           =    -263.77058623 Ry
     ewald contribution        =    -361.74212743 Ry
     Dispersion Correction     =      -0.30624845 Ry
     one-center paw contrib.   =    -362.45668352 Ry

     convergence has been achieved in  17 iterations

     Forces acting on atoms (cartesian axes, Ry/au):

     atom    1 type  4   force =    -0.00132386    0.00011411   -0.00147684
     atom    2 type  4   force =     0.00132386   -0.00011411    0.00147684
     atom    3 type  1   force =    -0.00226444    0.00098320    0.00105724
     atom    4 type  1   force =     0.00226444   -0.00098320   -0.00105724
     atom    5 type  1   force =     0.00173733   -0.00003672   -0.00103710
     atom    6 type  1   force =    -0.00173733    0.00003672    0.00103710
     atom    7 type  1   force =    -0.00028427   -0.00104220    0.00201498
     atom    8 type  1   force =     0.00028427    0.00104220   -0.00201498
     atom    9 type  3   force =    -0.00006906    0.00001015    0.00006383
     atom   10 type  3   force =     0.00006906   -0.00001015   -0.00006383
     atom   11 type  1   force =     0.00052970    0.00038595   -0.00221749
     atom   12 type  1   force =    -0.00052970   -0.00038595    0.00221749
     atom   13 type  1   force =     0.00000174    0.00075150   -0.00093780
     atom   14 type  1   force =    -0.00000174   -0.00075150    0.00093780
     atom   15 type  3   force =    -0.00015789    0.00012911   -0.00048678
     atom   16 type  3   force =     0.00015789   -0.00012911    0.00048678
     atom   17 type  1   force =     0.00210849   -0.00098542    0.00181796
     atom   18 type  1   force =    -0.00210849    0.00098542   -0.00181796
     atom   19 type  2   force =    -0.00285702    0.00006859   -0.00005935
     atom   20 type  2   force =     0.00285702   -0.00006859    0.00005935
     atom   21 type  4   force =    -0.00075228   -0.00015460   -0.00068766
     atom   22 type  4   force =     0.00075228    0.00015460    0.00068766
     atom   23 type  4   force =     0.00234004    0.00024782    0.00050684
     atom   24 type  4   force =    -0.00234004   -0.00024782   -0.00050684
     atom   25 type  2   force =    -0.00179786   -0.00011404    0.00069461
     atom   26 type  2   force =     0.00179786    0.00011404   -0.00069461
     atom   27 type  4   force =     0.00121701    0.00022903    0.00073982
     atom   28 type  4   force =    -0.00121701   -0.00022903   -0.00073982
     atom   29 type  4   force =     0.00104192   -0.00068544   -0.00077444
     atom   30 type  4   force =    -0.00104192    0.00068544    0.00077444
     atom   31 type  2   force =    -0.00119905    0.00095097    0.00124382
     atom   32 type  2   force =     0.00119905   -0.00095097   -0.00124382
     atom   33 type  4   force =     0.00005503   -0.00080077    0.00026285
     atom   34 type  4   force =    -0.00005503    0.00080077   -0.00026285
     atom   35 type  4   force =     0.00058914   -0.00055946   -0.00046090
     atom   36 type  4   force =    -0.00058914    0.00055946    0.00046090
     atom   37 type  1   force =    -0.00137626   -0.00056841    0.00074549
     atom   38 type  1   force =     0.00137626    0.00056841   -0.00074549
     atom   39 type  3   force =     0.00000009    0.00007848   -0.00003539
     atom   40 type  3   force =    -0.00000009   -0.00007848    0.00003539
     atom   41 type  2   force =     0.00036768    0.00069887   -0.00073125
     atom   42 type  2   force =    -0.00036768   -0.00069887    0.00073125
     atom   43 type  1   force =     0.00054998   -0.00019496    0.00145553
     atom   44 type  1   force =    -0.00054998    0.00019496   -0.00145553
     atom   45 type  3   force =     0.00048139    0.00046607   -0.00037681
     atom   46 type  3   force =    -0.00048139   -0.00046607    0.00037681
     atom   47 type  1   force =     0.00028032   -0.00151583    0.00094062
     atom   48 type  1   force =    -0.00028032    0.00151583   -0.00094062
     atom   49 type  3   force =    -0.00000480    0.00006268   -0.00043159
     atom   50 type  3   force =     0.00000480   -0.00006268    0.00043159
     atom   51 type  2   force =     0.00020368    0.00081810   -0.00063289
     atom   52 type  2   force =    -0.00020368   -0.00081810    0.00063289
     atom   53 type  1   force =     0.00031293    0.00026956    0.00020986
     atom   54 type  1   force =    -0.00031293   -0.00026956   -0.00020986
     atom   55 type  3   force =     0.00033484   -0.00018029   -0.00037343
     atom   56 type  3   force =    -0.00033484    0.00018029    0.00037343
     atom   57 type  3   force =    -0.00027238   -0.00021564    0.00060951
     atom   58 type  3   force =     0.00027238    0.00021564   -0.00060951
     atom   59 type  3   force =    -0.00091441   -0.00073098   -0.00030089
     atom   60 type  3   force =     0.00091441    0.00073098    0.00030089
     atom   61 type  1   force =     0.00015188   -0.00001849    0.00018362
     atom   62 type  1   force =    -0.00015188    0.00001849   -0.00018362
     atom   63 type  3   force =    -0.00028141    0.00010910   -0.00001023
     atom   64 type  3   force =     0.00028141   -0.00010910    0.00001023
     atom   65 type  3   force =    -0.00020810   -0.00048517    0.00038839
     atom   66 type  3   force =     0.00020810    0.00048517   -0.00038839
     atom   67 type  3   force =    -0.00041403    0.00000001    0.00022080
     atom   68 type  3   force =     0.00041403   -0.00000001   -0.00022080

     Total force =     0.012613     Total SCF correction =     0.000166


     Computing stress (Cartesian axis) and pressure

          total   stress  (Ry/bohr**3)                   (kbar)     P=   -4.70
  -0.00003952  -0.00000344  -0.00000356         -5.81     -0.51     -0.52
  -0.00000344  -0.00004044   0.00000141         -0.51     -5.95      0.21
  -0.00000356   0.00000141  -0.00001599         -0.52      0.21     -2.35


     Writing output data file scf.save
 
     init_run     :     26.50s CPU     27.49s WALL (       1 calls)
     electrons    :    846.92s CPU    883.34s WALL (       1 calls)
     forces       :     13.96s CPU     14.06s WALL (       1 calls)
     stress       :     48.42s CPU     48.56s WALL (       1 calls)

     Called by init_run:
     wfcinit      :     18.49s CPU     19.33s WALL (       1 calls)
     potinit      :      2.88s CPU      2.96s WALL (       1 calls)

     Called by electrons:
     c_bands      :    756.34s CPU    787.37s WALL (      17 calls)
     sum_band     :     80.41s CPU     84.98s WALL (      17 calls)
     v_of_rho     :      1.52s CPU      1.69s WALL (      18 calls)
     newd         :      3.37s CPU      3.88s WALL (      18 calls)
     PAW_pot      :      4.91s CPU      4.91s WALL (      18 calls)
     mix_rho      :      0.34s CPU      0.36s WALL (      17 calls)

     Called by c_bands:
     init_us_2    :      4.63s CPU      4.64s WALL (     296 calls)
     cegterg      :    737.67s CPU    768.68s WALL (     136 calls)

     Called by sum_band:
     sum_band:bec :      0.05s CPU      0.05s WALL (     136 calls)
     addusdens    :      3.36s CPU      3.84s WALL (      17 calls)

     Called by *egterg:
     h_psi        :    411.83s CPU    435.65s WALL (     683 calls)
     s_psi        :     82.20s CPU     82.21s WALL (     683 calls)
     g_psi        :      2.24s CPU      2.24s WALL (     539 calls)
     cdiaghg      :     48.90s CPU     48.88s WALL (     675 calls)

     Called by h_psi:
     h_psi:pot    :    408.82s CPU    432.59s WALL (     683 calls)
     h_psi:calbec :     81.67s CPU     81.88s WALL (     683 calls)
     vloc_psi     :    244.82s CPU    268.37s WALL (     683 calls)
     add_vuspsi   :     82.33s CPU     82.33s WALL (     683 calls)

     General routines
     calbec       :    118.77s CPU    119.07s WALL (     859 calls)
     fft          :      1.07s CPU      1.36s WALL (     258 calls)
     fftw         :    264.61s CPU    290.33s WALL (  131528 calls)
 
     Parallel routines
     fft_scatter  :     62.84s CPU     80.54s WALL (  131786 calls)
 
     PWSCF        : 15m42.77s CPU    16m57.84s WALL

 
   This run was terminated on:  10:22: 1  12Nov2017            

=------------------------------------------------------------------------------=
   JOB DONE.
=------------------------------------------------------------------------------=
