
     Program PWSCF v.6.1 (svn rev. 13369) starts on  4Nov2017 at  4:54:37 

     This program is part of the open-source Quantum ESPRESSO suite
     for quantum simulation of materials; please cite
         "P. Giannozzi et al., J. Phys.:Condens. Matter 21 395502 (2009);
          URL http://www.quantum-espresso.org", 
     in publications or presentations arising from this work. More details at
     http://www.quantum-espresso.org/quote

     Parallel version (MPI), running on     8 processors
     R & G space division:  proc/nbgrp/npool/nimage =       8
     Waiting for input...
     Reading input from standard input

     Current dimensions of program PWSCF are:
     Max number of different atomic species (ntypx) = 10
     Max number of k-points (npk) =  40000
     Max angular momentum in pseudopotentials (lmaxx) =  3
               file C.pbe-n-kjpaw_psl.0.1.UPF: wavefunction(s)  2P renormalized
               file N.pbe-n-kjpaw_psl.0.1.UPF: wavefunction(s)  2P renormalized
               file H.pbe-kjpaw_psl.0.1.UPF: wavefunction(s)  1S renormalized
               file O.pbe-n-kjpaw_psl.0.1.UPF: wavefunction(s)  2P renormalized

     -------------------------------------
     Parameters for Dispersion Correction:
     -------------------------------------
       atom      VdW radius       C_6     

        C          2.744         60.710
        N          2.640         42.670
        H          1.892          4.857
        O          2.536         24.284

     Subspace diagonalization in iterative solution of the eigenvalue problem:
     a serial algorithm will be used

 
     Parallelization info
     --------------------
     sticks:   dense  smooth     PW     G-vecs:    dense   smooth      PW
     Min        1533    1533    404               115010   115010   15538
     Max        1534    1534    405               115012   115012   15540
     Sum       12267   12267   3233               920089   920089  124313
 


     bravais-lattice index     =            0
     lattice parameter (alat)  =      12.4571  a.u.
     unit-cell volume          =    6808.9004 (a.u.)^3
     number of atoms/cell      =          120
     number of atomic types    =            4
     number of electrons       =       344.00
     number of Kohn-Sham states=          206
     kinetic-energy cutoff     =     100.0000  Ry
     charge density cutoff     =     400.0000  Ry
     convergence threshold     =      1.0E-08
     mixing beta               =       0.5000
     number of iterations used =            8  plain     mixing
     Exchange-correlation      =  SLA  PW   PBX  PBC ( 1  4  3  4 0 0)

     celldm(1)=  12.457075  celldm(2)=   0.000000  celldm(3)=   0.000000
     celldm(4)=   0.000000  celldm(5)=   0.000000  celldm(6)=   0.000000

     crystal axes: (cart. coord. in units of alat)
               a(1) = (   1.000000   0.000000   0.000000 )  
               a(2) = (   0.000000   2.481493   0.000000 )  
               a(3) = (  -0.021555   0.000000   1.419436 )  

     reciprocal axes: (cart. coord. in units 2 pi/alat)
               b(1) = (  1.000000  0.000000  0.015186 )  
               b(2) = (  0.000000  0.402983  0.000000 )  
               b(3) = (  0.000000  0.000000  0.704505 )  


     PseudoPot. # 1 for  C read from file:
     /scratch/ahofstet/pseudo/C.pbe-n-kjpaw_psl.0.1.UPF
     MD5 check sum: 430fe95172b1e11ef3f8ed03bac87931
     Pseudo is Projector augmented-wave + core cor, Zval =  4.0
     Generated using "atomic" code by A. Dal Corso  v.5.0.99 svn rev. 10869
     Shape of augmentation charge: BESSEL
     Using radial grid of 1073 points,  4 beta functions with: 
                l(1) =   0
                l(2) =   0
                l(3) =   1
                l(4) =   1
     Q(r) pseudized with 0 coefficients 


     PseudoPot. # 2 for  N read from file:
     /scratch/ahofstet/pseudo/N.pbe-n-kjpaw_psl.0.1.UPF
     MD5 check sum: f73187c8b701007e77325f868c9291d7
     Pseudo is Projector augmented-wave + core cor, Zval =  5.0
     Generated using "atomic" code by A. Dal Corso  v.5.0.99 svn rev. 10869
     Shape of augmentation charge: PSQ
     Using radial grid of 1085 points,  4 beta functions with: 
                l(1) =   0
                l(2) =   0
                l(3) =   1
                l(4) =   1
     Q(r) pseudized with 0 coefficients 


     PseudoPot. # 3 for  H read from file:
     /scratch/ahofstet/pseudo/H.pbe-kjpaw_psl.0.1.UPF
     MD5 check sum: 94e484f906d9e9773b2f6e52662335b2
     Pseudo is Projector augmented-wave, Zval =  1.0
     Generated using "atomic" code by A. Dal Corso  v.5.0.99 svn rev. 10869
     Shape of augmentation charge: PSQ
     Using radial grid of  929 points,  2 beta functions with: 
                l(1) =   0
                l(2) =   0
     Q(r) pseudized with 0 coefficients 


     PseudoPot. # 4 for  O read from file:
     /scratch/ahofstet/pseudo/O.pbe-n-kjpaw_psl.0.1.UPF
     MD5 check sum: 3f94a2996a3169367d6eb21d9b593f20
     Pseudo is Projector augmented-wave + core cor, Zval =  6.0
     Generated using "atomic" code by A. Dal Corso  v.5.0.99 svn rev. 10869
     Shape of augmentation charge: BESSEL
     Using radial grid of 1095 points,  4 beta functions with: 
                l(1) =   0
                l(2) =   0
                l(3) =   1
                l(4) =   1
     Q(r) pseudized with 0 coefficients 


     atomic species   valence    mass     pseudopotential
        C              4.00    12.01070      C( 1.00)
        N              5.00    14.00670      N( 1.00)
        H              1.00     1.00794      H( 1.00)
        O              6.00    15.99940      O( 1.00)

      4 Sym. Ops., with inversion, found ( 2 have fractional translation)



   Cartesian axes

     site n.     atom                  positions (alat units)
         1           O   tau(   1) = (   0.6419474   0.2709896   0.6511990  )
         2           O   tau(   2) = (   0.3472752   1.5117360   0.0585190  )
         3           O   tau(   3) = (   0.3364977   2.2105031   0.7682369  )
         4           O   tau(   4) = (   0.6311699   0.9697567   1.3609169  )
         5           O   tau(   5) = (  -0.0271213   0.6325214   0.9019208  )
         6           O   tau(   6) = (   0.9947890   1.8732677   1.2272330  )
         7           O   tau(   7) = (   1.0055664   1.8489713   0.5175151  )
         8           O   tau(   8) = (  -0.0163439   0.6082250   0.1922029  )
         9           O   tau(   9) = (   0.1080608   0.0514446   0.9148238  )
        10           O   tau(  10) = (   0.8596069   1.2921910   1.2143300  )
        11           O   tau(  11) = (   0.8703843   2.4300481   0.5046121  )
        12           O   tau(  12) = (   0.1188382   1.1893017   0.2051059  )
        13           N   tau(  13) = (   0.7840776   0.2862196   1.0652145  )
        14           N   tau(  14) = (   0.1835901   1.5269660   1.0639393  )
        15           N   tau(  15) = (   0.1943675   2.1952731   0.3542214  )
        16           N   tau(  16) = (   0.7948551   0.9545267   0.3554966  )
        17           C   tau(  17) = (   0.5746216   0.2175960   1.0042219  )
        18           C   tau(  18) = (   0.3930461   1.4583423   1.1249319  )
        19           C   tau(  19) = (   0.4038235   2.2638968   0.4152140  )
        20           C   tau(  20) = (   0.5853990   1.0231504   0.2945039  )
        21           C   tau(  21) = (   0.5065301   0.3238224   0.8129394  )
        22           C   tau(  22) = (   0.4611376   1.5645688   1.3162144  )
        23           C   tau(  23) = (   0.4719150   2.1576703   0.6064965  )
        24           C   tau(  24) = (   0.5173075   0.9169240   0.1032214  )
        25           C   tau(  25) = (   0.7806141   0.4908862   1.1693324  )
        26           C   tau(  26) = (   0.1870535   1.7316325   0.9598214  )
        27           C   tau(  27) = (   0.1978310   1.9906066   0.2501035  )
        28           C   tau(  28) = (   0.7913916   0.7498602   0.4596145  )
        29           C   tau(  29) = (   0.9694399   0.6105768   1.1169802  )
        30           C   tau(  30) = (  -0.0017722   1.8513231   1.0121736  )
        31           C   tau(  31) = (   0.0090053   1.8709159   0.3024557  )
        32           C   tau(  32) = (   0.9802173   0.6301696   0.4072623  )
        33           C   tau(  33) = (   0.8927001   0.1283761   1.1907370  )
        34           C   tau(  34) = (   0.0749676   1.3691225   0.9384168  )
        35           C   tau(  35) = (   0.0857450   2.3531166   0.2286988  )
        36           C   tau(  36) = (   0.9034776   1.1123702   0.4810191  )
        37           C   tau(  37) = (   0.9745734   2.4413331   1.0577044  )
        38           C   tau(  38) = (  -0.0069057   1.2005868   1.0714494  )
        39           C   tau(  39) = (   0.0038717   0.0401596   0.3617315  )
        40           C   tau(  40) = (   0.9853508   1.2809059   0.3479864  )
        41           H   tau(  41) = (   0.5739088   0.3158824   0.5234427  )
        42           H   tau(  42) = (   0.4153137   1.5566287   0.1862752  )
        43           H   tau(  43) = (   0.4045363   2.1656104   0.8959931  )
        44           H   tau(  44) = (   0.5631314   0.9248640   1.2331607  )
        45           H   tau(  45) = (   0.0970139   0.7068593   0.8623359  )
        46           H   tau(  46) = (   0.8706537   1.9476056   1.2668179  )
        47           H   tau(  47) = (   0.8814312   1.7746335   0.5571000  )
        48           H   tau(  48) = (   0.1077914   0.5338871   0.1526179  )
        49           H   tau(  49) = (   0.1823486   2.4238015   0.8440429  )
        50           H   tau(  50) = (   0.7853190   1.1830551   1.2851109  )
        51           H   tau(  51) = (   0.7960965   0.0576913   0.5753930  )
        52           H   tau(  52) = (   0.1931261   1.2984376   0.1343249  )
        53           H   tau(  53) = (   0.8674961   0.3055720   0.9329827  )
        54           H   tau(  54) = (   0.1001716   1.5463183   1.1961711  )
        55           H   tau(  55) = (   0.1109491   2.1759208   0.4864532  )
        56           H   tau(  56) = (   0.8782735   0.9351744   0.2232648  )
        57           H   tau(  57) = (   0.5801824   0.0533878   0.9787447  )
        58           H   tau(  58) = (   0.3874853   1.2941341   1.1504091  )
        59           H   tau(  59) = (   0.3982627   2.4281050   0.4406911  )
        60           H   tau(  60) = (   0.5909598   1.1873586   0.2690268  )
        61           H   tau(  61) = (   0.4728462   0.2480587   1.1321758  )
        62           H   tau(  62) = (   0.4948214   1.4888051   0.9969780  )
        63           H   tau(  63) = (   0.5055989   2.2334340   0.2872601  )
        64           H   tau(  64) = (   0.4836237   0.9926877   0.4224579  )
        65           H   tau(  65) = (   0.5041320   0.4898064   0.8347714  )
        66           H   tau(  66) = (   0.4635357   1.7305527   1.2943824  )
        67           H   tau(  67) = (   0.4743131   1.9916863   0.5846645  )
        68           H   tau(  68) = (   0.5149094   0.7509400   0.1250534  )
        69           H   tau(  69) = (   0.3502622   0.2747355   0.7806998  )
        70           H   tau(  70) = (   0.6174055   1.5154818   1.3484540  )
        71           H   tau(  71) = (   0.6281829   2.2067572   0.6387360  )
        72           H   tau(  72) = (   0.3610396   0.9660109   0.0709819  )
        73           H   tau(  73) = (   0.6457691   0.5718505   1.1147876  )
        74           H   tau(  74) = (   0.3218986   1.8125968   1.0143662  )
        75           H   tau(  75) = (   0.3326760   1.9096423   0.3046483  )
        76           H   tau(  76) = (   0.6565465   0.6688959   0.4050697  )
        77           H   tau(  77) = (   0.7675320   0.4655236   1.3331185  )
        78           H   tau(  78) = (   0.2001356   1.7062700   0.7960353  )
        79           H   tau(  79) = (   0.2109131   2.0159691   0.0863174  )
        80           H   tau(  80) = (   0.7783095   0.7752227   0.6234006  )
        81           H   tau(  81) = (   0.1074490   0.5333353   1.1716938  )
        82           H   tau(  82) = (   0.8602186   1.7740817   0.9574600  )
        83           H   tau(  83) = (   0.8709961   1.9481574   0.2477421  )
        84           H   tau(  84) = (   0.1182265   0.7074110   0.4619759  )
        85           H   tau(  85) = (   0.9587514   0.7572044   1.1966944  )
        86           H   tau(  86) = (   0.0089163   1.9979508   0.9324594  )
        87           H   tau(  87) = (   0.0196937   1.7242883   0.2227414  )
        88           H   tau(  88) = (   0.9695288   0.4835420   0.4869765  )
        89           H   tau(  89) = (   0.0191840   0.2055979   1.2666072  )
        90           H   tau(  90) = (   0.9484836   1.4463443   0.8625466  )
        91           H   tau(  91) = (   0.9592611   2.2758948   0.1528287  )
        92           H   tau(  92) = (   0.0299615   1.0351485   0.5568892  )
        93           H   tau(  93) = (   0.7841072   0.0739832   1.3044362  )
        94           H   tau(  94) = (   0.1835605   1.3147296   0.8247176  )
        95           H   tau(  95) = (   0.1943379   2.4075095   0.1149996  )
        96           H   tau(  96) = (   0.7948846   1.1667631   0.5947183  )
        97           H   tau(  97) = (   0.8506376   2.3587644   0.9803685  )
        98           H   tau(  98) = (   0.1170301   1.1180180   1.1487853  )
        99           H   tau(  99) = (   0.1278075   0.1227284   0.4390674  )
       100           H   tau( 100) = (   0.8614151   1.3634747   0.2706506  )
       101           H   tau( 101) = (   0.0545055   2.3322098   1.1561796  )
       102           H   tau( 102) = (   0.9131622   1.0914635   0.9729742  )
       103           H   tau( 103) = (   0.9239396   0.1492829   0.2632563  )
       104           H   tau( 104) = (   0.0652829   1.3900293   0.4464616  )
       105           O   tau( 105) = (   0.4075625   0.4050256   0.3468304  )
       106           O   tau( 106) = (   0.5816601   1.6457719   0.3628876  )
       107           O   tau( 107) = (   0.5708826   2.0764672   1.0726055  )
       108           O   tau( 108) = (   0.3967850   0.8357208   1.0565483  )
       109           O   tau( 109) = (   0.3023673   0.3714150   0.0338842  )
       110           O   tau( 110) = (   0.6868552   1.6121614   0.6758338  )
       111           O   tau( 111) = (   0.6760778   2.1100777   1.3855517  )
       112           O   tau( 112) = (   0.2915899   0.8693313   0.7436021  )
       113           O   tau( 113) = (   0.5754639   0.2103040   0.1348921  )
       114           O   tau( 114) = (   0.4137586   1.4510503   0.5748258  )
       115           O   tau( 115) = (   0.4029812   2.2711887   1.2845438  )
       116           O   tau( 116) = (   0.5646865   1.0304424   0.8446100  )
       117           N   tau( 117) = (   0.4307284   0.3268308   0.1705287  )
       118           N   tau( 118) = (   0.5584942   1.5675771   0.5391893  )
       119           N   tau( 119) = (   0.5477168   2.1546620   1.2489072  )
       120           N   tau( 120) = (   0.4199509   0.9139156   0.8802466  )

     number of k points=     8
                       cart. coord. in units 2pi/alat
        k(    1) = (   0.0000000   0.0000000   0.0000000), wk =   0.1666667
        k(    2) = (   0.0000000   0.0000000  -0.3522526), wk =   0.1666667
        k(    3) = (   0.0000000  -0.2014916   0.0000000), wk =   0.1666667
        k(    4) = (   0.0000000  -0.2014916  -0.3522526), wk =   0.1666667
        k(    5) = (   0.3333333   0.0000000   0.0050618), wk =   0.3333333
        k(    6) = (   0.3333333   0.0000000  -0.3471908), wk =   0.3333333
        k(    7) = (   0.3333333  -0.2014916   0.0050618), wk =   0.3333333
        k(    8) = (   0.3333333  -0.2014916  -0.3471908), wk =   0.3333333

     Dense  grid:   920089 G-vectors     FFT dimensions: (  80, 200, 120)

     Estimated max dynamical RAM per process >     984.65MB

     Estimated total allocated dynamical RAM >    7877.16MB

     Check: negative/imaginary core charge=   -0.000002    0.000000

     Initial potential from superposition of free atoms

     starting charge  343.99830, renormalised to  344.00000
     Starting wfc are  288 randomized atomic wfcs
     Checking if some PAW data can be deallocated... 

     total cpu time spent up to now is       52.2 secs

     per-process dynamical memory:   671.8 Mb

     Self-consistent Calculation

     iteration #  1     ecut=   100.00 Ry     beta=0.50
     Davidson diagonalization with overlap
     ethr =  1.00E-02,  avg # of iterations =  3.5

     total cpu time spent up to now is      190.0 secs

     total energy              =   -1741.39919234 Ry
     Harris-Foulkes estimate   =   -1747.11969572 Ry
     estimated scf accuracy    <      11.00255339 Ry

     iteration #  2     ecut=   100.00 Ry     beta=0.50
     Davidson diagonalization with overlap
     ethr =  3.20E-03,  avg # of iterations =  3.2

     total cpu time spent up to now is      281.5 secs

     total energy              =   -1743.03182133 Ry
     Harris-Foulkes estimate   =   -1743.95817137 Ry
     estimated scf accuracy    <       2.05367421 Ry

     iteration #  3     ecut=   100.00 Ry     beta=0.50
     Davidson diagonalization with overlap
     ethr =  5.97E-04,  avg # of iterations =  6.9

     total cpu time spent up to now is      420.1 secs

     total energy              =   -1743.56830698 Ry
     Harris-Foulkes estimate   =   -1743.74057661 Ry
     estimated scf accuracy    <       0.45976211 Ry

     iteration #  4     ecut=   100.00 Ry     beta=0.50
     Davidson diagonalization with overlap
     ethr =  1.34E-04,  avg # of iterations =  3.0

     total cpu time spent up to now is      500.0 secs

     total energy              =   -1743.59303462 Ry
     Harris-Foulkes estimate   =   -1743.62298598 Ry
     estimated scf accuracy    <       0.07718293 Ry

     iteration #  5     ecut=   100.00 Ry     beta=0.50
     Davidson diagonalization with overlap
     ethr =  2.24E-05,  avg # of iterations =  8.6

     total cpu time spent up to now is      660.7 secs

     total energy              =   -1743.61758485 Ry
     Harris-Foulkes estimate   =   -1743.64556891 Ry
     estimated scf accuracy    <       0.08440648 Ry

     iteration #  6     ecut=   100.00 Ry     beta=0.50
     Davidson diagonalization with overlap
     ethr =  2.24E-05,  avg # of iterations =  2.0

     total cpu time spent up to now is      735.3 secs

     total energy              =   -1743.62078651 Ry
     Harris-Foulkes estimate   =   -1743.62662506 Ry
     estimated scf accuracy    <       0.01635904 Ry

     iteration #  7     ecut=   100.00 Ry     beta=0.50
     Davidson diagonalization with overlap
     ethr =  4.76E-06,  avg # of iterations =  7.1

     total cpu time spent up to now is      857.8 secs

     total energy              =   -1743.62472994 Ry
     Harris-Foulkes estimate   =   -1743.62516559 Ry
     estimated scf accuracy    <       0.00098990 Ry

     iteration #  8     ecut=   100.00 Ry     beta=0.50
     Davidson diagonalization with overlap
     ethr =  2.88E-07,  avg # of iterations =  3.5

     total cpu time spent up to now is      980.7 secs

     total energy              =   -1743.62492518 Ry
     Harris-Foulkes estimate   =   -1743.62530634 Ry
     estimated scf accuracy    <       0.00076452 Ry

     iteration #  9     ecut=   100.00 Ry     beta=0.50
     Davidson diagonalization with overlap
     ethr =  2.22E-07,  avg # of iterations =  2.2

     total cpu time spent up to now is     1053.3 secs

     total energy              =   -1743.62496057 Ry
     Harris-Foulkes estimate   =   -1743.62499845 Ry
     estimated scf accuracy    <       0.00008400 Ry

     iteration # 10     ecut=   100.00 Ry     beta=0.50
     Davidson diagonalization with overlap
     ethr =  2.44E-08,  avg # of iterations =  4.0

     total cpu time spent up to now is     1199.0 secs

     total energy              =   -1743.62510379 Ry
     Harris-Foulkes estimate   =   -1743.62513107 Ry
     estimated scf accuracy    <       0.00011917 Ry

     iteration # 11     ecut=   100.00 Ry     beta=0.50
     Davidson diagonalization with overlap
     ethr =  2.44E-08,  avg # of iterations =  1.0

     total cpu time spent up to now is     1268.7 secs

     total energy              =   -1743.62507084 Ry
     Harris-Foulkes estimate   =   -1743.62510587 Ry
     estimated scf accuracy    <       0.00006606 Ry

     iteration # 12     ecut=   100.00 Ry     beta=0.50
     Davidson diagonalization with overlap
     ethr =  1.92E-08,  avg # of iterations =  3.0

     total cpu time spent up to now is     1374.3 secs

     total energy              =   -1743.62509358 Ry
     Harris-Foulkes estimate   =   -1743.62509537 Ry
     estimated scf accuracy    <       0.00000444 Ry

     iteration # 13     ecut=   100.00 Ry     beta=0.50
     Davidson diagonalization with overlap
     ethr =  1.29E-09,  avg # of iterations =  1.1

     total cpu time spent up to now is     1444.2 secs

     total energy              =   -1743.62509320 Ry
     Harris-Foulkes estimate   =   -1743.62509384 Ry
     estimated scf accuracy    <       0.00000128 Ry

     iteration # 14     ecut=   100.00 Ry     beta=0.50
     Davidson diagonalization with overlap
     ethr =  3.72E-10,  avg # of iterations =  3.4

     total cpu time spent up to now is     1560.2 secs

     total energy              =   -1743.62509406 Ry
     Harris-Foulkes estimate   =   -1743.62509410 Ry
     estimated scf accuracy    <       0.00000025 Ry

     iteration # 15     ecut=   100.00 Ry     beta=0.50
     Davidson diagonalization with overlap
     ethr =  7.35E-11,  avg # of iterations =  1.0

     total cpu time spent up to now is     1629.9 secs

     total energy              =   -1743.62509399 Ry
     Harris-Foulkes estimate   =   -1743.62509407 Ry
     estimated scf accuracy    <       0.00000017 Ry

     iteration # 16     ecut=   100.00 Ry     beta=0.50
     Davidson diagonalization with overlap
     ethr =  4.92E-11,  avg # of iterations =  3.0

     total cpu time spent up to now is     1731.5 secs

     End of self-consistent calculation

          k = 0.0000 0.0000 0.0000 (114913 PWs)   bands (ev):

   -24.8220 -24.8216 -24.8198 -24.8194 -19.6237 -19.6113 -19.5219 -19.4876
   -19.4805 -19.4740 -19.4725 -19.4415 -19.3427 -19.3305 -19.2667 -19.2357
   -19.1342 -19.1155 -19.0693 -19.0602 -19.0143 -19.0092 -18.9862 -18.9789
   -18.5388 -18.5354 -18.4722 -18.4650 -13.1785 -13.1759 -13.1595 -13.1563
   -13.0787 -13.0538 -13.0174 -12.9880 -11.6595 -11.5775 -11.5671 -11.4648
    -9.6630  -9.6611  -9.6225  -9.6209  -9.5343  -9.5154  -9.4758  -9.4374
    -9.3752  -9.3561  -9.2800  -9.2561  -8.7973  -8.7965  -8.7617  -8.7243
    -7.1461  -7.1124  -7.1099  -7.1008  -7.0728  -7.0512  -7.0394  -7.0353
    -6.9263  -6.9236  -6.8648  -6.7569  -6.7533  -6.6961  -6.6655  -6.6569
    -6.5645  -6.5535  -6.5110  -6.5078  -6.4237  -6.3704  -6.3514  -6.3264
    -6.2779  -6.2620  -6.2330  -6.1345  -6.0989  -6.0322  -6.0216  -5.9867
    -5.9497  -5.8369  -5.8310  -5.7811  -4.7158  -4.6959  -4.6471  -4.5911
    -4.5614  -4.4734  -4.4404  -4.3877  -4.2896  -4.2713  -4.2660  -4.1628
    -3.9588  -3.9444  -3.9391  -3.8268  -3.7959  -3.7856  -3.7673  -3.6793
    -3.5607  -3.5213  -3.4163  -3.3737  -3.2635  -3.2329  -3.2177  -3.1862
    -3.1145  -3.0885  -3.0529  -3.0473  -2.9969  -2.9959  -2.9815  -2.9102
    -2.5870  -2.5787  -2.3417  -2.2638  -1.9694  -1.9400  -1.9314  -1.8581
    -1.8502  -1.8052  -1.6424  -1.5932  -1.2525  -1.2394  -1.1743  -1.1698
    -1.1594  -1.1386  -1.0778  -1.0640  -1.0280  -1.0050  -0.9944  -0.9852
    -0.9791  -0.9563  -0.9400  -0.8950  -0.3868  -0.3852  -0.2918  -0.2665
    -0.1384  -0.1341  -0.0311   0.0573   0.1002   0.1573   0.1647   0.1977
     0.4733   0.5026   0.5194   0.5426   4.1027   4.1438   4.1702   4.2134
     6.0543   6.1463   6.2038   6.6905   6.7988   6.9274   7.0706   7.4306
     7.4367   7.5115   7.5754   7.5835   7.6248   7.7516   7.7646   7.8097
     7.8310   7.8880   7.9448   7.9745   8.1104   8.2197   8.2234   8.3118
     8.3212   8.3713   8.4106   8.5587   8.5621   8.5777

          k = 0.0000 0.0000-0.3523 (115014 PWs)   bands (ev):

   -24.8218 -24.8218 -24.8196 -24.8196 -19.6232 -19.6232 -19.5199 -19.5199
   -19.4742 -19.4742 -19.4537 -19.4537 -19.3288 -19.3288 -19.2321 -19.2321
   -19.1280 -19.1280 -19.0597 -19.0597 -19.0216 -19.0216 -18.9828 -18.9828
   -18.5390 -18.5390 -18.4715 -18.4715 -13.2203 -13.2203 -13.1140 -13.1140
   -13.0343 -13.0343 -13.0283 -13.0283 -11.5817 -11.5817 -11.5706 -11.5706
    -9.6174  -9.6174  -9.6006  -9.6006  -9.5171  -9.5171  -9.5001  -9.5001
    -9.3516  -9.3516  -9.2944  -9.2944  -8.8217  -8.8217  -8.7503  -8.7503
    -7.1236  -7.1236  -7.0673  -7.0673  -7.0244  -7.0244  -7.0124  -7.0124
    -6.9273  -6.9273  -6.7583  -6.7583  -6.7037  -6.7037  -6.6943  -6.6943
    -6.5451  -6.5451  -6.4880  -6.4880  -6.4542  -6.4542  -6.3740  -6.3740
    -6.3258  -6.3258  -6.2027  -6.2027  -6.0797  -6.0797  -5.9828  -5.9828
    -5.8957  -5.8957  -5.8493  -5.8493  -4.6724  -4.6724  -4.6443  -4.6443
    -4.4732  -4.4732  -4.4267  -4.4267  -4.2637  -4.2637  -4.2059  -4.2059
    -3.9798  -3.9798  -3.8352  -3.8352  -3.7963  -3.7963  -3.7284  -3.7284
    -3.5284  -3.5284  -3.4227  -3.4227  -3.2954  -3.2954  -3.2191  -3.2191
    -3.0915  -3.0915  -3.0683  -3.0683  -2.9917  -2.9917  -2.9296  -2.9296
    -2.4862  -2.4862  -2.2989  -2.2989  -1.9516  -1.9516  -1.8891  -1.8891
    -1.8011  -1.8011  -1.6185  -1.6185  -1.2732  -1.2732  -1.2031  -1.2031
    -1.1634  -1.1634  -1.1177  -1.1177  -1.0141  -1.0141  -1.0018  -1.0018
    -0.9569  -0.9569  -0.9112  -0.9112  -0.3345  -0.3345  -0.3057  -0.3057
    -0.1590  -0.1590   0.0556   0.0556   0.0944   0.0944   0.1705   0.1705
     0.4843   0.4843   0.5247   0.5247   4.1164   4.1164   4.1846   4.1846
     6.2272   6.2272   6.3466   6.3466   6.8646   6.8646   7.1866   7.1866
     7.5080   7.5080   7.6437   7.6437   7.7357   7.7357   7.9155   7.9155
     7.9577   7.9577   8.0932   8.0932   8.1574   8.1574   8.2170   8.2170
     8.3338   8.3338   8.4950   8.4950   8.5517   8.5517

          k = 0.0000-0.2015 0.0000 (115022 PWs)   bands (ev):

   -24.8218 -24.8218 -24.8195 -24.8195 -19.6179 -19.6179 -19.5093 -19.5093
   -19.4768 -19.4768 -19.4524 -19.4524 -19.3381 -19.3381 -19.2499 -19.2499
   -19.1283 -19.1283 -19.0556 -19.0556 -19.0203 -19.0203 -18.9797 -18.9797
   -18.5372 -18.5372 -18.4685 -18.4685 -13.1772 -13.1772 -13.1578 -13.1578
   -13.0690 -13.0690 -13.0000 -13.0000 -11.6358 -11.6358 -11.4987 -11.4987
    -9.6638  -9.6638  -9.6190  -9.6190  -9.5263  -9.5263  -9.4557  -9.4557
    -9.3685  -9.3685  -9.2655  -9.2655  -8.7973  -8.7973  -8.7426  -8.7426
    -7.1270  -7.1270  -7.0994  -7.0994  -7.0868  -7.0868  -7.0292  -7.0292
    -6.9084  -6.9084  -6.8195  -6.8195  -6.7306  -6.7306  -6.6706  -6.6706
    -6.5495  -6.5495  -6.5054  -6.5054  -6.3978  -6.3978  -6.3398  -6.3398
    -6.2632  -6.2632  -6.1766  -6.1766  -6.0924  -6.0924  -5.9987  -5.9987
    -5.8944  -5.8944  -5.7938  -5.7938  -4.7072  -4.7072  -4.6054  -4.6054
    -4.5204  -4.5204  -4.4386  -4.4386  -4.2844  -4.2844  -4.1973  -4.1973
    -3.9615  -3.9615  -3.8701  -3.8701  -3.8053  -3.8053  -3.7024  -3.7024
    -3.5608  -3.5608  -3.3734  -3.3734  -3.2816  -3.2816  -3.1730  -3.1730
    -3.0973  -3.0973  -3.0422  -3.0422  -3.0340  -3.0340  -2.9247  -2.9247
    -2.5827  -2.5827  -2.3035  -2.3035  -1.9568  -1.9568  -1.9026  -1.9026
    -1.8180  -1.8180  -1.6164  -1.6164  -1.2434  -1.2434  -1.1758  -1.1758
    -1.1500  -1.1500  -1.0681  -1.0681  -1.0175  -1.0175  -0.9918  -0.9918
    -0.9719  -0.9719  -0.9110  -0.9110  -0.3870  -0.3870  -0.2788  -0.2788
    -0.1366  -0.1366   0.0014   0.0014   0.1453   0.1453   0.1769   0.1769
     0.4845   0.4845   0.5345   0.5345   4.1169   4.1169   4.1979   4.1979
     6.0672   6.0672   6.4447   6.4447   6.8736   6.8736   7.2295   7.2295
     7.5189   7.5189   7.5300   7.5300   7.6999   7.6999   7.8259   7.8259
     7.8487   7.8487   7.9591   7.9591   8.1791   8.1791   8.2545   8.2545
     8.3636   8.3636   8.4860   8.4860   8.6214   8.6214

          k = 0.0000-0.2015-0.3523 (115020 PWs)   bands (ev):

   -24.8218 -24.8218 -24.8196 -24.8196 -19.6231 -19.6231 -19.5211 -19.5211
   -19.4705 -19.4705 -19.4562 -19.4562 -19.3286 -19.3286 -19.2337 -19.2337
   -19.1215 -19.1215 -19.0705 -19.0705 -19.0134 -19.0134 -18.9852 -18.9852
   -18.5390 -18.5390 -18.4715 -18.4715 -13.2203 -13.2203 -13.1142 -13.1142
   -13.0330 -13.0330 -13.0295 -13.0295 -11.5781 -11.5781 -11.5743 -11.5743
    -9.6122  -9.6122  -9.6075  -9.6075  -9.5108  -9.5108  -9.5053  -9.5053
    -9.3470  -9.3470  -9.2981  -9.2981  -8.8211  -8.8211  -8.7511  -8.7511
    -7.1175  -7.1175  -7.0762  -7.0762  -7.0315  -7.0315  -7.0039  -7.0039
    -6.9259  -6.9259  -6.7353  -6.7353  -6.7273  -6.7273  -6.7009  -6.7009
    -6.5333  -6.5333  -6.5020  -6.5020  -6.4556  -6.4556  -6.3564  -6.3564
    -6.3180  -6.3180  -6.2189  -6.2189  -6.0736  -6.0736  -5.9874  -5.9874
    -5.8982  -5.8982  -5.8473  -5.8473  -4.6809  -4.6809  -4.6114  -4.6114
    -4.5031  -4.5031  -4.4276  -4.4276  -4.2562  -4.2562  -4.2084  -4.2084
    -3.9655  -3.9655  -3.8530  -3.8530  -3.8025  -3.8025  -3.7214  -3.7214
    -3.5128  -3.5128  -3.4385  -3.4385  -3.2677  -3.2677  -3.2536  -3.2536
    -3.0836  -3.0836  -3.0687  -3.0687  -2.9667  -2.9667  -2.9494  -2.9494
    -2.4857  -2.4857  -2.3018  -2.3018  -1.9420  -1.9420  -1.8986  -1.8986
    -1.7987  -1.7987  -1.6194  -1.6194  -1.2489  -1.2489  -1.2423  -1.2423
    -1.1361  -1.1361  -1.1300  -1.1300  -1.0092  -1.0092  -1.0076  -1.0076
    -0.9556  -0.9556  -0.9116  -0.9116  -0.3349  -0.3349  -0.3059  -0.3059
    -0.1581  -0.1581   0.0487   0.0487   0.1034   0.1034   0.1678   0.1678
     0.4844   0.4844   0.5245   0.5245   4.1162   4.1162   4.1845   4.1845
     6.2295   6.2295   6.3456   6.3456   6.9767   6.9767   7.0238   7.0238
     7.5493   7.5493   7.6413   7.6413   7.7652   7.7652   7.8400   7.8400
     8.0110   8.0110   8.0210   8.0210   8.1724   8.1724   8.2319   8.2319
     8.3881   8.3881   8.4587   8.4587   8.6405   8.6406

          k = 0.3333 0.0000 0.0051 (114995 PWs)   bands (ev):

   -24.8219 -24.8215 -24.8197 -24.8193 -19.6108 -19.5921 -19.5180 -19.5037
   -19.4824 -19.4727 -19.4708 -19.4598 -19.3391 -19.3272 -19.2568 -19.2344
   -19.1393 -19.1295 -19.0676 -19.0494 -19.0256 -19.0233 -18.9916 -18.9643
   -18.5445 -18.5365 -18.4734 -18.4630 -13.1437 -13.1408 -13.1341 -13.1299
   -13.0908 -13.0631 -13.0332 -13.0027 -11.7034 -11.6299 -11.6084 -11.5049
    -9.6384  -9.6267  -9.6035  -9.5852  -9.5295  -9.5171  -9.4424  -9.4074
    -9.3505  -9.3312  -9.2954  -9.2528  -8.8339  -8.7999  -8.7655  -8.7354
    -7.1834  -7.1669  -7.1571  -7.1126  -7.0852  -7.0309  -7.0044  -6.9898
    -6.9470  -6.9453  -6.8708  -6.8324  -6.7222  -6.7092  -6.7086  -6.6389
    -6.6220  -6.5349  -6.4876  -6.4439  -6.4114  -6.3983  -6.3632  -6.2782
    -6.2300  -6.2277  -6.2163  -6.1390  -6.1048  -6.0492  -6.0393  -6.0048
    -5.8824  -5.8017  -5.7962  -5.7417  -4.7403  -4.7278  -4.6859  -4.6024
    -4.5313  -4.4599  -4.4308  -4.3608  -4.3084  -4.2801  -4.2476  -4.1929
    -3.9624  -3.9466  -3.9135  -3.8265  -3.7964  -3.7643  -3.7413  -3.6353
    -3.5869  -3.5201  -3.4387  -3.3840  -3.2967  -3.2842  -3.2136  -3.1968
    -3.1410  -3.1158  -3.0882  -3.0133  -3.0088  -2.9891  -2.9527  -2.9470
    -2.5189  -2.4897  -2.3897  -2.2885  -1.9797  -1.9468  -1.9413  -1.8766
    -1.8314  -1.7651  -1.6192  -1.5872  -1.2676  -1.2462  -1.1881  -1.1525
    -1.1404  -1.1158  -1.0873  -1.0817  -1.0279  -1.0180  -0.9913  -0.9706
    -0.9589  -0.9466  -0.9374  -0.9215  -0.4287  -0.3952  -0.3592  -0.2474
    -0.1014  -0.0351  -0.0073   0.0545   0.0707   0.1483   0.1582   0.1712
     0.4841   0.4868   0.5221   0.5231   4.0597   4.1282   4.1472   4.2027
     6.1715   6.1857   6.4431   6.6692   6.6751   6.8888   7.0971   7.1113
     7.2355   7.2722   7.4073   7.4506   7.4860   7.5676   7.5707   7.7159
     7.7366   7.7635   7.8088   7.8323   7.9307   7.9410   8.0600   8.0674
     8.1667   8.1804   8.4736   8.4825   8.5146   8.6533

          k = 0.3333 0.0000-0.3472 (114976 PWs)   bands (ev):

   -24.8217 -24.8217 -24.8195 -24.8195 -19.6051 -19.6040 -19.5268 -19.5063
   -19.4829 -19.4744 -19.4702 -19.4496 -19.3335 -19.3297 -19.2583 -19.2298
   -19.1369 -19.1219 -19.0705 -19.0552 -19.0250 -19.0168 -18.9853 -18.9690
   -18.5441 -18.5392 -18.4724 -18.4688 -13.1896 -13.1852 -13.1002 -13.0974
   -13.0515 -13.0474 -13.0408 -13.0261 -11.6259 -11.6209 -11.6106 -11.6040
    -9.6186  -9.6064  -9.5720  -9.5621  -9.5021  -9.5005  -9.4457  -9.4265
    -9.3478  -9.3363  -9.3066  -9.2735  -8.8450  -8.8365  -8.8028  -8.7750
    -7.1498  -7.1250  -7.1098  -7.0665  -7.0460  -7.0419  -6.9955  -6.9909
    -6.9490  -6.9481  -6.8179  -6.8140  -6.7624  -6.7410  -6.6683  -6.6481
    -6.5742  -6.5233  -6.5202  -6.4763  -6.4731  -6.4090  -6.3388  -6.3072
    -6.3012  -6.2655  -6.1998  -6.1833  -6.0983  -6.0886  -6.0333  -6.0182
    -5.8711  -5.8396  -5.7943  -5.7589  -4.7096  -4.7088  -4.6796  -4.6407
    -4.4668  -4.4499  -4.3916  -4.3834  -4.2993  -4.2596  -4.2194  -4.2170
    -3.9790  -3.9589  -3.8796  -3.8574  -3.7701  -3.7618  -3.7055  -3.6944
    -3.5168  -3.4351  -3.4298  -3.4192  -3.2883  -3.2488  -3.2305  -3.2219
    -3.1292  -3.1038  -3.0605  -3.0546  -3.0266  -2.9951  -2.9702  -2.9635
    -2.4811  -2.4802  -2.3982  -2.3381  -1.9359  -1.9357  -1.8937  -1.8872
    -1.8121  -1.7981  -1.5951  -1.5923  -1.2531  -1.2299  -1.2062  -1.1889
    -1.1842  -1.1832  -1.1554  -1.0936  -1.0254  -1.0163  -1.0073  -0.9741
    -0.9736  -0.9473  -0.9360  -0.9019  -0.4205  -0.4178  -0.2848  -0.2832
    -0.0859  -0.0653   0.0263   0.0482   0.0894   0.0928   0.1456   0.1647
     0.4824   0.4839   0.5222   0.5224   4.0951   4.1033   4.1694   4.1767
     6.2561   6.4473   6.5228   6.6341   6.6734   6.9577   7.0352   7.1843
     7.2312   7.3291   7.3748   7.3870   7.4391   7.4788   7.6824   7.6970
     7.7807   7.7871   7.8351   7.8436   7.9517   7.9664   7.9987   8.1056
     8.1717   8.2708   8.3958   8.4459   8.4928   8.5393

          k = 0.3333-0.2015 0.0051 (114984 PWs)   bands (ev):

   -24.8217 -24.8217 -24.8195 -24.8195 -19.6025 -19.6025 -19.5085 -19.5085
   -19.4801 -19.4801 -19.4643 -19.4643 -19.3330 -19.3330 -19.2469 -19.2469
   -19.1307 -19.1307 -19.0648 -19.0648 -19.0225 -19.0225 -18.9760 -18.9760
   -18.5408 -18.5408 -18.4679 -18.4679 -13.1422 -13.1422 -13.1319 -13.1319
   -13.0807 -13.0807 -13.0143 -13.0143 -11.6820 -11.6820 -11.5415 -11.5415
    -9.6343  -9.6343  -9.5927  -9.5927  -9.5253  -9.5253  -9.4153  -9.4153
    -9.3569  -9.3569  -9.2652  -9.2652  -8.8209  -8.8209  -8.7470  -8.7470
    -7.1896  -7.1896  -7.1140  -7.1140  -7.0652  -7.0652  -6.9965  -6.9965
    -6.9514  -6.9514  -6.8345  -6.8345  -6.7395  -6.7395  -6.6776  -6.6776
    -6.5638  -6.5638  -6.4644  -6.4644  -6.4120  -6.4120  -6.3136  -6.3136
    -6.2202  -6.2202  -6.1946  -6.1946  -6.0854  -6.0854  -6.0071  -6.0071
    -5.8536  -5.8536  -5.7564  -5.7564  -4.7343  -4.7343  -4.6405  -4.6405
    -4.4911  -4.4911  -4.4110  -4.4110  -4.3103  -4.3103  -4.1938  -4.1938
    -3.9535  -3.9535  -3.8884  -3.8884  -3.7689  -3.7689  -3.6863  -3.6863
    -3.5609  -3.5609  -3.3944  -3.3944  -3.3127  -3.3127  -3.1929  -3.1929
    -3.1258  -3.1258  -3.0513  -3.0513  -3.0073  -3.0073  -2.9402  -2.9402
    -2.5149  -2.5149  -2.3313  -2.3313  -1.9689  -1.9689  -1.9121  -1.9121
    -1.7871  -1.7871  -1.6040  -1.6040  -1.2613  -1.2613  -1.1596  -1.1596
    -1.1368  -1.1368  -1.0824  -1.0824  -1.0280  -1.0280  -0.9764  -0.9764
    -0.9487  -0.9487  -0.9330  -0.9330  -0.4193  -0.4193  -0.3016  -0.3016
    -0.0640  -0.0640   0.0131   0.0131   0.1211   0.1211   0.1651   0.1651
     0.4855   0.4855   0.5226   0.5226   4.0834   4.0834   4.1856   4.1856
     6.1785   6.1785   6.4956   6.4956   6.8545   6.8545   7.0739   7.0739
     7.2964   7.2964   7.4168   7.4168   7.5160   7.5160   7.6350   7.6350
     7.6987   7.6987   7.8805   7.8805   7.9354   7.9354   8.1044   8.1044
     8.1729   8.1729   8.4207   8.4207   8.5116   8.5116

          k = 0.3333-0.2015-0.3472 (115028 PWs)   bands (ev):

   -24.8217 -24.8217 -24.8195 -24.8195 -19.6046 -19.6046 -19.5180 -19.5180
   -19.4803 -19.4803 -19.4567 -19.4567 -19.3319 -19.3319 -19.2448 -19.2448
   -19.1286 -19.1286 -19.0618 -19.0618 -19.0235 -19.0235 -18.9755 -18.9755
   -18.5417 -18.5417 -18.4705 -18.4705 -13.1874 -13.1874 -13.0990 -13.0990
   -13.0498 -13.0498 -13.0328 -13.0328 -11.6184 -11.6184 -11.6124 -11.6124
    -9.6116  -9.6116  -9.5713  -9.5713  -9.4982  -9.4982  -9.4380  -9.4380
    -9.3327  -9.3327  -9.2972  -9.2972  -8.8419  -8.8419  -8.7881  -8.7881
    -7.1355  -7.1355  -7.0943  -7.0943  -7.0487  -7.0487  -6.9808  -6.9808
    -6.9489  -6.9489  -6.8061  -6.8061  -6.7648  -6.7648  -6.6610  -6.6610
    -6.5557  -6.5557  -6.5035  -6.5035  -6.4260  -6.4260  -6.3273  -6.3273
    -6.2694  -6.2694  -6.2023  -6.2023  -6.0875  -6.0875  -6.0330  -6.0330
    -5.8575  -5.8575  -5.7727  -5.7727  -4.7143  -4.7143  -4.6434  -4.6434
    -4.4633  -4.4633  -4.4031  -4.4031  -4.2682  -4.2682  -4.2186  -4.2186
    -3.9473  -3.9473  -3.8971  -3.8971  -3.7758  -3.7758  -3.6870  -3.6870
    -3.4788  -3.4788  -3.4185  -3.4185  -3.2619  -3.2619  -3.2376  -3.2376
    -3.1116  -3.1116  -3.0612  -3.0612  -3.0083  -3.0083  -2.9659  -2.9659
    -2.4821  -2.4821  -2.3687  -2.3687  -1.9362  -1.9362  -1.8900  -1.8900
    -1.8012  -1.8012  -1.5956  -1.5956  -1.2426  -1.2426  -1.2048  -1.2048
    -1.1762  -1.1762  -1.1278  -1.1278  -1.0246  -1.0246  -0.9835  -0.9835
    -0.9587  -0.9587  -0.9198  -0.9198  -0.4191  -0.4191  -0.2844  -0.2844
    -0.0767  -0.0767   0.0365   0.0365   0.0959   0.0959   0.1525   0.1525
     0.4832   0.4832   0.5222   0.5222   4.0995   4.0995   4.1728   4.1728
     6.3013   6.3013   6.6094   6.6094   6.8686   6.8686   7.0811   7.0811
     7.2118   7.2118   7.4271   7.4271   7.5029   7.5029   7.5958   7.5958
     7.7685   7.7685   7.9078   7.9078   7.9733   7.9733   8.0549   8.0549
     8.2249   8.2249   8.4119   8.4119   8.5355   8.5355

     highest occupied, lowest unoccupied level (ev):     0.5426    4.0597

!    total energy              =   -1743.62509403 Ry
     Harris-Foulkes estimate   =   -1743.62509403 Ry
     estimated scf accuracy    <          3.9E-09 Ry

     total all-electron energy =     -6392.679078 Ry

     The total energy is the sum of the following terms:

     one-electron contribution =    -920.73245365 Ry
     hartree contribution      =     594.29368064 Ry
     xc contribution           =    -366.79354547 Ry
     ewald contribution        =    -595.71291827 Ry
     Dispersion Correction     =      -0.52015126 Ry
     one-center paw contrib.   =    -454.15970601 Ry

     convergence has been achieved in  16 iterations

     Forces acting on atoms (cartesian axes, Ry/au):

     atom    1 type  4   force =    -0.00085396   -0.00000228   -0.00044839
     atom    2 type  4   force =     0.00085396   -0.00000228    0.00044839
     atom    3 type  4   force =     0.00085396    0.00000228    0.00044839
     atom    4 type  4   force =    -0.00085396    0.00000228   -0.00044839
     atom    5 type  4   force =     0.00100639    0.00134860   -0.00049408
     atom    6 type  4   force =    -0.00100639    0.00134860    0.00049408
     atom    7 type  4   force =    -0.00100639   -0.00134860    0.00049408
     atom    8 type  4   force =     0.00100639   -0.00134860   -0.00049408
     atom    9 type  4   force =     0.00043732   -0.00205089    0.00029102
     atom   10 type  4   force =    -0.00043732   -0.00205089   -0.00029102
     atom   11 type  4   force =    -0.00043732    0.00205089   -0.00029102
     atom   12 type  4   force =     0.00043732    0.00205089    0.00029102
     atom   13 type  2   force =     0.00159033    0.00042194    0.00020285
     atom   14 type  2   force =    -0.00159033    0.00042194   -0.00020285
     atom   15 type  2   force =    -0.00159033   -0.00042194   -0.00020285
     atom   16 type  2   force =     0.00159033   -0.00042194    0.00020285
     atom   17 type  1   force =    -0.00131379   -0.00033145   -0.00097846
     atom   18 type  1   force =     0.00131379   -0.00033145    0.00097846
     atom   19 type  1   force =     0.00131379    0.00033145    0.00097846
     atom   20 type  1   force =    -0.00131379    0.00033145   -0.00097846
     atom   21 type  1   force =    -0.00077006   -0.00021739    0.00071397
     atom   22 type  1   force =     0.00077006   -0.00021739   -0.00071397
     atom   23 type  1   force =     0.00077006    0.00021739   -0.00071397
     atom   24 type  1   force =    -0.00077006    0.00021739    0.00071397
     atom   25 type  1   force =    -0.00165635    0.00061339   -0.00047866
     atom   26 type  1   force =     0.00165635    0.00061339    0.00047866
     atom   27 type  1   force =     0.00165635   -0.00061339    0.00047866
     atom   28 type  1   force =    -0.00165635   -0.00061339   -0.00047866
     atom   29 type  1   force =     0.00101630   -0.00199571    0.00218595
     atom   30 type  1   force =    -0.00101630   -0.00199571   -0.00218595
     atom   31 type  1   force =    -0.00101630    0.00199571   -0.00218595
     atom   32 type  1   force =     0.00101630    0.00199571    0.00218595
     atom   33 type  1   force =     0.00030674    0.00027749   -0.00029966
     atom   34 type  1   force =    -0.00030674    0.00027749    0.00029966
     atom   35 type  1   force =    -0.00030674   -0.00027749    0.00029966
     atom   36 type  1   force =     0.00030674   -0.00027749   -0.00029966
     atom   37 type  1   force =    -0.00071338    0.00057425   -0.00015780
     atom   38 type  1   force =     0.00071338    0.00057425    0.00015780
     atom   39 type  1   force =     0.00071338   -0.00057425    0.00015780
     atom   40 type  1   force =    -0.00071338   -0.00057425   -0.00015780
     atom   41 type  3   force =     0.00001035    0.00019737   -0.00102576
     atom   42 type  3   force =    -0.00001035    0.00019737    0.00102576
     atom   43 type  3   force =    -0.00001035   -0.00019737    0.00102576
     atom   44 type  3   force =     0.00001035   -0.00019737   -0.00102576
     atom   45 type  3   force =     0.00010841   -0.00013603    0.00006870
     atom   46 type  3   force =    -0.00010841   -0.00013603   -0.00006870
     atom   47 type  3   force =    -0.00010841    0.00013603   -0.00006870
     atom   48 type  3   force =     0.00010841    0.00013603    0.00006870
     atom   49 type  3   force =     0.00043374    0.00058987    0.00006026
     atom   50 type  3   force =    -0.00043374    0.00058987   -0.00006026
     atom   51 type  3   force =    -0.00043374   -0.00058987   -0.00006026
     atom   52 type  3   force =     0.00043374   -0.00058987    0.00006026
     atom   53 type  3   force =     0.00052686   -0.00030602   -0.00039232
     atom   54 type  3   force =    -0.00052686   -0.00030602    0.00039232
     atom   55 type  3   force =    -0.00052686    0.00030602    0.00039232
     atom   56 type  3   force =     0.00052686    0.00030602   -0.00039232
     atom   57 type  3   force =     0.00027549   -0.00098606   -0.00003554
     atom   58 type  3   force =    -0.00027549   -0.00098606    0.00003554
     atom   59 type  3   force =    -0.00027549    0.00098606    0.00003554
     atom   60 type  3   force =     0.00027549    0.00098606   -0.00003554
     atom   61 type  3   force =    -0.00069229   -0.00010711    0.00158325
     atom   62 type  3   force =     0.00069229   -0.00010711   -0.00158325
     atom   63 type  3   force =     0.00069229    0.00010711   -0.00158325
     atom   64 type  3   force =    -0.00069229    0.00010711    0.00158325
     atom   65 type  3   force =     0.00051855    0.00035015   -0.00063558
     atom   66 type  3   force =    -0.00051855    0.00035015    0.00063558
     atom   67 type  3   force =    -0.00051855   -0.00035015    0.00063558
     atom   68 type  3   force =     0.00051855   -0.00035015   -0.00063558
     atom   69 type  3   force =     0.00132025    0.00039550    0.00054123
     atom   70 type  3   force =    -0.00132025    0.00039550   -0.00054123
     atom   71 type  3   force =    -0.00132025   -0.00039550   -0.00054123
     atom   72 type  3   force =     0.00132025   -0.00039550    0.00054123
     atom   73 type  3   force =     0.00073811   -0.00036580   -0.00004717
     atom   74 type  3   force =    -0.00073811   -0.00036580    0.00004717
     atom   75 type  3   force =    -0.00073811    0.00036580    0.00004717
     atom   76 type  3   force =     0.00073811    0.00036580   -0.00004717
     atom   77 type  3   force =    -0.00002178   -0.00094776   -0.00020192
     atom   78 type  3   force =     0.00002178   -0.00094776    0.00020192
     atom   79 type  3   force =     0.00002178    0.00094776    0.00020192
     atom   80 type  3   force =    -0.00002178    0.00094776   -0.00020192
     atom   81 type  3   force =    -0.00125986    0.00063160   -0.00025888
     atom   82 type  3   force =     0.00125986    0.00063160    0.00025888
     atom   83 type  3   force =     0.00125986   -0.00063160    0.00025888
     atom   84 type  3   force =    -0.00125986   -0.00063160   -0.00025888
     atom   85 type  3   force =    -0.00017083   -0.00001321   -0.00051769
     atom   86 type  3   force =     0.00017083   -0.00001321    0.00051769
     atom   87 type  3   force =     0.00017083    0.00001321    0.00051769
     atom   88 type  3   force =    -0.00017083    0.00001321   -0.00051769
     atom   89 type  3   force =     0.00042876    0.00068326   -0.00040704
     atom   90 type  3   force =    -0.00042876    0.00068326    0.00040704
     atom   91 type  3   force =    -0.00042876   -0.00068326    0.00040704
     atom   92 type  3   force =     0.00042876   -0.00068326   -0.00040704
     atom   93 type  3   force =    -0.00042079   -0.00036217   -0.00061062
     atom   94 type  3   force =     0.00042079   -0.00036217    0.00061062
     atom   95 type  3   force =     0.00042079    0.00036217    0.00061062
     atom   96 type  3   force =    -0.00042079    0.00036217   -0.00061062
     atom   97 type  3   force =     0.00018644   -0.00014542    0.00015106
     atom   98 type  3   force =    -0.00018644   -0.00014542   -0.00015106
     atom   99 type  3   force =    -0.00018644    0.00014542   -0.00015106
     atom  100 type  3   force =     0.00018644    0.00014542    0.00015106
     atom  101 type  3   force =     0.00042440    0.00031450   -0.00023461
     atom  102 type  3   force =    -0.00042440    0.00031450    0.00023461
     atom  103 type  3   force =    -0.00042440   -0.00031450    0.00023461
     atom  104 type  3   force =     0.00042440   -0.00031450   -0.00023461
     atom  105 type  4   force =     0.00011646    0.00013310   -0.00022176
     atom  106 type  4   force =    -0.00011646    0.00013310    0.00022176
     atom  107 type  4   force =    -0.00011646   -0.00013310    0.00022176
     atom  108 type  4   force =     0.00011646   -0.00013310   -0.00022176
     atom  109 type  4   force =     0.00121553    0.00046297    0.00065299
     atom  110 type  4   force =    -0.00121553    0.00046297   -0.00065299
     atom  111 type  4   force =    -0.00121553   -0.00046297   -0.00065299
     atom  112 type  4   force =     0.00121553   -0.00046297    0.00065299
     atom  113 type  4   force =    -0.00005001    0.00090122    0.00025178
     atom  114 type  4   force =     0.00005001    0.00090122   -0.00025178
     atom  115 type  4   force =     0.00005001   -0.00090122   -0.00025178
     atom  116 type  4   force =    -0.00005001   -0.00090122    0.00025178
     atom  117 type  2   force =    -0.00016451    0.00041260    0.00009587
     atom  118 type  2   force =     0.00016451    0.00041260   -0.00009587
     atom  119 type  2   force =     0.00016451   -0.00041260   -0.00009587
     atom  120 type  2   force =    -0.00016451   -0.00041260    0.00009587

     Total force =     0.013833     Total SCF correction =     0.000155


     Computing stress (Cartesian axis) and pressure

          total   stress  (Ry/bohr**3)                   (kbar)     P=   -6.27
  -0.00004063   0.00000000   0.00001718         -5.98      0.00      2.53
   0.00000000  -0.00005287   0.00000000          0.00     -7.78      0.00
   0.00001718   0.00000000  -0.00003436          2.53      0.00     -5.05


     Writing output data file scf.save
 
     init_run     :     49.67s CPU     51.53s WALL (       1 calls)
     electrons    :   1612.56s CPU   1679.56s WALL (       1 calls)
     forces       :     25.65s CPU     25.91s WALL (       1 calls)
     stress       :    163.87s CPU    164.47s WALL (       1 calls)

     Called by init_run:
     wfcinit      :     36.35s CPU     37.99s WALL (       1 calls)
     potinit      :      4.72s CPU      4.80s WALL (       1 calls)

     Called by electrons:
     c_bands      :   1443.50s CPU   1500.68s WALL (      16 calls)
     sum_band     :    151.54s CPU    159.53s WALL (      16 calls)
     v_of_rho     :      2.22s CPU      2.44s WALL (      17 calls)
     newd         :      5.70s CPU      7.17s WALL (      17 calls)
     PAW_pot      :      8.74s CPU      8.75s WALL (      17 calls)
     mix_rho      :      0.57s CPU      0.61s WALL (      16 calls)

     Called by c_bands:
     init_us_2    :     10.98s CPU     11.04s WALL (     280 calls)
     cegterg      :   1404.92s CPU   1462.00s WALL (     128 calls)

     Called by sum_band:
     sum_band:bec :      0.10s CPU      0.10s WALL (     128 calls)
     addusdens    :      5.94s CPU      7.32s WALL (      16 calls)

     Called by *egterg:
     h_psi        :    796.06s CPU    838.28s WALL (     589 calls)
     s_psi        :    147.81s CPU    147.96s WALL (     589 calls)
     g_psi        :      5.81s CPU      5.82s WALL (     453 calls)
     cdiaghg      :     91.72s CPU     91.78s WALL (     581 calls)

     Called by h_psi:
     h_psi:pot    :    789.45s CPU    831.55s WALL (     589 calls)
     h_psi:calbec :    143.36s CPU    143.78s WALL (     589 calls)
     vloc_psi     :    498.43s CPU    539.96s WALL (     589 calls)
     add_vuspsi   :    147.65s CPU    147.81s WALL (     589 calls)

     General routines
     calbec       :    207.65s CPU    208.23s WALL (     757 calls)
     fft          :      1.32s CPU      1.67s WALL (     245 calls)
     fftw         :    532.29s CPU    578.31s WALL (  179108 calls)
 
     Parallel routines
     fft_scatter  :    106.22s CPU    145.49s WALL (  179353 calls)
 
     PWSCF        : 31m 4.94s CPU    33m 1.28s WALL

 
   This run was terminated on:   5:27:39   4Nov2017            

=------------------------------------------------------------------------------=
   JOB DONE.
=------------------------------------------------------------------------------=
