
     Program PWSCF v.6.1 (svn rev. 13369) starts on 21Dec2017 at 17:32:43 

     This program is part of the open-source Quantum ESPRESSO suite
     for quantum simulation of materials; please cite
         "P. Giannozzi et al., J. Phys.:Condens. Matter 21 395502 (2009);
          URL http://www.quantum-espresso.org", 
     in publications or presentations arising from this work. More details at
     http://www.quantum-espresso.org/quote

     Parallel version (MPI), running on     8 processors
     R & G space division:  proc/nbgrp/npool/nimage =       8
     Waiting for input...
     Reading input from standard input

     Current dimensions of program PWSCF are:
     Max number of different atomic species (ntypx) = 10
     Max number of k-points (npk) =  40000
     Max angular momentum in pseudopotentials (lmaxx) =  3
               file C.pbe-n-kjpaw_psl.0.1.UPF: wavefunction(s)  2P renormalized
               file N.pbe-n-kjpaw_psl.0.1.UPF: wavefunction(s)  2P renormalized
               file H.pbe-kjpaw_psl.0.1.UPF: wavefunction(s)  1S renormalized
               file O.pbe-n-kjpaw_psl.0.1.UPF: wavefunction(s)  2P renormalized

     -------------------------------------
     Parameters for Dispersion Correction:
     -------------------------------------
       atom      VdW radius       C_6     

        C          2.744         60.710
        N          2.640         42.670
        H          1.892          4.857
        O          2.536         24.284

     Subspace diagonalization in iterative solution of the eigenvalue problem:
     a serial algorithm will be used

 
     Parallelization info
     --------------------
     sticks:   dense  smooth     PW     G-vecs:    dense   smooth      PW
     Min         344     344     93                38234    38234    5423
     Max         345     345     94                38238    38238    5431
     Sum        2755    2755    751               305889   305889   43425
 


     bravais-lattice index     =            0
     lattice parameter (alat)  =       6.7613  a.u.
     unit-cell volume          =    2263.3589 (a.u.)^3
     number of atoms/cell      =           38
     number of atomic types    =            4
     number of electrons       =       128.00
     number of Kohn-Sham states=           76
     kinetic-energy cutoff     =     100.0000  Ry
     charge density cutoff     =     400.0000  Ry
     convergence threshold     =      1.0E-08
     mixing beta               =       0.5000
     number of iterations used =            8  plain     mixing
     Exchange-correlation      =  SLA  PW   PBX  PBC ( 1  4  3  4 0 0)

     celldm(1)=   6.761251  celldm(2)=   0.000000  celldm(3)=   0.000000
     celldm(4)=   0.000000  celldm(5)=   0.000000  celldm(6)=   0.000000

     crystal axes: (cart. coord. in units of alat)
               a(1) = (   1.000000   0.000000   0.000000 )  
               a(2) = (   0.122666   1.890740   0.000000 )  
               a(3) = (   0.045365   0.066906   3.872937 )  

     reciprocal axes: (cart. coord. in units 2 pi/alat)
               b(1) = (  1.000000 -0.064877 -0.010593 )  
               b(2) = (  0.000000  0.528893 -0.009137 )  
               b(3) = (  0.000000  0.000000  0.258202 )  


     PseudoPot. # 1 for  C read from file:
     /scratch/ahofstet/pseudo/C.pbe-n-kjpaw_psl.0.1.UPF
     MD5 check sum: 430fe95172b1e11ef3f8ed03bac87931
     Pseudo is Projector augmented-wave + core cor, Zval =  4.0
     Generated using "atomic" code by A. Dal Corso  v.5.0.99 svn rev. 10869
     Shape of augmentation charge: BESSEL
     Using radial grid of 1073 points,  4 beta functions with: 
                l(1) =   0
                l(2) =   0
                l(3) =   1
                l(4) =   1
     Q(r) pseudized with 0 coefficients 


     PseudoPot. # 2 for  N read from file:
     /scratch/ahofstet/pseudo/N.pbe-n-kjpaw_psl.0.1.UPF
     MD5 check sum: f73187c8b701007e77325f868c9291d7
     Pseudo is Projector augmented-wave + core cor, Zval =  5.0
     Generated using "atomic" code by A. Dal Corso  v.5.0.99 svn rev. 10869
     Shape of augmentation charge: PSQ
     Using radial grid of 1085 points,  4 beta functions with: 
                l(1) =   0
                l(2) =   0
                l(3) =   1
                l(4) =   1
     Q(r) pseudized with 0 coefficients 


     PseudoPot. # 3 for  H read from file:
     /scratch/ahofstet/pseudo/H.pbe-kjpaw_psl.0.1.UPF
     MD5 check sum: 94e484f906d9e9773b2f6e52662335b2
     Pseudo is Projector augmented-wave, Zval =  1.0
     Generated using "atomic" code by A. Dal Corso  v.5.0.99 svn rev. 10869
     Shape of augmentation charge: PSQ
     Using radial grid of  929 points,  2 beta functions with: 
                l(1) =   0
                l(2) =   0
     Q(r) pseudized with 0 coefficients 


     PseudoPot. # 4 for  O read from file:
     /scratch/ahofstet/pseudo/O.pbe-n-kjpaw_psl.0.1.UPF
     MD5 check sum: 3f94a2996a3169367d6eb21d9b593f20
     Pseudo is Projector augmented-wave + core cor, Zval =  6.0
     Generated using "atomic" code by A. Dal Corso  v.5.0.99 svn rev. 10869
     Shape of augmentation charge: BESSEL
     Using radial grid of 1095 points,  4 beta functions with: 
                l(1) =   0
                l(2) =   0
                l(3) =   1
                l(4) =   1
     Q(r) pseudized with 0 coefficients 


     atomic species   valence    mass     pseudopotential
        C              4.00    12.01070      C( 1.00)
        N              5.00    14.00670      N( 1.00)
        H              1.00     1.00794      H( 1.00)
        O              6.00    15.99940      O( 1.00)

      2 Sym. Ops., with inversion, found



   Cartesian axes

     site n.     atom                  positions (alat units)
         1           C   tau(   1) = (   0.4055397   0.8366484   2.4247840  )
         2           C   tau(   2) = (   0.7624921   1.1209971   1.4481532  )
         3           O   tau(   3) = (   0.6965048   0.6547848   2.2895985  )
         4           O   tau(   4) = (   0.4715269   1.3028607   1.5833387  )
         5           O   tau(   5) = (   0.2822783   1.1207412   2.2515850  )
         6           O   tau(   6) = (   0.8857535   0.8369044   1.6213522  )
         7           O   tau(   7) = (   0.2591477   0.7104291   2.7176185  )
         8           O   tau(   8) = (   0.9088841   1.2472164   1.1553187  )
         9           C   tau(   9) = (   0.7041844   1.1900465   3.3338034  )
        10           C   tau(  10) = (   0.4638474   0.7675990   0.5391338  )
        11           C   tau(  11) = (   0.7158176   1.6450212   2.8243868  )
        12           C   tau(  12) = (   0.4522141   0.3126244   1.0485504  )
        13           O   tau(  13) = (   0.4361991   1.3190715   3.5132963  )
        14           O   tau(  14) = (   0.7318327   0.6385741   0.3596409  )
        15           N   tau(  15) = (   0.9295920   0.9383216   3.4800205  )
        16           N   tau(  16) = (   0.2384398   1.0193239   0.3929167  )
        17           N   tau(  17) = (   0.8031471   1.3071442   2.9781876  )
        18           N   tau(  18) = (   0.3648847   0.6505014   0.8947496  )
        19           N   tau(  19) = (   0.9413454   1.7758527   2.5687476  )
        20           N   tau(  20) = (   0.2266863   0.1817929   1.3041896  )
        21           N   tau(  21) = (   0.3174820  -0.0393504   2.9414957  )
        22           N   tau(  22) = (   0.8505497   1.9969960   0.9314415  )
        23           H   tau(  23) = (   0.7759761   0.7574340   2.0321783  )
        24           H   tau(  24) = (   0.3920557   1.2002116   1.8407589  )
        25           H   tau(  25) = (   0.9801446   1.1291768   2.8354683  )
        26           H   tau(  26) = (   0.1878871   0.8284687   1.0374689  )
        27           H   tau(  27) = (   1.1308738   0.8183463   3.3239001  )
        28           H   tau(  28) = (   0.0371579   1.1392992   0.5490371  )
        29           H   tau(  29) = (   0.8649552   0.8307068   3.7398740  )
        30           H   tau(  30) = (   0.3030765   1.1269388   0.1330632  )
        31           H   tau(  31) = (   1.1056224   1.5840914   2.4326929  )
        32           H   tau(  32) = (   0.0624094   0.3735541   1.4402443  )
        33           H   tau(  33) = (   0.7640557   0.1406453   2.4469344  )
        34           H   tau(  34) = (   0.4039760   1.8170003   1.4260028  )
        35           H   tau(  35) = (   0.2989136   1.7516490   3.1679723  )
        36           H   tau(  36) = (   0.8691182   0.2059965   0.7049649  )
        37           H   tau(  37) = (   0.3011291   0.2411907   2.8656533  )
        38           H   tau(  38) = (   0.8669026   1.7164549   1.0072839  )

     number of k points=    16
                       cart. coord. in units 2pi/alat
        k(    1) = (   0.0000000   0.0000000   0.0000000), wk =   0.0666667
        k(    2) = (   0.0000000   0.0000000  -0.1291010), wk =   0.0666667
        k(    3) = (   0.0000000   0.1762978  -0.0030456), wk =   0.1333333
        k(    4) = (   0.0000000   0.1762978  -0.1321466), wk =   0.1333333
        k(    5) = (   0.2000000  -0.0129755  -0.0021185), wk =   0.1333333
        k(    6) = (   0.2000000  -0.0129755  -0.1312195), wk =   0.1333333
        k(    7) = (   0.2000000   0.1633223  -0.0051641), wk =   0.1333333
        k(    8) = (   0.2000000   0.1633223  -0.1342651), wk =   0.1333333
        k(    9) = (   0.2000000  -0.1892733   0.0009270), wk =   0.1333333
        k(   10) = (   0.2000000  -0.1892733  -0.1281739), wk =   0.1333333
        k(   11) = (   0.4000000  -0.0259510  -0.0042371), wk =   0.1333333
        k(   12) = (   0.4000000  -0.0259510  -0.1333381), wk =   0.1333333
        k(   13) = (   0.4000000   0.1503469  -0.0072826), wk =   0.1333333
        k(   14) = (   0.4000000   0.1503469  -0.1363836), wk =   0.1333333
        k(   15) = (   0.4000000  -0.2022488  -0.0011915), wk =   0.1333333
        k(   16) = (   0.4000000  -0.2022488  -0.1302925), wk =   0.1333333

     Dense  grid:   305889 G-vectors     FFT dimensions: (  45,  81, 180)

     Estimated max dynamical RAM per process >     179.54MB

     Estimated total allocated dynamical RAM >    1436.31MB

     Check: negative/imaginary core charge=   -0.000002    0.000000

     Initial potential from superposition of free atoms

     starting charge  127.99953, renormalised to  128.00000
     Starting wfc are  104 randomized atomic wfcs
     Checking if some PAW data can be deallocated... 

     total cpu time spent up to now is       10.3 secs

     per-process dynamical memory:   203.7 Mb

     Self-consistent Calculation

     iteration #  1     ecut=   100.00 Ry     beta=0.50
     Davidson diagonalization with overlap
     ethr =  1.00E-02,  avg # of iterations =  3.4

     total cpu time spent up to now is       30.3 secs

     total energy              =    -687.86985242 Ry
     Harris-Foulkes estimate   =    -690.44653809 Ry
     estimated scf accuracy    <       4.55366900 Ry

     iteration #  2     ecut=   100.00 Ry     beta=0.50
     Davidson diagonalization with overlap
     ethr =  3.56E-03,  avg # of iterations =  2.9

     total cpu time spent up to now is       45.3 secs

     total energy              =    -688.86899849 Ry
     Harris-Foulkes estimate   =    -689.12154632 Ry
     estimated scf accuracy    <       0.55578552 Ry

     iteration #  3     ecut=   100.00 Ry     beta=0.50
     Davidson diagonalization with overlap
     ethr =  4.34E-04,  avg # of iterations =  6.9

     total cpu time spent up to now is       62.9 secs

     total energy              =    -688.98597155 Ry
     Harris-Foulkes estimate   =    -689.01694355 Ry
     estimated scf accuracy    <       0.09348540 Ry

     iteration #  4     ecut=   100.00 Ry     beta=0.50
     Davidson diagonalization with overlap
     ethr =  7.30E-05,  avg # of iterations =  6.4

     total cpu time spent up to now is       77.7 secs

     total energy              =    -688.99726741 Ry
     Harris-Foulkes estimate   =    -689.00292505 Ry
     estimated scf accuracy    <       0.02039852 Ry

     iteration #  5     ecut=   100.00 Ry     beta=0.50
     Davidson diagonalization with overlap
     ethr =  1.59E-05,  avg # of iterations =  6.9

     total cpu time spent up to now is       93.6 secs

     total energy              =    -689.00032292 Ry
     Harris-Foulkes estimate   =    -689.00143263 Ry
     estimated scf accuracy    <       0.00252649 Ry

     iteration #  6     ecut=   100.00 Ry     beta=0.50
     Davidson diagonalization with overlap
     ethr =  1.97E-06,  avg # of iterations =  6.0

     total cpu time spent up to now is      111.4 secs

     total energy              =    -689.00089233 Ry
     Harris-Foulkes estimate   =    -689.00107728 Ry
     estimated scf accuracy    <       0.00043824 Ry

     iteration #  7     ecut=   100.00 Ry     beta=0.50
     Davidson diagonalization with overlap
     ethr =  3.42E-07,  avg # of iterations =  3.0

     total cpu time spent up to now is      125.8 secs

     total energy              =    -689.00099494 Ry
     Harris-Foulkes estimate   =    -689.00101546 Ry
     estimated scf accuracy    <       0.00006346 Ry

     iteration #  8     ecut=   100.00 Ry     beta=0.50
     Davidson diagonalization with overlap
     ethr =  4.96E-08,  avg # of iterations =  3.1

     total cpu time spent up to now is      141.3 secs

     total energy              =    -689.00101305 Ry
     Harris-Foulkes estimate   =    -689.00101607 Ry
     estimated scf accuracy    <       0.00001311 Ry

     iteration #  9     ecut=   100.00 Ry     beta=0.50
     Davidson diagonalization with overlap
     ethr =  1.02E-08,  avg # of iterations =  2.2

     total cpu time spent up to now is      154.1 secs

     total energy              =    -689.00101416 Ry
     Harris-Foulkes estimate   =    -689.00101539 Ry
     estimated scf accuracy    <       0.00000284 Ry

     iteration # 10     ecut=   100.00 Ry     beta=0.50
     Davidson diagonalization with overlap
     ethr =  2.22E-09,  avg # of iterations =  3.0

     total cpu time spent up to now is      168.8 secs

     total energy              =    -689.00101481 Ry
     Harris-Foulkes estimate   =    -689.00101482 Ry
     estimated scf accuracy    <       0.00000009 Ry

     iteration # 11     ecut=   100.00 Ry     beta=0.50
     Davidson diagonalization with overlap
     ethr =  7.21E-11,  avg # of iterations =  3.9

     total cpu time spent up to now is      187.4 secs

     total energy              =    -689.00101485 Ry
     Harris-Foulkes estimate   =    -689.00101487 Ry
     estimated scf accuracy    <       0.00000004 Ry

     iteration # 12     ecut=   100.00 Ry     beta=0.50
     Davidson diagonalization with overlap
     ethr =  3.09E-11,  avg # of iterations =  3.0

     total cpu time spent up to now is      200.4 secs

     End of self-consistent calculation

          k = 0.0000 0.0000 0.0000 ( 38287 PWs)   bands (ev):

   -20.8556 -20.5980 -20.0520 -19.9660 -18.8019 -18.7616 -17.6739 -17.4989
   -17.1064 -17.0413 -16.2720 -16.2214 -15.3032 -15.2400 -15.0775 -15.0731
   -10.1846  -9.9656  -8.4723  -8.3379  -7.8592  -7.6110  -7.4684  -7.3470
    -7.1499  -7.0936  -6.4130  -6.2719  -6.2175  -6.1632  -5.6483  -5.5249
    -5.4187  -4.9946  -4.7223  -4.4763  -4.1229  -4.0792  -3.9459  -3.7174
    -3.4245  -3.2788  -2.9380  -2.8080  -2.7638  -2.0082  -1.9805  -1.5060
    -1.3212  -1.2540  -0.9474  -0.7246  -0.6999  -0.4669   0.0636   0.1126
     0.2454   0.3043   0.4652   0.5991   0.8144   0.8688   0.9430   1.3195
     6.1354   6.3659   6.3995   7.0843   7.2566   7.5068   7.5638   7.9097
     8.0355   8.8483   9.0110   9.4581

          k = 0.0000 0.0000-0.1291 ( 38244 PWs)   bands (ev):

   -20.8553 -20.5988 -20.0468 -19.9708 -18.8010 -18.7623 -17.6738 -17.4991
   -17.1064 -17.0410 -16.2716 -16.2222 -15.3027 -15.2404 -15.0804 -15.0702
   -10.1792  -9.9727  -8.4316  -8.3826  -7.8549  -7.5787  -7.5199  -7.3259
    -7.1418  -7.1007  -6.4010  -6.2788  -6.2112  -6.1582  -5.7435  -5.5451
    -5.2372  -5.0578  -4.8287  -4.2931  -4.1719  -4.1357  -3.8586  -3.8070
    -3.4164  -3.2669  -2.9223  -2.9152  -2.6865  -2.0076  -1.9729  -1.5114
    -1.3036  -1.2746  -0.9419  -0.7258  -0.7005  -0.4667   0.0623   0.1295
     0.2466   0.2983   0.4602   0.5927   0.8167   0.8677   0.9422   1.3198
     6.1414   6.2681   6.6549   6.7583   7.3936   7.3971   7.8380   7.8549
     8.0249   8.7775   9.0899   9.4629

          k = 0.0000 0.1763-0.0030 ( 38207 PWs)   bands (ev):

   -20.8501 -20.5904 -20.0541 -19.9714 -18.8114 -18.7744 -17.6758 -17.5119
   -17.1016 -17.0487 -16.2512 -16.2036 -15.2999 -15.2364 -15.0726 -15.0639
   -10.1862  -9.9793  -8.4132  -8.3181  -7.9408  -7.6471  -7.5130  -7.3648
    -7.1934  -7.1274  -6.4528  -6.3952  -6.2135  -6.1362  -5.6874  -5.4370
    -5.1435  -5.0950  -4.6915  -4.3857  -4.3107  -4.1019  -3.6853  -3.5610
    -3.4125  -3.3461  -3.0423  -2.7694  -2.6537  -1.9957  -1.9649  -1.5659
    -1.3133  -1.2863  -0.9210  -0.7604  -0.6799  -0.4512  -0.0129  -0.0004
     0.2450   0.3387   0.4282   0.5952   0.7872   0.8402   0.9276   1.2721
     6.2769   6.4649   6.5907   7.1145   7.3668   7.4646   7.5857   7.8773
     8.0916   8.3178   8.8439   9.1192

          k = 0.0000 0.1763-0.1321 ( 38206 PWs)   bands (ev):

   -20.8499 -20.5909 -20.0519 -19.9732 -18.8143 -18.7716 -17.6757 -17.5121
   -17.1016 -17.0481 -16.2551 -16.2001 -15.3001 -15.2361 -15.0712 -15.0654
   -10.1879  -9.9769  -8.4174  -8.3201  -7.9314  -7.6155  -7.5547  -7.3572
    -7.1815  -7.1429  -6.5013  -6.3088  -6.2376  -6.1737  -5.5930  -5.4729
    -5.2350  -5.0391  -4.6754  -4.4261  -4.2786  -4.1136  -3.6573  -3.5788
    -3.4102  -3.3533  -3.0073  -2.8659  -2.5866  -1.9940  -1.9682  -1.5689
    -1.3082  -1.2920  -0.9234  -0.7614  -0.6629  -0.4679  -0.0274   0.0164
     0.2741   0.3140   0.4306   0.5939   0.7837   0.8328   0.9320   1.2749
     6.2941   6.4809   6.5553   7.0698   7.3292   7.4667   7.6513   7.9569
     8.0898   8.3185   8.8265   9.2082

          k = 0.2000-0.0130-0.0021 ( 38221 PWs)   bands (ev):

   -20.7490 -20.5013 -19.9318 -19.8531 -18.6600 -18.6230 -17.8053 -17.5983
   -17.1025 -17.0260 -16.3897 -16.3156 -15.3740 -15.3684 -15.2369 -15.1750
   -10.1236  -9.9419  -8.5380  -8.4643  -7.9262  -7.7332  -7.6869  -7.4229
    -7.1812  -7.1184  -6.3891  -6.3824  -6.1269  -5.8774  -5.6282  -5.3844
    -5.2437  -4.9040  -4.7822  -4.3542  -4.2464  -4.1333  -4.0383  -3.9072
    -3.7420  -3.6325  -3.5221  -3.2927  -2.9768  -2.9180  -2.6936  -1.4287
    -0.7485  -0.6495  -0.5533  -0.4698   0.0462   0.1286   0.2953   0.3643
     0.4071   0.4597   0.5340   0.6842   0.8601   1.0231   1.0690   1.3684
     6.1337   6.1996   6.7833   7.1275   7.2252   7.5606   7.6711   7.8948
     8.1001   9.1244   9.3318   9.6419

          k = 0.2000-0.0130-0.1312 ( 38224 PWs)   bands (ev):

   -20.7488 -20.5017 -19.9292 -19.8555 -18.6581 -18.6248 -17.8053 -17.5981
   -17.1026 -17.0263 -16.3879 -16.3171 -15.3725 -15.3696 -15.2385 -15.1738
   -10.1203  -9.9459  -8.5481  -8.4491  -7.9227  -7.7815  -7.6415  -7.4268
    -7.1992  -7.1036  -6.3855  -6.3258  -6.1793  -5.9357  -5.5906  -5.3346
    -5.2260  -5.0292  -4.6562  -4.4805  -4.1766  -4.0861  -4.0204  -3.9208
    -3.8298  -3.6491  -3.4717  -3.2726  -2.9678  -2.9177  -2.7216  -1.4232
    -0.7387  -0.6622  -0.5547  -0.4686   0.0651   0.1329   0.2537   0.3878
     0.4044   0.4222   0.5868   0.6744   0.8543   1.0167   1.0773   1.3669
     6.0842   6.2515   6.8075   7.0930   7.2766   7.4245   7.7584   7.8544
     8.1750   9.1693   9.3464   9.5893

          k = 0.2000 0.1633-0.0052 ( 38209 PWs)   bands (ev):

   -20.7463 -20.4979 -19.9321 -19.8561 -18.6628 -18.6294 -17.8068 -17.6024
   -17.1110 -17.0204 -16.3794 -16.3080 -15.3636 -15.3573 -15.2490 -15.1838
   -10.1201  -9.9488  -8.5526  -8.5117  -7.9159  -7.7037  -7.6187  -7.3789
    -7.1828  -7.1332  -6.4671  -6.4218  -6.1349  -5.7920  -5.6625  -5.3247
    -5.1826  -4.9626  -4.6841  -4.4252  -4.2218  -4.2049  -4.1039  -3.9899
    -3.7151  -3.6718  -3.5196  -3.2770  -2.9819  -2.9238  -2.6479  -1.3862
    -0.8503  -0.7402  -0.4308  -0.3756   0.0420   0.2001   0.2580   0.3570
     0.4114   0.4267   0.5893   0.6854   0.8825   0.9945   1.0360   1.3884
     6.1365   6.2684   6.7898   7.0803   7.2868   7.6124   7.7670   7.9148
     8.1645   8.7268   9.0604   9.2840

          k = 0.2000 0.1633-0.1343 ( 38199 PWs)   bands (ev):

   -20.7463 -20.4980 -19.9321 -19.8559 -18.6649 -18.6275 -17.8069 -17.6023
   -17.1113 -17.0200 -16.3814 -16.3060 -15.3639 -15.3571 -15.2492 -15.1836
   -10.1241  -9.9434  -8.5963  -8.4638  -7.9096  -7.7473  -7.5782  -7.3853
    -7.2025  -7.1159  -6.4985  -6.3905  -6.1058  -5.9105  -5.4988  -5.3450
    -5.2515  -4.9309  -4.6828  -4.4586  -4.2399  -4.1700  -4.0997  -4.0283
    -3.7874  -3.5959  -3.4534  -3.2922  -2.9754  -2.9246  -2.6783  -1.3828
    -0.8251  -0.7681  -0.4545  -0.3496   0.0658   0.1476   0.2778   0.3473
     0.4222   0.4510   0.5531   0.7107   0.8756   1.0039   1.0282   1.3885
     6.1682   6.2415   6.7268   7.1457   7.3234   7.6131   7.6821   7.9410
     8.1878   8.7059   9.0992   9.4229

          k = 0.2000-0.1893 0.0009 ( 38200 PWs)   bands (ev):

   -20.7440 -20.4945 -19.9341 -19.8572 -18.6698 -18.6345 -17.8065 -17.6096
   -17.1073 -17.0293 -16.3706 -16.2940 -15.3682 -15.3630 -15.2359 -15.1706
   -10.1262  -9.9508  -8.5196  -8.4442  -7.9558  -7.7582  -7.7205  -7.4319
    -7.2135  -7.1600  -6.4718  -6.3887  -6.0879  -6.0019  -5.4811  -5.4092
    -5.0546  -4.9918  -4.6409  -4.4662  -4.3432  -4.1140  -4.0023  -3.9549
    -3.6269  -3.5997  -3.4399  -3.2063  -2.9611  -2.9161  -2.6145  -1.5137
    -0.8182  -0.7805  -0.4643  -0.4563   0.0764   0.1330   0.2074   0.3557
     0.3780   0.3875   0.5427   0.6979   0.8445   1.0434   1.0747   1.3239
     6.1281   6.2934   6.9009   7.2448   7.2453   7.5639   7.7846   7.8290
     8.1265   8.8361   9.1873   9.3087

          k = 0.2000-0.1893-0.1282 ( 38192 PWs)   bands (ev):

   -20.7439 -20.4947 -19.9330 -19.8581 -18.6700 -18.6343 -17.8065 -17.6094
   -17.1081 -17.0288 -16.3675 -16.2970 -15.3695 -15.3619 -15.2351 -15.1712
   -10.1258  -9.9514  -8.5259  -8.4311  -7.9662  -7.7935  -7.6818  -7.4228
    -7.2385  -7.1374  -6.5106  -6.3989  -6.0876  -5.8149  -5.6982  -5.3732
    -5.0784  -4.9056  -4.6859  -4.4537  -4.3146  -4.1226  -4.0159  -3.9442
    -3.6711  -3.5822  -3.4366  -3.1793  -2.9698  -2.9113  -2.6272  -1.5099
    -0.8447  -0.7407  -0.5026  -0.4345   0.0793   0.1538   0.2095   0.2888
     0.3514   0.4371   0.5817   0.6910   0.8338   1.0334   1.0851   1.3225
     6.1235   6.2961   6.8991   7.1748   7.3504   7.5769   7.7022   7.8149
     8.2020   8.8709   9.1191   9.3988

          k = 0.4000-0.0260-0.0042 ( 38222 PWs)   bands (ev):

   -20.5498 -20.3267 -19.7078 -19.6430 -18.3895 -18.3648 -18.0411 -17.8058
   -17.0693 -17.0165 -16.5867 -16.4794 -15.8157 -15.7930 -15.2289 -15.1853
    -9.9943  -9.8998  -8.5399  -8.4744  -8.0093  -7.9290  -7.8915  -7.4834
    -7.2032  -7.0949  -6.4366  -6.3444  -6.2366  -5.7555  -5.6365  -5.2761
    -5.2055  -5.1129  -4.7873  -4.6951  -4.4906  -4.4230  -4.2771  -4.1922
    -4.1247  -3.8631  -3.8345  -3.7398  -3.4406  -3.0154  -2.5419  -1.4109
    -0.5798  -0.4826  -0.3838  -0.2210   0.0316   0.3067   0.3805   0.5273
     0.5615   0.7154   0.8087   1.3794   1.5236   1.5991   1.8905   1.9206
     5.6647   5.7983   6.7984   7.0382   7.6174   7.8503   8.0162   8.4425
     8.8051   9.2106   9.4541   9.5483

          k = 0.4000-0.0260-0.1333 ( 38234 PWs)   bands (ev):

   -20.5499 -20.3267 -19.7078 -19.6430 -18.3899 -18.3643 -18.0412 -17.8059
   -17.0671 -17.0184 -16.5892 -16.4769 -15.8137 -15.7953 -15.2289 -15.1853
    -9.9953  -9.8985  -8.5440  -8.4711  -7.9864  -7.9590  -7.8854  -7.4885
    -7.1949  -7.1030  -6.4211  -6.2435  -6.2381  -6.0395  -5.4088  -5.3008
    -5.1944  -5.1287  -4.7297  -4.6904  -4.5958  -4.4281  -4.2728  -4.2383
    -4.0636  -3.9048  -3.7931  -3.7407  -3.4174  -3.0316  -2.5422  -1.4129
    -0.5509  -0.5102  -0.3784  -0.2254   0.0365   0.3174   0.3973   0.4376
     0.6134   0.7213   0.8115   1.3656   1.5383   1.5950   1.8931   1.9176
     5.6505   5.8153   6.8371   6.9760   7.6926   7.7748   8.0343   8.4568
     8.7900   9.2380   9.3466   9.7001

          k = 0.4000 0.1503-0.0073 ( 38242 PWs)   bands (ev):

   -20.5502 -20.3273 -19.7074 -19.6432 -18.3853 -18.3607 -18.0440 -17.7995
   -17.0649 -17.0147 -16.6011 -16.4895 -15.8134 -15.7930 -15.2326 -15.1892
    -9.9903  -9.8978  -8.6117  -8.5244  -7.9974  -7.9217  -7.6964  -7.4285
    -7.1719  -7.0820  -6.4540  -6.3181  -6.1999  -5.8297  -5.5432  -5.2519
    -5.1535  -4.9926  -4.9556  -4.8487  -4.5640  -4.4231  -4.3340  -4.1574
    -4.0814  -3.9597  -3.9504  -3.7862  -3.4685  -3.0772  -2.6055  -1.2877
    -0.6179  -0.5404  -0.1932  -0.0934   0.0391   0.2739   0.4026   0.5146
     0.6003   0.6905   0.8764   1.4112   1.5315   1.6119   1.8727   1.9080
     5.6465   5.8027   6.9156   7.0995   7.6359   7.8726   8.0187   8.4646
     8.8911   8.9765   9.2451   9.4975

          k = 0.4000 0.1503-0.1364 ( 38232 PWs)   bands (ev):

   -20.5502 -20.3272 -19.7080 -19.6426 -18.3855 -18.3605 -18.0441 -17.7995
   -17.0649 -17.0147 -16.6006 -16.4901 -15.8141 -15.7922 -15.2327 -15.1892
    -9.9928  -9.8949  -8.6123  -8.5239  -8.0069  -7.9113  -7.6962  -7.4303
    -7.1660  -7.0877  -6.4817  -6.2851  -6.2016  -5.7796  -5.6096  -5.2858
    -5.0830  -5.0293  -4.9585  -4.8406  -4.5697  -4.3790  -4.3008  -4.2157
    -4.1077  -3.9985  -3.8922  -3.7811  -3.4631  -3.0955  -2.5952  -1.2904
    -0.5908  -0.5681  -0.1626  -0.1235   0.0369   0.2944   0.4122   0.4661
     0.6251   0.6881   0.8755   1.4126   1.5298   1.6122   1.8787   1.9026
     5.6605   5.7907   6.9258   7.0676   7.6888   7.8415   8.0128   8.4638
     8.9051   9.0140   9.1377   9.6424

          k = 0.4000-0.2022-0.0012 ( 38270 PWs)   bands (ev):

   -20.5485 -20.3250 -19.7085 -19.6438 -18.3924 -18.3635 -18.0430 -17.8063
   -17.0770 -17.0134 -16.5868 -16.4736 -15.8143 -15.7940 -15.2296 -15.1866
    -9.9950  -9.8973  -8.5966  -8.4888  -7.9921  -7.9524  -7.7772  -7.4476
    -7.1922  -7.0935  -6.4750  -6.3109  -6.1865  -5.9144  -5.3982  -5.3079
    -5.1901  -5.1042  -4.8579  -4.7905  -4.6331  -4.3316  -4.2735  -4.1831
    -4.0653  -3.9669  -3.8765  -3.7387  -3.4354  -3.0387  -2.5644  -1.3494
    -0.6583  -0.5920  -0.2881  -0.0894   0.0553   0.3024   0.4308   0.4881
     0.5865   0.6766   0.8442   1.3854   1.5454   1.6263   1.8799   1.8854
     5.6535   5.8250   6.9278   7.1343   7.5074   7.8187   8.0155   8.5093
     8.6908   9.2661   9.4581   9.6635

          k = 0.4000-0.2022-0.1303 ( 38215 PWs)   bands (ev):

   -20.5485 -20.3250 -19.7085 -19.6438 -18.3885 -18.3676 -18.0426 -17.8063
   -17.0771 -17.0136 -16.5841 -16.4762 -15.8134 -15.7945 -15.2299 -15.1864
    -9.9921  -9.9008  -8.5622  -8.5251  -8.0328  -7.9006  -7.7794  -7.4529
    -7.1833  -7.1010  -6.5043  -6.2926  -6.2241  -5.7161  -5.6081  -5.2592
    -5.1928  -5.1231  -4.8940  -4.7978  -4.5458  -4.3255  -4.2599  -4.1696
    -4.1118  -3.9522  -3.8329  -3.7770  -3.4550  -3.0624  -2.5400  -1.3512
    -0.6482  -0.6019  -0.2708  -0.1101   0.0587   0.3236   0.4264   0.4550
     0.5969   0.6816   0.8458   1.3833   1.5517   1.6231   1.8598   1.9037
     5.6670   5.8108   6.9639   7.0711   7.5976   7.7315   8.0383   8.4823
     8.7489   9.2225   9.5326   9.6625

     highest occupied, lowest unoccupied level (ev):     1.9206    5.6465

!    total energy              =    -689.00101486 Ry
     Harris-Foulkes estimate   =    -689.00101486 Ry
     estimated scf accuracy    <          2.2E-09 Ry

     total all-electron energy =     -2556.751102 Ry

     The total energy is the sum of the following terms:

     one-electron contribution =    -505.82342166 Ry
     hartree contribution      =     307.28037566 Ry
     xc contribution           =    -140.45286249 Ry
     ewald contribution        =    -167.63544455 Ry
     Dispersion Correction     =      -0.19675668 Ry
     one-center paw contrib.   =    -182.17290514 Ry

     convergence has been achieved in  12 iterations

     Forces acting on atoms (cartesian axes, Ry/au):

     atom    1 type  1   force =    -0.01214438    0.00423607   -0.00307011
     atom    2 type  1   force =     0.01214438   -0.00423607    0.00307011
     atom    3 type  4   force =    -0.00427542   -0.03871981   -0.03531437
     atom    4 type  4   force =     0.00427542    0.03871981    0.03531437
     atom    5 type  4   force =     0.00905518    0.03499044   -0.00495602
     atom    6 type  4   force =    -0.00905518   -0.03499044    0.00495602
     atom    7 type  4   force =     0.00850644   -0.00470939    0.04918852
     atom    8 type  4   force =    -0.00850644    0.00470939   -0.04918852
     atom    9 type  1   force =    -0.00239406    0.01352569    0.01528990
     atom   10 type  1   force =     0.00239406   -0.01352569   -0.01528990
     atom   11 type  1   force =     0.00838283   -0.01108165    0.01466828
     atom   12 type  1   force =    -0.00838283    0.01108165   -0.01466828
     atom   13 type  4   force =     0.03230897    0.06894733    0.00539956
     atom   14 type  4   force =    -0.03230897   -0.06894733   -0.00539956
     atom   15 type  2   force =    -0.04075195   -0.08379709    0.00708244
     atom   16 type  2   force =     0.04075195    0.08379709   -0.00708244
     atom   17 type  2   force =    -0.01027792   -0.00119338   -0.01309694
     atom   18 type  2   force =     0.01027792    0.00119338    0.01309694
     atom   19 type  2   force =    -0.03522452   -0.00177868   -0.10446464
     atom   20 type  2   force =     0.03522452    0.00177868    0.10446464
     atom   21 type  2   force =     0.02980620    0.03197779    0.08935406
     atom   22 type  2   force =    -0.02980620   -0.03197779   -0.08935406
     atom   23 type  3   force =    -0.00567405   -0.00302694   -0.00212723
     atom   24 type  3   force =     0.00567405    0.00302694    0.00212723
     atom   25 type  3   force =     0.00776070   -0.00569194   -0.00550953
     atom   26 type  3   force =    -0.00776070    0.00569194    0.00550953
     atom   27 type  3   force =     0.00383836   -0.00682408   -0.00488025
     atom   28 type  3   force =    -0.00383836    0.00682408    0.00488025
     atom   29 type  3   force =     0.00133176    0.00132183   -0.00202288
     atom   30 type  3   force =    -0.00133176   -0.00132183    0.00202288
     atom   31 type  3   force =     0.00052391   -0.00151936   -0.00509747
     atom   32 type  3   force =    -0.00052391    0.00151936    0.00509747
     atom   33 type  3   force =     0.00060753   -0.00356192    0.00055035
     atom   34 type  3   force =    -0.00060753    0.00356192   -0.00055035
     atom   35 type  3   force =     0.00499786    0.00322848    0.00484248
     atom   36 type  3   force =    -0.00499786   -0.00322848   -0.00484248
     atom   37 type  3   force =     0.00068478    0.00201728   -0.00443744
     atom   38 type  3   force =    -0.00068478   -0.00201728    0.00443744

     Total force =     0.299639     Total SCF correction =     0.000078


     Computing stress (Cartesian axis) and pressure

          total   stress  (Ry/bohr**3)                   (kbar)     P=   78.84
   0.00098865   0.00011137   0.00009048        145.43     16.38     13.31
   0.00011137   0.00023400   0.00003190         16.38     34.42      4.69
   0.00009048   0.00003190   0.00038523         13.31      4.69     56.67


     Writing output data file scf.save
 
     init_run     :      9.63s CPU      9.82s WALL (       1 calls)
     electrons    :    185.08s CPU    190.18s WALL (       1 calls)
     forces       :      4.54s CPU      4.56s WALL (       1 calls)
     stress       :     15.22s CPU     15.26s WALL (       1 calls)

     Called by init_run:
     wfcinit      :      5.68s CPU      5.83s WALL (       1 calls)
     potinit      :      1.40s CPU      1.42s WALL (       1 calls)

     Called by electrons:
     c_bands      :    160.43s CPU    164.85s WALL (      12 calls)
     sum_band     :     21.26s CPU     21.78s WALL (      12 calls)
     v_of_rho     :      0.47s CPU      0.53s WALL (      13 calls)
     newd         :      0.94s CPU      0.96s WALL (      13 calls)
     PAW_pot      :      1.75s CPU      1.76s WALL (      13 calls)
     mix_rho      :      0.10s CPU      0.11s WALL (      12 calls)

     Called by c_bands:
     init_us_2    :      2.06s CPU      2.07s WALL (     432 calls)
     cegterg      :    154.06s CPU    158.44s WALL (     192 calls)

     Called by sum_band:
     sum_band:bec :      0.03s CPU      0.03s WALL (     192 calls)
     addusdens    :      1.03s CPU      1.04s WALL (      12 calls)

     Called by *egterg:
     h_psi        :    102.61s CPU    106.42s WALL (    1018 calls)
     s_psi        :     10.32s CPU     10.32s WALL (    1018 calls)
     g_psi        :      0.89s CPU      0.89s WALL (     810 calls)
     cdiaghg      :     11.48s CPU     11.50s WALL (    1002 calls)

     Called by h_psi:
     h_psi:pot    :    101.58s CPU    105.38s WALL (    1018 calls)
     h_psi:calbec :     10.02s CPU     10.08s WALL (    1018 calls)
     vloc_psi     :     81.33s CPU     85.05s WALL (    1018 calls)
     add_vuspsi   :     10.23s CPU     10.24s WALL (    1018 calls)

     General routines
     calbec       :     17.60s CPU     17.70s WALL (    1290 calls)
     fft          :      0.76s CPU      0.86s WALL (     193 calls)
     fftw         :     87.80s CPU     91.71s WALL (   98398 calls)
 
     Parallel routines
     fft_scatter  :     23.85s CPU     25.54s WALL (   98591 calls)
 
     PWSCF        :  3m37.92s CPU     3m44.30s WALL

 
   This run was terminated on:  17:36:27  21Dec2017            

=------------------------------------------------------------------------------=
   JOB DONE.
=------------------------------------------------------------------------------=
