
     Program PWSCF v.6.1 (svn rev. 13369) starts on  4Nov2017 at  6:21:16 

     This program is part of the open-source Quantum ESPRESSO suite
     for quantum simulation of materials; please cite
         "P. Giannozzi et al., J. Phys.:Condens. Matter 21 395502 (2009);
          URL http://www.quantum-espresso.org", 
     in publications or presentations arising from this work. More details at
     http://www.quantum-espresso.org/quote

     Parallel version (MPI), running on     8 processors
     R & G space division:  proc/nbgrp/npool/nimage =       8
     Waiting for input...
     Reading input from standard input

     Current dimensions of program PWSCF are:
     Max number of different atomic species (ntypx) = 10
     Max number of k-points (npk) =  40000
     Max angular momentum in pseudopotentials (lmaxx) =  3
               file C.pbe-n-kjpaw_psl.0.1.UPF: wavefunction(s)  2P renormalized
               file N.pbe-n-kjpaw_psl.0.1.UPF: wavefunction(s)  2P renormalized
               file H.pbe-kjpaw_psl.0.1.UPF: wavefunction(s)  1S renormalized
               file O.pbe-n-kjpaw_psl.0.1.UPF: wavefunction(s)  2P renormalized

     -------------------------------------
     Parameters for Dispersion Correction:
     -------------------------------------
       atom      VdW radius       C_6     

        C          2.744         60.710
        N          2.640         42.670
        H          1.892          4.857
        O          2.536         24.284

     Subspace diagonalization in iterative solution of the eigenvalue problem:
     a serial algorithm will be used

 
     Parallelization info
     --------------------
     sticks:   dense  smooth     PW     G-vecs:    dense   smooth      PW
     Min        1091    1091    286               142989   142989   19251
     Max        1092    1092    287               142994   142994   19255
     Sum        8733    8733   2291              1143937  1143937  154019
 


     bravais-lattice index     =            0
     lattice parameter (alat)  =      24.0449  a.u.
     unit-cell volume          =    8466.9462 (a.u.)^3
     number of atoms/cell      =          120
     number of atomic types    =            4
     number of electrons       =       456.00
     number of Kohn-Sham states=          273
     kinetic-energy cutoff     =     100.0000  Ry
     charge density cutoff     =     400.0000  Ry
     convergence threshold     =      1.0E-08
     mixing beta               =       0.5000
     number of iterations used =            8  plain     mixing
     Exchange-correlation      =  SLA  PW   PBX  PBC ( 1  4  3  4 0 0)

     celldm(1)=  24.044875  celldm(2)=   0.000000  celldm(3)=   0.000000
     celldm(4)=   0.000000  celldm(5)=   0.000000  celldm(6)=   0.000000

     crystal axes: (cart. coord. in units of alat)
               a(1) = (   1.000000   0.000000   0.000000 )  
               a(2) = (   0.000000   0.474065   0.000000 )  
               a(3) = (  -0.048682   0.000000   1.284759 )  

     reciprocal axes: (cart. coord. in units 2 pi/alat)
               b(1) = (  1.000000  0.000000  0.037892 )  
               b(2) = (  0.000000  2.109416  0.000000 )  
               b(3) = (  0.000000  0.000000  0.778356 )  


     PseudoPot. # 1 for  C read from file:
     /scratch/ahofstet/pseudo/C.pbe-n-kjpaw_psl.0.1.UPF
     MD5 check sum: 430fe95172b1e11ef3f8ed03bac87931
     Pseudo is Projector augmented-wave + core cor, Zval =  4.0
     Generated using "atomic" code by A. Dal Corso  v.5.0.99 svn rev. 10869
     Shape of augmentation charge: BESSEL
     Using radial grid of 1073 points,  4 beta functions with: 
                l(1) =   0
                l(2) =   0
                l(3) =   1
                l(4) =   1
     Q(r) pseudized with 0 coefficients 


     PseudoPot. # 2 for  N read from file:
     /scratch/ahofstet/pseudo/N.pbe-n-kjpaw_psl.0.1.UPF
     MD5 check sum: f73187c8b701007e77325f868c9291d7
     Pseudo is Projector augmented-wave + core cor, Zval =  5.0
     Generated using "atomic" code by A. Dal Corso  v.5.0.99 svn rev. 10869
     Shape of augmentation charge: PSQ
     Using radial grid of 1085 points,  4 beta functions with: 
                l(1) =   0
                l(2) =   0
                l(3) =   1
                l(4) =   1
     Q(r) pseudized with 0 coefficients 


     PseudoPot. # 3 for  H read from file:
     /scratch/ahofstet/pseudo/H.pbe-kjpaw_psl.0.1.UPF
     MD5 check sum: 94e484f906d9e9773b2f6e52662335b2
     Pseudo is Projector augmented-wave, Zval =  1.0
     Generated using "atomic" code by A. Dal Corso  v.5.0.99 svn rev. 10869
     Shape of augmentation charge: PSQ
     Using radial grid of  929 points,  2 beta functions with: 
                l(1) =   0
                l(2) =   0
     Q(r) pseudized with 0 coefficients 


     PseudoPot. # 4 for  O read from file:
     /scratch/ahofstet/pseudo/O.pbe-n-kjpaw_psl.0.1.UPF
     MD5 check sum: 3f94a2996a3169367d6eb21d9b593f20
     Pseudo is Projector augmented-wave + core cor, Zval =  6.0
     Generated using "atomic" code by A. Dal Corso  v.5.0.99 svn rev. 10869
     Shape of augmentation charge: BESSEL
     Using radial grid of 1095 points,  4 beta functions with: 
                l(1) =   0
                l(2) =   0
                l(3) =   1
                l(4) =   1
     Q(r) pseudized with 0 coefficients 


     atomic species   valence    mass     pseudopotential
        C              4.00    12.01070      C( 1.00)
        N              5.00    14.00670      N( 1.00)
        H              1.00     1.00794      H( 1.00)
        O              6.00    15.99940      O( 1.00)

      2 Sym. Ops., with inversion, found
          (note:  2 additional sym.ops. were found but ignored
           their fractional translations are incommensurate with FFT grid)


   Cartesian axes

     site n.     atom                  positions (alat units)
         1           O   tau(   1) = (   0.0212796   0.1289300   0.7459906  )
         2           O   tau(   2) = (   0.9056977   0.3659623   1.1811474  )
         3           O   tau(   3) = (   0.9300386   0.3451348   0.5387681  )
         4           O   tau(   4) = (   0.0456205   0.1081024   0.1036112  )
         5           O   tau(   5) = (   0.1091706   0.0011359   0.6711689  )
         6           O   tau(   6) = (   0.8178067   0.2381683   1.2559690  )
         7           O   tau(   7) = (   0.8421476   0.4729289   0.6135897  )
         8           O   tau(   8) = (   0.1335115   0.2358965   0.0287896  )
         9           O   tau(   9) = (   0.1512216   0.2187619   0.2953028  )
        10           O   tau(  10) = (   0.8244375   0.4557943   0.3470765  )
        11           O   tau(  11) = (   0.8000967   0.2553029   0.9894558  )
        12           O   tau(  12) = (   0.1268807   0.0182705   0.9376821  )
        13           O   tau(  13) = (   0.1339015   0.3840894   0.3406743  )
        14           O   tau(  14) = (   0.8417576   0.1470570   0.3017050  )
        15           O   tau(  15) = (   0.8174167   0.0899753   0.9440843  )
        16           O   tau(  16) = (   0.1095606   0.3270077   0.9830536  )
        17           O   tau(  17) = (   0.3717185   0.3548711   0.3696691  )
        18           O   tau(  18) = (   0.6039406   0.1178387   0.2727102  )
        19           O   tau(  19) = (   0.5795997   0.1191936   0.9150895  )
        20           O   tau(  20) = (   0.3473776   0.3562260   1.0120484  )
        21           O   tau(  21) = (   0.3295067   0.0178465   0.4750523  )
        22           O   tau(  22) = (   0.6461524   0.2548788   0.1673270  )
        23           O   tau(  23) = (   0.6218116   0.4562183   0.8097063  )
        24           O   tau(  24) = (   0.3051658   0.2191859   1.1174316  )
        25           O   tau(  25) = (   0.4595366   0.3544715   0.6164061  )
        26           O   tau(  26) = (   0.5161226   0.1174391   0.0259732  )
        27           O   tau(  27) = (   0.4917817   0.1195933   0.6683525  )
        28           O   tau(  28) = (   0.4351957   0.3566257   1.2587854  )
        29           O   tau(  29) = (   0.3641237   0.3963709   0.7538162  )
        30           O   tau(  30) = (   0.5628537   0.1593385   1.1733217  )
        31           O   tau(  31) = (   0.5871946   0.0776938   0.5309424  )
        32           O   tau(  32) = (   0.3884645   0.3147262   0.1114369  )
        33           N   tau(  33) = (   0.0891576   0.0943833   0.6864653  )
        34           N   tau(  34) = (   0.8378197   0.3314157   1.2406726  )
        35           N   tau(  35) = (   0.8621606   0.3796814   0.5982933  )
        36           N   tau(  36) = (   0.1134985   0.1426490   0.0440860  )
        37           N   tau(  37) = (   0.1533393   0.2908890   0.3594202  )
        38           N   tau(  38) = (   0.8223198   0.0538566   0.2829591  )
        39           N   tau(  39) = (   0.7979789   0.1831758   0.9253384  )
        40           N   tau(  40) = (   0.1289984   0.4202081   1.0017995  )
        41           N   tau(  41) = (   0.3769193   0.3551592   0.6672534  )
        42           N   tau(  42) = (   0.5500580   0.1181268   1.2598845  )
        43           N   tau(  43) = (   0.5743989   0.1189056   0.6175052  )
        44           N   tau(  44) = (   0.4012602   0.3559380   0.0248741  )
        45           C   tau(  45) = (   0.1510712   0.1732604   0.6264593  )
        46           C   tau(  46) = (   0.8245879   0.4102928   0.0159200  )
        47           C   tau(  47) = (   0.8002470   0.3008044   0.6582993  )
        48           C   tau(  48) = (   0.1267303   0.0637720   1.2688386  )
        49           C   tau(  49) = (   0.1223252   0.1884769   0.5215986  )
        50           C   tau(  50) = (   0.8533339   0.4255092   0.1207807  )
        51           C   tau(  51) = (   0.8289930   0.2855879   0.7631600  )
        52           C   tau(  52) = (   0.0979843   0.0485555   1.1639779  )
        53           C   tau(  53) = (   0.1809203   0.2653702   0.4692202  )
        54           C   tau(  54) = (   0.7947389   0.0283378   0.1731592  )
        55           C   tau(  55) = (   0.7703980   0.2086945   0.8155385  )
        56           C   tau(  56) = (   0.1565794   0.4457269   1.1115995  )
        57           C   tau(  57) = (   0.2627850   0.3219507   0.5151063  )
        58           C   tau(  58) = (   0.7128741   0.0849183   0.1272730  )
        59           C   tau(  59) = (   0.6885333   0.1521140   0.7696523  )
        60           C   tau(  60) = (   0.2384441   0.3891464   1.1574856  )
        61           C   tau(  61) = (   0.2863105   0.3003600   0.6199245  )
        62           C   tau(  62) = (   0.6893487   0.0633276   0.0224548  )
        63           C   tau(  63) = (   0.6650078   0.1737048   0.6648341  )
        64           C   tau(  64) = (   0.2619696   0.4107372   1.2623039  )
        65           C   tau(  65) = (   0.2316344   0.2255870   0.6799005  )
        66           C   tau(  66) = (   0.6953429   0.4626193   1.2472374  )
        67           C   tau(  67) = (   0.7196838   0.2484778   0.6048581  )
        68           C   tau(  68) = (   0.2559753   0.0114454   0.0375212  )
        69           C   tau(  69) = (   0.0359808   0.1280477   0.4696162  )
        70           C   tau(  70) = (   0.9396783   0.3650800   0.1727632  )
        71           C   tau(  71) = (   0.9153374   0.3460171   0.8151425  )
        72           C   tau(  72) = (   0.0116399   0.1089847   1.1119955  )
        73           H   tau(  73) = (  -0.0195233   0.0947703   0.5263325  )
        74           H   tau(  74) = (   0.9951824   0.3318027   0.1160468  )
        75           H   tau(  75) = (   0.9708415   0.3792945   0.7584261  )
        76           H   tau(  76) = (  -0.0438642   0.1422621   1.1687118  )
        77           H   tau(  77) = (   0.0698676   0.0628117   0.4242497  )
        78           H   tau(  78) = (   0.9057916   0.2998441   0.2181296  )
        79           H   tau(  79) = (   0.8814507   0.4112530   0.8605089  )
        80           H   tau(  80) = (   0.0455267   0.1742206   1.0666290  )
        81           H   tau(  81) = (   0.9915672   0.1778858   0.4153731  )
        82           H   tau(  82) = (  -0.0159081   0.4149182   0.2270062  )
        83           H   tau(  83) = (  -0.0402490   0.2961790   0.8693855  )
        84           H   tau(  84) = (   0.9672263   0.0591466   1.0577524  )
        85           C   tau(  85) = (   0.2586914   0.1991256   0.7913719  )
        86           C   tau(  86) = (   0.6682859   0.4361580   1.1357661  )
        87           C   tau(  87) = (   0.6926268   0.2749392   0.4933868  )
        88           C   tau(  88) = (   0.2830323   0.0379068   0.1489926  )
        89           H   tau(  89) = (   0.3427388   0.2093912   0.8068068  )
        90           H   tau(  90) = (   0.5842386   0.4464235   1.1203311  )
        91           H   tau(  91) = (   0.6085794   0.2646736   0.4779518  )
        92           H   tau(  92) = (   0.3670797   0.0276412   0.1644275  )
        93           H   tau(  93) = (   0.2382532   0.1175276   0.8095692  )
        94           H   tau(  94) = (   0.6887242   0.3545600   1.1175687  )
        95           H   tau(  95) = (   0.7130650   0.3565372   0.4751894  )
        96           H   tau(  96) = (   0.2625941   0.1195048   0.1671899  )
        97           H   tau(  97) = (   0.2156351   0.2510902   0.8454308  )
        98           H   tau(  98) = (   0.7113422   0.4881226   1.0817071  )
        99           H   tau(  99) = (   0.7356831   0.2229745   0.4393278  )
       100           H   tau( 100) = (   0.2399760  -0.0140578   0.2030515  )
       101           C   tau( 101) = (   0.3276210   0.3947093   0.4473926  )
       102           C   tau( 102) = (   0.6480381   0.1576769   0.1949867  )
       103           C   tau( 103) = (   0.6236972   0.0793555   0.8373660  )
       104           C   tau( 104) = (   0.3032802   0.3163878   1.0897720  )
       105           O   tau( 105) = (   0.5663740   0.3827221   0.2892305  )
       106           O   tau( 106) = (   0.4092852   0.1456897   0.3531488  )
       107           O   tau( 107) = (   0.3849443   0.0913427   0.9955281  )
       108           O   tau( 108) = (   0.5420331   0.3283751   0.9316098  )
       109           H   tau( 109) = (   0.4917566   0.3799380   0.3107771  )
       110           H   tau( 110) = (   0.4839025   0.1429056   0.3316022  )
       111           H   tau( 111) = (   0.4595616   0.0941268   0.9739815  )
       112           H   tau( 112) = (   0.4674157   0.3311592   0.9531564  )
       113           H   tau( 113) = (   0.5859473   0.4576872   0.2817008  )
       114           H   tau( 114) = (   0.3897119   0.2206548   0.3606785  )
       115           H   tau( 115) = (   0.3653710   0.0163776   1.0030578  )
       116           H   tau( 116) = (   0.5616064   0.2534100   0.9240801  )
       117           H   tau( 117) = (   0.3708709   0.0705628   0.4218268  )
       118           H   tau( 118) = (   0.6047882   0.3075952   0.2205525  )
       119           H   tau( 119) = (   0.5804473   0.4035019   0.8629318  )
       120           H   tau( 120) = (   0.3465300   0.1664696   1.0642061  )

     number of k points=     8
                       cart. coord. in units 2pi/alat
        k(    1) = (   0.0000000   0.0000000   0.0000000), wk =   0.1666667
        k(    2) = (   0.0000000   0.0000000  -0.3891782), wk =   0.1666667
        k(    3) = (   0.0000000   0.7031388   0.0000000), wk =   0.3333333
        k(    4) = (   0.0000000   0.7031388  -0.3891782), wk =   0.3333333
        k(    5) = (  -0.5000000   0.0000000  -0.0189459), wk =   0.1666667
        k(    6) = (  -0.5000000   0.0000000  -0.4081240), wk =   0.1666667
        k(    7) = (  -0.5000000   0.7031388  -0.0189459), wk =   0.3333333
        k(    8) = (  -0.5000000   0.7031388  -0.4081240), wk =   0.3333333

     Dense  grid:  1143937 G-vectors     FFT dimensions: ( 160,  75, 200)

     Estimated max dynamical RAM per process >    1592.43MB

     Estimated total allocated dynamical RAM >   12739.42MB

     Check: negative/imaginary core charge=   -0.000003    0.000000

     Initial potential from superposition of free atoms

     starting charge  455.99802, renormalised to  456.00000
     Starting wfc are  372 randomized atomic wfcs
     Checking if some PAW data can be deallocated... 

     total cpu time spent up to now is      102.5 secs

     per-process dynamical memory:  1030.0 Mb

     Self-consistent Calculation

     iteration #  1     ecut=   100.00 Ry     beta=0.50
     Davidson diagonalization with overlap
     ethr =  1.00E-02,  avg # of iterations =  4.5

     total cpu time spent up to now is      448.0 secs

     total energy              =   -2539.56172742 Ry
     Harris-Foulkes estimate   =   -2547.13075672 Ry
     estimated scf accuracy    <      13.32202098 Ry

     iteration #  2     ecut=   100.00 Ry     beta=0.50
     Davidson diagonalization with overlap
     ethr =  2.92E-03,  avg # of iterations =  4.0

     total cpu time spent up to now is      691.4 secs

     total energy              =   -2541.98540419 Ry
     Harris-Foulkes estimate   =   -2543.64561424 Ry
     estimated scf accuracy    <       3.51027197 Ry

     iteration #  3     ecut=   100.00 Ry     beta=0.50
     Davidson diagonalization with overlap
     ethr =  7.70E-04,  avg # of iterations =  7.9

     total cpu time spent up to now is      939.5 secs

     total energy              =   -2542.73305444 Ry
     Harris-Foulkes estimate   =   -2542.93905911 Ry
     estimated scf accuracy    <       0.50611372 Ry

     iteration #  4     ecut=   100.00 Ry     beta=0.50
     Davidson diagonalization with overlap
     ethr =  1.11E-04,  avg # of iterations =  7.6

     total cpu time spent up to now is     1205.6 secs

     total energy              =   -2542.81313440 Ry
     Harris-Foulkes estimate   =   -2542.89444503 Ry
     estimated scf accuracy    <       0.19569687 Ry

     iteration #  5     ecut=   100.00 Ry     beta=0.50
     Davidson diagonalization with overlap
     ethr =  4.29E-05,  avg # of iterations =  3.1

     total cpu time spent up to now is     1403.1 secs

     total energy              =   -2542.84815082 Ry
     Harris-Foulkes estimate   =   -2542.87571498 Ry
     estimated scf accuracy    <       0.08185407 Ry

     iteration #  6     ecut=   100.00 Ry     beta=0.50
     Davidson diagonalization with overlap
     ethr =  1.80E-05,  avg # of iterations =  2.1

     total cpu time spent up to now is     1581.9 secs

     total energy              =   -2542.86258408 Ry
     Harris-Foulkes estimate   =   -2542.86359017 Ry
     estimated scf accuracy    <       0.00320312 Ry

     iteration #  7     ecut=   100.00 Ry     beta=0.50
     Davidson diagonalization with overlap
     ethr =  7.02E-07,  avg # of iterations = 10.8

     total cpu time spent up to now is     2030.5 secs

     total energy              =   -2542.86461417 Ry
     Harris-Foulkes estimate   =   -2542.86509676 Ry
     estimated scf accuracy    <       0.00124431 Ry

     iteration #  8     ecut=   100.00 Ry     beta=0.50
     Davidson diagonalization with overlap
     ethr =  2.73E-07,  avg # of iterations =  3.4

     total cpu time spent up to now is     2219.2 secs

     total energy              =   -2542.86467585 Ry
     Harris-Foulkes estimate   =   -2542.86487580 Ry
     estimated scf accuracy    <       0.00052044 Ry

     iteration #  9     ecut=   100.00 Ry     beta=0.50
     Davidson diagonalization with overlap
     ethr =  1.14E-07,  avg # of iterations =  4.0

     total cpu time spent up to now is     2463.2 secs

     total energy              =   -2542.86482413 Ry
     Harris-Foulkes estimate   =   -2542.86490508 Ry
     estimated scf accuracy    <       0.00025758 Ry

     iteration # 10     ecut=   100.00 Ry     beta=0.50
     Davidson diagonalization with overlap
     ethr =  5.65E-08,  avg # of iterations =  1.4

     total cpu time spent up to now is     2627.8 secs

     total energy              =   -2542.86481817 Ry
     Harris-Foulkes estimate   =   -2542.86484724 Ry
     estimated scf accuracy    <       0.00005859 Ry

     iteration # 11     ecut=   100.00 Ry     beta=0.50
     Davidson diagonalization with overlap
     ethr =  1.28E-08,  avg # of iterations =  4.0

     total cpu time spent up to now is     2905.0 secs

     total energy              =   -2542.86484908 Ry
     Harris-Foulkes estimate   =   -2542.86485325 Ry
     estimated scf accuracy    <       0.00001573 Ry

     iteration # 12     ecut=   100.00 Ry     beta=0.50
     Davidson diagonalization with overlap
     ethr =  3.45E-09,  avg # of iterations =  1.0

     total cpu time spent up to now is     3068.6 secs

     total energy              =   -2542.86484740 Ry
     Harris-Foulkes estimate   =   -2542.86485000 Ry
     estimated scf accuracy    <       0.00000635 Ry

     iteration # 13     ecut=   100.00 Ry     beta=0.50
     Davidson diagonalization with overlap
     ethr =  1.39E-09,  avg # of iterations =  4.0

     total cpu time spent up to now is     3311.1 secs

     total energy              =   -2542.86484979 Ry
     Harris-Foulkes estimate   =   -2542.86484996 Ry
     estimated scf accuracy    <       0.00000086 Ry

     iteration # 14     ecut=   100.00 Ry     beta=0.50
     Davidson diagonalization with overlap
     ethr =  1.88E-10,  avg # of iterations =  2.0

     total cpu time spent up to now is     3483.7 secs

     total energy              =   -2542.86484978 Ry
     Harris-Foulkes estimate   =   -2542.86484992 Ry
     estimated scf accuracy    <       0.00000032 Ry

     iteration # 15     ecut=   100.00 Ry     beta=0.50
     Davidson diagonalization with overlap
     ethr =  7.05E-11,  avg # of iterations =  4.0

     total cpu time spent up to now is     3684.3 secs

     total energy              =   -2542.86484981 Ry
     Harris-Foulkes estimate   =   -2542.86484983 Ry
     estimated scf accuracy    <       0.00000006 Ry

     iteration # 16     ecut=   100.00 Ry     beta=0.50
     Davidson diagonalization with overlap
     ethr =  1.25E-11,  avg # of iterations =  4.0

     total cpu time spent up to now is     3928.1 secs

     total energy              =   -2542.86484982 Ry
     Harris-Foulkes estimate   =   -2542.86484983 Ry
     estimated scf accuracy    <       0.00000001 Ry

     iteration # 17     ecut=   100.00 Ry     beta=0.50
     Davidson diagonalization with overlap
     ethr =  2.34E-12,  avg # of iterations =  3.5

     total cpu time spent up to now is     4121.5 secs

     End of self-consistent calculation

          k = 0.0000 0.0000 0.0000 (142981 PWs)   bands (ev):

   -24.6214 -24.6196 -24.6182 -24.6176 -24.5862 -24.5841 -24.5636 -24.5632
   -24.4102 -24.4102 -24.3671 -24.3670 -21.3057 -21.3036 -21.2751 -21.2743
   -20.2157 -20.2156 -20.2126 -20.2125 -20.1816 -20.1811 -20.1720 -20.1716
   -20.0041 -20.0029 -19.9855 -19.9847 -19.1303 -19.1302 -19.0797 -19.0794
   -18.6874 -18.6873 -18.6034 -18.6034 -16.4508 -16.4486 -16.4443 -16.4406
   -14.5149 -14.5107 -14.5076 -14.4952 -14.4473 -14.4454 -14.4348 -14.4343
   -12.3956 -12.3786 -12.3784 -12.3218 -12.1017 -12.0684 -12.0367 -12.0366
   -11.5810 -11.5473 -11.5428 -11.5170 -10.7701 -10.7636 -10.7590 -10.7517
    -9.4944  -9.4380  -9.4171  -9.3752  -9.1403  -9.1128  -9.0688  -9.0640
    -8.2026  -8.1953  -8.1790  -8.1154  -8.1031  -8.1020  -8.1004  -8.0420
    -7.8287  -7.7807  -7.7568  -7.7321  -7.4773  -7.4560  -7.4494  -7.4378
    -7.4217  -7.3671  -7.1196  -7.1155  -6.9437  -6.8750  -6.8653  -6.8431
    -6.8207  -6.7915  -6.7064  -6.6918  -6.5705  -6.5701  -6.5668  -6.5540
    -6.4356  -6.4175  -6.3918  -6.3689  -6.3683  -6.2865  -6.2740  -6.2308
    -6.2252  -6.2097  -6.2001  -6.1364  -6.0331  -6.0299  -5.8403  -5.7942
    -5.7807  -5.7527  -5.6031  -5.5339  -5.5257  -5.5193  -5.2416  -5.2075
    -5.1988  -5.1795  -5.1326  -5.1067  -4.6467  -4.6274  -4.6202  -4.6152
    -4.2876  -4.2466  -4.1849  -4.1525  -4.0572  -4.0095  -3.9702  -3.9616
    -3.9083  -3.7607  -3.5816  -3.5590  -3.4890  -3.4785  -3.4290  -3.4157
    -3.1265  -3.1143  -3.0838  -3.0490  -2.9204  -2.8512  -2.7951  -2.7665
    -2.6666  -2.6421  -2.6403  -2.6282  -2.5605  -2.5102  -2.4888  -2.4731
    -2.0810  -2.0238  -1.9773  -1.9609  -1.5597  -1.5346  -1.5246  -1.4800
    -1.4791  -1.4544  -1.4157  -1.4079  -1.3798  -1.3676  -1.3469  -1.3385
    -1.2896  -1.2793  -1.2231  -1.1974  -1.1856  -1.1776  -1.1713  -1.1335
    -1.0805  -1.0509  -1.0348  -1.0321  -1.0124  -0.9979  -0.9919  -0.9151
    -0.8883  -0.8609  -0.8596  -0.8486  -0.8139  -0.7966  -0.6888  -0.6838
    -0.6498  -0.6249  -0.5967  -0.5308  -0.5294  -0.4822  -0.4609  -0.3878
    -0.3535  -0.3505  -0.3234  -0.3016   0.1239   0.1423   0.1903   0.2259
     0.2266   0.2360   0.2795   0.3107   3.0002   3.0263   3.0530   3.1181
     3.1814   3.1943   3.2326   3.2857   3.3042   3.3048   3.4222   3.4299
     4.3590   4.3899   4.4174   4.4251   4.9627   5.0075   5.0182   5.0353
     5.4629   5.4787   5.5004   5.5172   6.6792   7.1437   7.1490   7.1665
     7.2510   7.3830   7.5638   7.7788   7.9063   7.9467   8.1175   8.2644
     8.2750   8.3197   8.3878   8.5564   8.6042   8.7111   8.7382   9.0011
     9.0733

          k = 0.0000 0.0000-0.3892 (142968 PWs)   bands (ev):

   -24.6205 -24.6205 -24.6179 -24.6179 -24.5851 -24.5851 -24.5634 -24.5634
   -24.4102 -24.4102 -24.3670 -24.3670 -21.3047 -21.3047 -21.2747 -21.2747
   -20.2156 -20.2156 -20.2125 -20.2125 -20.1814 -20.1814 -20.1718 -20.1718
   -20.0035 -20.0035 -19.9851 -19.9851 -19.1302 -19.1302 -19.0796 -19.0796
   -18.6873 -18.6873 -18.6034 -18.6034 -16.4500 -16.4500 -16.4422 -16.4422
   -14.5121 -14.5121 -14.5023 -14.5023 -14.4462 -14.4462 -14.4345 -14.4345
   -12.3892 -12.3892 -12.3480 -12.3480 -12.0876 -12.0876 -12.0352 -12.0352
   -11.5630 -11.5630 -11.5300 -11.5300 -10.7667 -10.7667 -10.7552 -10.7552
    -9.4596  -9.4596  -9.4042  -9.4042  -9.1267  -9.1267  -9.0674  -9.0674
    -8.2063  -8.2063  -8.1313  -8.1313  -8.1049  -8.1049  -8.0727  -8.0727
    -7.8060  -7.8060  -7.7411  -7.7411  -7.4851  -7.4851  -7.4479  -7.4479
    -7.3768  -7.3768  -7.1185  -7.1185  -6.9099  -6.9099  -6.8531  -6.8531
    -6.8055  -6.8055  -6.7031  -6.7031  -6.5696  -6.5696  -6.5578  -6.5578
    -6.4366  -6.4366  -6.3883  -6.3883  -6.3019  -6.3018  -6.2413  -6.2413
    -6.2183  -6.2183  -6.1915  -6.1915  -6.0231  -6.0231  -5.8181  -5.8181
    -5.7723  -5.7723  -5.5745  -5.5744  -5.5115  -5.5115  -5.2253  -5.2253
    -5.1894  -5.1894  -5.1193  -5.1193  -4.6364  -4.6364  -4.6142  -4.6142
    -4.2743  -4.2743  -4.1666  -4.1666  -4.0523  -4.0523  -3.9697  -3.9697
    -3.8132  -3.8132  -3.5360  -3.5360  -3.5210  -3.5210  -3.4196  -3.4196
    -3.1121  -3.1121  -3.0721  -3.0721  -2.8898  -2.8898  -2.7784  -2.7784
    -2.6618  -2.6618  -2.6255  -2.6255  -2.5328  -2.5328  -2.4822  -2.4822
    -2.0527  -2.0527  -1.9688  -1.9688  -1.5397  -1.5397  -1.5237  -1.5237
    -1.4565  -1.4565  -1.4237  -1.4237  -1.3714  -1.3714  -1.3343  -1.3343
    -1.2710  -1.2710  -1.2329  -1.2329  -1.1728  -1.1728  -1.1408  -1.1408
    -1.0855  -1.0855  -1.0125  -1.0125  -0.9847  -0.9847  -0.9636  -0.9636
    -0.9296  -0.9296  -0.8385  -0.8385  -0.7545  -0.7545  -0.7372  -0.7372
    -0.6367  -0.6367  -0.5489  -0.5489  -0.5035  -0.5035  -0.4241  -0.4241
    -0.3542  -0.3542  -0.3069  -0.3069   0.1455   0.1455   0.1980   0.1980
     0.2329   0.2329   0.2904   0.2905   3.0249   3.0249   3.0687   3.0687
     3.1891   3.1891   3.2606   3.2606   3.3076   3.3076   3.4252   3.4252
     4.3865   4.3865   4.4094   4.4094   4.9797   4.9797   5.0328   5.0328
     5.4697   5.4697   5.5095   5.5095   6.8218   6.8218   7.1850   7.1850
     7.3427   7.3428   7.8016   7.8016   7.9157   7.9158   8.0989   8.0989
     8.2751   8.2751   8.4641   8.4641   8.6889   8.6889   8.7996   8.7996
     9.0967

          k = 0.0000 0.7031 0.0000 (143018 PWs)   bands (ev):

   -24.6198 -24.6186 -24.6182 -24.6177 -24.5841 -24.5831 -24.5645 -24.5644
   -24.3997 -24.3997 -24.3776 -24.3775 -21.2819 -21.2801 -21.2662 -21.2651
   -20.2168 -20.2163 -20.2152 -20.2149 -20.1842 -20.1839 -20.1703 -20.1701
   -20.0084 -20.0081 -19.9803 -19.9802 -19.2505 -19.2505 -19.2355 -19.2354
   -18.5322 -18.5320 -18.5006 -18.5005 -16.4587 -16.4568 -16.4482 -16.4470
   -14.5212 -14.5123 -14.5074 -14.5069 -14.4451 -14.4419 -14.4248 -14.4241
   -12.3707 -12.3596 -12.3582 -12.3332 -12.0919 -12.0748 -12.0575 -12.0566
   -11.5486 -11.5437 -11.5301 -11.5205 -10.7704 -10.7587 -10.7445 -10.7398
    -9.5137  -9.4638  -9.4481  -9.4460  -9.1584  -9.1398  -9.1383  -9.0890
    -8.2060  -8.1851  -8.1539  -8.1374  -8.1272  -8.0679  -8.0585  -8.0578
    -7.8119  -7.7789  -7.7364  -7.7141  -7.4570  -7.4377  -7.4278  -7.4193
    -7.2600  -7.2275  -7.1229  -7.0869  -6.9160  -6.8742  -6.8665  -6.8586
    -6.8332  -6.8324  -6.7730  -6.7551  -6.6077  -6.5959  -6.5605  -6.5568
    -6.4422  -6.4359  -6.4241  -6.4064  -6.3113  -6.2874  -6.2600  -6.2328
    -6.2102  -6.1974  -6.1518  -6.1516  -5.8782  -5.8331  -5.7901  -5.7766
    -5.7262  -5.7184  -5.5940  -5.4975  -5.4896  -5.4742  -5.2618  -5.2291
    -5.1984  -5.1946  -5.1877  -5.1566  -4.6628  -4.6210  -4.6170  -4.5887
    -4.3757  -4.3289  -4.2087  -4.1872  -4.0846  -4.0737  -4.0533  -4.0267
    -3.9497  -3.8771  -3.8494  -3.7582  -3.5839  -3.5552  -3.5441  -3.5245
    -3.1150  -3.0866  -3.0832  -3.0698  -2.9104  -2.8895  -2.8078  -2.7917
    -2.6617  -2.6444  -2.6090  -2.6037  -2.5252  -2.4992  -2.4747  -2.4726
    -1.8449  -1.8395  -1.8136  -1.7879  -1.5534  -1.5356  -1.5245  -1.4774
    -1.4496  -1.4404  -1.4120  -1.4068  -1.3746  -1.3624  -1.3581  -1.3167
    -1.2943  -1.2754  -1.2681  -1.2549  -1.2515  -1.2138  -1.1776  -1.1117
    -1.0375  -1.0352  -1.0059  -0.9799  -0.9311  -0.9112  -0.9078  -0.8811
    -0.8666  -0.8278  -0.8013  -0.8005  -0.7399  -0.7352  -0.7157  -0.7070
    -0.6651  -0.6486  -0.6146  -0.6085  -0.5505  -0.4753  -0.4627  -0.4291
    -0.3732  -0.3636  -0.3547  -0.3427   0.0778   0.1113   0.1492   0.1515
     0.1634   0.1739   0.2130   0.2389   3.0141   3.0214   3.1284   3.1475
     3.1649   3.1755   3.2208   3.2388   3.3303   3.3334   3.3660   3.3776
     4.3871   4.3907   4.4061   4.4131   4.9415   4.9754   4.9937   5.0049
     5.4978   5.5044   5.5297   5.5557   6.9464   7.0390   7.1938   7.2347
     7.4493   7.6903   7.9668   8.0200   8.0643   8.1247   8.2278   8.3081
     8.4136   8.4877   8.5323   8.6196   8.7883   8.8950   8.8970   8.9784
     9.0637

          k = 0.0000 0.7031-0.3892 (142958 PWs)   bands (ev):

   -24.6192 -24.6192 -24.6179 -24.6179 -24.5836 -24.5836 -24.5645 -24.5645
   -24.3997 -24.3997 -24.3775 -24.3775 -21.2810 -21.2810 -21.2656 -21.2656
   -20.2166 -20.2166 -20.2150 -20.2150 -20.1840 -20.1840 -20.1702 -20.1702
   -20.0083 -20.0083 -19.9803 -19.9803 -19.2505 -19.2505 -19.2355 -19.2355
   -18.5321 -18.5321 -18.5005 -18.5005 -16.4577 -16.4577 -16.4476 -16.4476
   -14.5158 -14.5158 -14.5082 -14.5082 -14.4433 -14.4433 -14.4246 -14.4246
   -12.3650 -12.3650 -12.3457 -12.3457 -12.0843 -12.0843 -12.0567 -12.0567
   -11.5391 -11.5391 -11.5320 -11.5320 -10.7613 -10.7613 -10.7454 -10.7454
    -9.4866  -9.4866  -9.4495  -9.4495  -9.1537  -9.1537  -9.1098  -9.1098
    -8.1964  -8.1964  -8.1510  -8.1510  -8.0930  -8.0930  -8.0531  -8.0531
    -7.7971  -7.7971  -7.7255  -7.7255  -7.4392  -7.4392  -7.4324  -7.4324
    -7.2443  -7.2443  -7.1069  -7.1069  -6.8895  -6.8895  -6.8672  -6.8672
    -6.8333  -6.8333  -6.7649  -6.7649  -6.5972  -6.5972  -6.5665  -6.5665
    -6.4319  -6.4319  -6.4180  -6.4180  -6.2952  -6.2952  -6.2472  -6.2472
    -6.2029  -6.2029  -6.1510  -6.1510  -5.8449  -5.8449  -5.8030  -5.8030
    -5.7248  -5.7248  -5.5482  -5.5482  -5.4700  -5.4699  -5.2497  -5.2497
    -5.1937  -5.1937  -5.1721  -5.1721  -4.6437  -4.6437  -4.5977  -4.5977
    -4.3594  -4.3594  -4.1927  -4.1927  -4.0929  -4.0929  -4.0336  -4.0336
    -3.9164  -3.9164  -3.7956  -3.7956  -3.5644  -3.5644  -3.5385  -3.5385
    -3.1019  -3.1019  -3.0763  -3.0763  -2.8978  -2.8978  -2.8002  -2.8002
    -2.6454  -2.6454  -2.6106  -2.6106  -2.5080  -2.5080  -2.4837  -2.4837
    -1.8351  -1.8351  -1.8075  -1.8075  -1.5414  -1.5414  -1.5089  -1.5089
    -1.4488  -1.4488  -1.4000  -1.4000  -1.3702  -1.3702  -1.3255  -1.3255
    -1.3015  -1.3015  -1.2617  -1.2617  -1.2279  -1.2279  -1.1306  -1.1306
    -1.0376  -1.0376  -1.0137  -1.0137  -0.9251  -0.9251  -0.8968  -0.8968
    -0.8398  -0.8398  -0.7931  -0.7931  -0.7553  -0.7553  -0.6769  -0.6769
    -0.6639  -0.6639  -0.6236  -0.6236  -0.5057  -0.5057  -0.4451  -0.4451
    -0.3703  -0.3703  -0.3507  -0.3507   0.1055   0.1055   0.1401   0.1401
     0.1744   0.1744   0.2185   0.2185   3.0672   3.0672   3.0888   3.0888
     3.1723   3.1723   3.2269   3.2269   3.3289   3.3289   3.3743   3.3743
     4.3966   4.3966   4.4027   4.4027   4.9653   4.9653   4.9933   4.9933
     5.5044   5.5044   5.5397   5.5397   7.0374   7.0374   7.1412   7.1412
     7.5622   7.5622   8.0109   8.0109   8.1171   8.1171   8.3027   8.3027
     8.4619   8.4620   8.5911   8.5911   8.7455   8.7455   8.9344   8.9345
     9.0341

          k =-0.5000 0.0000-0.0189 (143014 PWs)   bands (ev):

   -24.6213 -24.6196 -24.6182 -24.6176 -24.5861 -24.5841 -24.5636 -24.5633
   -24.4102 -24.4102 -24.3671 -24.3670 -21.3057 -21.3036 -21.2751 -21.2743
   -20.2159 -20.2158 -20.2124 -20.2123 -20.1816 -20.1811 -20.1720 -20.1716
   -20.0041 -20.0029 -19.9855 -19.9847 -19.1303 -19.1302 -19.0797 -19.0794
   -18.6874 -18.6873 -18.6034 -18.6034 -16.4487 -16.4484 -16.4445 -16.4427
   -14.5146 -14.5116 -14.5108 -14.4908 -14.4537 -14.4478 -14.4325 -14.4280
   -12.4132 -12.3636 -12.3615 -12.3410 -12.1006 -12.0803 -12.0373 -12.0207
   -11.5651 -11.5573 -11.5343 -11.5296 -10.7887 -10.7698 -10.7541 -10.7323
    -9.4887  -9.4498  -9.4251  -9.3740  -9.1450  -9.1235  -9.0797  -9.0239
    -8.2208  -8.1780  -8.1647  -8.1337  -8.1222  -8.0917  -8.0804  -8.0400
    -7.8241  -7.7704  -7.7675  -7.7485  -7.4674  -7.4524  -7.4519  -7.4379
    -7.4359  -7.3641  -7.1556  -7.0959  -6.9388  -6.8858  -6.8334  -6.8135
    -6.8090  -6.7831  -6.7471  -6.7249  -6.5688  -6.5686  -6.5613  -6.5538
    -6.4153  -6.4109  -6.4077  -6.3694  -6.3689  -6.3106  -6.2661  -6.2414
    -6.2282  -6.1957  -6.1900  -6.1274  -6.0352  -6.0181  -5.8528  -5.7926
    -5.7857  -5.7497  -5.5844  -5.5836  -5.5380  -5.4810  -5.2195  -5.2090
    -5.2013  -5.1913  -5.1311  -5.1122  -4.6539  -4.6434  -4.6201  -4.6065
    -4.2763  -4.2389  -4.1341  -4.1307  -4.0829  -4.0278  -4.0276  -3.9899
    -3.8703  -3.7580  -3.5804  -3.5430  -3.5012  -3.4684  -3.4247  -3.4219
    -3.1187  -3.1039  -3.0994  -3.0438  -2.9295  -2.8569  -2.7867  -2.7648
    -2.6783  -2.6682  -2.6310  -2.6044  -2.5543  -2.5034  -2.4963  -2.4811
    -2.0586  -2.0429  -2.0014  -1.9407  -1.5602  -1.5192  -1.4916  -1.4846
    -1.4682  -1.4535  -1.4457  -1.3842  -1.3779  -1.3643  -1.3412  -1.3391
    -1.3226  -1.2800  -1.2472  -1.2276  -1.1868  -1.1650  -1.1604  -1.1545
    -1.0848  -1.0528  -1.0433  -1.0190  -1.0033  -0.9956  -0.9648  -0.9112
    -0.8969  -0.8936  -0.8641  -0.8510  -0.7724  -0.7567  -0.7185  -0.6986
    -0.6457  -0.6227  -0.6128  -0.5525  -0.5017  -0.4757  -0.4520  -0.4110
    -0.3506  -0.3332  -0.3200  -0.3154   0.0898   0.1596   0.2261   0.2272
     0.2538   0.2572   0.2612   0.2626   3.0096   3.0170   3.0665   3.0910
     3.2014   3.2093   3.2266   3.2430   3.3049   3.3425   3.4203   3.4249
     4.3472   4.3859   4.3956   4.4479   4.9733   4.9931   5.0289   5.0354
     5.4725   5.4767   5.4923   5.5275   6.8465   7.0927   7.1592   7.2133
     7.2463   7.2649   7.4142   7.6055   7.6957   8.0057   8.2283   8.2421
     8.2536   8.4455   8.6245   8.6626   8.7420   8.9360   8.9375   8.9639
     8.9987

          k =-0.5000 0.0000-0.4081 (142870 PWs)   bands (ev):

   -24.6205 -24.6205 -24.6179 -24.6179 -24.5851 -24.5851 -24.5634 -24.5634
   -24.4102 -24.4102 -24.3671 -24.3670 -21.3047 -21.3047 -21.2747 -21.2747
   -20.2158 -20.2158 -20.2124 -20.2124 -20.1814 -20.1814 -20.1718 -20.1718
   -20.0035 -20.0035 -19.9851 -19.9851 -19.1302 -19.1302 -19.0796 -19.0796
   -18.6873 -18.6873 -18.6034 -18.6034 -16.4486 -16.4486 -16.4436 -16.4436
   -14.5148 -14.5147 -14.4994 -14.4994 -14.4508 -14.4508 -14.4300 -14.4300
   -12.3905 -12.3905 -12.3488 -12.3488 -12.0917 -12.0917 -12.0293 -12.0293
   -11.5494 -11.5494 -11.5425 -11.5425 -10.7831 -10.7831 -10.7392 -10.7392
    -9.4640  -9.4640  -9.4046  -9.4046  -9.1420  -9.1420  -9.0471  -9.0471
    -8.1865  -8.1865  -8.1639  -8.1639  -8.1054  -8.1054  -8.0534  -8.0534
    -7.7962  -7.7962  -7.7599  -7.7599  -7.4862  -7.4862  -7.4393  -7.4393
    -7.3835  -7.3835  -7.1259  -7.1259  -6.9136  -6.9136  -6.8167  -6.8167
    -6.8024  -6.8024  -6.7379  -6.7379  -6.5629  -6.5629  -6.5601  -6.5601
    -6.4267  -6.4267  -6.3949  -6.3949  -6.2995  -6.2995  -6.2661  -6.2661
    -6.1991  -6.1991  -6.1832  -6.1832  -6.0216  -6.0216  -5.8243  -5.8243
    -5.7721  -5.7721  -5.5833  -5.5833  -5.5036  -5.5036  -5.2131  -5.2131
    -5.1977  -5.1977  -5.1222  -5.1222  -4.6548  -4.6548  -4.6020  -4.6020
    -4.2649  -4.2649  -4.1463  -4.1463  -4.0440  -4.0440  -4.0115  -4.0115
    -3.8112  -3.8112  -3.5414  -3.5414  -3.5053  -3.5053  -3.4198  -3.4198
    -3.1141  -3.1141  -3.0682  -3.0682  -2.8970  -2.8970  -2.7742  -2.7742
    -2.6695  -2.6695  -2.6210  -2.6210  -2.5325  -2.5325  -2.4806  -2.4806
    -2.0551  -2.0551  -1.9682  -1.9682  -1.5425  -1.5425  -1.4976  -1.4976
    -1.4567  -1.4567  -1.4250  -1.4250  -1.3644  -1.3644  -1.3372  -1.3372
    -1.2702  -1.2702  -1.2544  -1.2544  -1.1715  -1.1715  -1.1674  -1.1674
    -1.0493  -1.0493  -1.0347  -1.0347  -1.0135  -1.0135  -0.9600  -0.9600
    -0.9004  -0.9004  -0.8274  -0.8274  -0.7816  -0.7816  -0.6961  -0.6961
    -0.6415  -0.6415  -0.5775  -0.5775  -0.4927  -0.4927  -0.4303  -0.4303
    -0.3438  -0.3438  -0.3152  -0.3152   0.1620   0.1620   0.1934   0.1934
     0.2479   0.2479   0.2684   0.2684   3.0370   3.0371   3.0517   3.0517
     3.2063   3.2063   3.2364   3.2364   3.3247   3.3247   3.4223   3.4223
     4.3663   4.3663   4.4220   4.4220   4.9843   4.9843   5.0314   5.0314
     5.4744   5.4744   5.5099   5.5099   6.9548   6.9548   7.1295   7.1295
     7.2935   7.2935   7.4942   7.4942   8.0035   8.0035   8.2298   8.2298
     8.3012   8.3012   8.4793   8.4793   8.8600   8.8601   8.8881   8.8881
     9.0740

          k =-0.5000 0.7031-0.0189 (142994 PWs)   bands (ev):

   -24.6198 -24.6186 -24.6182 -24.6177 -24.5841 -24.5831 -24.5646 -24.5644
   -24.3997 -24.3997 -24.3776 -24.3775 -21.2819 -21.2801 -21.2662 -21.2651
   -20.2169 -20.2164 -20.2151 -20.2147 -20.1842 -20.1839 -20.1703 -20.1701
   -20.0084 -20.0081 -19.9803 -19.9802 -19.2505 -19.2505 -19.2355 -19.2354
   -18.5322 -18.5320 -18.5006 -18.5005 -16.4539 -16.4536 -16.4522 -16.4511
   -14.5199 -14.5188 -14.5067 -14.5000 -14.4371 -14.4351 -14.4343 -14.4318
   -12.3784 -12.3512 -12.3510 -12.3409 -12.0923 -12.0777 -12.0606 -12.0484
   -11.5611 -11.5406 -11.5292 -11.5142 -10.7678 -10.7589 -10.7589 -10.7279
    -9.4919  -9.4821  -9.4685  -9.4259  -9.1734  -9.1407  -9.1174  -9.0982
    -8.2022  -8.2014  -8.1507  -8.1327  -8.1027  -8.0697  -8.0609  -8.0600
    -7.8083  -7.7743  -7.7445  -7.7424  -7.4521  -7.4438  -7.4136  -7.4129
    -7.2594  -7.2329  -7.1166  -7.0934  -6.9101  -6.9004  -6.8865  -6.8483
    -6.8319  -6.8306  -6.7442  -6.7396  -6.6054  -6.5890  -6.5780  -6.5618
    -6.4460  -6.4290  -6.4287  -6.3972  -6.3056  -6.2931  -6.2600  -6.2373
    -6.2084  -6.2079  -6.1507  -6.1488  -5.8601  -5.8528  -5.7872  -5.7847
    -5.7178  -5.7076  -5.6041  -5.5164  -5.4981  -5.4457  -5.2510  -5.2359
    -5.2339  -5.2031  -5.1687  -5.1454  -4.6547  -4.6289  -4.6198  -4.5928
    -4.3797  -4.3168  -4.1975  -4.1601  -4.1194  -4.0684  -4.0631  -4.0066
    -3.9584  -3.8571  -3.8540  -3.7856  -3.5923  -3.5546  -3.5396  -3.5143
    -3.1014  -3.0997  -3.0942  -3.0578  -2.9108  -2.8967  -2.8045  -2.7907
    -2.6501  -2.6410  -2.6161  -2.6129  -2.5238  -2.4907  -2.4847  -2.4687
    -1.8458  -1.8435  -1.8109  -1.7889  -1.5518  -1.5360  -1.5220  -1.4771
    -1.4532  -1.4317  -1.4273  -1.3943  -1.3700  -1.3660  -1.3657  -1.3408
    -1.2866  -1.2766  -1.2599  -1.2432  -1.2386  -1.2231  -1.1605  -1.0881
    -1.0506  -1.0483  -1.0021  -1.0009  -0.9314  -0.9263  -0.9030  -0.8943
    -0.8563  -0.8210  -0.8162  -0.8009  -0.7594  -0.7476  -0.7003  -0.6883
    -0.6569  -0.6534  -0.6127  -0.6110  -0.5097  -0.5091  -0.4483  -0.4357
    -0.3941  -0.3627  -0.3402  -0.3311   0.0845   0.0859   0.1400   0.1586
     0.1742   0.1818   0.2197   0.2289   3.0150   3.0209   3.1417   3.1480
     3.1616   3.1757   3.1946   3.2407   3.3318   3.3368   3.3717   3.3780
     4.3672   4.3847   4.4112   4.4338   4.9517   4.9710   4.9848   5.0129
     5.4814   5.5018   5.5516   5.5533   6.9296   7.0808   7.2413   7.2444
     7.5577   7.6430   7.6609   8.0403   8.1154   8.1327   8.1773   8.2062
     8.4369   8.4400   8.5631   8.8042   8.8318   8.8323   8.9115   8.9511
     9.0243

          k =-0.5000 0.7031-0.4081 (142980 PWs)   bands (ev):

   -24.6192 -24.6192 -24.6179 -24.6179 -24.5836 -24.5836 -24.5645 -24.5645
   -24.3997 -24.3997 -24.3775 -24.3775 -21.2810 -21.2810 -21.2656 -21.2656
   -20.2167 -20.2167 -20.2149 -20.2149 -20.1840 -20.1840 -20.1702 -20.1702
   -20.0083 -20.0083 -19.9803 -19.9803 -19.2505 -19.2505 -19.2355 -19.2355
   -18.5321 -18.5321 -18.5005 -18.5005 -16.4531 -16.4531 -16.4523 -16.4523
   -14.5192 -14.5192 -14.5034 -14.5034 -14.4366 -14.4366 -14.4328 -14.4328
   -12.3658 -12.3658 -12.3448 -12.3448 -12.0854 -12.0854 -12.0547 -12.0547
   -11.5498 -11.5498 -11.5224 -11.5224 -10.7641 -10.7641 -10.7427 -10.7427
    -9.4837  -9.4837  -9.4507  -9.4507  -9.1569  -9.1569  -9.1086  -9.1086
    -8.2065  -8.2065  -8.1263  -8.1263  -8.0993  -8.0993  -8.0561  -8.0561
    -7.7878  -7.7878  -7.7466  -7.7466  -7.4505  -7.4505  -7.4110  -7.4110
    -7.2487  -7.2487  -7.1056  -7.1056  -6.9027  -6.9027  -6.8666  -6.8666
    -6.8342  -6.8342  -6.7435  -6.7435  -6.5937  -6.5937  -6.5747  -6.5747
    -6.4370  -6.4370  -6.4111  -6.4111  -6.2961  -6.2960  -6.2481  -6.2481
    -6.2061  -6.2061  -6.1504  -6.1504  -5.8348  -5.8348  -5.8172  -5.8172
    -5.7159  -5.7159  -5.5601  -5.5601  -5.4608  -5.4608  -5.2460  -5.2460
    -5.2191  -5.2191  -5.1556  -5.1556  -4.6516  -4.6516  -4.5930  -4.5930
    -4.3527  -4.3527  -4.1865  -4.1865  -4.0867  -4.0867  -4.0504  -4.0504
    -3.8946  -3.8946  -3.8168  -3.8168  -3.5723  -3.5723  -3.5274  -3.5274
    -3.1052  -3.1052  -3.0710  -3.0710  -2.9002  -2.9002  -2.7999  -2.7999
    -2.6384  -2.6384  -2.6222  -2.6222  -2.5096  -2.5096  -2.4767  -2.4767
    -1.8320  -1.8320  -1.8128  -1.8128  -1.5421  -1.5421  -1.5032  -1.5032
    -1.4519  -1.4519  -1.4145  -1.4145  -1.3607  -1.3607  -1.3297  -1.3297
    -1.2980  -1.2980  -1.2529  -1.2529  -1.2248  -1.2248  -1.1121  -1.1121
    -1.0502  -1.0502  -1.0165  -1.0165  -0.9456  -0.9456  -0.8962  -0.8962
    -0.8316  -0.8316  -0.8108  -0.8108  -0.7321  -0.7321  -0.7163  -0.7163
    -0.6437  -0.6436  -0.6070  -0.6070  -0.5073  -0.5073  -0.4453  -0.4453
    -0.3799  -0.3799  -0.3383  -0.3383   0.0991   0.0991   0.1430   0.1430
     0.1735   0.1735   0.2208   0.2208   3.0733   3.0733   3.0836   3.0836
     3.1737   3.1737   3.2184   3.2184   3.3339   3.3339   3.3743   3.3743
     4.3773   4.3773   4.4221   4.4221   4.9673   4.9673   4.9938   4.9938
     5.4946   5.4946   5.5495   5.5495   7.0078   7.0078   7.2212   7.2212
     7.5991   7.5991   7.8125   7.8125   8.1035   8.1035   8.2677   8.2677
     8.5101   8.5101   8.7288   8.7288   8.7769   8.7769   8.9087   8.9087
     9.0594

     highest occupied, lowest unoccupied level (ev):     0.3107    3.0002

!    total energy              =   -2542.86484982 Ry
     Harris-Foulkes estimate   =   -2542.86484982 Ry
     estimated scf accuracy    <          2.9E-09 Ry

     total all-electron energy =     -9516.446085 Ry

     The total energy is the sum of the following terms:

     one-electron contribution =   -1374.40223844 Ry
     hartree contribution      =     867.10151467 Ry
     xc contribution           =    -504.62968399 Ry
     ewald contribution        =    -848.84277602 Ry
     Dispersion Correction     =      -0.51690622 Ry
     one-center paw contrib.   =    -681.57475983 Ry

     convergence has been achieved in  17 iterations

     Forces acting on atoms (cartesian axes, Ry/au):

     atom    1 type  4   force =     0.00131339   -0.00070220   -0.00114221
     atom    2 type  4   force =    -0.00131318   -0.00070578    0.00114226
     atom    3 type  4   force =    -0.00131339    0.00070220    0.00114221
     atom    4 type  4   force =     0.00131318    0.00070578   -0.00114226
     atom    5 type  4   force =     0.00177291   -0.00161555   -0.00241135
     atom    6 type  4   force =    -0.00177299   -0.00161906    0.00241194
     atom    7 type  4   force =    -0.00177291    0.00161555    0.00241135
     atom    8 type  4   force =     0.00177299    0.00161906   -0.00241194
     atom    9 type  4   force =    -0.00099243    0.00052723    0.00050112
     atom   10 type  4   force =     0.00099207    0.00052971   -0.00050225
     atom   11 type  4   force =     0.00099243   -0.00052723   -0.00050112
     atom   12 type  4   force =    -0.00099207   -0.00052971    0.00050225
     atom   13 type  4   force =     0.00225006    0.00334575   -0.00478652
     atom   14 type  4   force =    -0.00225026    0.00334752    0.00478688
     atom   15 type  4   force =    -0.00225006   -0.00334575    0.00478652
     atom   16 type  4   force =     0.00225026   -0.00334752   -0.00478688
     atom   17 type  4   force =     0.00352307    0.00366720   -0.00475175
     atom   18 type  4   force =    -0.00352252    0.00366641    0.00475067
     atom   19 type  4   force =    -0.00352307   -0.00366720    0.00475175
     atom   20 type  4   force =     0.00352252   -0.00366641   -0.00475067
     atom   21 type  4   force =    -0.00314865    0.00109091    0.00409381
     atom   22 type  4   force =     0.00314843    0.00108764   -0.00409328
     atom   23 type  4   force =     0.00314865   -0.00109091   -0.00409381
     atom   24 type  4   force =    -0.00314843   -0.00108764    0.00409328
     atom   25 type  4   force =     0.00129885    0.00072714    0.00048892
     atom   26 type  4   force =    -0.00128976    0.00072684   -0.00049368
     atom   27 type  4   force =    -0.00129885   -0.00072714   -0.00048892
     atom   28 type  4   force =     0.00128976   -0.00072684    0.00049368
     atom   29 type  4   force =    -0.00017482   -0.00018850   -0.00101343
     atom   30 type  4   force =     0.00017524   -0.00018499    0.00100707
     atom   31 type  4   force =     0.00017482    0.00018850    0.00101343
     atom   32 type  4   force =    -0.00017524    0.00018499   -0.00100707
     atom   33 type  2   force =    -0.00104880    0.00447399    0.00106222
     atom   34 type  2   force =     0.00104960    0.00447513   -0.00106270
     atom   35 type  2   force =     0.00104880   -0.00447399   -0.00106222
     atom   36 type  2   force =    -0.00104960   -0.00447513    0.00106270
     atom   37 type  2   force =    -0.00004322   -0.00307236    0.00434094
     atom   38 type  2   force =     0.00004276   -0.00307388   -0.00434016
     atom   39 type  2   force =     0.00004322    0.00307236   -0.00434094
     atom   40 type  2   force =    -0.00004276    0.00307388    0.00434016
     atom   41 type  2   force =     0.00090670    0.00002104    0.00109297
     atom   42 type  2   force =    -0.00091137    0.00001906   -0.00108742
     atom   43 type  2   force =    -0.00090670   -0.00002104   -0.00109297
     atom   44 type  2   force =     0.00091137   -0.00001906    0.00108742
     atom   45 type  1   force =    -0.00090924   -0.00111222    0.00201562
     atom   46 type  1   force =     0.00090918   -0.00111617   -0.00201520
     atom   47 type  1   force =     0.00090924    0.00111222   -0.00201562
     atom   48 type  1   force =    -0.00090918    0.00111617    0.00201520
     atom   49 type  1   force =    -0.00035429   -0.00120449   -0.00074473
     atom   50 type  1   force =     0.00035447   -0.00119739    0.00074535
     atom   51 type  1   force =     0.00035429    0.00120449    0.00074473
     atom   52 type  1   force =    -0.00035447    0.00119739   -0.00074535
     atom   53 type  1   force =    -0.00159157   -0.00035081   -0.00196848
     atom   54 type  1   force =     0.00159093   -0.00035207    0.00196828
     atom   55 type  1   force =     0.00159157    0.00035081    0.00196848
     atom   56 type  1   force =    -0.00159093    0.00035207   -0.00196828
     atom   57 type  1   force =     0.00121395    0.00088384    0.00019102
     atom   58 type  1   force =    -0.00121430    0.00088661   -0.00019038
     atom   59 type  1   force =    -0.00121395   -0.00088384   -0.00019102
     atom   60 type  1   force =     0.00121430   -0.00088661    0.00019038
     atom   61 type  1   force =     0.00061419   -0.00028762    0.00029037
     atom   62 type  1   force =    -0.00061435   -0.00028500   -0.00028996
     atom   63 type  1   force =    -0.00061419    0.00028762   -0.00029037
     atom   64 type  1   force =     0.00061435    0.00028500    0.00028996
     atom   65 type  1   force =     0.00065551    0.00044681    0.00068071
     atom   66 type  1   force =    -0.00065631    0.00045475   -0.00068080
     atom   67 type  1   force =    -0.00065551   -0.00044681   -0.00068071
     atom   68 type  1   force =     0.00065631   -0.00045475    0.00068080
     atom   69 type  1   force =    -0.00010699   -0.00079350    0.00184727
     atom   70 type  1   force =     0.00010707   -0.00080332   -0.00184705
     atom   71 type  1   force =     0.00010699    0.00079350   -0.00184727
     atom   72 type  1   force =    -0.00010707    0.00080332    0.00184705
     atom   73 type  3   force =     0.00070947    0.00113819    0.00013067
     atom   74 type  3   force =    -0.00070923    0.00113833   -0.00013085
     atom   75 type  3   force =    -0.00070947   -0.00113819   -0.00013067
     atom   76 type  3   force =     0.00070923   -0.00113833    0.00013085
     atom   77 type  3   force =    -0.00060065    0.00026644    0.00051677
     atom   78 type  3   force =     0.00060053    0.00026643   -0.00051661
     atom   79 type  3   force =     0.00060065   -0.00026644   -0.00051677
     atom   80 type  3   force =    -0.00060053   -0.00026643    0.00051661
     atom   81 type  3   force =    -0.00000206   -0.00024554   -0.00013787
     atom   82 type  3   force =     0.00000205   -0.00024531    0.00013798
     atom   83 type  3   force =     0.00000206    0.00024554    0.00013787
     atom   84 type  3   force =    -0.00000205    0.00024531   -0.00013798
     atom   85 type  1   force =     0.00113143    0.00050562   -0.00060868
     atom   86 type  1   force =    -0.00113256    0.00050870    0.00060911
     atom   87 type  1   force =    -0.00113143   -0.00050562    0.00060868
     atom   88 type  1   force =     0.00113256   -0.00050870   -0.00060911
     atom   89 type  3   force =    -0.00112407   -0.00053249   -0.00074486
     atom   90 type  3   force =     0.00112383   -0.00053260    0.00074504
     atom   91 type  3   force =     0.00112407    0.00053249    0.00074486
     atom   92 type  3   force =    -0.00112383    0.00053260   -0.00074504
     atom   93 type  3   force =    -0.00019737    0.00005102    0.00119646
     atom   94 type  3   force =     0.00019740    0.00005083   -0.00119649
     atom   95 type  3   force =     0.00019737   -0.00005102   -0.00119646
     atom   96 type  3   force =    -0.00019740   -0.00005083    0.00119649
     atom   97 type  3   force =    -0.00003312   -0.00106862   -0.00009306
     atom   98 type  3   force =     0.00003322   -0.00106890    0.00009287
     atom   99 type  3   force =     0.00003312    0.00106862    0.00009306
     atom  100 type  3   force =    -0.00003322    0.00106890   -0.00009287
     atom  101 type  1   force =    -0.00032521   -0.00296493    0.00188599
     atom  102 type  1   force =     0.00032414   -0.00298908   -0.00188707
     atom  103 type  1   force =     0.00032521    0.00296493   -0.00188599
     atom  104 type  1   force =    -0.00032414    0.00298908    0.00188707
     atom  105 type  4   force =    -0.00085878   -0.00441479    0.00207977
     atom  106 type  4   force =     0.00085913   -0.00441474   -0.00207982
     atom  107 type  4   force =     0.00085878    0.00441479   -0.00207977
     atom  108 type  4   force =    -0.00085913    0.00441474    0.00207982
     atom  109 type  3   force =     0.00025309    0.00075455    0.00004385
     atom  110 type  3   force =    -0.00025295    0.00075469   -0.00004390
     atom  111 type  3   force =    -0.00025309   -0.00075455   -0.00004385
     atom  112 type  3   force =     0.00025295   -0.00075469    0.00004390
     atom  113 type  3   force =     0.00053921    0.00151970   -0.00173147
     atom  114 type  3   force =    -0.00053922    0.00151966    0.00173151
     atom  115 type  3   force =    -0.00053921   -0.00151970    0.00173147
     atom  116 type  3   force =     0.00053922   -0.00151966   -0.00173151
     atom  117 type  3   force =    -0.00079572    0.00055238    0.00100058
     atom  118 type  3   force =     0.00079577    0.00055237   -0.00100058
     atom  119 type  3   force =     0.00079572   -0.00055238   -0.00100058
     atom  120 type  3   force =    -0.00079577   -0.00055237    0.00100058

     Total force =     0.032584     Total SCF correction =     0.000103


     Computing stress (Cartesian axis) and pressure

          total   stress  (Ry/bohr**3)                   (kbar)     P=   -0.54
  -0.00000187  -0.00000000  -0.00000115         -0.28     -0.00     -0.17
  -0.00000000  -0.00001829   0.00000000         -0.00     -2.69      0.00
  -0.00000115   0.00000000   0.00000907         -0.17      0.00      1.33


     Writing output data file scf.save
 
     init_run     :     98.19s CPU    101.80s WALL (       1 calls)
     electrons    :   3890.33s CPU   4019.28s WALL (       1 calls)
     forces       :     52.57s CPU     52.91s WALL (       1 calls)
     stress       :    252.43s CPU    253.07s WALL (       1 calls)

     Called by init_run:
     wfcinit      :     84.23s CPU     87.61s WALL (       1 calls)
     potinit      :      4.83s CPU      4.86s WALL (       1 calls)

     Called by electrons:
     c_bands      :   3535.33s CPU   3645.46s WALL (      17 calls)
     sum_band     :    335.78s CPU    352.43s WALL (      17 calls)
     v_of_rho     :      2.68s CPU      2.98s WALL (      18 calls)
     newd         :      7.76s CPU      9.57s WALL (      18 calls)
     PAW_pot      :      8.27s CPU      8.27s WALL (      18 calls)
     mix_rho      :      0.62s CPU      0.68s WALL (      17 calls)

     Called by c_bands:
     init_us_2    :     14.30s CPU     14.37s WALL (     296 calls)
     cegterg      :   3473.48s CPU   3583.51s WALL (     136 calls)

     Called by sum_band:
     sum_band:bec :      0.18s CPU      0.18s WALL (     136 calls)
     addusdens    :      7.99s CPU      9.79s WALL (      17 calls)

     Called by *egterg:
     h_psi        :   1695.15s CPU   1780.89s WALL (     714 calls)
     s_psi        :    459.08s CPU    459.28s WALL (     714 calls)
     g_psi        :      6.99s CPU      6.99s WALL (     570 calls)
     cdiaghg      :    240.96s CPU    241.22s WALL (     706 calls)

     Called by h_psi:
     h_psi:pot    :   1685.25s CPU   1770.82s WALL (     714 calls)
     h_psi:calbec :    450.65s CPU    451.33s WALL (     714 calls)
     vloc_psi     :    775.81s CPU    860.53s WALL (     714 calls)
     add_vuspsi   :    458.79s CPU    458.97s WALL (     714 calls)

     General routines
     calbec       :    664.48s CPU    665.50s WALL (     890 calls)
     fft          :      2.06s CPU      2.59s WALL (     258 calls)
     fftw         :    839.19s CPU    937.22s WALL (  236532 calls)
 
     Parallel routines
     fft_scatter  :    138.35s CPU    228.91s WALL (  236790 calls)
 
     PWSCF        :     1h11m CPU        1h15m WALL

 
   This run was terminated on:   7:36:22   4Nov2017            

=------------------------------------------------------------------------------=
   JOB DONE.
=------------------------------------------------------------------------------=
