
     Program PWSCF v.6.1 (svn rev. 13369) starts on 20Jan2018 at 15: 6:50 

     This program is part of the open-source Quantum ESPRESSO suite
     for quantum simulation of materials; please cite
         "P. Giannozzi et al., J. Phys.:Condens. Matter 21 395502 (2009);
          URL http://www.quantum-espresso.org", 
     in publications or presentations arising from this work. More details at
     http://www.quantum-espresso.org/quote

     Parallel version (MPI), running on     8 processors
     R & G space division:  proc/nbgrp/npool/nimage =       8
     Waiting for input...
     Reading input from standard input

     Current dimensions of program PWSCF are:
     Max number of different atomic species (ntypx) = 10
     Max number of k-points (npk) =  40000
     Max angular momentum in pseudopotentials (lmaxx) =  3
               file C.pbe-n-kjpaw_psl.0.1.UPF: wavefunction(s)  2P renormalized
               file N.pbe-n-kjpaw_psl.0.1.UPF: wavefunction(s)  2P renormalized
               file H.pbe-kjpaw_psl.0.1.UPF: wavefunction(s)  1S renormalized
               file O.pbe-n-kjpaw_psl.0.1.UPF: wavefunction(s)  2P renormalized

     -------------------------------------
     Parameters for Dispersion Correction:
     -------------------------------------
       atom      VdW radius       C_6     

        C          2.744         60.710
        N          2.640         42.670
        H          1.892          4.857
        O          2.536         24.284

     Subspace diagonalization in iterative solution of the eigenvalue problem:
     a serial algorithm will be used

 
     Parallelization info
     --------------------
     sticks:   dense  smooth     PW     G-vecs:    dense   smooth      PW
     Min        5102    5102   1325               275298   275298   36524
     Max        5103    5103   1327               275299   275299   36525
     Sum       40823   40823  10609              2202389  2202389  292197
 


     bravais-lattice index     =            0
     lattice parameter (alat)  =      46.2340  a.u.
     unit-cell volume          =   16302.7605 (a.u.)^3
     number of atoms/cell      =          192
     number of atomic types    =            4
     number of electrons       =       880.00
     number of Kohn-Sham states=          528
     kinetic-energy cutoff     =     100.0000  Ry
     charge density cutoff     =     400.0000  Ry
     convergence threshold     =      1.0E-08
     mixing beta               =       0.5000
     number of iterations used =            8  plain     mixing
     Exchange-correlation      =  SLA  PW   PBX  PBC ( 1  4  3  4 0 0)

     celldm(1)=  46.234040  celldm(2)=   0.000000  celldm(3)=   0.000000
     celldm(4)=   0.000000  celldm(5)=   0.000000  celldm(6)=   0.000000

     crystal axes: (cart. coord. in units of alat)
               a(1) = (   1.000000   0.000000   0.000000 )  
               a(2) = (   0.000000   0.599730   0.000000 )  
               a(3) = (  -0.003361   0.000000   0.275055 )  

     reciprocal axes: (cart. coord. in units 2 pi/alat)
               b(1) = (  1.000000  0.000000  0.012218 )  
               b(2) = (  0.000000  1.667416  0.000000 )  
               b(3) = (  0.000000  0.000000  3.635635 )  


     PseudoPot. # 1 for  C read from file:
     /scratch/ahofstet/pseudo/C.pbe-n-kjpaw_psl.0.1.UPF
     MD5 check sum: 430fe95172b1e11ef3f8ed03bac87931
     Pseudo is Projector augmented-wave + core cor, Zval =  4.0
     Generated using "atomic" code by A. Dal Corso  v.5.0.99 svn rev. 10869
     Shape of augmentation charge: BESSEL
     Using radial grid of 1073 points,  4 beta functions with: 
                l(1) =   0
                l(2) =   0
                l(3) =   1
                l(4) =   1
     Q(r) pseudized with 0 coefficients 


     PseudoPot. # 2 for  N read from file:
     /scratch/ahofstet/pseudo/N.pbe-n-kjpaw_psl.0.1.UPF
     MD5 check sum: f73187c8b701007e77325f868c9291d7
     Pseudo is Projector augmented-wave + core cor, Zval =  5.0
     Generated using "atomic" code by A. Dal Corso  v.5.0.99 svn rev. 10869
     Shape of augmentation charge: PSQ
     Using radial grid of 1085 points,  4 beta functions with: 
                l(1) =   0
                l(2) =   0
                l(3) =   1
                l(4) =   1
     Q(r) pseudized with 0 coefficients 


     PseudoPot. # 3 for  H read from file:
     /scratch/ahofstet/pseudo/H.pbe-kjpaw_psl.0.1.UPF
     MD5 check sum: 94e484f906d9e9773b2f6e52662335b2
     Pseudo is Projector augmented-wave, Zval =  1.0
     Generated using "atomic" code by A. Dal Corso  v.5.0.99 svn rev. 10869
     Shape of augmentation charge: PSQ
     Using radial grid of  929 points,  2 beta functions with: 
                l(1) =   0
                l(2) =   0
     Q(r) pseudized with 0 coefficients 


     PseudoPot. # 4 for  O read from file:
     /scratch/ahofstet/pseudo/O.pbe-n-kjpaw_psl.0.1.UPF
     MD5 check sum: 3f94a2996a3169367d6eb21d9b593f20
     Pseudo is Projector augmented-wave + core cor, Zval =  6.0
     Generated using "atomic" code by A. Dal Corso  v.5.0.99 svn rev. 10869
     Shape of augmentation charge: BESSEL
     Using radial grid of 1095 points,  4 beta functions with: 
                l(1) =   0
                l(2) =   0
                l(3) =   1
                l(4) =   1
     Q(r) pseudized with 0 coefficients 


     atomic species   valence    mass     pseudopotential
        C              4.00    12.01070      C( 1.00)
        N              5.00    14.00670      N( 1.00)
        H              1.00     1.00794      H( 1.00)
        O              6.00    15.99940      O( 1.00)

      2 Sym. Ops., with inversion, found
          (note:  2 additional sym.ops. were found but ignored
           their fractional translations are incommensurate with FFT grid)


   Cartesian axes

     site n.     atom                  positions (alat units)
         1           N   tau(   1) = (   0.0830225   0.2757103   0.0800659  )
         2           N   tau(   2) = (   0.4152972   0.5755754   0.0574617  )
         3           N   tau(   3) = (   0.9136169   0.3240200   0.1949892  )
         4           N   tau(   4) = (   0.5813422   0.0241549   0.2175934  )
         5           N   tau(   5) = (   0.0983578   0.1855134   0.1190264  )
         6           N   tau(   6) = (   0.3999619   0.4853786   0.0185011  )
         7           N   tau(   7) = (   0.8982816   0.4142168   0.1560287  )
         8           N   tau(   8) = (   0.5966775   0.1143517   0.2565540  )
         9           N   tau(   9) = (   0.1336023   0.1658495   0.1571599  )
        10           N   tau(  10) = (   0.3613568   0.4657146   0.2554227  )
        11           N   tau(  11) = (   0.8630371   0.4338807   0.1178952  )
        12           N   tau(  12) = (   0.6352826   0.1340156   0.0196324  )
        13           N   tau(  13) = (   0.1642160   0.2048039   0.1745557  )
        14           N   tau(  14) = (   0.3307431   0.5046690   0.2380269  )
        15           N   tau(  15) = (   0.8324234   0.3949263   0.1004994  )
        16           N   tau(  16) = (   0.6658963   0.0950612   0.0370282  )
        17           N   tau(  17) = (   0.1488488   0.2509904   0.1473901  )
        18           N   tau(  18) = (   0.3461103   0.5508555   0.2651925  )
        19           N   tau(  19) = (   0.8477906   0.3487398   0.1276650  )
        20           N   tau(  20) = (   0.6505291   0.0488747   0.0098626  )
        21           N   tau(  21) = (   0.0842343   0.3586984   0.2614995  )
        22           N   tau(  22) = (   0.4107248   0.0588333   0.1510831  )
        23           N   tau(  23) = (   0.9124051   0.2410319   0.0135555  )
        24           N   tau(  24) = (   0.5859146   0.5408970   0.1239720  )
        25           N   tau(  25) = (   0.0181758   0.3726986   0.0616261  )
        26           N   tau(  26) = (   0.4801439   0.0728335   0.0759015  )
        27           N   tau(  27) = (   0.9784636   0.2270316   0.2134290  )
        28           N   tau(  28) = (   0.5164955   0.5268967   0.1991536  )
        29           N   tau(  29) = (   0.1066881   0.4257906   0.0615755  )
        30           N   tau(  30) = (   0.3916316   0.1259255   0.0759520  )
        31           N   tau(  31) = (   0.8899513   0.1739396   0.2134796  )
        32           N   tau(  32) = (   0.6050078   0.4738047   0.1991030  )
        33           N   tau(  33) = (   0.1446373   0.3421935   0.1197735  )
        34           N   tau(  34) = (   0.3536824   0.0423284   0.0177541  )
        35           N   tau(  35) = (   0.8520021   0.2575367   0.1552816  )
        36           N   tau(  36) = (   0.6429570   0.5574018   0.2573010  )
        37           O   tau(  37) = (   0.2081565   0.3146326   0.1845228  )
        38           O   tau(  38) = (   0.2868026   0.0147675   0.2280598  )
        39           O   tau(  39) = (   0.7884829   0.2850976   0.0905323  )
        40           O   tau(  40) = (   0.7098368   0.5849627   0.0469952  )
        41           O   tau(  41) = (   0.0064894   0.3692701   0.1100777  )
        42           O   tau(  42) = (   0.4918303   0.0694050   0.0274498  )
        43           O   tau(  43) = (   0.9901500   0.2304601   0.1649773  )
        44           O   tau(  44) = (   0.5048091   0.5303252   0.2476053  )
        45           O   tau(  45) = (   0.9872376   0.3792615   0.0231160  )
        46           O   tau(  46) = (   0.5110821   0.0793963   0.1144115  )
        47           O   tau(  47) = (   0.0094018   0.2204688   0.2519391  )
        48           O   tau(  48) = (   0.4855573   0.5203339   0.1606436  )
        49           O   tau(  49) = (   0.0941994   0.3120377   0.2472982  )
        50           O   tau(  50) = (   0.4007597   0.0121726   0.1652845  )
        51           O   tau(  51) = (   0.9024400   0.2876925   0.0277569  )
        52           O   tau(  52) = (   0.5958797   0.5875576   0.1097706  )
        53           O   tau(  53) = (   0.0774823   0.3986875   0.2325299  )
        54           O   tau(  54) = (   0.4174768   0.0988223   0.1800527  )
        55           O   tau(  55) = (   0.9191571   0.2010428   0.0425252  )
        56           O   tau(  56) = (   0.5791626   0.5009079   0.0950024  )
        57           O   tau(  57) = (   0.1520277   0.4317867   0.0417785  )
        58           O   tau(  58) = (   0.3462920   0.1319216   0.0957490  )
        59           O   tau(  59) = (   0.8446117   0.1679435   0.2332766  )
        60           O   tau(  60) = (   0.6503474   0.4678087   0.1793061  )
        61           O   tau(  61) = (   0.0803199   0.4577839   0.0891707  )
        62           O   tau(  62) = (   0.4179998   0.1579188   0.0483569  )
        63           O   tau(  63) = (   0.9163195   0.1419463   0.1858844  )
        64           O   tau(  64) = (   0.5786396   0.4418114   0.2266982  )
        65           C   tau(  65) = (   0.1708129   0.3054726   0.1531510  )
        66           C   tau(  66) = (   0.3241462   0.0056074   0.2594317  )
        67           C   tau(  67) = (   0.8258265   0.2942577   0.1219041  )
        68           C   tau(  68) = (   0.6724932   0.5941228   0.0156234  )
        69           C   tau(  69) = (   0.1056841   0.3253852   0.0866126  )
        70           C   tau(  70) = (   0.3926356   0.0255200   0.0509149  )
        71           C   tau(  71) = (   0.8909553   0.2743451   0.1884424  )
        72           C   tau(  72) = (   0.6040038   0.5742102   0.2241402  )
        73           C   tau(  73) = (   0.1072371   0.2395925   0.1121957  )
        74           C   tau(  74) = (   0.3910826   0.5394576   0.0253318  )
        75           C   tau(  75) = (   0.8894023   0.3601377   0.1628594  )
        76           C   tau(  76) = (   0.6055568   0.0602726   0.2497232  )
        77           C   tau(  77) = (   0.0586217   0.1504826   0.0919227  )
        78           C   tau(  78) = (   0.4396980   0.4503477   0.0456049  )
        79           C   tau(  79) = (   0.9380177   0.4492477   0.1831324  )
        80           C   tau(  80) = (   0.5569414   0.1493825   0.2294502  )
        81           C   tau(  81) = (   0.0807456   0.3689553   0.0500200  )
        82           C   tau(  82) = (   0.4175741   0.0690902   0.0875075  )
        83           C   tau(  83) = (   0.9158938   0.2307749   0.2250351  )
        84           C   tau(  84) = (   0.5790653   0.5306400   0.1875476  )
        85           N   tau(  85) = (   0.3232161   0.2331177   0.2265038  )
        86           N   tau(  86) = (   0.1717430   0.5329828   0.1860789  )
        87           N   tau(  87) = (   0.6734233   0.3666126   0.0485513  )
        88           N   tau(  88) = (   0.8248964   0.0667475   0.0889762  )
        89           N   tau(  89) = (   0.2483945   0.1880989   0.2740638  )
        90           N   tau(  90) = (   0.2465646   0.4879640   0.1385188  )
        91           N   tau(  91) = (   0.7482449   0.4116313   0.0009912  )
        92           N   tau(  92) = (   0.7500748   0.1117662   0.1365363  )
        93           N   tau(  93) = (   0.2124396   0.2059479   0.0337748  )
        94           N   tau(  94) = (   0.2858801   0.5058130   0.1037528  )
        95           N   tau(  95) = (   0.7841998   0.3937823   0.2412803  )
        96           N   tau(  96) = (   0.7107593   0.0939172   0.1713023  )
        97           N   tau(  97) = (   0.2185394   0.2575469   0.0421708  )
        98           N   tau(  98) = (   0.2797803   0.5574121   0.0953568  )
        99           N   tau(  99) = (   0.7781000   0.3421833   0.2328843  )
       100           N   tau( 100) = (   0.7168591   0.0423182   0.1796983  )
       101           N   tau( 101) = (   0.2623599   0.2739045   0.0123119  )
       102           N   tau( 102) = (   0.2359598   0.5737696   0.1252157  )
       103           N   tau( 103) = (   0.7342795   0.3258257   0.2627432  )
       104           N   tau( 104) = (   0.7606796   0.0259606   0.1498394  )
       105           N   tau( 105) = (   0.4344856   0.2501318   0.1950277  )
       106           N   tau( 106) = (   0.0604735   0.5499970   0.2175550  )
       107           N   tau( 107) = (   0.5621538   0.3495984   0.0800274  )
       108           N   tau( 108) = (   0.9361659   0.0497333   0.0575001  )
       109           N   tau( 109) = (   0.3702430   0.2841240   0.1212327  )
       110           N   tau( 110) = (   0.1280767   0.5839891   0.0162948  )
       111           N   tau( 111) = (   0.6263964   0.3156062   0.1538224  )
       112           N   tau( 112) = (   0.8685627   0.0157411   0.2587603  )
       113           N   tau( 113) = (   0.4116011   0.3514365   0.1851047  )
       114           N   tau( 114) = (   0.0833580   0.0515714   0.2274779  )
       115           N   tau( 115) = (   0.5850383   0.2482937   0.0899504  )
       116           N   tau( 116) = (   0.9132814   0.5481588   0.0475772  )
       117           N   tau( 117) = (   0.3265507   0.3293997   0.2490868  )
       118           N   tau( 118) = (   0.1684084   0.0295346   0.1634958  )
       119           N   tau( 119) = (   0.6700887   0.2703305   0.0259683  )
       120           N   tau( 120) = (   0.8282310   0.5701956   0.1115593  )
       121           O   tau( 121) = (   0.2696315   0.3648278   0.0379928  )
       122           O   tau( 122) = (   0.2286882   0.0649627   0.0995348  )
       123           O   tau( 123) = (   0.7270079   0.2349024   0.2370623  )
       124           O   tau( 124) = (   0.7679512   0.5347676   0.1755203  )
       125           O   tau( 125) = (   0.4520925   0.2224171   0.1573803  )
       126           O   tau( 126) = (   0.0428666   0.5222823   0.2552024  )
       127           O   tau( 127) = (   0.5445469   0.3773131   0.1176748  )
       128           O   tau( 128) = (   0.9537728   0.0774480   0.0198527  )
       129           O   tau( 129) = (   0.4484995   0.2496637   0.2428088  )
       130           O   tau( 130) = (   0.0464596   0.5495288   0.1697739  )
       131           O   tau( 131) = (   0.5481399   0.3500666   0.0322463  )
       132           O   tau( 132) = (   0.9501798   0.0502014   0.1052812  )
       133           O   tau( 133) = (   0.4031714   0.2989029   0.0867505  )
       134           O   tau( 134) = (   0.0951483   0.5987680   0.0507770  )
       135           O   tau( 135) = (   0.5934680   0.3008273   0.1883046  )
       136           O   tau( 136) = (   0.9014911   0.0009622   0.2242780  )
       137           O   tau( 137) = (   0.3253497   0.2637878   0.1137964  )
       138           O   tau( 138) = (   0.1729700   0.5636529   0.0237312  )
       139           O   tau( 139) = (   0.6712897   0.3359425   0.1612587  )
       140           O   tau( 140) = (   0.8236694   0.0360774   0.2513239  )
       141           O   tau( 141) = (   0.3845021   0.3849059   0.1598841  )
       142           O   tau( 142) = (   0.1104570   0.0850408   0.2526986  )
       143           O   tau( 143) = (   0.6121373   0.2148243   0.1151710  )
       144           O   tau( 144) = (   0.8861824   0.5146894   0.0223565  )
       145           O   tau( 145) = (   0.4530708   0.3590391   0.2114817  )
       146           O   tau( 146) = (   0.0418883   0.0591740   0.2011009  )
       147           O   tau( 147) = (   0.5435686   0.2406912   0.0635734  )
       148           O   tau( 148) = (   0.9547511   0.5405563   0.0739542  )
       149           C   tau( 149) = (   0.2869515   0.3277235   0.0101660  )
       150           C   tau( 150) = (   0.2113682   0.0278584   0.1273615  )
       151           C   tau( 151) = (   0.7096879   0.2720068   0.2648891  )
       152           C   tau( 152) = (   0.7852712   0.5718719   0.1476935  )
       153           C   tau( 153) = (   0.3418284   0.2847435   0.2232099  )
       154           C   tau( 154) = (   0.1531307   0.5846086   0.1893727  )
       155           C   tau( 155) = (   0.6548110   0.3149867   0.0518452  )
       156           C   tau( 156) = (   0.8435087   0.0151216   0.0856824  )
       157           C   tau( 157) = (   0.2804385   0.2307142   0.2595776  )
       158           C   tau( 158) = (   0.2145206   0.5305793   0.1530050  )
       159           C   tau( 159) = (   0.7162009   0.3690160   0.0154775  )
       160           C   tau( 160) = (   0.7821188   0.0691509   0.1220501  )
       161           C   tau( 161) = (   0.2516258   0.1315423   0.2557567  )
       162           C   tau( 162) = (   0.2433333   0.4314074   0.1568259  )
       163           C   tau( 163) = (   0.7450136   0.4681879   0.0192984  )
       164           C   tau( 164) = (   0.7533061   0.1683228   0.1182292  )
       165           C   tau( 165) = (   0.3881869   0.2920687   0.1824154  )
       166           C   tau( 166) = (   0.1067722   0.5919339   0.2301672  )
       167           C   tau( 167) = (   0.6084525   0.3076615   0.0926397  )
       168           C   tau( 168) = (   0.8898672   0.0077964   0.0448879  )
       169           H   tau( 169) = (   0.0290173   0.1769520   0.0712660  )
       170           H   tau( 170) = (   0.4693024   0.4768171   0.0662616  )
       171           H   tau( 171) = (   0.9676221   0.4227782   0.2037891  )
       172           H   tau( 172) = (   0.5273370   0.1229131   0.2087935  )
       173           H   tau( 173) = (   0.0797114   0.1244181   0.0621576  )
       174           H   tau( 174) = (   0.4186083   0.4242832   0.0753699  )
       175           H   tau( 175) = (   0.9169280   0.4753121   0.2128975  )
       176           H   tau( 176) = (   0.5780311   0.1754470   0.1996851  )
       177           H   tau( 177) = (   0.0382381   0.1253058   0.1228469  )
       178           H   tau( 178) = (   0.4600816   0.4251709   0.0146807  )
       179           H   tau( 179) = (   0.9584013   0.4744245   0.1522082  )
       180           H   tau( 180) = (   0.5365578   0.1745594   0.2603744  )
       181           H   tau( 181) = (   0.2895178   0.1272274   0.2324532  )
       182           H   tau( 182) = (   0.2054413   0.4270925   0.1801295  )
       183           H   tau( 183) = (   0.7071216   0.4725029   0.0426019  )
       184           H   tau( 184) = (   0.7911981   0.1726378   0.0949256  )
       185           H   tau( 185) = (   0.2557582   0.1047651   0.0165367  )
       186           H   tau( 186) = (   0.2425615   0.4046302   0.1209909  )
       187           H   tau( 187) = (   0.7408812   0.4949651   0.2585184  )
       188           H   tau( 188) = (   0.7540779   0.1951000   0.1540642  )
       189           H   tau( 189) = (   0.2162834   0.1224153   0.2297132  )
       190           H   tau( 190) = (   0.2786757   0.4222804   0.1828695  )
       191           H   tau( 191) = (   0.7803560   0.4773149   0.0453419  )
       192           H   tau( 192) = (   0.7179637   0.1774498   0.0921856  )

     number of k points=     4
                       cart. coord. in units 2pi/alat
        k(    1) = (   0.0000000   0.0000000   0.0000000), wk =   0.3333333
        k(    2) = (   0.0000000   0.0000000   1.2118785), wk =   0.6666667
        k(    3) = (   0.0000000  -0.8337082   0.0000000), wk =   0.3333333
        k(    4) = (   0.0000000  -0.8337082   1.2118785), wk =   0.6666667

     Dense  grid:  2202389 G-vectors     FFT dimensions: ( 300, 180,  81)

     Estimated max dynamical RAM per process >    4646.10MB

     Estimated total allocated dynamical RAM >   37168.83MB

     Check: negative/imaginary core charge=   -0.000002    0.000000

     Initial potential from superposition of free atoms

     starting charge  879.99750, renormalised to  880.00000
     Starting wfc are  696 randomized atomic wfcs
     Checking if some PAW data can be deallocated... 

     total cpu time spent up to now is      287.6 secs

     Self-consistent Calculation

     iteration #  1     ecut=   100.00 Ry     beta=0.50
     Davidson diagonalization with overlap
     ethr =  1.00E-02,  avg # of iterations =  5.0

     total cpu time spent up to now is     1328.4 secs

     total energy              =   -5117.87100483 Ry
     Harris-Foulkes estimate   =   -5130.63475508 Ry
     estimated scf accuracy    <      22.09990529 Ry

     iteration #  2     ecut=   100.00 Ry     beta=0.50
     Davidson diagonalization with overlap
     ethr =  2.51E-03,  avg # of iterations =  7.0

     total cpu time spent up to now is     2163.0 secs

     total energy              =   -5121.68413788 Ry
     Harris-Foulkes estimate   =   -5126.88477281 Ry
     estimated scf accuracy    <      11.78330135 Ry

     iteration #  3     ecut=   100.00 Ry     beta=0.50
     Davidson diagonalization with overlap
     ethr =  1.34E-03,  avg # of iterations =  3.0

     total cpu time spent up to now is     2736.5 secs

     total energy              =   -5123.95752814 Ry
     Harris-Foulkes estimate   =   -5124.35359370 Ry
     estimated scf accuracy    <       0.98206269 Ry

     iteration #  4     ecut=   100.00 Ry     beta=0.50
     Davidson diagonalization with overlap
     ethr =  1.12E-04,  avg # of iterations =  8.2

     total cpu time spent up to now is     3738.5 secs

     total energy              =   -5124.20751666 Ry
     Harris-Foulkes estimate   =   -5124.40345946 Ry
     estimated scf accuracy    <       0.50949759 Ry

     iteration #  5     ecut=   100.00 Ry     beta=0.50
     Davidson diagonalization with overlap
     ethr =  5.79E-05,  avg # of iterations =  3.0

     total cpu time spent up to now is     4293.9 secs

     total energy              =   -5124.26764166 Ry
     Harris-Foulkes estimate   =   -5124.31999037 Ry
     estimated scf accuracy    <       0.14561441 Ry

     iteration #  6     ecut=   100.00 Ry     beta=0.50
     Davidson diagonalization with overlap
     ethr =  1.65E-05,  avg # of iterations = 12.8

     total cpu time spent up to now is     5036.3 secs

     total energy              =   -5124.29946302 Ry
     Harris-Foulkes estimate   =   -5124.30800845 Ry
     estimated scf accuracy    <       0.02531898 Ry

     iteration #  7     ecut=   100.00 Ry     beta=0.50
     Davidson diagonalization with overlap
     ethr =  2.88E-06,  avg # of iterations = 11.0

     total cpu time spent up to now is     5765.2 secs

     total energy              =   -5124.30430722 Ry
     Harris-Foulkes estimate   =   -5124.30522073 Ry
     estimated scf accuracy    <       0.00247643 Ry

     iteration #  8     ecut=   100.00 Ry     beta=0.50
     Davidson diagonalization with overlap
     ethr =  2.81E-07,  avg # of iterations =  3.5

     total cpu time spent up to now is     6494.6 secs

     total energy              =   -5124.30476533 Ry
     Harris-Foulkes estimate   =   -5124.30543480 Ry
     estimated scf accuracy    <       0.00193837 Ry

     iteration #  9     ecut=   100.00 Ry     beta=0.50
     Davidson diagonalization with overlap
     ethr =  2.20E-07,  avg # of iterations =  3.0

     total cpu time spent up to now is     7018.7 secs

     total energy              =   -5124.30507051 Ry
     Harris-Foulkes estimate   =   -5124.30517509 Ry
     estimated scf accuracy    <       0.00031870 Ry

     iteration # 10     ecut=   100.00 Ry     beta=0.50
     Davidson diagonalization with overlap
     ethr =  3.62E-08,  avg # of iterations =  3.0

     total cpu time spent up to now is     7615.9 secs

     total energy              =   -5124.30513658 Ry
     Harris-Foulkes estimate   =   -5124.30516756 Ry
     estimated scf accuracy    <       0.00009517 Ry

     iteration # 11     ecut=   100.00 Ry     beta=0.50
     Davidson diagonalization with overlap
     ethr =  1.08E-08,  avg # of iterations =  2.2

     total cpu time spent up to now is     8148.9 secs

     total energy              =   -5124.30515209 Ry
     Harris-Foulkes estimate   =   -5124.30515892 Ry
     estimated scf accuracy    <       0.00002054 Ry

     iteration # 12     ecut=   100.00 Ry     beta=0.50
     Davidson diagonalization with overlap
     ethr =  2.33E-09,  avg # of iterations =  3.0

     total cpu time spent up to now is     8738.9 secs

     total energy              =   -5124.30515605 Ry
     Harris-Foulkes estimate   =   -5124.30515788 Ry
     estimated scf accuracy    <       0.00000530 Ry

     iteration # 13     ecut=   100.00 Ry     beta=0.50
     Davidson diagonalization with overlap
     ethr =  6.02E-10,  avg # of iterations =  3.0

     total cpu time spent up to now is     9316.1 secs

     total energy              =   -5124.30515721 Ry
     Harris-Foulkes estimate   =   -5124.30515746 Ry
     estimated scf accuracy    <       0.00000086 Ry

     iteration # 14     ecut=   100.00 Ry     beta=0.50
     Davidson diagonalization with overlap
     ethr =  9.72E-11,  avg # of iterations =  3.8

     total cpu time spent up to now is    10043.4 secs

     total energy              =   -5124.30515742 Ry
     Harris-Foulkes estimate   =   -5124.30515752 Ry
     estimated scf accuracy    <       0.00000026 Ry

     iteration # 15     ecut=   100.00 Ry     beta=0.50
     Davidson diagonalization with overlap
     ethr =  2.97E-11,  avg # of iterations =  2.0

     total cpu time spent up to now is    10561.4 secs

     total energy              =   -5124.30515745 Ry
     Harris-Foulkes estimate   =   -5124.30515748 Ry
     estimated scf accuracy    <       0.00000006 Ry

     iteration # 16     ecut=   100.00 Ry     beta=0.50
     Davidson diagonalization with overlap
     ethr =  7.17E-12,  avg # of iterations =  3.0

     total cpu time spent up to now is    11358.4 secs

     total energy              =   -5124.30515747 Ry
     Harris-Foulkes estimate   =   -5124.30515749 Ry
     estimated scf accuracy    <       0.00000005 Ry

     iteration # 17     ecut=   100.00 Ry     beta=0.50
     Davidson diagonalization with overlap
     ethr =  5.54E-12,  avg # of iterations =  2.5

     total cpu time spent up to now is    11859.8 secs

     End of self-consistent calculation

          k = 0.0000 0.0000 0.0000 (275363 PWs)   bands (ev):

   -25.5557 -25.5557 -25.5484 -25.5484 -25.4164 -25.4164 -25.4110 -25.4110
   -25.1524 -25.1524 -25.1452 -25.1452 -25.0322 -25.0322 -25.0303 -25.0303
   -24.9925 -24.9925 -24.9868 -24.9868 -24.9343 -24.9343 -24.9332 -24.9332
   -23.1542 -23.1541 -23.1540 -23.1540 -23.0440 -23.0440 -23.0438 -23.0438
   -21.0739 -21.0738 -21.0668 -21.0668 -20.9368 -20.9368 -20.9321 -20.9320
   -20.9287 -20.9287 -20.9244 -20.9244 -20.8451 -20.8451 -20.8449 -20.8449
   -20.7870 -20.7869 -20.7825 -20.7824 -20.7307 -20.7306 -20.7302 -20.7302
   -20.3053 -20.3049 -20.3046 -20.3042 -20.1135 -20.1135 -20.1102 -20.1102
   -19.0312 -19.0311 -19.0279 -19.0279 -18.8558 -18.8558 -18.8549 -18.8549
   -18.2618 -18.2613 -18.2598 -18.2594 -18.1327 -18.1327 -18.1244 -18.1244
   -16.8275 -16.8272 -16.8173 -16.8171 -16.6783 -16.6780 -16.6775 -16.6771
   -16.0117 -16.0117 -16.0114 -16.0113 -15.8359 -15.8357 -15.8335 -15.8332
   -15.4718 -15.4715 -15.4708 -15.4705 -15.3419 -15.3416 -15.3370 -15.3368
   -12.5377 -12.5375 -12.5361 -12.5357 -12.3161 -12.3160 -12.3089 -12.3088
   -11.8643 -11.8635 -11.8419 -11.8410 -11.7147 -11.7107 -11.7098 -11.7050
   -11.4230 -11.4227 -11.4169 -11.4163 -11.3334 -11.3211 -11.3112 -11.3017
   -11.2785 -11.2767 -11.2318 -11.2310 -11.2277 -11.2274 -11.2082 -11.2079
   -11.1250 -11.1224 -11.1187 -11.1175 -11.0838 -11.0831 -11.0804 -11.0797
    -9.5255  -9.5216  -9.5201  -9.5169  -9.3522  -9.3519  -9.3208  -9.3207
    -8.7898  -8.7895  -8.7317  -8.7306  -8.6267  -8.6206  -8.6135  -8.6023
    -8.4477  -8.4445  -8.3938  -8.3927  -8.3090  -8.2899  -8.2636  -8.2464
    -8.2231  -8.2112  -8.1979  -8.1932  -8.1660  -8.1610  -8.0927  -8.0845
    -8.0706  -8.0653  -8.0645  -8.0609  -7.8416  -7.8403  -7.8174  -7.8130
    -7.7235  -7.7165  -7.7094  -7.7025  -7.6004  -7.5976  -7.5787  -7.5754
    -7.4205  -7.4172  -7.4006  -7.3975  -7.3240  -7.3095  -7.3019  -7.2881
    -7.1360  -7.1354  -7.1015  -7.0983  -6.9796  -6.9789  -6.9765  -6.9735
    -6.9706  -6.9682  -6.9609  -6.9505  -6.8705  -6.8677  -6.8647  -6.8588
    -6.8242  -6.8238  -6.8085  -6.8067  -6.7334  -6.7312  -6.6789  -6.6763
    -6.6180  -6.6141  -6.6021  -6.5906  -6.5895  -6.5890  -6.5707  -6.5657
    -6.5657  -6.5655  -6.5429  -6.5356  -6.4892  -6.4869  -6.4798  -6.4766
    -6.4296  -6.4284  -6.4223  -6.4218  -6.4005  -6.4001  -6.3798  -6.3795
    -6.0405  -6.0372  -6.0138  -6.0087  -5.8384  -5.8348  -5.7646  -5.7565
    -5.6036  -5.6004  -5.5864  -5.5802  -5.4548  -5.4520  -5.4324  -5.4300
    -4.9447  -4.9384  -4.9377  -4.9329  -4.8532  -4.8461  -4.8019  -4.7982
    -4.2173  -4.2154  -4.2143  -4.2099  -4.1372  -4.1361  -4.1308  -4.1264
    -4.0217  -4.0079  -4.0030  -3.9957  -3.8239  -3.8225  -3.7967  -3.7907
    -3.6227  -3.6191  -3.6131  -3.6129  -3.4159  -3.4123  -3.3936  -3.3926
    -3.2557  -3.2499  -3.2445  -3.2432  -3.1914  -3.1877  -3.0577  -3.0565
    -2.6643  -2.6637  -2.6519  -2.6411  -2.5511  -2.5508  -2.5503  -2.5491
    -2.5002  -2.4943  -2.4753  -2.4729  -2.3474  -2.3295  -2.3247  -2.3212
    -2.2644  -2.2492  -2.1979  -2.1901  -2.1606  -2.1482  -2.1229  -2.1177
    -2.1060  -2.1022  -2.0318  -2.0273  -1.9788  -1.9664  -1.9531  -1.9469
    -1.9245  -1.9092  -1.8750  -1.8672  -1.8217  -1.8131  -1.8094  -1.8067
    -1.7960  -1.7914  -1.7847  -1.7798  -1.7687  -1.7570  -1.7205  -1.7145
    -1.6547  -1.6451  -1.6399  -1.6274  -1.6084  -1.6051  -1.6036  -1.5762
    -1.5429  -1.5411  -1.5202  -1.5155  -1.4505  -1.4394  -1.4254  -1.4118
    -1.3929  -1.3705  -1.3537  -1.3271  -1.2383  -1.2239  -1.2228  -1.2143
    -1.2070  -1.2064  -1.1887  -1.1869  -1.1748  -1.1651  -1.1614  -1.1544
    -1.1150  -1.0996  -1.0986  -1.0703  -1.0401  -1.0154  -1.0109  -1.0066
    -0.9870  -0.9861  -0.9830  -0.9805  -0.9564  -0.9320  -0.9115  -0.9029
    -0.8974  -0.8827  -0.8644  -0.8621  -0.8016  -0.7997  -0.7967  -0.7962
    -0.7524  -0.7479  -0.7453  -0.7440  -0.7340  -0.7339  -0.7059  -0.7026
    -0.3370  -0.3358  -0.3337  -0.3321  -0.2069  -0.2029  -0.1584  -0.1492
    -0.1396  -0.1390  -0.1083  -0.1042   0.0282   0.0311   0.0401   0.0408
     0.1370   0.1442   0.1717   0.1746   0.3153   0.3156   0.3254   0.3256
     2.5258   2.5259   2.7146   2.7149   2.7993   2.8004   2.8089   2.8090
     2.8395   2.8445   2.8832   2.8848   2.9271   2.9344   2.9634   2.9660
     2.9804   2.9873   3.0068   3.0123   3.0579   3.0607   3.0792   3.0818
     3.6387   3.6470   3.6578   3.6661   3.7790   3.7836   3.7944   3.7977
     4.1563   4.1630   4.1674   4.1739   4.3175   4.3178   4.3436   4.3437
     5.4309   5.4309   5.4339   5.4361   5.5607   5.5612   5.6370   5.6407
     6.5942   6.6770   6.8996   6.9198   6.9291   6.9438   7.0791   7.0797
     7.0837   7.0904   7.1708   7.2026   7.2256   7.2497   7.2505   7.2911
     7.4011   7.4026   7.4166   7.4319   7.5413   7.5503   7.5920   7.6232
     7.8381   7.8410   7.9006   7.9314   7.9676   8.0706   8.0939   8.1047
     8.1189   8.1193   8.1280   8.2016   8.2783   8.3223   8.3749   8.4239

          k = 0.0000 0.0000 1.2119 (275284 PWs)   bands (ev):

   -25.5540 -25.5540 -25.5476 -25.5476 -25.4146 -25.4146 -25.4108 -25.4108
   -25.1537 -25.1537 -25.1456 -25.1456 -25.0325 -25.0325 -25.0306 -25.0306
   -24.9917 -24.9917 -24.9876 -24.9876 -24.9351 -24.9351 -24.9345 -24.9345
   -23.1524 -23.1524 -23.1523 -23.1523 -23.0458 -23.0458 -23.0456 -23.0456
   -21.0772 -21.0772 -21.0660 -21.0660 -20.9373 -20.9373 -20.9349 -20.9349
   -20.9274 -20.9273 -20.9240 -20.9240 -20.8443 -20.8443 -20.8441 -20.8441
   -20.7904 -20.7904 -20.7803 -20.7802 -20.7280 -20.7280 -20.7267 -20.7267
   -20.3079 -20.3077 -20.3072 -20.3070 -20.1162 -20.1162 -20.1125 -20.1125
   -19.0301 -19.0301 -19.0268 -19.0268 -18.8571 -18.8571 -18.8562 -18.8562
   -18.2623 -18.2621 -18.2603 -18.2601 -18.1301 -18.1301 -18.1241 -18.1241
   -16.8276 -16.8275 -16.8194 -16.8193 -16.6758 -16.6755 -16.6751 -16.6747
   -16.0071 -16.0071 -16.0059 -16.0058 -15.8334 -15.8333 -15.8280 -15.8280
   -15.4722 -15.4722 -15.4648 -15.4648 -15.3426 -15.3418 -15.3400 -15.3393
   -12.5373 -12.5366 -12.5343 -12.5337 -12.3150 -12.3150 -12.3083 -12.3082
   -11.8653 -11.8648 -11.8532 -11.8526 -11.7216 -11.7186 -11.7137 -11.7108
   -11.4350 -11.4349 -11.4149 -11.4146 -11.3303 -11.3250 -11.3206 -11.3163
   -11.2664 -11.2659 -11.2362 -11.2359 -11.2228 -11.2227 -11.2131 -11.2126
   -11.1202 -11.1185 -11.1098 -11.1086 -11.0858 -11.0855 -11.0804 -11.0797
    -9.5202  -9.5182  -9.5175  -9.5159  -9.3538  -9.3535  -9.3209  -9.3207
    -8.7562  -8.7560  -8.7290  -8.7280  -8.6108  -8.6102  -8.5924  -8.5899
    -8.4600  -8.4570  -8.3965  -8.3960  -8.2795  -8.2715  -8.2478  -8.2402
    -8.2166  -8.2127  -8.1991  -8.1929  -8.1698  -8.1578  -8.1256  -8.1169
    -8.0866  -8.0851  -8.0519  -8.0509  -7.8702  -7.8653  -7.8398  -7.8345
    -7.7125  -7.7117  -7.7003  -7.6992  -7.5855  -7.5815  -7.5707  -7.5650
    -7.4149  -7.4128  -7.3938  -7.3919  -7.3239  -7.3216  -7.2926  -7.2907
    -7.1095  -7.1068  -7.0614  -7.0595  -7.0214  -7.0210  -6.9699  -6.9681
    -6.9589  -6.9568  -6.9413  -6.9401  -6.8906  -6.8904  -6.8823  -6.8779
    -6.8331  -6.8309  -6.8139  -6.8075  -6.7443  -6.7429  -6.7300  -6.7221
    -6.6848  -6.6749  -6.6242  -6.6207  -6.6076  -6.6057  -6.5876  -6.5851
    -6.5717  -6.5706  -6.5304  -6.5289  -6.5045  -6.4969  -6.4722  -6.4710
    -6.4309  -6.4308  -6.4184  -6.4150  -6.3501  -6.3489  -6.3129  -6.3107
    -6.0245  -6.0207  -5.9886  -5.9858  -5.8307  -5.8270  -5.7667  -5.7646
    -5.5964  -5.5936  -5.5842  -5.5827  -5.4524  -5.4426  -5.4339  -5.4232
    -4.9595  -4.9590  -4.9475  -4.9441  -4.8558  -4.8519  -4.8113  -4.8110
    -4.2513  -4.2502  -4.2332  -4.2320  -4.1294  -4.1269  -4.1154  -4.1104
    -4.0318  -4.0239  -4.0108  -4.0086  -3.8324  -3.8321  -3.8014  -3.7972
    -3.6084  -3.6083  -3.6056  -3.6011  -3.4227  -3.4159  -3.4063  -3.3960
    -3.2695  -3.2669  -3.2431  -3.2417  -3.1628  -3.1626  -3.0720  -3.0719
    -2.6541  -2.6469  -2.6329  -2.6288  -2.5933  -2.5909  -2.5711  -2.5679
    -2.5203  -2.5136  -2.5001  -2.4965  -2.3464  -2.3463  -2.3416  -2.3368
    -2.2496  -2.2476  -2.2017  -2.2016  -2.1471  -2.1339  -2.1214  -2.1179
    -2.0987  -2.0900  -2.0551  -2.0498  -1.9764  -1.9738  -1.9553  -1.9474
    -1.9460  -1.9355  -1.8968  -1.8960  -1.8561  -1.8540  -1.8345  -1.8277
    -1.8010  -1.7941  -1.7858  -1.7782  -1.7765  -1.7595  -1.7450  -1.7328
    -1.7081  -1.7035  -1.6590  -1.6562  -1.6178  -1.6177  -1.6032  -1.6007
    -1.5264  -1.5151  -1.5110  -1.5010  -1.4749  -1.4708  -1.4607  -1.4453
    -1.4085  -1.3642  -1.3483  -1.3236  -1.2900  -1.2822  -1.2431  -1.2328
    -1.2148  -1.2034  -1.1694  -1.1675  -1.1603  -1.1580  -1.1286  -1.1249
    -1.0500  -1.0427  -1.0268  -1.0169  -1.0101  -1.0051  -0.9928  -0.9844
    -0.9732  -0.9669  -0.9662  -0.9550  -0.9260  -0.9240  -0.8721  -0.8682
    -0.8450  -0.8318  -0.8188  -0.8109  -0.8010  -0.7923  -0.7786  -0.7678
    -0.7323  -0.7276  -0.7161  -0.7151  -0.7086  -0.7083  -0.6960  -0.6943
    -0.3350  -0.3324  -0.3303  -0.3275  -0.1788  -0.1765  -0.1458  -0.1432
    -0.1298  -0.1273  -0.1092  -0.1067   0.0345   0.0351   0.0528   0.0539
     0.1598   0.1656   0.1811   0.1848   0.3034   0.3036   0.3627   0.3629
     2.5528   2.5529   2.6616   2.6622   2.7964   2.7970   2.8011   2.8044
     2.8196   2.8256   2.8835   2.8860   2.9171   2.9207   2.9382   2.9391
     2.9921   2.9925   3.0142   3.0175   3.0472   3.0488   3.0956   3.0970
     3.6015   3.6076   3.6618   3.6694   3.7519   3.7565   3.8007   3.8030
     4.1615   4.1628   4.1768   4.1780   4.2830   4.2839   4.3094   4.3100
     5.3923   5.4019   5.4066   5.4165   5.5837   5.5850   5.6226   5.6240
     6.9220   6.9595   6.9632   6.9636   6.9839   7.0017   7.1186   7.1190
     7.1198   7.1744   7.2760   7.3122   7.3292   7.3423   7.3647   7.4499
     7.4558   7.4704   7.4982   7.5166   7.5373   7.5648   7.6338   7.6543
     7.9360   7.9398   7.9515   7.9817   8.0298   8.0872   8.1054   8.1879
     8.1919   8.2003   8.2135   8.2598   8.3052   8.3572   8.4038   8.4146

          k = 0.0000-0.8337 0.0000 (275336 PWs)   bands (ev):

   -25.5556 -25.5556 -25.5485 -25.5484 -25.4164 -25.4164 -25.4110 -25.4110
   -25.1524 -25.1524 -25.1452 -25.1452 -25.0322 -25.0322 -25.0302 -25.0302
   -24.9925 -24.9925 -24.9868 -24.9868 -24.9343 -24.9343 -24.9332 -24.9332
   -23.1541 -23.1541 -23.1540 -23.1540 -23.0439 -23.0439 -23.0439 -23.0439
   -21.0739 -21.0738 -21.0668 -21.0668 -20.9368 -20.9368 -20.9316 -20.9316
   -20.9294 -20.9294 -20.9242 -20.9242 -20.8453 -20.8453 -20.8448 -20.8448
   -20.7870 -20.7869 -20.7825 -20.7824 -20.7306 -20.7306 -20.7302 -20.7302
   -20.3050 -20.3049 -20.3046 -20.3045 -20.1119 -20.1119 -20.1119 -20.1119
   -19.0312 -19.0311 -19.0279 -19.0279 -18.8553 -18.8553 -18.8553 -18.8553
   -18.2615 -18.2615 -18.2596 -18.2596 -18.1286 -18.1286 -18.1286 -18.1286
   -16.8274 -16.8273 -16.8172 -16.8172 -16.6782 -16.6782 -16.6773 -16.6773
   -16.0117 -16.0117 -16.0113 -16.0113 -15.8347 -15.8347 -15.8344 -15.8344
   -15.4716 -15.4715 -15.4706 -15.4705 -15.3418 -15.3418 -15.3370 -15.3369
   -12.5389 -12.5389 -12.5354 -12.5354 -12.3120 -12.3120 -12.3119 -12.3119
   -11.8638 -11.8638 -11.8414 -11.8414 -11.7125 -11.7125 -11.7074 -11.7074
   -11.4225 -11.4225 -11.4147 -11.4147 -11.3270 -11.3270 -11.3083 -11.3083
   -11.2793 -11.2793 -11.2316 -11.2315 -11.2275 -11.2275 -11.2070 -11.2069
   -11.1242 -11.1242 -11.1186 -11.1186 -11.0834 -11.0834 -11.0802 -11.0802
    -9.5195  -9.5195  -9.5192  -9.5192  -9.3376  -9.3376  -9.3374  -9.3374
    -8.7905  -8.7905  -8.7337  -8.7337  -8.6202  -8.6202  -8.6074  -8.6074
    -8.4472  -8.4472  -8.3954  -8.3954  -8.2959  -8.2959  -8.2643  -8.2643
    -8.2155  -8.2155  -8.1793  -8.1793  -8.1732  -8.1732  -8.0877  -8.0877
    -8.0692  -8.0692  -8.0639  -8.0639  -7.8390  -7.8389  -7.8119  -7.8118
    -7.7199  -7.7199  -7.7098  -7.7098  -7.5992  -7.5992  -7.5767  -7.5767
    -7.4160  -7.4160  -7.3955  -7.3955  -7.3212  -7.3212  -7.2994  -7.2993
    -7.1348  -7.1348  -7.0934  -7.0934  -6.9870  -6.9869  -6.9776  -6.9776
    -6.9653  -6.9653  -6.9524  -6.9524  -6.8719  -6.8719  -6.8690  -6.8690
    -6.8235  -6.8234  -6.8043  -6.8043  -6.7326  -6.7325  -6.6765  -6.6765
    -6.6203  -6.6203  -6.5948  -6.5948  -6.5856  -6.5856  -6.5759  -6.5759
    -6.5499  -6.5499  -6.5424  -6.5424  -6.4901  -6.4901  -6.4792  -6.4792
    -6.4270  -6.4270  -6.4242  -6.4242  -6.4012  -6.4012  -6.3786  -6.3786
    -6.0390  -6.0390  -6.0112  -6.0112  -5.8048  -5.8048  -5.7978  -5.7978
    -5.6008  -5.6008  -5.5830  -5.5830  -5.4494  -5.4493  -5.4326  -5.4326
    -4.9359  -4.9359  -4.9279  -4.9279  -4.8273  -4.8273  -4.8264  -4.8264
    -4.2420  -4.2420  -4.2398  -4.2398  -4.1124  -4.1124  -4.1100  -4.1100
    -4.0175  -4.0175  -4.0034  -4.0034  -3.8077  -3.8077  -3.8050  -3.8050
    -3.6175  -3.6175  -3.6136  -3.6136  -3.4100  -3.4100  -3.3897  -3.3897
    -3.2510  -3.2510  -3.2488  -3.2488  -3.1264  -3.1264  -3.1253  -3.1253
    -2.6583  -2.6583  -2.6522  -2.6522  -2.5509  -2.5509  -2.5499  -2.5499
    -2.4992  -2.4992  -2.4745  -2.4744  -2.3403  -2.3403  -2.3331  -2.3331
    -2.2488  -2.2488  -2.1805  -2.1805  -2.1479  -2.1479  -2.1166  -2.1166
    -2.1054  -2.1054  -2.0359  -2.0359  -1.9681  -1.9680  -1.9456  -1.9456
    -1.9334  -1.9334  -1.8637  -1.8637  -1.8250  -1.8250  -1.8172  -1.8172
    -1.7876  -1.7876  -1.7749  -1.7749  -1.7388  -1.7388  -1.6987  -1.6987
    -1.6651  -1.6650  -1.6488  -1.6488  -1.6179  -1.6178  -1.5828  -1.5828
    -1.5521  -1.5521  -1.5385  -1.5385  -1.4388  -1.4388  -1.4267  -1.4267
    -1.3759  -1.3759  -1.3356  -1.3356  -1.2397  -1.2397  -1.2114  -1.2114
    -1.1957  -1.1957  -1.1851  -1.1851  -1.1721  -1.1721  -1.1605  -1.1605
    -1.0824  -1.0824  -1.0619  -1.0619  -1.0443  -1.0443  -1.0372  -1.0372
    -1.0169  -1.0169  -0.9853  -0.9853  -0.9249  -0.9248  -0.8894  -0.8894
    -0.8786  -0.8786  -0.8623  -0.8623  -0.8067  -0.8067  -0.7968  -0.7968
    -0.7514  -0.7514  -0.7449  -0.7449  -0.7361  -0.7360  -0.7074  -0.7073
    -0.3406  -0.3406  -0.3365  -0.3365  -0.1822  -0.1821  -0.1772  -0.1772
    -0.1257  -0.1257  -0.1226  -0.1226   0.0390   0.0390   0.0395   0.0395
     0.1521   0.1521   0.1589   0.1589   0.3219   0.3219   0.3222   0.3222
     2.5242   2.5242   2.7248   2.7248   2.7975   2.7975   2.8164   2.8164
     2.8253   2.8253   2.8829   2.8830   2.9329   2.9329   2.9678   2.9678
     2.9873   2.9873   3.0043   3.0043   3.0610   3.0610   3.0796   3.0796
     3.6449   3.6449   3.6655   3.6655   3.7836   3.7836   3.7879   3.7879
     4.1620   4.1620   4.1687   4.1687   4.3301   4.3301   4.3308   4.3308
     5.4310   5.4310   5.4325   5.4325   5.5996   5.5996   5.6023   5.6023
     6.7310   6.7310   6.8540   6.8540   6.9444   6.9444   6.9926   6.9926
     7.0835   7.0835   7.1164   7.1164   7.2437   7.2437   7.2881   7.2881
     7.4169   7.4169   7.4565   7.4565   7.5184   7.5184   7.6052   7.6052
     7.8698   7.8698   7.9256   7.9256   8.0820   8.0821   8.1185   8.1185
     8.1434   8.1434   8.2793   8.2793   8.2999   8.3000   8.3841   8.3842

          k = 0.0000-0.8337 1.2119 (275326 PWs)   bands (ev):

   -25.5540 -25.5540 -25.5476 -25.5476 -25.4146 -25.4146 -25.4108 -25.4108
   -25.1537 -25.1537 -25.1456 -25.1456 -25.0325 -25.0325 -25.0305 -25.0305
   -24.9917 -24.9917 -24.9876 -24.9876 -24.9351 -24.9351 -24.9345 -24.9345
   -23.1524 -23.1524 -23.1523 -23.1523 -23.0457 -23.0457 -23.0457 -23.0457
   -21.0772 -21.0772 -21.0660 -21.0660 -20.9371 -20.9371 -20.9352 -20.9352
   -20.9272 -20.9272 -20.9241 -20.9241 -20.8446 -20.8446 -20.8438 -20.8438
   -20.7904 -20.7904 -20.7803 -20.7803 -20.7280 -20.7280 -20.7267 -20.7267
   -20.3076 -20.3076 -20.3072 -20.3072 -20.1143 -20.1143 -20.1143 -20.1143
   -19.0301 -19.0301 -19.0268 -19.0268 -18.8566 -18.8566 -18.8566 -18.8566
   -18.2621 -18.2621 -18.2603 -18.2602 -18.1271 -18.1271 -18.1271 -18.1271
   -16.8275 -16.8275 -16.8194 -16.8193 -16.6754 -16.6754 -16.6751 -16.6751
   -16.0071 -16.0071 -16.0059 -16.0059 -15.8307 -15.8307 -15.8306 -15.8306
   -15.4722 -15.4722 -15.4649 -15.4649 -15.3421 -15.3421 -15.3396 -15.3396
   -12.5374 -12.5374 -12.5337 -12.5337 -12.3116 -12.3116 -12.3115 -12.3115
   -11.8649 -11.8649 -11.8528 -11.8528 -11.7177 -11.7177 -11.7147 -11.7147
   -11.4347 -11.4346 -11.4137 -11.4137 -11.3272 -11.3272 -11.3173 -11.3173
   -11.2665 -11.2665 -11.2377 -11.2377 -11.2245 -11.2244 -11.2149 -11.2148
   -11.1177 -11.1177 -11.1086 -11.1086 -11.0847 -11.0847 -11.0809 -11.0809
    -9.5180  -9.5180  -9.5163  -9.5163  -9.3381  -9.3381  -9.3378  -9.3378
    -8.7564  -8.7564  -8.7293  -8.7293  -8.6044  -8.6044  -8.5961  -8.5960
    -8.4587  -8.4587  -8.3975  -8.3975  -8.2732  -8.2732  -8.2474  -8.2474
    -8.2165  -8.2165  -8.1887  -8.1887  -8.1671  -8.1671  -8.1212  -8.1212
    -8.0856  -8.0856  -8.0511  -8.0510  -7.8666  -7.8666  -7.8391  -7.8391
    -7.7098  -7.7097  -7.7017  -7.7017  -7.5798  -7.5798  -7.5698  -7.5698
    -7.4136  -7.4136  -7.3928  -7.3928  -7.3239  -7.3239  -7.2966  -7.2965
    -7.1077  -7.1077  -7.0595  -7.0595  -7.0162  -7.0162  -6.9722  -6.9722
    -6.9546  -6.9546  -6.9416  -6.9416  -6.8887  -6.8887  -6.8796  -6.8795
    -6.8368  -6.8368  -6.8110  -6.8110  -6.7440  -6.7440  -6.7138  -6.7138
    -6.6937  -6.6937  -6.6222  -6.6222  -6.6039  -6.6038  -6.5921  -6.5921
    -6.5543  -6.5542  -6.5378  -6.5377  -6.5032  -6.5032  -6.4815  -6.4815
    -6.4247  -6.4247  -6.4161  -6.4161  -6.3469  -6.3469  -6.3130  -6.3130
    -6.0169  -6.0169  -5.9833  -5.9833  -5.8053  -5.8053  -5.7985  -5.7985
    -5.5951  -5.5951  -5.5854  -5.5854  -5.4413  -5.4413  -5.4301  -5.4301
    -4.9587  -4.9587  -4.9504  -4.9504  -4.8367  -4.8367  -4.8347  -4.8347
    -4.2296  -4.2296  -4.2243  -4.2243  -4.1330  -4.1330  -4.1293  -4.1293
    -4.0218  -4.0218  -4.0156  -4.0156  -3.8171  -3.8171  -3.8145  -3.8145
    -3.6098  -3.6098  -3.6007  -3.6007  -3.4192  -3.4192  -3.4026  -3.4026
    -3.2566  -3.2566  -3.2538  -3.2538  -3.1190  -3.1190  -3.1181  -3.1181
    -2.6427  -2.6427  -2.6365  -2.6365  -2.5826  -2.5825  -2.5796  -2.5796
    -2.5115  -2.5114  -2.5035  -2.5035  -2.3464  -2.3464  -2.3422  -2.3422
    -2.2455  -2.2455  -2.2014  -2.2014  -2.1371  -2.1371  -2.1245  -2.1244
    -2.1057  -2.1056  -2.0505  -2.0505  -1.9863  -1.9863  -1.9530  -1.9530
    -1.9231  -1.9231  -1.9089  -1.9089  -1.8407  -1.8407  -1.8168  -1.8168
    -1.7990  -1.7990  -1.7836  -1.7836  -1.7587  -1.7587  -1.7393  -1.7393
    -1.6629  -1.6629  -1.6521  -1.6521  -1.6370  -1.6369  -1.6220  -1.6220
    -1.5379  -1.5379  -1.5187  -1.5187  -1.4703  -1.4703  -1.4654  -1.4654
    -1.3949  -1.3949  -1.3314  -1.3314  -1.2863  -1.2863  -1.2427  -1.2427
    -1.1831  -1.1831  -1.1725  -1.1724  -1.1507  -1.1507  -1.1124  -1.1124
    -1.0524  -1.0524  -1.0289  -1.0289  -1.0106  -1.0106  -0.9925  -0.9925
    -0.9659  -0.9659  -0.9596  -0.9596  -0.9221  -0.9221  -0.8770  -0.8770
    -0.8332  -0.8332  -0.8157  -0.8156  -0.7941  -0.7941  -0.7729  -0.7729
    -0.7359  -0.7359  -0.7143  -0.7143  -0.7106  -0.7106  -0.6952  -0.6952
    -0.3363  -0.3362  -0.3316  -0.3315  -0.1600  -0.1599  -0.1573  -0.1573
    -0.1277  -0.1277  -0.1253  -0.1253   0.0495   0.0495   0.0505   0.0505
     0.1706   0.1706   0.1764   0.1764   0.3335   0.3335   0.3342   0.3342
     2.5526   2.5526   2.6629   2.6629   2.7922   2.7922   2.8076   2.8076
     2.8186   2.8186   2.8836   2.8836   2.9208   2.9208   2.9401   2.9401
     2.9981   2.9981   3.0126   3.0126   3.0475   3.0475   3.0968   3.0968
     3.6041   3.6042   3.6643   3.6644   3.7754   3.7755   3.7794   3.7794
     4.1693   4.1693   4.1713   4.1713   4.2961   4.2961   4.2970   4.2970
     5.3987   5.3987   5.4102   5.4102   5.6032   5.6032   5.6053   5.6053
     6.9603   6.9603   6.9651   6.9651   7.0558   7.0558   7.1001   7.1001
     7.1413   7.1413   7.2582   7.2583   7.3141   7.3141   7.3479   7.3479
     7.4657   7.4658   7.5062   7.5062   7.5683   7.5683   7.6261   7.6261
     7.9277   7.9277   7.9735   7.9735   8.0572   8.0572   8.1145   8.1146
     8.2317   8.2317   8.3176   8.3176   8.3591   8.3591   8.3885   8.3885

     highest occupied, lowest unoccupied level (ev):     0.3629    2.5242

!    total energy              =   -5124.30515747 Ry
     Harris-Foulkes estimate   =   -5124.30515748 Ry
     estimated scf accuracy    <          9.4E-09 Ry

     total all-electron energy =    -19383.808765 Ry

     The total energy is the sum of the following terms:

     one-electron contribution =   -3277.76206143 Ry
     hartree contribution      =    1973.53098321 Ry
     xc contribution           =    -981.92945039 Ry
     ewald contribution        =   -1441.67031916 Ry
     Dispersion Correction     =      -0.77850826 Ry
     one-center paw contrib.   =   -1395.69580145 Ry

     convergence has been achieved in  17 iterations

     Forces acting on atoms (cartesian axes, Ry/au):

     atom    1 type  2   force =     0.00047404    0.00032166    0.00009800
     atom    2 type  2   force =    -0.00047329    0.00032177   -0.00009749
     atom    3 type  2   force =    -0.00047404   -0.00032166   -0.00009800
     atom    4 type  2   force =     0.00047329   -0.00032177    0.00009749
     atom    5 type  2   force =     0.00010598   -0.00055271    0.00063887
     atom    6 type  2   force =    -0.00010602   -0.00055206   -0.00063957
     atom    7 type  2   force =    -0.00010598    0.00055271   -0.00063887
     atom    8 type  2   force =     0.00010602    0.00055206    0.00063957
     atom    9 type  2   force =     0.00006102    0.00005047    0.00022415
     atom   10 type  2   force =    -0.00006134    0.00005012   -0.00022452
     atom   11 type  2   force =    -0.00006102   -0.00005047   -0.00022415
     atom   12 type  2   force =     0.00006134   -0.00005012    0.00022452
     atom   13 type  2   force =     0.00031628   -0.00067120    0.00007784
     atom   14 type  2   force =    -0.00031721   -0.00067118   -0.00007877
     atom   15 type  2   force =    -0.00031628    0.00067120   -0.00007784
     atom   16 type  2   force =     0.00031721    0.00067118    0.00007877
     atom   17 type  2   force =    -0.00005720   -0.00000942    0.00135769
     atom   18 type  2   force =     0.00005757   -0.00000886   -0.00135793
     atom   19 type  2   force =     0.00005720    0.00000942   -0.00135769
     atom   20 type  2   force =    -0.00005757    0.00000886    0.00135793
     atom   21 type  2   force =    -0.00032969    0.00064469    0.00303951
     atom   22 type  2   force =     0.00032950    0.00064522   -0.00303972
     atom   23 type  2   force =     0.00032969   -0.00064469   -0.00303951
     atom   24 type  2   force =    -0.00032950   -0.00064522    0.00303972
     atom   25 type  2   force =    -0.00047597   -0.00033694   -0.00096727
     atom   26 type  2   force =     0.00047501   -0.00033751    0.00096537
     atom   27 type  2   force =     0.00047597    0.00033694    0.00096727
     atom   28 type  2   force =    -0.00047501    0.00033751   -0.00096537
     atom   29 type  2   force =     0.00026698    0.00205942   -0.00047128
     atom   30 type  2   force =    -0.00027072    0.00205848    0.00047315
     atom   31 type  2   force =    -0.00026698   -0.00205942    0.00047128
     atom   32 type  2   force =     0.00027072   -0.00205848   -0.00047315
     atom   33 type  2   force =     0.00362902   -0.00111275   -0.00048621
     atom   34 type  2   force =    -0.00362891   -0.00111157    0.00048635
     atom   35 type  2   force =    -0.00362902    0.00111275    0.00048621
     atom   36 type  2   force =     0.00362891    0.00111157   -0.00048635
     atom   37 type  4   force =    -0.00097599    0.00012900    0.00078614
     atom   38 type  4   force =     0.00097397    0.00013012   -0.00078842
     atom   39 type  4   force =     0.00097599   -0.00012900   -0.00078614
     atom   40 type  4   force =    -0.00097397   -0.00013012    0.00078842
     atom   41 type  4   force =    -0.00027911   -0.00054195   -0.00018034
     atom   42 type  4   force =     0.00027971   -0.00054162    0.00017478
     atom   43 type  4   force =     0.00027911    0.00054195    0.00018034
     atom   44 type  4   force =    -0.00027971    0.00054162   -0.00017478
     atom   45 type  4   force =     0.00044291    0.00036364    0.00080062
     atom   46 type  4   force =    -0.00044117    0.00036390   -0.00079822
     atom   47 type  4   force =    -0.00044291   -0.00036364   -0.00080062
     atom   48 type  4   force =     0.00044117   -0.00036390    0.00079822
     atom   49 type  4   force =     0.00117586   -0.00125742    0.00035877
     atom   50 type  4   force =    -0.00117700   -0.00125992   -0.00035407
     atom   51 type  4   force =    -0.00117586    0.00125742   -0.00035877
     atom   52 type  4   force =     0.00117700    0.00125992    0.00035407
     atom   53 type  4   force =    -0.00086144    0.00187157    0.00234417
     atom   54 type  4   force =     0.00086084    0.00187251   -0.00234327
     atom   55 type  4   force =     0.00086144   -0.00187157   -0.00234417
     atom   56 type  4   force =    -0.00086084   -0.00187251    0.00234327
     atom   57 type  4   force =    -0.00088255    0.00008437    0.00081757
     atom   58 type  4   force =     0.00088777    0.00008441   -0.00082972
     atom   59 type  4   force =     0.00088255   -0.00008437   -0.00081757
     atom   60 type  4   force =    -0.00088777   -0.00008441    0.00082972
     atom   61 type  4   force =     0.00112875   -0.00014253   -0.00038225
     atom   62 type  4   force =    -0.00112559   -0.00013740    0.00037251
     atom   63 type  4   force =    -0.00112875    0.00014253    0.00038225
     atom   64 type  4   force =     0.00112559    0.00013740   -0.00037251
     atom   65 type  1   force =    -0.00046982   -0.00002289   -0.00341191
     atom   66 type  1   force =     0.00047029   -0.00002218    0.00341803
     atom   67 type  1   force =     0.00046982    0.00002289    0.00341191
     atom   68 type  1   force =    -0.00047029    0.00002218   -0.00341803
     atom   69 type  1   force =     0.00188977   -0.00238456    0.00028547
     atom   70 type  1   force =    -0.00188986   -0.00238550   -0.00028271
     atom   71 type  1   force =    -0.00188977    0.00238456   -0.00028547
     atom   72 type  1   force =     0.00188986    0.00238550    0.00028271
     atom   73 type  1   force =    -0.00055428   -0.00019764    0.00014863
     atom   74 type  1   force =     0.00055487   -0.00019747   -0.00014623
     atom   75 type  1   force =     0.00055428    0.00019764   -0.00014863
     atom   76 type  1   force =    -0.00055487    0.00019747    0.00014623
     atom   77 type  1   force =    -0.00073095    0.00066363   -0.00010721
     atom   78 type  1   force =     0.00073164    0.00066421    0.00011356
     atom   79 type  1   force =     0.00073095   -0.00066363    0.00010721
     atom   80 type  1   force =    -0.00073164   -0.00066421   -0.00011356
     atom   81 type  1   force =    -0.00109777    0.00065426   -0.00455715
     atom   82 type  1   force =     0.00109730    0.00065411    0.00453007
     atom   83 type  1   force =     0.00109777   -0.00065426    0.00455715
     atom   84 type  1   force =    -0.00109730   -0.00065411   -0.00453007
     atom   85 type  2   force =     0.00041443   -0.00024627   -0.00046212
     atom   86 type  2   force =    -0.00041515   -0.00024606    0.00046196
     atom   87 type  2   force =    -0.00041443    0.00024627    0.00046212
     atom   88 type  2   force =     0.00041515    0.00024606   -0.00046196
     atom   89 type  2   force =     0.00001184    0.00008594   -0.00051123
     atom   90 type  2   force =    -0.00001177    0.00008467    0.00051207
     atom   91 type  2   force =    -0.00001184   -0.00008594    0.00051123
     atom   92 type  2   force =     0.00001177   -0.00008467   -0.00051207
     atom   93 type  2   force =    -0.00095421    0.00032068   -0.00022278
     atom   94 type  2   force =     0.00095424    0.00031918    0.00022295
     atom   95 type  2   force =     0.00095421   -0.00032068    0.00022278
     atom   96 type  2   force =    -0.00095424   -0.00031918   -0.00022295
     atom   97 type  2   force =    -0.00070486   -0.00074192    0.00023764
     atom   98 type  2   force =     0.00070641   -0.00074120   -0.00023863
     atom   99 type  2   force =     0.00070486    0.00074192   -0.00023764
     atom  100 type  2   force =    -0.00070641    0.00074120    0.00023863
     atom  101 type  2   force =    -0.00021171    0.00044796    0.00051961
     atom  102 type  2   force =     0.00021003    0.00044936   -0.00051823
     atom  103 type  2   force =     0.00021171   -0.00044796   -0.00051961
     atom  104 type  2   force =    -0.00021003   -0.00044936    0.00051823
     atom  105 type  2   force =     0.00044974   -0.00051701   -0.00030391
     atom  106 type  2   force =    -0.00045064   -0.00051702    0.00030350
     atom  107 type  2   force =    -0.00044974    0.00051701    0.00030391
     atom  108 type  2   force =     0.00045064    0.00051702   -0.00030350
     atom  109 type  2   force =    -0.00051816   -0.00057578    0.00130111
     atom  110 type  2   force =     0.00051228   -0.00057356   -0.00129982
     atom  111 type  2   force =     0.00051816    0.00057578   -0.00130111
     atom  112 type  2   force =    -0.00051228    0.00057356    0.00129982
     atom  113 type  2   force =     0.00027184    0.00118647   -0.00050976
     atom  114 type  2   force =    -0.00027268    0.00118612    0.00050983
     atom  115 type  2   force =    -0.00027184   -0.00118647    0.00050976
     atom  116 type  2   force =     0.00027268   -0.00118612   -0.00050983
     atom  117 type  2   force =    -0.00241793    0.00072165   -0.00129040
     atom  118 type  2   force =     0.00241784    0.00072132    0.00129047
     atom  119 type  2   force =     0.00241793   -0.00072165    0.00129040
     atom  120 type  2   force =    -0.00241784   -0.00072132   -0.00129047
     atom  121 type  4   force =     0.00027011    0.00034947    0.00050850
     atom  122 type  4   force =    -0.00027038    0.00035157   -0.00051608
     atom  123 type  4   force =    -0.00027011   -0.00034947   -0.00050850
     atom  124 type  4   force =     0.00027038   -0.00035157    0.00051608
     atom  125 type  4   force =    -0.00010591    0.00048490    0.00054904
     atom  126 type  4   force =     0.00010775    0.00048821   -0.00055035
     atom  127 type  4   force =     0.00010591   -0.00048490   -0.00054904
     atom  128 type  4   force =    -0.00010775   -0.00048821    0.00055035
     atom  129 type  4   force =     0.00060342   -0.00073712    0.00060703
     atom  130 type  4   force =    -0.00060307   -0.00073576   -0.00060719
     atom  131 type  4   force =    -0.00060342    0.00073712   -0.00060703
     atom  132 type  4   force =     0.00060307    0.00073576    0.00060719
     atom  133 type  4   force =     0.00133476   -0.00014318    0.00327414
     atom  134 type  4   force =    -0.00133052   -0.00014546   -0.00327652
     atom  135 type  4   force =    -0.00133476    0.00014318   -0.00327414
     atom  136 type  4   force =     0.00133052    0.00014546    0.00327652
     atom  137 type  4   force =     0.00044854   -0.00028207   -0.00038077
     atom  138 type  4   force =    -0.00044737   -0.00028426    0.00038188
     atom  139 type  4   force =    -0.00044854    0.00028207    0.00038077
     atom  140 type  4   force =     0.00044737    0.00028426   -0.00038188
     atom  141 type  4   force =     0.00006070   -0.00079589    0.00053285
     atom  142 type  4   force =    -0.00006151   -0.00079612   -0.00054102
     atom  143 type  4   force =    -0.00006070    0.00079589   -0.00053285
     atom  144 type  4   force =     0.00006151    0.00079612    0.00054102
     atom  145 type  4   force =    -0.00109848   -0.00034681   -0.00033099
     atom  146 type  4   force =     0.00110278   -0.00034774    0.00032483
     atom  147 type  4   force =     0.00109848    0.00034681    0.00033099
     atom  148 type  4   force =    -0.00110278    0.00034774   -0.00032483
     atom  149 type  1   force =     0.00063750   -0.00012601   -0.00296814
     atom  150 type  1   force =    -0.00063921   -0.00012667    0.00296538
     atom  151 type  1   force =    -0.00063750    0.00012601    0.00296814
     atom  152 type  1   force =     0.00063921    0.00012667   -0.00296538
     atom  153 type  1   force =    -0.00309423    0.00067687    0.00139759
     atom  154 type  1   force =     0.00309334    0.00067641   -0.00141533
     atom  155 type  1   force =     0.00309423   -0.00067687   -0.00139759
     atom  156 type  1   force =    -0.00309334   -0.00067641    0.00141533
     atom  157 type  1   force =     0.00037561   -0.00059972    0.00077532
     atom  158 type  1   force =    -0.00037657   -0.00060007   -0.00077049
     atom  159 type  1   force =    -0.00037561    0.00059972   -0.00077532
     atom  160 type  1   force =     0.00037657    0.00060007    0.00077049
     atom  161 type  1   force =    -0.00025896    0.00051195   -0.00009163
     atom  162 type  1   force =     0.00025850    0.00051242    0.00009665
     atom  163 type  1   force =     0.00025896   -0.00051195    0.00009163
     atom  164 type  1   force =    -0.00025850   -0.00051242   -0.00009665
     atom  165 type  1   force =     0.00106477    0.00007174   -0.00381213
     atom  166 type  1   force =    -0.00106574    0.00007122    0.00378711
     atom  167 type  1   force =    -0.00106477   -0.00007174    0.00381213
     atom  168 type  1   force =     0.00106574   -0.00007122   -0.00378711
     atom  169 type  3   force =     0.00095295   -0.00091688    0.00019209
     atom  170 type  3   force =    -0.00095280   -0.00091663   -0.00019230
     atom  171 type  3   force =    -0.00095295    0.00091688   -0.00019209
     atom  172 type  3   force =     0.00095280    0.00091663    0.00019230
     atom  173 type  3   force =    -0.00006978    0.00092357   -0.00013553
     atom  174 type  3   force =     0.00006961    0.00092362    0.00013543
     atom  175 type  3   force =     0.00006978   -0.00092357    0.00013553
     atom  176 type  3   force =    -0.00006961   -0.00092362   -0.00013543
     atom  177 type  3   force =    -0.00012767    0.00073810   -0.00055114
     atom  178 type  3   force =     0.00012781    0.00073823    0.00055063
     atom  179 type  3   force =     0.00012767   -0.00073810    0.00055114
     atom  180 type  3   force =    -0.00012781   -0.00073823   -0.00055063
     atom  181 type  3   force =    -0.00006710   -0.00015256   -0.00001895
     atom  182 type  3   force =     0.00006636   -0.00015273    0.00001904
     atom  183 type  3   force =     0.00006710    0.00015256    0.00001895
     atom  184 type  3   force =    -0.00006636    0.00015273   -0.00001904
     atom  185 type  3   force =    -0.00000217    0.00034838   -0.00026304
     atom  186 type  3   force =     0.00000208    0.00034861    0.00026332
     atom  187 type  3   force =     0.00000217   -0.00034838    0.00026304
     atom  188 type  3   force =    -0.00000208   -0.00034861   -0.00026332
     atom  189 type  3   force =     0.00049527    0.00001373    0.00010698
     atom  190 type  3   force =    -0.00049532    0.00001355   -0.00010692
     atom  191 type  3   force =    -0.00049527   -0.00001373   -0.00010698
     atom  192 type  3   force =     0.00049532   -0.00001355    0.00010692

     Total force =     0.026318     Total SCF correction =     0.000215


     Computing stress (Cartesian axis) and pressure

          total   stress  (Ry/bohr**3)                   (kbar)     P=   -3.97
  -0.00003537  -0.00000000  -0.00000179         -5.20     -0.00     -0.26
  -0.00000000  -0.00001775   0.00000000         -0.00     -2.61      0.00
  -0.00000179   0.00000000  -0.00002794         -0.26      0.00     -4.11


     Writing output data file scf.save
 
     init_run     :    283.08s CPU    286.69s WALL (       1 calls)
     electrons    :  11426.51s CPU  11572.45s WALL (       1 calls)
     forces       :    156.39s CPU    157.21s WALL (       1 calls)
     stress       :    847.94s CPU    849.81s WALL (       1 calls)

     Called by init_run:
     wfcinit      :    256.77s CPU    259.99s WALL (       1 calls)
     potinit      :      8.81s CPU      8.84s WALL (       1 calls)

     Called by electrons:
     c_bands      :  10440.35s CPU  10563.69s WALL (      17 calls)
     sum_band     :    946.83s CPU    964.86s WALL (      17 calls)
     v_of_rho     :      6.00s CPU      6.21s WALL (      18 calls)
     newd         :     20.23s CPU     24.72s WALL (      18 calls)
     PAW_pot      :     12.87s CPU     12.88s WALL (      18 calls)
     mix_rho      :      1.26s CPU      1.34s WALL (      17 calls)

     Called by c_bands:
     init_us_2    :     21.41s CPU     21.78s WALL (     148 calls)
     cegterg      :  10324.50s CPU  10447.59s WALL (      68 calls)

     Called by sum_band:
     sum_band:bec :      0.32s CPU      0.32s WALL (      68 calls)
     addusdens    :     20.92s CPU     25.16s WALL (      17 calls)

     Called by *egterg:
     h_psi        :   4745.38s CPU   4817.85s WALL (     388 calls)
     s_psi        :   1467.21s CPU   1467.45s WALL (     388 calls)
     g_psi        :     12.10s CPU     12.10s WALL (     316 calls)
     cdiaghg      :    737.64s CPU    737.70s WALL (     384 calls)

     Called by h_psi:
     h_psi:pot    :   4727.63s CPU   4799.54s WALL (     388 calls)
     h_psi:calbec :   1462.12s CPU   1463.57s WALL (     388 calls)
     vloc_psi     :   1799.03s CPU   1869.41s WALL (     388 calls)
     add_vuspsi   :   1466.48s CPU   1466.55s WALL (     388 calls)

     General routines
     calbec       :   2171.56s CPU   2173.58s WALL (     476 calls)
     fft          :      5.86s CPU      6.22s WALL (     258 calls)
     fftw         :   1986.07s CPU   2069.27s WALL (  224722 calls)
 
     Parallel routines
     fft_scatter  :    592.89s CPU    679.28s WALL (  224980 calls)
 
     PWSCF        :     3h32m CPU        3h35m WALL

 
   This run was terminated on:  18:42:33  20Jan2018            

=------------------------------------------------------------------------------=
   JOB DONE.
=------------------------------------------------------------------------------=
