
     Program PWSCF v.6.1 (svn rev. 13369) starts on 18Dec2017 at 10:56: 5 

     This program is part of the open-source Quantum ESPRESSO suite
     for quantum simulation of materials; please cite
         "P. Giannozzi et al., J. Phys.:Condens. Matter 21 395502 (2009);
          URL http://www.quantum-espresso.org", 
     in publications or presentations arising from this work. More details at
     http://www.quantum-espresso.org/quote

     Parallel version (MPI), running on     8 processors
     R & G space division:  proc/nbgrp/npool/nimage =       8
     Waiting for input...
     Reading input from standard input

     Current dimensions of program PWSCF are:
     Max number of different atomic species (ntypx) = 10
     Max number of k-points (npk) =  40000
     Max angular momentum in pseudopotentials (lmaxx) =  3
               file C.pbe-n-kjpaw_psl.0.1.UPF: wavefunction(s)  2P renormalized
               file N.pbe-n-kjpaw_psl.0.1.UPF: wavefunction(s)  2P renormalized
               file H.pbe-kjpaw_psl.0.1.UPF: wavefunction(s)  1S renormalized
               file O.pbe-n-kjpaw_psl.0.1.UPF: wavefunction(s)  2P renormalized

     -------------------------------------
     Parameters for Dispersion Correction:
     -------------------------------------
       atom      VdW radius       C_6     

        C          2.744         60.710
        N          2.640         42.670
        H          1.892          4.857
        O          2.536         24.284

     Subspace diagonalization in iterative solution of the eigenvalue problem:
     a serial algorithm will be used

 
     Parallelization info
     --------------------
     sticks:   dense  smooth     PW     G-vecs:    dense   smooth      PW
     Min        1159    1159    307                65142    65142    8902
     Max        1160    1160    308                65144    65144    8903
     Sum        9279    9279   2463               521147   521147   71219
 


     bravais-lattice index     =            0
     lattice parameter (alat)  =      20.2522  a.u.
     unit-cell volume          =    3857.2469 (a.u.)^3
     number of atoms/cell      =           62
     number of atomic types    =            4
     number of electrons       =       176.00
     number of Kohn-Sham states=          105
     kinetic-energy cutoff     =     100.0000  Ry
     charge density cutoff     =     400.0000  Ry
     convergence threshold     =      1.0E-08
     mixing beta               =       0.5000
     number of iterations used =            8  plain     mixing
     Exchange-correlation      =  SLA  PW   PBX  PBC ( 1  4  3  4 0 0)

     celldm(1)=  20.252195  celldm(2)=   0.000000  celldm(3)=   0.000000
     celldm(4)=   0.000000  celldm(5)=   0.000000  celldm(6)=   0.000000

     crystal axes: (cart. coord. in units of alat)
               a(1) = (   1.000000   0.000000   0.000000 )  
               a(2) = (   0.138929   0.710820   0.000000 )  
               a(3) = (   0.086297   0.211838   0.653283 )  

     reciprocal axes: (cart. coord. in units 2 pi/alat)
               b(1) = (  1.000000 -0.195449 -0.068719 )  
               b(2) = (  0.000000  1.406825 -0.456187 )  
               b(3) = (  0.000000  0.000000  1.530730 )  


     PseudoPot. # 1 for  C read from file:
     /scratch/ahofstet/pseudo/C.pbe-n-kjpaw_psl.0.1.UPF
     MD5 check sum: 430fe95172b1e11ef3f8ed03bac87931
     Pseudo is Projector augmented-wave + core cor, Zval =  4.0
     Generated using "atomic" code by A. Dal Corso  v.5.0.99 svn rev. 10869
     Shape of augmentation charge: BESSEL
     Using radial grid of 1073 points,  4 beta functions with: 
                l(1) =   0
                l(2) =   0
                l(3) =   1
                l(4) =   1
     Q(r) pseudized with 0 coefficients 


     PseudoPot. # 2 for  N read from file:
     /scratch/ahofstet/pseudo/N.pbe-n-kjpaw_psl.0.1.UPF
     MD5 check sum: f73187c8b701007e77325f868c9291d7
     Pseudo is Projector augmented-wave + core cor, Zval =  5.0
     Generated using "atomic" code by A. Dal Corso  v.5.0.99 svn rev. 10869
     Shape of augmentation charge: PSQ
     Using radial grid of 1085 points,  4 beta functions with: 
                l(1) =   0
                l(2) =   0
                l(3) =   1
                l(4) =   1
     Q(r) pseudized with 0 coefficients 


     PseudoPot. # 3 for  H read from file:
     /scratch/ahofstet/pseudo/H.pbe-kjpaw_psl.0.1.UPF
     MD5 check sum: 94e484f906d9e9773b2f6e52662335b2
     Pseudo is Projector augmented-wave, Zval =  1.0
     Generated using "atomic" code by A. Dal Corso  v.5.0.99 svn rev. 10869
     Shape of augmentation charge: PSQ
     Using radial grid of  929 points,  2 beta functions with: 
                l(1) =   0
                l(2) =   0
     Q(r) pseudized with 0 coefficients 


     PseudoPot. # 4 for  O read from file:
     /scratch/ahofstet/pseudo/O.pbe-n-kjpaw_psl.0.1.UPF
     MD5 check sum: 3f94a2996a3169367d6eb21d9b593f20
     Pseudo is Projector augmented-wave + core cor, Zval =  6.0
     Generated using "atomic" code by A. Dal Corso  v.5.0.99 svn rev. 10869
     Shape of augmentation charge: BESSEL
     Using radial grid of 1095 points,  4 beta functions with: 
                l(1) =   0
                l(2) =   0
                l(3) =   1
                l(4) =   1
     Q(r) pseudized with 0 coefficients 


     atomic species   valence    mass     pseudopotential
        C              4.00    12.01070      C( 1.00)
        N              5.00    14.00670      N( 1.00)
        H              1.00     1.00794      H( 1.00)
        O              6.00    15.99940      O( 1.00)

      2 Sym. Ops., with inversion, found



   Cartesian axes

     site n.     atom                  positions (alat units)
         1           C   tau(   1) = (   0.5436291   0.1970138   0.0718674  )
         2           C   tau(   2) = (   0.6815968   0.7256447   0.5814155  )
         3           C   tau(   3) = (   0.6889722   0.3624052   0.6173765  )
         4           C   tau(   4) = (   0.5362537   0.5602533   0.0359064  )
         5           C   tau(   5) = (   0.8155892   0.3298194   0.6206130  )
         6           C   tau(   6) = (   0.4096366   0.5928391   0.0326700  )
         7           C   tau(   7) = (   0.7940936   0.1288811   0.0808939  )
         8           C   tau(   8) = (   0.4311322   0.7937773   0.5723891  )
         9           C   tau(   9) = (   0.6092595   0.2095011   0.1842561  )
        10           C   tau(  10) = (   0.6159663   0.7131574   0.4690268  )
        11           C   tau(  11) = (   0.7344431   0.1744437   0.1882058  )
        12           C   tau(  12) = (   0.4907828   0.7482147   0.4650772  )
        13           C   tau(  13) = (   0.5972463   0.3521002   0.5107834  )
        14           C   tau(  14) = (   0.6279795   0.5705583   0.1424996  )
        15           C   tau(  15) = (   0.4773746   0.4161564   0.5595471  )
        16           C   tau(  16) = (   0.7478513   0.5065021   0.0937359  )
        17           C   tau(  17) = (   0.4138513   0.2270815   0.0438036  )
        18           C   tau(  18) = (   0.8113745   0.6955770   0.6094794  )
        19           C   tau(  19) = (   0.8860047   0.2970435   0.5048405  )
        20           C   tau(  20) = (   0.3392211   0.6256150   0.1484424  )
        21           N   tau(  21) = (   0.8930759   0.3712062   0.4089509  )
        22           N   tau(  22) = (   0.3321500   0.5514523   0.2443320  )
        23           N   tau(  23) = (   0.9511389   0.1880076   0.5076596  )
        24           N   tau(  24) = (   0.2740870   0.7346509   0.1456234  )
        25           N   tau(  25) = (   0.3370037   0.2677782   0.1277263  )
        26           N   tau(  26) = (   0.8882222   0.6548802   0.5255567  )
        27           N   tau(  27) = (   0.2177417   0.2969019   0.0891281  )
        28           N   tau(  28) = (   1.0074841   0.6257566   0.5641549  )
        29           C   tau(  29) = (   0.1444607   0.3224544   0.1873566  )
        30           C   tau(  30) = (   1.0807652   0.6002040   0.4659263  )
        31           N   tau(  31) = (   1.0312586   0.3742036   0.1707530  )
        32           N   tau(  32) = (   0.1939672   0.5484549   0.4825300  )
        33           N   tau(  33) = (   0.1778058   0.2920887   0.3073451  )
        34           N   tau(  34) = (   1.0474200   0.6305698   0.3459378  )
        35           H   tau(  35) = (   0.8930389   0.1052778   0.0834449  )
        36           H   tau(  36) = (   0.3321869   0.8173807   0.5698380  )
        37           H   tau(  37) = (   0.5626352   0.2466151   0.2672204  )
        38           H   tau(  38) = (   0.6625906   0.6760434   0.3860625  )
        39           H   tau(  39) = (   0.7873831   0.1854432   0.2745097  )
        40           H   tau(  40) = (   0.4378428   0.7372152   0.3787732  )
        41           H   tau(  41) = (   0.5802979   0.2527378   0.4893017  )
        42           H   tau(  42) = (   0.6449279   0.6699207   0.1639812  )
        43           H   tau(  43) = (   0.6329060   0.3948529   0.4243066  )
        44           H   tau(  44) = (   0.5923198   0.5278056   0.2289764  )
        45           H   tau(  45) = (   0.3928488   0.3598737   0.5445310  )
        46           H   tau(  46) = (   0.8323771   0.5627847   0.1087520  )
        47           H   tau(  47) = (   0.4624614   0.5064813   0.5129913  )
        48           H   tau(  48) = (   0.7627644   0.4161771   0.1402916  )
        49           H   tau(  49) = (   0.8490909   0.4541075   0.4280065  )
        50           H   tau(  50) = (   0.3761350   0.4685510   0.2252765  )
        51           H   tau(  51) = (   1.0623195   0.8272132   0.5638187  )
        52           H   tau(  52) = (   0.1629064   0.0954453   0.0894643  )
        53           H   tau(  53) = (   0.9966877   0.1629575   0.4282505  )
        54           H   tau(  54) = (   0.2285381   0.7597010   0.2250324  )
        55           H   tau(  55) = (   0.9964913   0.3863985   0.0814206  )
        56           H   tau(  56) = (   0.2287346   0.5362600   0.5718624  )
        57           H   tau(  57) = (   0.9708739   0.3700835   0.2464230  )
        58           H   tau(  58) = (   0.2543519   0.5525749   0.4068600  )
        59           H   tau(  59) = (   0.2706030   0.2715031   0.3139769  )
        60           H   tau(  60) = (   0.9546229   0.6511554   0.3393061  )
        61           H   tau(  61) = (   0.1423150   0.3470551   0.3763936  )
        62           H   tau(  62) = (   1.0829108   0.5756034   0.2768894  )

     number of k points=    10
                       cart. coord. in units 2pi/alat
        k(    1) = (   0.0000000   0.0000000   0.0000000), wk =   0.1111111
        k(    2) = (   0.0000000   0.0000000   0.5102434), wk =   0.2222222
        k(    3) = (   0.0000000   0.4689418  -0.1520624), wk =   0.2222222
        k(    4) = (   0.0000000   0.4689418   0.3581810), wk =   0.2222222
        k(    5) = (   0.0000000   0.4689418  -0.6623058), wk =   0.2222222
        k(    6) = (  -0.5000000   0.0977246   0.0343595), wk =   0.1111111
        k(    7) = (  -0.5000000   0.0977246   0.5446030), wk =   0.2222222
        k(    8) = (  -0.5000000   0.5666664  -0.1177029), wk =   0.2222222
        k(    9) = (  -0.5000000   0.5666664   0.3925406), wk =   0.2222222
        k(   10) = (  -0.5000000   0.5666664  -0.6279463), wk =   0.2222222

     Dense  grid:   521147 G-vectors     FFT dimensions: ( 135,  96,  90)

     Estimated max dynamical RAM per process >     334.27MB

     Estimated total allocated dynamical RAM >    2674.12MB

     Check: negative/imaginary core charge=   -0.000002    0.000000

     Initial potential from superposition of free atoms

     starting charge  175.99873, renormalised to  176.00000
     Starting wfc are  164 randomized atomic wfcs
     Checking if some PAW data can be deallocated... 

     total cpu time spent up to now is       21.2 secs

     per-process dynamical memory:   313.5 Mb

     Self-consistent Calculation

     iteration #  1     ecut=   100.00 Ry     beta=0.50
     Davidson diagonalization with overlap
     ethr =  1.00E-02,  avg # of iterations =  3.1

     total cpu time spent up to now is       62.3 secs

     total energy              =    -776.44307999 Ry
     Harris-Foulkes estimate   =    -780.10049535 Ry
     estimated scf accuracy    <       6.88001262 Ry

     iteration #  2     ecut=   100.00 Ry     beta=0.50
     Davidson diagonalization with overlap
     ethr =  3.91E-03,  avg # of iterations =  2.9

     total cpu time spent up to now is       87.6 secs

     total energy              =    -777.10168832 Ry
     Harris-Foulkes estimate   =    -777.41506162 Ry
     estimated scf accuracy    <       0.69602699 Ry

     iteration #  3     ecut=   100.00 Ry     beta=0.50
     Davidson diagonalization with overlap
     ethr =  3.95E-04,  avg # of iterations =  5.0

     total cpu time spent up to now is      134.5 secs

     total energy              =    -777.61305954 Ry
     Harris-Foulkes estimate   =    -777.84840744 Ry
     estimated scf accuracy    <       0.61487685 Ry

     iteration #  4     ecut=   100.00 Ry     beta=0.50
     Davidson diagonalization with overlap
     ethr =  3.49E-04,  avg # of iterations =  3.9

     total cpu time spent up to now is      158.2 secs

     total energy              =    -777.56721266 Ry
     Harris-Foulkes estimate   =    -777.65596183 Ry
     estimated scf accuracy    <       0.17127495 Ry

     iteration #  5     ecut=   100.00 Ry     beta=0.50
     Davidson diagonalization with overlap
     ethr =  9.73E-05,  avg # of iterations =  6.2

     total cpu time spent up to now is      201.5 secs

     total energy              =    -777.67508055 Ry
     Harris-Foulkes estimate   =    -777.70100384 Ry
     estimated scf accuracy    <       0.09525468 Ry

     iteration #  6     ecut=   100.00 Ry     beta=0.50
     Davidson diagonalization with overlap
     ethr =  5.41E-05,  avg # of iterations =  1.0

     total cpu time spent up to now is      223.0 secs

     total energy              =    -777.65395701 Ry
     Harris-Foulkes estimate   =    -777.67832395 Ry
     estimated scf accuracy    <       0.04721593 Ry

     iteration #  7     ecut=   100.00 Ry     beta=0.50
     Davidson diagonalization with overlap
     ethr =  2.68E-05,  avg # of iterations =  5.0

     total cpu time spent up to now is      258.2 secs

     total energy              =    -777.67141584 Ry
     Harris-Foulkes estimate   =    -777.67253401 Ry
     estimated scf accuracy    <       0.00337171 Ry

     iteration #  8     ecut=   100.00 Ry     beta=0.50
     Davidson diagonalization with overlap
     ethr =  1.92E-06,  avg # of iterations =  5.3

     total cpu time spent up to now is      284.6 secs

     total energy              =    -777.67097009 Ry
     Harris-Foulkes estimate   =    -777.67166666 Ry
     estimated scf accuracy    <       0.00134870 Ry

     iteration #  9     ecut=   100.00 Ry     beta=0.50
     Davidson diagonalization with overlap
     ethr =  7.66E-07,  avg # of iterations =  4.6

     total cpu time spent up to now is      321.4 secs

     total energy              =    -777.67173019 Ry
     Harris-Foulkes estimate   =    -777.67178085 Ry
     estimated scf accuracy    <       0.00031665 Ry

     iteration # 10     ecut=   100.00 Ry     beta=0.50
     Davidson diagonalization with overlap
     ethr =  1.80E-07,  avg # of iterations =  1.0

     total cpu time spent up to now is      342.9 secs

     total energy              =    -777.67160840 Ry
     Harris-Foulkes estimate   =    -777.67174084 Ry
     estimated scf accuracy    <       0.00022245 Ry

     iteration # 11     ecut=   100.00 Ry     beta=0.50
     Davidson diagonalization with overlap
     ethr =  1.26E-07,  avg # of iterations =  4.0

     total cpu time spent up to now is      374.0 secs

     total energy              =    -777.67169278 Ry
     Harris-Foulkes estimate   =    -777.67169868 Ry
     estimated scf accuracy    <       0.00003165 Ry

     iteration # 12     ecut=   100.00 Ry     beta=0.50
     Davidson diagonalization with overlap
     ethr =  1.80E-08,  avg # of iterations =  2.4

     total cpu time spent up to now is      397.1 secs

     total energy              =    -777.67168379 Ry
     Harris-Foulkes estimate   =    -777.67169499 Ry
     estimated scf accuracy    <       0.00002123 Ry

     iteration # 13     ecut=   100.00 Ry     beta=0.50
     Davidson diagonalization with overlap
     ethr =  1.21E-08,  avg # of iterations =  4.0

     total cpu time spent up to now is      427.1 secs

     total energy              =    -777.67169064 Ry
     Harris-Foulkes estimate   =    -777.67169096 Ry
     estimated scf accuracy    <       0.00000105 Ry

     iteration # 14     ecut=   100.00 Ry     beta=0.50
     Davidson diagonalization with overlap
     ethr =  5.97E-10,  avg # of iterations =  3.8

     total cpu time spent up to now is      457.0 secs

     total energy              =    -777.67169069 Ry
     Harris-Foulkes estimate   =    -777.67169091 Ry
     estimated scf accuracy    <       0.00000042 Ry

     iteration # 15     ecut=   100.00 Ry     beta=0.50
     Davidson diagonalization with overlap
     ethr =  2.37E-10,  avg # of iterations =  4.7

     total cpu time spent up to now is      489.7 secs

     total energy              =    -777.67169087 Ry
     Harris-Foulkes estimate   =    -777.67169089 Ry
     estimated scf accuracy    <       0.00000009 Ry

     iteration # 16     ecut=   100.00 Ry     beta=0.50
     Davidson diagonalization with overlap
     ethr =  5.01E-11,  avg # of iterations =  1.9

     total cpu time spent up to now is      511.9 secs

     total energy              =    -777.67169085 Ry
     Harris-Foulkes estimate   =    -777.67169088 Ry
     estimated scf accuracy    <       0.00000004 Ry

     iteration # 17     ecut=   100.00 Ry     beta=0.50
     Davidson diagonalization with overlap
     ethr =  2.52E-11,  avg # of iterations =  4.0

     total cpu time spent up to now is      544.9 secs

     End of self-consistent calculation

          k = 0.0000 0.0000 0.0000 ( 65155 PWs)   bands (ev):

   -18.7038 -18.6290 -17.3062 -17.3022 -17.0085 -16.9605 -15.4275 -15.3309
   -15.1425 -15.1303 -14.6695 -14.6642 -13.9820 -13.9221 -13.1194 -13.0716
   -12.2287 -12.2087 -11.4126 -11.3622 -10.0524  -9.9897  -9.3359  -9.2871
    -8.7006  -8.5125  -8.1869  -8.1794  -7.9066  -7.8178  -7.5097  -7.3533
    -7.0528  -7.0334  -6.6688  -6.6415  -6.0721  -6.0336  -5.4480  -5.4258
    -5.2966  -5.2418  -5.2252  -5.0068  -4.9098  -4.7933  -4.7381  -4.7365
    -4.5711  -4.5583  -4.2048  -4.1417  -4.0074  -3.9876  -3.7653  -3.5030
    -3.4112  -3.3255  -3.0212  -2.7601  -2.7528  -2.7459  -2.5129  -2.3472
    -2.3341  -2.3134  -2.1545  -2.1523  -2.0796  -1.9779  -1.8602  -1.6331
    -1.4612  -1.3275  -0.4926  -0.3052  -0.2560  -0.1276  -0.0127   0.2008
     0.2484   0.3778   0.5734   0.6403   1.0045   1.1677   1.6458   1.6931
     4.1971   4.3147   4.8595   4.9867   5.7135   5.8765   5.9932   6.4154
     6.6592   6.7423   6.8673   6.9684   7.0469   7.8287   7.8579   7.9320
     8.1355

          k = 0.0000 0.0000 0.5102 ( 65134 PWs)   bands (ev):

   -18.6854 -18.6461 -17.3139 -17.3029 -17.0173 -16.9393 -15.4205 -15.3318
   -15.2127 -15.0682 -14.6845 -14.6720 -13.9788 -13.9072 -13.1410 -13.0519
   -12.2521 -12.2370 -11.3952 -11.3552 -10.0258  -9.9304  -9.3017  -9.2596
    -8.6383  -8.4799  -8.2756  -8.1691  -7.8796  -7.7872  -7.5082  -7.3957
    -7.0929  -7.0063  -6.7843  -6.6386  -6.1475  -6.0381  -5.5779  -5.4511
    -5.3652  -5.2285  -5.0873  -4.9899  -4.8798  -4.8504  -4.7757  -4.7123
    -4.6078  -4.5800  -4.2614  -4.2248  -4.0248  -3.9346  -3.6224  -3.5337
    -3.4769  -3.3815  -3.0126  -2.8384  -2.7864  -2.6654  -2.5935  -2.4054
    -2.2940  -2.2562  -2.1837  -2.1427  -1.8144  -1.7700  -1.7665  -1.6324
    -1.4781  -1.3103  -0.5519  -0.3091  -0.1546  -0.0620  -0.0164   0.1822
     0.2649   0.3293   0.5734   0.6101   1.0030   1.1745   1.5823   1.7632
     4.1762   4.2759   4.8251   4.8769   5.9381   5.9775   6.0868   6.3880
     6.5722   6.7204   6.9500   6.9951   7.0653   7.3417   7.6905   7.7272
     7.9706

          k = 0.0000 0.4689-0.1521 ( 65153 PWs)   bands (ev):

   -18.6995 -18.6301 -17.3109 -17.3069 -17.0050 -16.9642 -15.4042 -15.3520
   -15.1489 -15.1280 -14.6671 -14.6521 -13.9677 -13.9369 -13.1239 -13.0677
   -12.2254 -12.2117 -11.4230 -11.3523 -10.0380 -10.0054  -9.3488  -9.2857
    -8.7363  -8.4778  -8.2120  -8.1635  -7.9008  -7.8408  -7.4763  -7.3873
    -7.0674  -7.0376  -6.6996  -6.6444  -6.0843  -5.9893  -5.3820  -5.3180
    -5.2562  -5.2238  -5.1758  -4.9640  -4.8689  -4.8460  -4.8151  -4.6735
    -4.5320  -4.5066  -4.2239  -4.1691  -4.1260  -4.0020  -3.7584  -3.5948
    -3.4194  -3.3448  -3.0606  -2.9378  -2.8299  -2.6660  -2.4990  -2.4344
    -2.2969  -2.2426  -2.2023  -2.1361  -2.0475  -1.9805  -1.8177  -1.6720
    -1.4551  -1.3791  -0.5200  -0.2844  -0.2450  -0.1143  -0.0668   0.2079
     0.2949   0.4390   0.6210   0.7113   1.0050   1.1711   1.5938   1.7511
     4.1400   4.3657   4.8677   4.9958   5.5886   5.8794   6.1744   6.4465
     6.5483   6.8200   7.0818   7.1510   7.1706   7.5893   7.7083   7.7683
     8.0252

          k = 0.0000 0.4689 0.3582 ( 65134 PWs)   bands (ev):

   -18.6843 -18.6440 -17.3175 -17.3097 -17.0121 -16.9431 -15.4005 -15.3510
   -15.2185 -15.0636 -14.6787 -14.6656 -13.9700 -13.9164 -13.1324 -13.0610
   -12.2486 -12.2401 -11.4045 -11.3511 -10.0090  -9.9492  -9.2885  -9.2780
    -8.6326  -8.4758  -8.2662  -8.2092  -7.8595  -7.8230  -7.5091  -7.3862
    -7.0901  -7.0496  -6.7946  -6.6411  -6.1303  -6.0248  -5.5223  -5.4559
    -5.2805  -5.1576  -5.0731  -4.9889  -4.8705  -4.8298  -4.7281  -4.6548
    -4.5698  -4.5483  -4.2546  -4.2283  -4.1307  -4.0053  -3.6609  -3.6265
    -3.4827  -3.4375  -3.0278  -2.9194  -2.7976  -2.7115  -2.5842  -2.3770
    -2.2907  -2.2537  -2.1892  -2.1672  -1.8002  -1.7528  -1.7373  -1.6920
    -1.4780  -1.3263  -0.5727  -0.3069  -0.2271  -0.0544   0.0402   0.1958
     0.2645   0.3656   0.6226   0.6795   1.0206   1.1699   1.5901   1.7551
     4.0796   4.3709   4.7595   4.9603   5.7319   5.9967   6.1837   6.3215
     6.4825   6.8032   6.9842   7.0615   7.3619   7.7326   7.8074   7.9971
     8.0768

          k = 0.0000 0.4689-0.6623 ( 65126 PWs)   bands (ev):

   -18.6819 -18.6463 -17.3189 -17.3085 -17.0131 -16.9419 -15.3993 -15.3525
   -15.2185 -15.0650 -14.6797 -14.6626 -13.9601 -13.9264 -13.1375 -13.0566
   -12.2474 -12.2410 -11.4051 -11.3482 -10.0075  -9.9494  -9.3025  -9.2694
    -8.6523  -8.4548  -8.2793  -8.1918  -7.8681  -7.8117  -7.4898  -7.4184
    -7.1074  -7.0300  -6.7928  -6.6336  -6.0872  -6.0717  -5.5122  -5.4711
    -5.2251  -5.1811  -5.0566  -4.9355  -4.8828  -4.8619  -4.7585  -4.7006
    -4.5773  -4.5586  -4.2692  -4.2168  -4.1423  -3.9773  -3.6627  -3.6100
    -3.4834  -3.3965  -3.0757  -2.8947  -2.7826  -2.7407  -2.5708  -2.4269
    -2.2809  -2.2530  -2.1850  -2.1543  -1.8043  -1.7628  -1.7341  -1.6652
    -1.4631  -1.3451  -0.5623  -0.3000  -0.2173  -0.0595   0.0074   0.1661
     0.2931   0.3822   0.6292   0.6808   1.0123   1.1727   1.6624   1.6904
     4.0972   4.3680   4.7650   4.9533   5.6908   6.0468   6.2023   6.3334
     6.6114   6.7522   6.9636   7.2266   7.3304   7.4485   7.6334   7.7895
     7.9068

          k =-0.5000 0.0977 0.0344 ( 65170 PWs)   bands (ev):

   -18.7019 -18.6307 -17.3134 -17.3098 -16.9934 -16.9552 -15.4274 -15.3208
   -15.1584 -15.1342 -14.6934 -14.6667 -13.9737 -13.9001 -13.0717 -13.0647
   -12.2752 -12.2425 -11.4051 -11.3634 -10.0278  -9.9945  -9.3351  -9.2868
    -8.7056  -8.4596  -8.2554  -8.1468  -7.8552  -7.8469  -7.4677  -7.3821
    -7.0800  -6.9602  -6.7876  -6.6528  -6.1071  -6.0239  -5.5797  -5.4601
    -5.3650  -5.1786  -5.1480  -5.0362  -4.7839  -4.7731  -4.6649  -4.6180
    -4.5844  -4.5082  -4.1946  -4.1476  -4.1097  -3.9898  -3.7148  -3.6070
    -3.3830  -3.3802  -3.0401  -2.8028  -2.7958  -2.6659  -2.4665  -2.3608
    -2.3363  -2.2954  -2.2144  -2.1356  -2.0252  -2.0102  -1.7877  -1.7500
    -1.5435  -1.2975  -0.5347  -0.3239  -0.0901  -0.0619  -0.0499   0.2378
     0.2760   0.3449   0.6026   0.6111   1.0331   1.1649   1.3847   1.8276
     4.2211   4.3627   4.8563   4.9561   5.7019   5.9373   6.1720   6.2345
     6.4015   6.4071   7.0083   7.2442   7.3001   7.8063   7.8727   7.8868
     8.0844

          k =-0.5000 0.0977 0.5446 ( 65138 PWs)   bands (ev):

   -18.6843 -18.6475 -17.3114 -17.2984 -17.0266 -16.9407 -15.4224 -15.3170
   -15.2170 -15.0644 -14.6771 -14.6655 -13.9914 -13.9374 -13.1056 -13.0942
   -12.2379 -12.2072 -11.3943 -11.3580  -9.9972  -9.9631  -9.3090  -9.2634
    -8.6865  -8.5040  -8.2315  -8.1558  -7.8514  -7.8032  -7.5372  -7.4203
    -7.0895  -6.9915  -6.7603  -6.6155  -6.0922  -6.0426  -5.5673  -5.4142
    -5.3467  -5.2299  -5.1367  -5.0107  -4.8819  -4.8275  -4.7842  -4.7600
    -4.6569  -4.6496  -4.2304  -4.1822  -3.9844  -3.9477  -3.6279  -3.5585
    -3.4418  -3.4075  -3.0229  -2.8606  -2.8149  -2.6463  -2.4911  -2.4048
    -2.3255  -2.2946  -2.2434  -2.0717  -1.8210  -1.7726  -1.7395  -1.6778
    -1.4499  -1.3299  -0.4783  -0.2791  -0.1514  -0.0760  -0.0053   0.2233
     0.2555   0.3515   0.5439   0.6005   1.0030   1.1725   1.4423   1.7527
     4.3104   4.3376   4.7995   4.8681   5.7801   5.9310   6.2282   6.3842
     6.4170   6.6493   6.9579   7.1003   7.2505   7.3775   7.4104   7.8156
     8.0542

          k =-0.5000 0.5667-0.1177 ( 65133 PWs)   bands (ev):

   -18.6985 -18.6307 -17.3184 -17.3151 -16.9888 -16.9589 -15.4035 -15.3466
   -15.1607 -15.1338 -14.6816 -14.6624 -13.9567 -13.9175 -13.0780 -13.0574
   -12.2708 -12.2505 -11.4197 -11.3506 -10.0365  -9.9828  -9.3318  -9.2945
    -8.6889  -8.4692  -8.2535  -8.1784  -7.9180  -7.8169  -7.5194  -7.3409
    -7.0623  -6.9865  -6.7612  -6.6837  -6.1142  -6.0078  -5.4669  -5.3989
    -5.2752  -5.1437  -5.1188  -4.9591  -4.8689  -4.8110  -4.6668  -4.5986
    -4.5524  -4.4920  -4.2082  -4.1325  -4.1027  -4.0551  -3.7810  -3.6874
    -3.4653  -3.3278  -3.0804  -2.9271  -2.8101  -2.7421  -2.4697  -2.4262
    -2.3182  -2.2337  -2.1708  -2.1144  -2.0555  -2.0218  -1.7516  -1.7317
    -1.5305  -1.3582  -0.5441  -0.3514  -0.1001  -0.0568  -0.0213   0.2001
     0.3040   0.4124   0.6687   0.6861   1.0090   1.1720   1.4410   1.7971
     4.1816   4.3745   4.8133   5.0039   5.6893   5.8980   5.9696   6.4480
     6.7043   6.8100   6.9103   7.2272   7.2799   7.5535   7.6285   7.6529
     8.0894

          k =-0.5000 0.5667 0.3925 ( 65125 PWs)   bands (ev):

   -18.6839 -18.6445 -17.3139 -17.3064 -17.0208 -16.9453 -15.4010 -15.3410
   -15.2137 -15.0659 -14.6794 -14.6507 -13.9772 -13.9505 -13.1095 -13.0907
   -12.2401 -12.2085 -11.4033 -11.3483 -10.0122  -9.9488  -9.3285  -9.2544
    -8.7043  -8.4826  -8.2462  -8.1454  -7.8602  -7.8186  -7.5494  -7.4462
    -7.1040  -6.9653  -6.7649  -6.6057  -6.0998  -6.0332  -5.4989  -5.3774
    -5.2861  -5.2023  -5.1490  -5.0140  -4.8582  -4.8266  -4.8084  -4.6659
    -4.6113  -4.5552  -4.2426  -4.1856  -4.0579  -4.0515  -3.7317  -3.5699
    -3.4621  -3.4057  -3.0379  -2.9116  -2.8184  -2.7313  -2.5345  -2.3946
    -2.3241  -2.2586  -2.2334  -2.0924  -1.8090  -1.7988  -1.7260  -1.6478
    -1.4522  -1.3861  -0.4859  -0.2816  -0.1592  -0.0932  -0.0110   0.1934
     0.2620   0.3665   0.6508   0.6689   1.0024   1.1850   1.5420   1.6903
     4.1349   4.4706   4.7083   4.9503   5.7181   5.9323   6.0619   6.4456
     6.5906   6.7212   6.9317   7.2405   7.3389   7.6062   7.7038   7.9582
     8.0576

          k =-0.5000 0.5667-0.6279 ( 65105 PWs)   bands (ev):

   -18.6811 -18.6473 -17.3142 -17.3052 -17.0234 -16.9439 -15.3957 -15.3445
   -15.2161 -15.0656 -14.6735 -14.6559 -13.9808 -13.9478 -13.1144 -13.0843
   -12.2272 -12.2216 -11.4066 -11.3464 -10.0128  -9.9467  -9.3106  -9.2709
    -8.6858  -8.5030  -8.2118  -8.1863  -7.8739  -7.8049  -7.5642  -7.4158
    -7.0970  -6.9806  -6.7676  -6.6233  -6.1081  -6.0221  -5.4540  -5.4165
    -5.2319  -5.1856  -5.1102  -4.9544  -4.9175  -4.8721  -4.8428  -4.6687
    -4.6391  -4.5747  -4.2285  -4.2071  -4.0540  -4.0206  -3.6893  -3.5948
    -3.4726  -3.3970  -3.0958  -2.9266  -2.8263  -2.7145  -2.5265  -2.3861
    -2.3403  -2.2167  -2.1949  -2.1325  -1.8000  -1.7798  -1.7389  -1.6576
    -1.4583  -1.3806  -0.5033  -0.2912  -0.1480  -0.0777   0.0051   0.1794
     0.2778   0.3900   0.6407   0.6779   0.9902   1.1825   1.4768   1.7435
     4.1410   4.4610   4.7371   4.9356   5.7268   5.9712   6.0519   6.4730
     6.6173   6.8487   6.9910   7.1906   7.2581   7.4032   7.5375   7.7570
     7.8941

     highest occupied, lowest unoccupied level (ev):     1.8276    4.0796

!    total energy              =    -777.67169087 Ry
     Harris-Foulkes estimate   =    -777.67169087 Ry
     estimated scf accuracy    <          6.1E-09 Ry

     total all-electron energy =     -3024.067414 Ry

     The total energy is the sum of the following terms:

     one-electron contribution =    -405.04273618 Ry
     hartree contribution      =     268.64258498 Ry
     xc contribution           =    -176.34554214 Ry
     ewald contribution        =    -218.95835758 Ry
     Dispersion Correction     =      -0.28989921 Ry
     one-center paw contrib.   =    -245.67774075 Ry

     convergence has been achieved in  17 iterations

     Forces acting on atoms (cartesian axes, Ry/au):

     atom    1 type  1   force =     0.00103313   -0.00136908   -0.00091011
     atom    2 type  1   force =    -0.00103313    0.00136908    0.00091011
     atom    3 type  1   force =     0.00086999    0.00090168   -0.00010109
     atom    4 type  1   force =    -0.00086999   -0.00090168    0.00010109
     atom    5 type  1   force =     0.00051144    0.00385248    0.00253272
     atom    6 type  1   force =    -0.00051144   -0.00385248   -0.00253272
     atom    7 type  1   force =    -0.00295634    0.00087974    0.00108261
     atom    8 type  1   force =     0.00295634   -0.00087974   -0.00108261
     atom    9 type  1   force =    -0.00259982    0.00075544    0.00532631
     atom   10 type  1   force =     0.00259982   -0.00075544   -0.00532631
     atom   11 type  1   force =     0.00151124   -0.00377246   -0.00112652
     atom   12 type  1   force =    -0.00151124    0.00377246    0.00112652
     atom   13 type  1   force =     0.00204005    0.00064763   -0.00408484
     atom   14 type  1   force =    -0.00204005   -0.00064763    0.00408484
     atom   15 type  1   force =    -0.00250741   -0.00055732   -0.00184977
     atom   16 type  1   force =     0.00250741    0.00055732    0.00184977
     atom   17 type  1   force =    -0.00020902   -0.00110124    0.00066310
     atom   18 type  1   force =     0.00020902    0.00110124   -0.00066310
     atom   19 type  1   force =     0.00132583    0.00352525   -0.00303006
     atom   20 type  1   force =    -0.00132583   -0.00352525    0.00303006
     atom   21 type  2   force =    -0.00235330   -0.00354758    0.00100507
     atom   22 type  2   force =     0.00235330    0.00354758   -0.00100507
     atom   23 type  2   force =     0.00073029   -0.00096228   -0.00047944
     atom   24 type  2   force =    -0.00073029    0.00096228    0.00047944
     atom   25 type  2   force =     0.00027927   -0.00160384   -0.00117632
     atom   26 type  2   force =    -0.00027927    0.00160384    0.00117632
     atom   27 type  2   force =    -0.00038442    0.00061416    0.00123860
     atom   28 type  2   force =     0.00038442   -0.00061416   -0.00123860
     atom   29 type  1   force =     0.00163522   -0.00207354    0.00108092
     atom   30 type  1   force =    -0.00163522    0.00207354   -0.00108092
     atom   31 type  2   force =    -0.00182433   -0.00111466   -0.00238859
     atom   32 type  2   force =     0.00182433    0.00111466    0.00238859
     atom   33 type  2   force =    -0.00105587    0.00030742   -0.00090070
     atom   34 type  2   force =     0.00105587   -0.00030742    0.00090070
     atom   35 type  3   force =     0.00042871   -0.00095489    0.00059946
     atom   36 type  3   force =    -0.00042871    0.00095489   -0.00059946
     atom   37 type  3   force =     0.00209252   -0.00238914   -0.00529207
     atom   38 type  3   force =    -0.00209252    0.00238914    0.00529207
     atom   39 type  3   force =    -0.00030577    0.00017590   -0.00097579
     atom   40 type  3   force =     0.00030577   -0.00017590    0.00097579
     atom   41 type  3   force =     0.00020554    0.00266076    0.00093421
     atom   42 type  3   force =    -0.00020554   -0.00266076   -0.00093421
     atom   43 type  3   force =    -0.00142890   -0.00020208    0.00376977
     atom   44 type  3   force =     0.00142890    0.00020208   -0.00376977
     atom   45 type  3   force =     0.00028949    0.00015757   -0.00019568
     atom   46 type  3   force =    -0.00028949   -0.00015757    0.00019568
     atom   47 type  3   force =    -0.00193766   -0.00048170   -0.00015674
     atom   48 type  3   force =     0.00193766    0.00048170    0.00015674
     atom   49 type  3   force =     0.00107904   -0.00061819    0.00050555
     atom   50 type  3   force =    -0.00107904    0.00061819   -0.00050555
     atom   51 type  3   force =    -0.00053201    0.00132729   -0.00129785
     atom   52 type  3   force =     0.00053201   -0.00132729    0.00129785
     atom   53 type  3   force =    -0.00069787    0.00052932    0.00042182
     atom   54 type  3   force =     0.00069787   -0.00052932   -0.00042182
     atom   55 type  3   force =    -0.00037838   -0.00025610    0.00123317
     atom   56 type  3   force =     0.00037838    0.00025610   -0.00123317
     atom   57 type  3   force =    -0.00108012    0.00092087   -0.00006789
     atom   58 type  3   force =     0.00108012   -0.00092087    0.00006789
     atom   59 type  3   force =    -0.00094972    0.00080891    0.00022021
     atom   60 type  3   force =     0.00094972   -0.00080891   -0.00022021
     atom   61 type  3   force =    -0.00076937    0.00020131    0.00063045
     atom   62 type  3   force =     0.00076937   -0.00020131   -0.00063045

     Total force =     0.023523     Total SCF correction =     0.000154


     Computing stress (Cartesian axis) and pressure

          total   stress  (Ry/bohr**3)                   (kbar)     P=  -10.58
  -0.00006956   0.00000190   0.00000942        -10.23      0.28      1.39
   0.00000190  -0.00006569   0.00000305          0.28     -9.66      0.45
   0.00000942   0.00000305  -0.00008053          1.39      0.45    -11.85


     Writing output data file scf.save
 
     init_run     :     19.93s CPU     20.57s WALL (       1 calls)
     electrons    :    501.10s CPU    523.82s WALL (       1 calls)
     forces       :      9.93s CPU     10.04s WALL (       1 calls)
     stress       :     40.34s CPU     40.57s WALL (       1 calls)

     Called by init_run:
     wfcinit      :     12.13s CPU     12.67s WALL (       1 calls)
     potinit      :      2.73s CPU      2.76s WALL (       1 calls)

     Called by electrons:
     c_bands      :    436.51s CPU    456.15s WALL (      17 calls)
     sum_band     :     55.76s CPU     58.14s WALL (      17 calls)
     v_of_rho     :      1.43s CPU      1.58s WALL (      18 calls)
     newd         :      2.62s CPU      3.15s WALL (      18 calls)
     PAW_pot      :      4.17s CPU      4.18s WALL (      18 calls)
     mix_rho      :      0.37s CPU      0.40s WALL (      17 calls)

     Called by c_bands:
     init_us_2    :      5.05s CPU      5.06s WALL (     370 calls)
     cegterg      :    420.75s CPU    440.33s WALL (     170 calls)

     Called by sum_band:
     sum_band:bec :      0.04s CPU      0.04s WALL (     170 calls)
     addusdens    :      2.92s CPU      3.44s WALL (      17 calls)

     Called by *egterg:
     h_psi        :    280.99s CPU    293.87s WALL (     808 calls)
     s_psi        :     35.35s CPU     35.36s WALL (     808 calls)
     g_psi        :      1.92s CPU      1.92s WALL (     628 calls)
     cdiaghg      :     19.77s CPU     19.77s WALL (     798 calls)

     Called by h_psi:
     h_psi:pot    :    277.91s CPU    290.75s WALL (     808 calls)
     h_psi:calbec :     33.99s CPU     34.12s WALL (     808 calls)
     vloc_psi     :    208.49s CPU    221.18s WALL (     808 calls)
     add_vuspsi   :     35.43s CPU     35.44s WALL (     808 calls)

     General routines
     calbec       :     50.51s CPU     50.69s WALL (    1028 calls)
     fft          :      2.10s CPU      2.36s WALL (     258 calls)
     fftw         :    223.42s CPU    237.48s WALL (  120394 calls)
 
     Parallel routines
     fft_scatter  :     61.22s CPU     69.92s WALL (  120652 calls)
 
     PWSCF        :  9m36.05s CPU    10m 0.88s WALL

 
   This run was terminated on:  11: 6: 6  18Dec2017            

=------------------------------------------------------------------------------=
   JOB DONE.
=------------------------------------------------------------------------------=
