
     Program PWSCF v.6.1 (svn rev. 13369) starts on 22Dec2017 at 21: 8:48 

     This program is part of the open-source Quantum ESPRESSO suite
     for quantum simulation of materials; please cite
         "P. Giannozzi et al., J. Phys.:Condens. Matter 21 395502 (2009);
          URL http://www.quantum-espresso.org", 
     in publications or presentations arising from this work. More details at
     http://www.quantum-espresso.org/quote

     Parallel version (MPI), running on     8 processors
     R & G space division:  proc/nbgrp/npool/nimage =       8
     Waiting for input...
     Reading input from standard input

     Current dimensions of program PWSCF are:
     Max number of different atomic species (ntypx) = 10
     Max number of k-points (npk) =  40000
     Max angular momentum in pseudopotentials (lmaxx) =  3
               file C.pbe-n-kjpaw_psl.0.1.UPF: wavefunction(s)  2P renormalized
               file N.pbe-n-kjpaw_psl.0.1.UPF: wavefunction(s)  2P renormalized
               file H.pbe-kjpaw_psl.0.1.UPF: wavefunction(s)  1S renormalized
               file O.pbe-n-kjpaw_psl.0.1.UPF: wavefunction(s)  2P renormalized

     -------------------------------------
     Parameters for Dispersion Correction:
     -------------------------------------
       atom      VdW radius       C_6     

        C          2.744         60.710
        N          2.640         42.670
        H          1.892          4.857
        O          2.536         24.284

     Subspace diagonalization in iterative solution of the eigenvalue problem:
     a serial algorithm will be used

 
     Parallelization info
     --------------------
     sticks:   dense  smooth     PW     G-vecs:    dense   smooth      PW
     Min        2492    2492    663               141186   141186   19358
     Max        2493    2493    664               141188   141188   19359
     Sum       19937   19937   5307              1129495  1129495  154871
 


     bravais-lattice index     =            0
     lattice parameter (alat)  =      10.4067  a.u.
     unit-cell volume          =    8361.2714 (a.u.)^3
     number of atoms/cell      =          136
     number of atomic types    =            4
     number of electrons       =       408.00
     number of Kohn-Sham states=          244
     kinetic-energy cutoff     =     100.0000  Ry
     charge density cutoff     =     400.0000  Ry
     convergence threshold     =      1.0E-08
     mixing beta               =       0.5000
     number of iterations used =            8  plain     mixing
     Exchange-correlation      =  SLA  PW   PBX  PBC ( 1  4  3  4 0 0)

     celldm(1)=  10.406722  celldm(2)=   0.000000  celldm(3)=   0.000000
     celldm(4)=   0.000000  celldm(5)=   0.000000  celldm(6)=   0.000000

     crystal axes: (cart. coord. in units of alat)
               a(1) = (   1.000000   0.000000   0.000000 )  
               a(2) = (   0.000000   5.781551   0.000000 )  
               a(3) = (  -0.357786   0.000000   1.283176 )  

     reciprocal axes: (cart. coord. in units 2 pi/alat)
               b(1) = (  1.000000  0.000000  0.278829 )  
               b(2) = (  0.000000  0.172964  0.000000 )  
               b(3) = (  0.000000  0.000000  0.779316 )  


     PseudoPot. # 1 for  C read from file:
     /scratch/ahofstet/pseudo/C.pbe-n-kjpaw_psl.0.1.UPF
     MD5 check sum: 430fe95172b1e11ef3f8ed03bac87931
     Pseudo is Projector augmented-wave + core cor, Zval =  4.0
     Generated using "atomic" code by A. Dal Corso  v.5.0.99 svn rev. 10869
     Shape of augmentation charge: BESSEL
     Using radial grid of 1073 points,  4 beta functions with: 
                l(1) =   0
                l(2) =   0
                l(3) =   1
                l(4) =   1
     Q(r) pseudized with 0 coefficients 


     PseudoPot. # 2 for  N read from file:
     /scratch/ahofstet/pseudo/N.pbe-n-kjpaw_psl.0.1.UPF
     MD5 check sum: f73187c8b701007e77325f868c9291d7
     Pseudo is Projector augmented-wave + core cor, Zval =  5.0
     Generated using "atomic" code by A. Dal Corso  v.5.0.99 svn rev. 10869
     Shape of augmentation charge: PSQ
     Using radial grid of 1085 points,  4 beta functions with: 
                l(1) =   0
                l(2) =   0
                l(3) =   1
                l(4) =   1
     Q(r) pseudized with 0 coefficients 


     PseudoPot. # 3 for  H read from file:
     /scratch/ahofstet/pseudo/H.pbe-kjpaw_psl.0.1.UPF
     MD5 check sum: 94e484f906d9e9773b2f6e52662335b2
     Pseudo is Projector augmented-wave, Zval =  1.0
     Generated using "atomic" code by A. Dal Corso  v.5.0.99 svn rev. 10869
     Shape of augmentation charge: PSQ
     Using radial grid of  929 points,  2 beta functions with: 
                l(1) =   0
                l(2) =   0
     Q(r) pseudized with 0 coefficients 


     PseudoPot. # 4 for  O read from file:
     /scratch/ahofstet/pseudo/O.pbe-n-kjpaw_psl.0.1.UPF
     MD5 check sum: 3f94a2996a3169367d6eb21d9b593f20
     Pseudo is Projector augmented-wave + core cor, Zval =  6.0
     Generated using "atomic" code by A. Dal Corso  v.5.0.99 svn rev. 10869
     Shape of augmentation charge: BESSEL
     Using radial grid of 1095 points,  4 beta functions with: 
                l(1) =   0
                l(2) =   0
                l(3) =   1
                l(4) =   1
     Q(r) pseudized with 0 coefficients 


     atomic species   valence    mass     pseudopotential
        C              4.00    12.01070      C( 1.00)
        N              5.00    14.00670      N( 1.00)
        H              1.00     1.00794      H( 1.00)
        O              6.00    15.99940      O( 1.00)

      4 Sym. Ops., with inversion, found ( 2 have fractional translation)



   Cartesian axes

     site n.     atom                  positions (alat units)
         1           C   tau(   1) = (   0.7305190   2.1644281   0.7015114  )
         2           C   tau(   2) = (  -0.2671985   5.0552034   1.2232522  )
         3           C   tau(   3) = (  -0.0883054   3.6171227   0.5816644  )
         4           C   tau(   4) = (   0.9094122   0.7263473   0.0599235  )
         5           C   tau(   5) = (  -0.0489924   2.2315896   0.8564600  )
         6           C   tau(   6) = (   0.5123129   5.1223649   1.0683036  )
         7           C   tau(   7) = (   0.6912061   3.5499612   0.4267157  )
         8           C   tau(   8) = (   0.1299008   0.6591858   0.2148722  )
         9           C   tau(   9) = (  -0.0434044   2.4984738   0.9083761  )
        10           C   tau(  10) = (   0.5067249   5.3892492   1.0163875  )
        11           C   tau(  11) = (   0.6856181   3.2830769   0.3747996  )
        12           C   tau(  12) = (   0.1354888   0.3923015   0.2667882  )
        13           C   tau(  13) = (   0.1196511   2.6713773   0.8284554  )
        14           C   tau(  14) = (   0.3436694   5.5621527   1.0963082  )
        15           C   tau(  15) = (   0.5225626   3.1101734   0.4547204  )
        16           C   tau(  16) = (   0.2985443   0.2193981   0.1868675  )
        17           C   tau(  17) = (  -0.1599782   2.8439670   1.0561128  )
        18           C   tau(  18) = (   0.6232987   5.7347424   0.8686508  )
        19           C   tau(  19) = (   0.8021919   2.9375837   0.2270629  )
        20           C   tau(  20) = (   0.0189149   0.0468083   0.4145249  )
        21           C   tau(  21) = (   0.2078294   1.8788896   0.2523175  )
        22           C   tau(  22) = (   0.6132775   4.7696650   0.3892704  )
        23           C   tau(  23) = (   0.4343843   3.9026612   1.0308582  )
        24           C   tau(  24) = (   0.0289362   1.0118858   0.8939054  )
        25           C   tau(  25) = (   0.3182104   1.4898877   0.3010451  )
        26           C   tau(  26) = (   0.5028965   4.3806631   0.3405428  )
        27           C   tau(  27) = (   0.3240033   4.2916630   0.9821307  )
        28           C   tau(  28) = (   0.1393172   1.4008876   0.9426329  )
        29           C   tau(  29) = (   0.5095435   1.5594934   0.4545586  )
        30           C   tau(  30) = (   0.3115633   4.4502688   0.1870293  )
        31           C   tau(  31) = (   0.1326701   4.2220574   0.8286172  )
        32           C   tau(  32) = (   0.3306504   1.3312820   1.0961464  )
        33           C   tau(  33) = (   0.5447107   1.8103148   0.5054788  )
        34           C   tau(  34) = (   0.2763961   4.7010902   0.1361091  )
        35           C   tau(  35) = (   0.0975030   3.9712360   0.7776970  )
        36           C   tau(  36) = (   0.3658176   1.0804606   1.1470666  )
        37           C   tau(  37) = (   0.4862911   1.1635110   0.4222751  )
        38           C   tau(  38) = (   0.3348158   4.0542864   0.2193128  )
        39           C   tau(  39) = (   0.1559226   4.6180397   0.8609006  )
        40           C   tau(  40) = (   0.3073979   1.7272643   1.0638630  )
        41           H   tau(  41) = (   0.5610271   2.2229257   0.7959763  )
        42           H   tau(  42) = (  -0.0977066   5.1137011   1.1287873  )
        43           H   tau(  43) = (   0.0811866   3.5586250   0.4871994  )
        44           H   tau(  44) = (   0.7399203   0.6678497   0.1543885  )
        45           H   tau(  45) = (   0.7399743   2.2648467   0.5291582  )
        46           H   tau(  46) = (   0.0811325   5.1556221   0.1124297  )
        47           H   tau(  47) = (  -0.0977607   3.5167041   0.7540175  )
        48           H   tau(  48) = (   0.5610812   0.6259287   1.1707461  )
        49           H   tau(  49) = (   0.1212979   2.1794442   0.7614397  )
        50           H   tau(  50) = (   0.3420226   5.0702196   1.1633239  )
        51           H   tau(  51) = (   0.5209158   3.6021065   0.5217361  )
        52           H   tau(  52) = (   0.3001911   0.7113311   0.1198518  )
        53           H   tau(  53) = (  -0.0537438   2.1291062   1.0279725  )
        54           H   tau(  54) = (   0.5170643   5.0198816   0.8967911  )
        55           H   tau(  55) = (   0.6959575   3.6524446   0.2552032  )
        56           H   tau(  56) = (   0.1251494   0.7616692   0.3863846  )
        57           H   tau(  57) = (   0.2776103   2.6575747   0.7123616  )
        58           H   tau(  58) = (   0.1857102   5.5483500   1.2124020  )
        59           H   tau(  59) = (   0.3646034   3.1239761   0.5708141  )
        60           H   tau(  60) = (   0.4565035   0.2332007   0.0707738  )
        61           H   tau(  61) = (   0.1294360   3.0559709   0.9250542  )
        62           H   tau(  62) = (   0.3338845   0.1651955   0.9997095  )
        63           H   tau(  63) = (   0.5127777   2.7255798   0.3581216  )
        64           H   tau(  64) = (   0.3083292   5.6163552   0.2834663  )
        65           H   tau(  65) = (  -0.2559698   2.9873246   1.1513904  )
        66           H   tau(  66) = (   0.7192903   0.0965492   0.7733732  )
        67           H   tau(  67) = (   0.8981835   2.7942261   0.1317853  )
        68           H   tau(  68) = (  -0.0770766   5.6850015   0.5098025  )
        69           H   tau(  69) = (   0.3944647   2.2689981   0.3382426  )
        70           H   tau(  70) = (   0.4266421   5.1597735   0.3033453  )
        71           H   tau(  71) = (   0.2477490   3.5125526   0.9449331  )
        72           H   tau(  72) = (   0.2155715   0.6217773   0.9798305  )
        73           H   tau(  73) = (   0.2589085   2.4483439   0.1555547  )
        74           H   tau(  74) = (   0.5621983   5.3391192   0.4860331  )
        75           H   tau(  75) = (   0.3833051   3.3332069   1.1276210  )
        76           H   tau(  76) = (   0.0800154   0.4424315   0.7971426  )
        77           H   tau(  77) = (   0.5516154   2.4164474   1.1951141  )
        78           H   tau(  78) = (  -0.0882949   5.3072228   0.7296495  )
        79           H   tau(  79) = (   0.0905983   3.3651034   0.0880616  )
        80           H   tau(  80) = (   0.7305086   0.4743280   0.5535262  )
        81           H   tau(  81) = (   0.6749756   2.3557001   0.0693845  )
        82           H   tau(  82) = (   0.1461312   5.2464755   0.5722034  )
        83           H   tau(  83) = (  -0.0327619   3.4258506   1.2137912  )
        84           H   tau(  84) = (   0.4960825   0.5350753   0.7109724  )
        85           H   tau(  85) = (   0.0857538   2.0154598   0.1746312  )
        86           H   tau(  86) = (   0.7353531   4.9062352   0.4669567  )
        87           H   tau(  87) = (   0.5564599   3.7660909   1.1085446  )
        88           H   tau(  88) = (  -0.0931394   0.8753156   0.8162190  )
        89           H   tau(  89) = (   0.8457151   1.7944879   0.7347652  )
        90           H   tau(  90) = (  -0.3823945   4.6852632   1.1899985  )
        91           H   tau(  91) = (  -0.2035014   3.9870629   0.5484106  )
        92           H   tau(  92) = (   1.0246082   1.0962875   0.0931773  )
        93           H   tau(  93) = (   0.7644645   1.3170464   0.6518958  )
        94           H   tau(  94) = (  -0.3011440   4.2078218   1.2728678  )
        95           H   tau(  95) = (  -0.1222508   4.4645043   0.6312799  )
        96           H   tau(  96) = (   0.9433576   1.5737289   0.0103080  )
        97           H   tau(  97) = (   0.5312453   0.9736503   0.4552239  )
        98           H   tau(  98) = (   0.2898615   3.8644256   0.1863639  )
        99           H   tau(  99) = (   0.1109683   4.8079005   0.8279518  )
       100           H   tau( 100) = (   0.3523522   1.9171251   1.0968118  )
       101           N   tau( 101) = (   0.3829005   1.9651453   0.3997635  )
       102           N   tau( 102) = (   0.4382064   4.8559207   0.2418243  )
       103           N   tau( 103) = (   0.2593132   3.8164055   0.8834122  )
       104           N   tau( 104) = (   0.2040073   0.9256301   1.0413514  )
       105           N   tau( 105) = (   0.0421626   2.8891079   0.9250195  )
       106           N   tau( 106) = (   0.4211580   5.7798832   0.9997442  )
       107           N   tau( 107) = (   0.6000511   2.8924429   0.3581563  )
       108           N   tau( 108) = (   0.2210557   0.0016675   0.2834316  )
       109           N   tau( 109) = (  -0.2181032   2.6088929   1.0514447  )
       110           N   tau( 110) = (   0.6814237   5.4996683   0.8733190  )
       111           N   tau( 111) = (   0.8603169   3.1726579   0.2317311  )
       112           N   tau( 112) = (  -0.0392100   0.2818825   0.4098568  )
       113           N   tau( 113) = (   0.1663913   1.6491308   0.1924914  )
       114           N   tau( 114) = (   0.6547155   4.5399062   0.4490965  )
       115           N   tau( 115) = (   0.4758224   4.1324199   1.0906843  )
       116           N   tau( 116) = (  -0.0125019   1.2416445   0.8340793  )
       117           N   tau( 117) = (   0.7173412   1.9038529   0.6518146  )
       118           N   tau( 118) = (   0.1037656   4.7946282  -0.0102267  )
       119           N   tau( 119) = (  -0.0751275   3.8776979   0.6313612  )
       120           N   tau( 120) = (   0.5384481   0.9869225   1.2934024  )
       121           N   tau( 121) = (   0.6144127   1.3451897   0.5301371  )
       122           N   tau( 122) = (   0.2066942   4.2359651   0.1114508  )
       123           N   tau( 123) = (   0.0278010   4.4363610   0.7530387  )
       124           N   tau( 124) = (   0.4355195   1.5455856   1.1717249  )
       125           N   tau( 125) = (   0.3061724   1.2417439   0.2806999  )
       126           N   tau( 126) = (   0.5149344   4.1325193   0.3608880  )
       127           N   tau( 127) = (   0.3360413   4.5398069   1.0024759  )
       128           N   tau( 128) = (   0.1272793   1.6490315   0.9222877  )
       129           O   tau( 129) = (   0.3988392   2.4378216   0.2640980  )
       130           O   tau( 130) = (   0.4222677   5.3285969   0.3774899  )
       131           O   tau( 131) = (   0.2433745   3.3437292   1.0190778  )
       132           O   tau( 132) = (   0.2199460   0.4529538   0.9056858  )
       133           O   tau( 133) = (   0.8256594   2.2857488   0.0042578  )
       134           O   tau( 134) = (  -0.0045526   5.1765241   0.6373301  )
       135           O   tau( 135) = (  -0.1834457   3.4958020   1.2789180  )
       136           O   tau( 136) = (   0.6467663   0.6050266   0.6458456  )

     number of k points=     7
                       cart. coord. in units 2pi/alat
        k(    1) = (   0.0000000   0.0000000   0.0000000), wk =   0.1666667
        k(    2) = (   0.0000000   0.0000000   0.2597722), wk =   0.3333333
        k(    3) = (   0.2500000   0.0000000   0.0697072), wk =   0.3333333
        k(    4) = (   0.2500000   0.0000000   0.3294794), wk =   0.3333333
        k(    5) = (   0.2500000   0.0000000  -0.1900650), wk =   0.3333333
        k(    6) = (  -0.5000000   0.0000000  -0.1394144), wk =   0.1666667
        k(    7) = (  -0.5000000   0.0000000   0.1203578), wk =   0.3333333

     Dense  grid:  1129495 G-vectors     FFT dimensions: (  72, 384,  90)

     Estimated max dynamical RAM per process >    1364.99MB

     Estimated total allocated dynamical RAM >   10919.88MB

     Check: negative/imaginary core charge=   -0.000002    0.000000

     Initial potential from superposition of free atoms

     starting charge  407.99755, renormalised to  408.00000
     Starting wfc are  364 randomized atomic wfcs
     Checking if some PAW data can be deallocated... 

     total cpu time spent up to now is       79.9 secs

     per-process dynamical memory:   884.6 Mb

     Self-consistent Calculation

     iteration #  1     ecut=   100.00 Ry     beta=0.50
     Davidson diagonalization with overlap
     ethr =  1.00E-02,  avg # of iterations =  3.6

     total cpu time spent up to now is      295.2 secs

     total energy              =   -1930.57893638 Ry
     Harris-Foulkes estimate   =   -1937.63768096 Ry
     estimated scf accuracy    <      13.29192539 Ry

     iteration #  2     ecut=   100.00 Ry     beta=0.50
     Davidson diagonalization with overlap
     ethr =  3.26E-03,  avg # of iterations =  3.0

     total cpu time spent up to now is      427.6 secs

     total energy              =   -1932.37216893 Ry
     Harris-Foulkes estimate   =   -1933.02905302 Ry
     estimated scf accuracy    <       1.49107810 Ry

     iteration #  3     ecut=   100.00 Ry     beta=0.50
     Davidson diagonalization with overlap
     ethr =  3.65E-04,  avg # of iterations =  8.0

     total cpu time spent up to now is      660.8 secs

     total energy              =   -1932.98384012 Ry
     Harris-Foulkes estimate   =   -1933.16344384 Ry
     estimated scf accuracy    <       0.45327377 Ry

     iteration #  4     ecut=   100.00 Ry     beta=0.50
     Davidson diagonalization with overlap
     ethr =  1.11E-04,  avg # of iterations =  2.0

     total cpu time spent up to now is      775.8 secs

     total energy              =   -1932.99118184 Ry
     Harris-Foulkes estimate   =   -1933.02738506 Ry
     estimated scf accuracy    <       0.08736745 Ry

     iteration #  5     ecut=   100.00 Ry     beta=0.50
     Davidson diagonalization with overlap
     ethr =  2.14E-05,  avg # of iterations =  8.7

     total cpu time spent up to now is     1024.1 secs

     total energy              =   -1933.03810525 Ry
     Harris-Foulkes estimate   =   -1933.06715673 Ry
     estimated scf accuracy    <       0.08188272 Ry

     iteration #  6     ecut=   100.00 Ry     beta=0.50
     Davidson diagonalization with overlap
     ethr =  2.01E-05,  avg # of iterations =  1.0

     total cpu time spent up to now is     1131.0 secs

     total energy              =   -1933.02572371 Ry
     Harris-Foulkes estimate   =   -1933.04190553 Ry
     estimated scf accuracy    <       0.02976732 Ry

     iteration #  7     ecut=   100.00 Ry     beta=0.50
     Davidson diagonalization with overlap
     ethr =  7.30E-06,  avg # of iterations =  6.9

     total cpu time spent up to now is     1348.1 secs

     total energy              =   -1933.04095091 Ry
     Harris-Foulkes estimate   =   -1933.04238070 Ry
     estimated scf accuracy    <       0.00548091 Ry

     iteration #  8     ecut=   100.00 Ry     beta=0.50
     Davidson diagonalization with overlap
     ethr =  1.34E-06,  avg # of iterations =  1.9

     total cpu time spent up to now is     1457.4 secs

     total energy              =   -1933.03966307 Ry
     Harris-Foulkes estimate   =   -1933.04112798 Ry
     estimated scf accuracy    <       0.00262644 Ry

     iteration #  9     ecut=   100.00 Ry     beta=0.50
     Davidson diagonalization with overlap
     ethr =  6.44E-07,  avg # of iterations =  4.0

     total cpu time spent up to now is     1637.8 secs

     total energy              =   -1933.04081226 Ry
     Harris-Foulkes estimate   =   -1933.04099330 Ry
     estimated scf accuracy    <       0.00052091 Ry

     iteration # 10     ecut=   100.00 Ry     beta=0.50
     Davidson diagonalization with overlap
     ethr =  1.28E-07,  avg # of iterations =  1.0

     total cpu time spent up to now is     1744.7 secs

     total energy              =   -1933.04070328 Ry
     Harris-Foulkes estimate   =   -1933.04083284 Ry
     estimated scf accuracy    <       0.00019838 Ry

     iteration # 11     ecut=   100.00 Ry     beta=0.50
     Davidson diagonalization with overlap
     ethr =  4.86E-08,  avg # of iterations =  4.0

     total cpu time spent up to now is     1945.7 secs

     total energy              =   -1933.04084175 Ry
     Harris-Foulkes estimate   =   -1933.04088956 Ry
     estimated scf accuracy    <       0.00015969 Ry

     iteration # 12     ecut=   100.00 Ry     beta=0.50
     Davidson diagonalization with overlap
     ethr =  3.91E-08,  avg # of iterations =  1.0

     total cpu time spent up to now is     2052.5 secs

     total energy              =   -1933.04080936 Ry
     Harris-Foulkes estimate   =   -1933.04084519 Ry
     estimated scf accuracy    <       0.00007428 Ry

     iteration # 13     ecut=   100.00 Ry     beta=0.50
     Davidson diagonalization with overlap
     ethr =  1.82E-08,  avg # of iterations =  4.0

     total cpu time spent up to now is     2228.0 secs

     total energy              =   -1933.04084064 Ry
     Harris-Foulkes estimate   =   -1933.04084188 Ry
     estimated scf accuracy    <       0.00000537 Ry

     iteration # 14     ecut=   100.00 Ry     beta=0.50
     Davidson diagonalization with overlap
     ethr =  1.32E-09,  avg # of iterations =  1.1

     total cpu time spent up to now is     2335.3 secs

     total energy              =   -1933.04083905 Ry
     Harris-Foulkes estimate   =   -1933.04084083 Ry
     estimated scf accuracy    <       0.00000319 Ry

     iteration # 15     ecut=   100.00 Ry     beta=0.50
     Davidson diagonalization with overlap
     ethr =  7.82E-10,  avg # of iterations =  4.0

     total cpu time spent up to now is     2508.4 secs

     total energy              =   -1933.04084037 Ry
     Harris-Foulkes estimate   =   -1933.04084049 Ry
     estimated scf accuracy    <       0.00000040 Ry

     iteration # 16     ecut=   100.00 Ry     beta=0.50
     Davidson diagonalization with overlap
     ethr =  9.69E-11,  avg # of iterations =  1.1

     total cpu time spent up to now is     2615.3 secs

     total energy              =   -1933.04084028 Ry
     Harris-Foulkes estimate   =   -1933.04084039 Ry
     estimated scf accuracy    <       0.00000018 Ry

     iteration # 17     ecut=   100.00 Ry     beta=0.50
     Davidson diagonalization with overlap
     ethr =  4.53E-11,  avg # of iterations =  4.0

     total cpu time spent up to now is     2799.8 secs

     total energy              =   -1933.04084038 Ry
     Harris-Foulkes estimate   =   -1933.04084039 Ry
     estimated scf accuracy    <       0.00000005 Ry

     iteration # 18     ecut=   100.00 Ry     beta=0.50
     Davidson diagonalization with overlap
     ethr =  1.30E-11,  avg # of iterations =  1.0

     total cpu time spent up to now is     2906.6 secs

     total energy              =   -1933.04084037 Ry
     Harris-Foulkes estimate   =   -1933.04084038 Ry
     estimated scf accuracy    <       0.00000003 Ry

     iteration # 19     ecut=   100.00 Ry     beta=0.50
     Davidson diagonalization with overlap
     ethr =  6.13E-12,  avg # of iterations =  4.0

     total cpu time spent up to now is     3078.9 secs

     End of self-consistent calculation

          k = 0.0000 0.0000 0.0000 (141225 PWs)   bands (ev):

   -19.1906 -19.1904 -19.0126 -19.0119 -18.9206 -18.9203 -18.8548 -18.8548
   -18.4940 -18.4891 -18.4612 -18.4564 -18.0252 -18.0250 -17.9238 -17.9235
   -17.5672 -17.5672 -17.5643 -17.5642 -17.0749 -17.0748 -16.9799 -16.9797
   -15.4889 -15.4847 -15.4326 -15.4283 -15.1940 -15.1932 -15.1700 -15.1698
   -14.8101 -14.8077 -14.6778 -14.6760 -13.0738 -13.0556 -13.0530 -13.0331
   -12.3917 -12.3668 -12.3455 -12.3213 -11.4347 -11.4245 -11.3815 -11.3726
    -9.9413  -9.9293  -9.8822  -9.8725  -9.7327  -9.7310  -9.7089  -9.7073
    -9.0345  -9.0157  -8.9052  -8.8833  -8.4873  -8.4837  -8.4705  -8.4653
    -8.2664  -8.2664  -8.2400  -8.2375  -7.9281  -7.8745  -7.8663  -7.7890
    -7.7445  -7.7370  -7.3843  -7.2986  -6.9576  -6.8694  -6.8297  -6.8208
    -6.6509  -6.6448  -6.5447  -6.4960  -6.3805  -6.3655  -6.3417  -6.3371
    -6.0097  -5.9941  -5.9153  -5.8934  -5.7008  -5.7001  -5.6428  -5.6392
    -5.3894  -5.3782  -5.3382  -5.3100  -5.2721  -5.2659  -5.0055  -4.9868
    -4.9653  -4.9505  -4.8833  -4.8580  -4.5061  -4.4400  -4.4251  -4.4008
    -4.3480  -4.3409  -4.3202  -4.2860  -4.1999  -4.1825  -4.0333  -4.0027
    -3.9786  -3.9746  -3.9162  -3.9040  -3.8861  -3.8540  -3.7910  -3.7844
    -3.6753  -3.6535  -3.5641  -3.5013  -3.4176  -3.3825  -3.1766  -3.0954
    -3.0735  -3.0611  -3.0087  -3.0048  -2.7205  -2.6749  -2.6469  -2.6403
    -2.6296  -2.6266  -2.6112  -2.5694  -2.5335  -2.5313  -2.4237  -2.4197
    -2.1949  -2.1555  -2.1069  -2.1012  -1.8195  -1.7930  -1.7769  -1.7483
    -1.5659  -1.5417  -0.8731  -0.8599  -0.8198  -0.8198  -0.6950  -0.6574
    -0.6509  -0.6146  -0.5647  -0.5376  -0.4975  -0.4572  -0.4237  -0.4200
    -0.3594  -0.3542  -0.3464  -0.3370  -0.2996  -0.2628  -0.2018  -0.1921
    -0.0206  -0.0081   0.0438   0.0440   0.0525   0.0553   0.1529   0.1569
     0.1977   0.1983   0.3385   0.3387   0.8323   0.8370   1.0684   1.0707
     1.2929   1.2939   1.3328   1.3346   4.9533   4.9535   4.9743   4.9746
     5.3975   5.4010   5.4397   5.4434   5.8670   5.8745   5.8862   5.8919
     6.2681   6.2858   6.4709   6.5088   6.5840   6.6071   6.6918   6.6970
     6.8092   6.8148   6.9035   6.9039   7.2063   7.2148   7.7258   7.8070
     8.1626   8.4830   8.5562   8.7016   8.7334   8.7678   8.7764   8.7766
     8.8964   8.9655   8.9858   9.0502

          k = 0.0000 0.0000 0.2598 (141296 PWs)   bands (ev):

   -19.1485 -19.1483 -19.0594 -19.0593 -18.9068 -18.9067 -18.8683 -18.8682
   -18.4904 -18.4881 -18.4623 -18.4599 -18.0023 -18.0000 -17.9515 -17.9494
   -17.5670 -17.5669 -17.5642 -17.5640 -17.0466 -17.0466 -16.9993 -16.9992
   -15.4845 -15.4802 -15.4576 -15.4532 -15.1893 -15.1888 -15.1775 -15.1770
   -14.7642 -14.7624 -14.6995 -14.6980 -13.0618 -13.0525 -13.0429 -13.0329
   -12.3863 -12.3635 -12.3595 -12.3366 -11.4380 -11.4330 -11.3801 -11.3762
    -9.9437  -9.9347  -9.9127  -9.9034  -9.7133  -9.7101  -9.7019  -9.7006
    -8.9990  -8.9814  -8.9333  -8.9148  -8.5214  -8.5199  -8.4643  -8.4607
    -8.3375  -8.3305  -8.3126  -8.3035  -7.8199  -7.7679  -7.7678  -7.7121
    -7.6356  -7.6333  -7.4372  -7.3971  -6.9641  -6.9015  -6.8858  -6.8323
    -6.6439  -6.6387  -6.5130  -6.4967  -6.3788  -6.3638  -6.3624  -6.3509
    -5.9427  -5.9249  -5.8875  -5.8785  -5.7536  -5.7375  -5.6580  -5.6568
    -5.3596  -5.3496  -5.3176  -5.3116  -5.1487  -5.1296  -5.0238  -5.0056
    -4.9170  -4.8906  -4.8215  -4.7905  -4.6276  -4.5911  -4.5580  -4.5237
    -4.4486  -4.3696  -4.3558  -4.2952  -4.2435  -4.2284  -4.0631  -4.0600
    -3.9739  -3.9502  -3.9396  -3.9366  -3.8770  -3.8413  -3.7648  -3.7558
    -3.6331  -3.6006  -3.5980  -3.5101  -3.3654  -3.2779  -3.2239  -3.1314
    -3.1088  -3.0962  -2.9913  -2.9863  -2.7215  -2.7048  -2.6625  -2.6476
    -2.6382  -2.6344  -2.6061  -2.5527  -2.5390  -2.5204  -2.4883  -2.4246
    -2.1512  -2.1239  -2.1049  -2.0806  -1.7985  -1.7718  -1.7532  -1.7283
    -1.3071  -1.3000  -0.9239  -0.8842  -0.8608  -0.8420  -0.8128  -0.7857
    -0.6299  -0.6288  -0.5641  -0.5508  -0.5304  -0.4837  -0.4805  -0.4073
    -0.4005  -0.3862  -0.3717  -0.3606  -0.2879  -0.2609  -0.1718  -0.1688
     0.0110   0.0135   0.0388   0.0496   0.0565   0.0731   0.1223   0.1279
     0.1728   0.1838   0.2548   0.2622   0.8342   0.8364   1.0354   1.0377
     1.3421   1.3447   1.3635   1.3658   4.9460   4.9482   4.9536   4.9559
     5.4266   5.4278   5.4455   5.4478   5.6856   5.6858   6.0537   6.0591
     6.4362   6.4440   6.6140   6.6309   6.6545   6.6829   6.6874   6.7015
     6.8604   6.8740   7.0118   7.0228   7.5265   7.6365   7.6391   7.8071
     8.0238   8.0673   8.1193   8.1249   8.3672   8.5184   8.5260   8.5785
     8.7608   8.8680   8.9100   9.0515

          k = 0.2500 0.0000 0.0697 (141120 PWs)   bands (ev):

   -19.1520 -19.1519 -19.0429 -19.0426 -18.9075 -18.9075 -18.8608 -18.8608
   -18.4825 -18.4800 -18.4558 -18.4535 -17.9886 -17.9873 -17.9439 -17.9428
   -17.5771 -17.5770 -17.5748 -17.5746 -17.0469 -17.0468 -17.0336 -17.0335
   -15.4916 -15.4886 -15.4872 -15.4839 -15.1975 -15.1969 -15.1772 -15.1770
   -14.7280 -14.7262 -14.7203 -14.7185 -13.0478 -13.0435 -13.0299 -13.0252
   -12.3773 -12.3695 -12.3562 -12.3494 -11.4341 -11.4321 -11.3875 -11.3865
    -9.9269  -9.9193  -9.9151  -9.9080  -9.7239  -9.7235  -9.7234  -9.7210
    -8.9666  -8.9565  -8.9476  -8.9373  -8.5513  -8.5478  -8.4618  -8.4609
    -8.3363  -8.3340  -8.3319  -8.3244  -7.7965  -7.7863  -7.7190  -7.7146
    -7.6392  -7.6108  -7.3712  -7.3553  -6.9336  -6.9204  -6.8442  -6.8369
    -6.6094  -6.6088  -6.5197  -6.5167  -6.3795  -6.3681  -6.3560  -6.3491
    -5.9258  -5.9084  -5.8977  -5.8919  -5.7572  -5.7561  -5.7061  -5.7016
    -5.4079  -5.4049  -5.3680  -5.3587  -5.3320  -5.3295  -5.0585  -5.0534
    -4.9403  -4.9078  -4.8051  -4.7681  -4.7613  -4.7520  -4.4635  -4.4167
    -4.3850  -4.3416  -4.3175  -4.2444  -4.2262  -4.1756  -4.0790  -4.0715
    -4.0548  -4.0322  -3.9523  -3.9401  -3.8799  -3.8661  -3.7627  -3.7545
    -3.6146  -3.5832  -3.5663  -3.5128  -3.4297  -3.3306  -3.2061  -3.1144
    -3.0465  -3.0261  -3.0133  -2.9624  -2.7178  -2.7046  -2.6486  -2.6380
    -2.5826  -2.5771  -2.5280  -2.5276  -2.4754  -2.4301  -2.4016  -2.3590
    -2.0858  -2.0810  -2.0758  -2.0601  -1.7244  -1.7071  -1.6802  -1.6713
    -1.0930  -1.0813  -1.0688  -1.0651  -0.8358  -0.8282  -0.7965  -0.7924
    -0.5853  -0.5752  -0.4853  -0.4829  -0.4276  -0.4239  -0.3940  -0.3842
    -0.3532  -0.3487  -0.3227  -0.3060  -0.3035  -0.2646  -0.1845  -0.1745
    -0.0018   0.0015   0.0637   0.0786   0.0845   0.0910   0.1736   0.1754
     0.1757   0.1841   0.2051   0.2123   0.8415   0.8444   1.0935   1.0968
     1.2171   1.2239   1.3457   1.3481   4.8817   4.8833   4.8929   4.8938
     5.4006   5.4016   5.4649   5.4659   5.8739   5.8784   6.0114   6.0127
     6.5093   6.5345   6.5552   6.5665   6.5933   6.5970   6.6093   6.6167
     6.8240   6.8446   6.8795   6.8904   7.5004   7.5530   7.7847   7.9323
     8.0714   8.1785   8.3646   8.4035   8.4860   8.4878   8.6532   8.6616
     8.6658   8.7256   8.7384   8.7561

          k = 0.2500 0.0000 0.3295 (141244 PWs)   bands (ev):

   -19.1005 -19.1004 -19.0950 -19.0950 -18.8938 -18.8938 -18.8741 -18.8740
   -18.4797 -18.4789 -18.4571 -18.4562 -17.9811 -17.9789 -17.9535 -17.9515
   -17.5769 -17.5767 -17.5746 -17.5745 -17.0925 -17.0924 -16.9936 -16.9934
   -15.4950 -15.4902 -15.4514 -15.4464 -15.1957 -15.1952 -15.1791 -15.1789
   -14.8016 -14.7997 -14.6793 -14.6779 -13.0578 -13.0350 -13.0319 -13.0065
   -12.4086 -12.3742 -12.3580 -12.3260 -11.4448 -11.4400 -11.3829 -11.3773
    -9.9513  -9.9417  -9.8871  -9.8779  -9.7217  -9.7190  -9.7072  -9.7051
    -9.0153  -8.9986  -8.9189  -8.9010  -8.5175  -8.5163  -8.4763  -8.4740
    -8.2981  -8.2902  -8.2654  -8.2615  -7.8820  -7.8266  -7.8145  -7.7531
    -7.7303  -7.6958  -7.3901  -7.3003  -6.9956  -6.8762  -6.8299  -6.7769
    -6.6249  -6.6063  -6.5255  -6.5038  -6.3742  -6.3576  -6.3313  -6.3205
    -5.9533  -5.9502  -5.8767  -5.8715  -5.7870  -5.7778  -5.7089  -5.7023
    -5.4060  -5.3966  -5.3754  -5.3618  -5.1669  -5.1628  -5.1205  -5.1066
    -4.9217  -4.8954  -4.8800  -4.8583  -4.5848  -4.5372  -4.4875  -4.4212
    -4.3820  -4.3701  -4.3349  -4.3072  -4.2409  -4.2186  -4.1431  -4.1019
    -4.0710  -3.9723  -3.9454  -3.9291  -3.8683  -3.8289  -3.7566  -3.7363
    -3.6185  -3.6006  -3.5588  -3.5485  -3.3723  -3.2667  -3.2450  -3.1277
    -3.1206  -3.0738  -3.0434  -2.9200  -2.7509  -2.7215  -2.6267  -2.6227
    -2.6136  -2.5738  -2.5614  -2.5439  -2.4175  -2.4016  -2.3809  -2.3646
    -2.1204  -2.1109  -2.0478  -2.0304  -1.7371  -1.6955  -1.6831  -1.6450
    -1.5323  -1.5140  -0.9085  -0.8726  -0.8572  -0.8318  -0.7045  -0.6726
    -0.5732  -0.5680  -0.5222  -0.5210  -0.4427  -0.4317  -0.4086  -0.4075
    -0.3681  -0.3518  -0.3494  -0.3131  -0.2239  -0.2177  -0.1992  -0.1969
     0.0310   0.0317   0.0376   0.0504   0.0807   0.1022   0.1261   0.1310
     0.1558   0.1657   0.2923   0.2996   0.8548   0.8593   1.0595   1.0616
     1.2315   1.2375   1.3964   1.3980   4.8456   4.8480   4.9155   4.9165
     5.4275   5.4306   5.4686   5.4697   5.7397   5.7409   6.1108   6.1127
     6.5419   6.5464   6.5769   6.5935   6.6029   6.6132   6.6876   6.6942
     7.0137   7.0214   7.1427   7.1573   7.6594   7.6635   7.8795   7.8869
     7.9957   8.0361   8.1122   8.1502   8.3634   8.3763   8.4273   8.4476
     8.5651   8.5995   8.6796   8.7426

          k = 0.2500 0.0000-0.1901 (141282 PWs)   bands (ev):

   -19.1540 -19.1538 -19.0393 -19.0389 -18.9023 -18.9023 -18.8652 -18.8652
   -18.4822 -18.4790 -18.4575 -18.4544 -18.0024 -18.0012 -17.9303 -17.9292
   -17.5763 -17.5762 -17.5741 -17.5740 -17.0868 -17.0867 -17.0006 -17.0004
   -15.5012 -15.4967 -15.4570 -15.4524 -15.1890 -15.1886 -15.1834 -15.1833
   -14.7929 -14.7908 -14.6803 -14.6787 -13.0593 -13.0409 -13.0402 -13.0203
   -12.3955 -12.3687 -12.3526 -12.3267 -11.4394 -11.4318 -11.3855 -11.3780
    -9.9372  -9.9284  -9.8831  -9.8739  -9.7401  -9.7362  -9.7224  -9.7178
    -9.0170  -9.0001  -8.9113  -8.8929  -8.5550  -8.5525  -8.4605  -8.4591
    -8.2878  -8.2864  -8.2612  -8.2559  -7.8592  -7.8199  -7.7663  -7.7527
    -7.6011  -7.5718  -7.5018  -7.4334  -6.9582  -6.8775  -6.8584  -6.8109
    -6.6360  -6.6253  -6.5575  -6.5308  -6.3603  -6.3446  -6.3386  -6.3271
    -5.9720  -5.9614  -5.8881  -5.8711  -5.7534  -5.7473  -5.6807  -5.6709
    -5.3964  -5.3845  -5.3764  -5.3592  -5.2265  -5.2254  -5.0591  -5.0453
    -4.9911  -4.9424  -4.8637  -4.8287  -4.6522  -4.6172  -4.4556  -4.4085
    -4.4045  -4.3243  -4.3046  -4.2208  -4.1941  -4.1884  -4.1500  -4.1351
    -4.0617  -4.0273  -4.0188  -3.9685  -3.8695  -3.8479  -3.7616  -3.7439
    -3.6346  -3.5781  -3.5739  -3.5240  -3.3612  -3.2901  -3.2242  -3.1654
    -3.1367  -3.1186  -2.9935  -2.9707  -2.7234  -2.7064  -2.6583  -2.6503
    -2.5867  -2.5510  -2.5179  -2.4898  -2.4347  -2.3646  -2.3626  -2.2844
    -2.1117  -2.0645  -2.0337  -2.0155  -1.7398  -1.7299  -1.6621  -1.6567
    -1.5202  -1.5153  -0.8916  -0.8867  -0.8699  -0.8453  -0.7183  -0.6793
    -0.5521  -0.5470  -0.5126  -0.5015  -0.4507  -0.4456  -0.4280  -0.4168
    -0.4097  -0.3687  -0.3466  -0.3178  -0.2595  -0.2442  -0.1722  -0.1703
     0.0134   0.0193   0.0240   0.0438   0.0665   0.0773   0.1376   0.1439
     0.1759   0.1780   0.3051   0.3083   0.8875   0.8907   1.0509   1.0523
     1.2889   1.2911   1.3337   1.3347   4.8229   4.8249   4.8880   4.8885
     5.4333   5.4349   5.4540   5.4575   5.8292   5.8304   6.0671   6.0733
     6.4802   6.5280   6.5417   6.5988   6.5996   6.6124   6.7096   6.7100
     6.8788   6.8990   7.0310   7.0629   7.7459   7.8418   7.8489   7.9966
     8.0051   8.0519   8.2031   8.2212   8.3156   8.3295   8.5521   8.5726
     8.6037   8.6524   8.7058   8.7942

          k =-0.5000 0.0000-0.1394 (141136 PWs)   bands (ev):

   -19.1104 -19.1104 -19.0715 -19.0715 -18.8838 -18.8838 -18.8775 -18.8775
   -18.4700 -18.4700 -18.4513 -18.4513 -17.9639 -17.9623 -17.9493 -17.9477
   -17.5869 -17.5866 -17.5857 -17.5854 -17.1218 -17.1217 -17.0036 -17.0034
   -15.5051 -15.5000 -15.4562 -15.4509 -15.1990 -15.1987 -15.1836 -15.1835
   -14.8150 -14.8130 -14.6719 -14.6704 -13.0402 -13.0275 -13.0108 -12.9960
   -12.4092 -12.3922 -12.3493 -12.3345 -11.4390 -11.4342 -11.3995 -11.3940
    -9.9534  -9.9397  -9.8734  -9.8623  -9.7302  -9.7296  -9.7153  -9.7134
    -9.0188  -9.0020  -8.9149  -8.8982  -8.5933  -8.5897  -8.4649  -8.4600
    -8.2637  -8.2611  -8.2415  -8.2391  -7.8782  -7.8340  -7.7969  -7.7863
    -7.5538  -7.5283  -7.5081  -7.4274  -6.9493  -6.9013  -6.8354  -6.8084
    -6.6022  -6.5796  -6.5373  -6.5131  -6.3797  -6.3583  -6.3219  -6.3077
    -5.9710  -5.9677  -5.8915  -5.8795  -5.8318  -5.8230  -5.7801  -5.7783
    -5.4806  -5.4779  -5.3740  -5.3601  -5.2998  -5.2924  -5.1253  -5.1153
    -4.9669  -4.9328  -4.9164  -4.8728  -4.4864  -4.4757  -4.4041  -4.3626
    -4.3467  -4.3101  -4.3093  -4.2807  -4.1539  -4.1532  -4.1309  -4.0936
    -4.0903  -4.0730  -3.9648  -3.9185  -3.9179  -3.8987  -3.7791  -3.7417
    -3.6071  -3.5940  -3.5768  -3.5594  -3.4809  -3.3197  -3.2939  -3.1365
    -3.0717  -3.0500  -2.9917  -2.9081  -2.7500  -2.6967  -2.6457  -2.6235
    -2.5856  -2.5426  -2.5337  -2.4857  -2.2949  -2.2936  -2.2639  -2.2623
    -2.0668  -2.0621  -1.9904  -1.9783  -1.7164  -1.6858  -1.6658  -1.6259
    -1.5072  -1.4978  -0.8691  -0.8662  -0.8435  -0.8086  -0.7138  -0.6448
    -0.4984  -0.4903  -0.4801  -0.4672  -0.4466  -0.4379  -0.4350  -0.3505
    -0.3047  -0.2862  -0.2773  -0.2659  -0.2097  -0.1734  -0.1408  -0.1188
    -0.0022  -0.0006   0.0689   0.0733   0.1136   0.1143   0.1497   0.1565
     0.1971   0.1977   0.2943   0.3016   0.8578   0.8636   1.0775   1.1185
     1.1220   1.1693   1.3334   1.3369   4.8344   4.8371   4.8554   4.8567
     5.3909   5.3918   5.4464   5.4467   5.9693   5.9710   6.0759   6.0773
     6.4644   6.4693   6.5085   6.5215   6.5561   6.5572   6.6409   6.6532
     7.3180   7.3446   7.4142   7.4645   7.5783   7.5871   7.6003   7.6195
     7.8436   7.8554   8.1132   8.1255   8.1946   8.2316   8.3202   8.3506
     8.3594   8.3997   8.4861   8.4882

          k =-0.5000 0.0000 0.1204 (141185 PWs)   bands (ev):

   -19.1012 -19.1011 -19.0818 -19.0816 -18.8887 -18.8887 -18.8717 -18.8717
   -18.4700 -18.4700 -18.4516 -18.4516 -17.9605 -17.9595 -17.9533 -17.9522
   -17.5861 -17.5860 -17.5849 -17.5847 -17.0892 -17.0891 -17.0296 -17.0295
   -15.5108 -15.5060 -15.4897 -15.4850 -15.1975 -15.1971 -15.1843 -15.1843
   -14.7599 -14.7581 -14.6917 -14.6901 -13.0465 -13.0324 -13.0193 -13.0036
   -12.3973 -12.3670 -12.3641 -12.3350 -11.4437 -11.4407 -11.3854 -11.3824
    -9.9325  -9.9221  -9.8928  -9.8837  -9.7437  -9.7399  -9.7343  -9.7314
    -8.9838  -8.9670  -8.9314  -8.9148  -8.5568  -8.5568  -8.4729  -8.4727
    -8.3231  -8.3212  -8.3011  -8.2945  -7.8186  -7.7773  -7.7611  -7.7091
    -7.6466  -7.6376  -7.3808  -7.3236  -6.9538  -6.8923  -6.8229  -6.7868
    -6.6036  -6.5917  -6.5424  -6.5346  -6.3566  -6.3446  -6.3338  -6.3255
    -5.8990  -5.8961  -5.8654  -5.8569  -5.7924  -5.7859  -5.7566  -5.7535
    -5.4204  -5.4080  -5.3981  -5.3884  -5.2641  -5.2592  -5.1749  -5.1605
    -4.9296  -4.9190  -4.8786  -4.8670  -4.6761  -4.6334  -4.6237  -4.5728
    -4.3766  -4.3656  -4.2789  -4.2543  -4.1944  -4.1717  -4.1671  -4.1520
    -4.0987  -4.0597  -4.0443  -4.0102  -3.8673  -3.8544  -3.7433  -3.7332
    -3.5705  -3.5704  -3.5427  -3.5219  -3.4081  -3.2836  -3.2615  -3.1730
    -3.1710  -3.1008  -3.0139  -2.9543  -2.7261  -2.6987  -2.6582  -2.6446
    -2.5261  -2.4819  -2.4752  -2.4416  -2.2745  -2.2647  -2.2247  -2.2210
    -2.0399  -2.0173  -2.0001  -1.9836  -1.6374  -1.6300  -1.6148  -1.6036
    -1.3187  -1.3161  -0.9381  -0.9217  -0.8531  -0.8247  -0.7971  -0.7740
    -0.5181  -0.5171  -0.4811  -0.4686  -0.4169  -0.4028  -0.3847  -0.3493
    -0.3382  -0.3323  -0.3273  -0.3224  -0.2575  -0.2415  -0.1924  -0.1904
     0.0397   0.0431   0.0467   0.0489   0.1306   0.1389   0.1467   0.1505
     0.2147   0.2157   0.2246   0.2270   0.9056   0.9091   1.0789   1.0800
     1.2116   1.2152   1.3159   1.3173   4.7611   4.7632   4.7759   4.7768
     5.4513   5.4523   5.4889   5.4892   5.8964   5.8965   6.1179   6.1180
     6.4833   6.4985   6.5035   6.5086   6.5587   6.5912   6.6254   6.6343
     7.2989   7.3156   7.5155   7.5604   7.6298   7.6521   7.6698   7.6861
     7.9895   7.9910   8.0472   8.0593   8.2925   8.3033   8.4168   8.4478
     8.4848   8.5062   8.5715   8.6395

     highest occupied, lowest unoccupied level (ev):     1.3980    4.7611

!    total energy              =   -1933.04084038 Ry
     Harris-Foulkes estimate   =   -1933.04084038 Ry
     estimated scf accuracy    <          2.1E-09 Ry

     total all-electron energy =     -7390.746208 Ry

     The total energy is the sum of the following terms:

     one-electron contribution =   -1072.01428219 Ry
     hartree contribution      =     693.83140853 Ry
     xc contribution           =    -420.62540483 Ry
     ewald contribution        =    -559.75889055 Ry
     Dispersion Correction     =      -0.61643944 Ry
     one-center paw contrib.   =    -573.85723189 Ry

     convergence has been achieved in  19 iterations

     Forces acting on atoms (cartesian axes, Ry/au):

     atom    1 type  1   force =    -0.01468210    0.00321426    0.00285122
     atom    2 type  1   force =     0.01468210    0.00321426   -0.00285122
     atom    3 type  1   force =     0.01468210   -0.00321426   -0.00285122
     atom    4 type  1   force =    -0.01468210   -0.00321426    0.00285122
     atom    5 type  1   force =     0.01449225   -0.00248961   -0.00420942
     atom    6 type  1   force =    -0.01449225   -0.00248961    0.00420942
     atom    7 type  1   force =    -0.01449225    0.00248961    0.00420942
     atom    8 type  1   force =     0.01449225    0.00248961   -0.00420942
     atom    9 type  1   force =     0.00204802   -0.00296876   -0.00395630
     atom   10 type  1   force =    -0.00204802   -0.00296876    0.00395630
     atom   11 type  1   force =    -0.00204802    0.00296876    0.00395630
     atom   12 type  1   force =     0.00204802    0.00296876   -0.00395630
     atom   13 type  1   force =    -0.00549972    0.00144336    0.00365926
     atom   14 type  1   force =     0.00549972    0.00144336   -0.00365926
     atom   15 type  1   force =     0.00549972   -0.00144336   -0.00365926
     atom   16 type  1   force =    -0.00549972   -0.00144336    0.00365926
     atom   17 type  1   force =    -0.00126849   -0.00372032    0.00306687
     atom   18 type  1   force =     0.00126849   -0.00372032   -0.00306687
     atom   19 type  1   force =     0.00126849    0.00372032   -0.00306687
     atom   20 type  1   force =    -0.00126849    0.00372032    0.00306687
     atom   21 type  1   force =     0.00027551    0.00380785    0.00083857
     atom   22 type  1   force =    -0.00027551    0.00380785   -0.00083857
     atom   23 type  1   force =    -0.00027551   -0.00380785   -0.00083857
     atom   24 type  1   force =     0.00027551   -0.00380785    0.00083857
     atom   25 type  1   force =    -0.00067806   -0.00616139   -0.00440533
     atom   26 type  1   force =     0.00067806   -0.00616139    0.00440533
     atom   27 type  1   force =     0.00067806    0.00616139    0.00440533
     atom   28 type  1   force =    -0.00067806    0.00616139   -0.00440533
     atom   29 type  1   force =     0.00410055    0.00308767    0.00613320
     atom   30 type  1   force =    -0.00410055    0.00308767   -0.00613320
     atom   31 type  1   force =    -0.00410055   -0.00308767   -0.00613320
     atom   32 type  1   force =     0.00410055   -0.00308767    0.00613320
     atom   33 type  1   force =    -0.00169248   -0.00095380    0.00317933
     atom   34 type  1   force =     0.00169248   -0.00095380   -0.00317933
     atom   35 type  1   force =     0.00169248    0.00095380   -0.00317933
     atom   36 type  1   force =    -0.00169248    0.00095380    0.00317933
     atom   37 type  1   force =     0.00343907    0.00036224    0.00194718
     atom   38 type  1   force =    -0.00343907    0.00036224   -0.00194718
     atom   39 type  1   force =    -0.00343907   -0.00036224   -0.00194718
     atom   40 type  1   force =     0.00343907   -0.00036224    0.00194718
     atom   41 type  3   force =     0.01302824   -0.00307583   -0.00660672
     atom   42 type  3   force =    -0.01302824   -0.00307583    0.00660672
     atom   43 type  3   force =    -0.01302824    0.00307583    0.00660672
     atom   44 type  3   force =     0.01302824    0.00307583   -0.00660672
     atom   45 type  3   force =     0.00060399   -0.00049220   -0.00154766
     atom   46 type  3   force =    -0.00060399   -0.00049220    0.00154766
     atom   47 type  3   force =    -0.00060399    0.00049220    0.00154766
     atom   48 type  3   force =     0.00060399    0.00049220   -0.00154766
     atom   49 type  3   force =    -0.01316778    0.00197901    0.00525639
     atom   50 type  3   force =     0.01316778    0.00197901   -0.00525639
     atom   51 type  3   force =     0.01316778   -0.00197901   -0.00525639
     atom   52 type  3   force =    -0.01316778   -0.00197901    0.00525639
     atom   53 type  3   force =    -0.00057251   -0.00096781    0.00099130
     atom   54 type  3   force =     0.00057251   -0.00096781   -0.00099130
     atom   55 type  3   force =     0.00057251    0.00096781   -0.00099130
     atom   56 type  3   force =    -0.00057251    0.00096781    0.00099130
     atom   57 type  3   force =     0.00188472   -0.00188357    0.00124551
     atom   58 type  3   force =    -0.00188472   -0.00188357   -0.00124551
     atom   59 type  3   force =    -0.00188472    0.00188357   -0.00124551
     atom   60 type  3   force =     0.00188472    0.00188357    0.00124551
     atom   61 type  3   force =    -0.00024400   -0.00077683   -0.00192824
     atom   62 type  3   force =     0.00024400   -0.00077683    0.00192824
     atom   63 type  3   force =     0.00024400    0.00077683    0.00192824
     atom   64 type  3   force =    -0.00024400    0.00077683   -0.00192824
     atom   65 type  3   force =     0.00040241   -0.00034850    0.00013938
     atom   66 type  3   force =    -0.00040241   -0.00034850   -0.00013938
     atom   67 type  3   force =    -0.00040241    0.00034850   -0.00013938
     atom   68 type  3   force =     0.00040241    0.00034850    0.00013938
     atom   69 type  3   force =    -0.00027806   -0.00050189    0.00040168
     atom   70 type  3   force =     0.00027806   -0.00050189   -0.00040168
     atom   71 type  3   force =     0.00027806    0.00050189   -0.00040168
     atom   72 type  3   force =    -0.00027806    0.00050189    0.00040168
     atom   73 type  3   force =     0.00158788    0.00014226    0.00036242
     atom   74 type  3   force =    -0.00158788    0.00014226   -0.00036242
     atom   75 type  3   force =    -0.00158788   -0.00014226   -0.00036242
     atom   76 type  3   force =     0.00158788   -0.00014226    0.00036242
     atom   77 type  3   force =     0.00061245    0.00042167   -0.00032684
     atom   78 type  3   force =    -0.00061245    0.00042167    0.00032684
     atom   79 type  3   force =    -0.00061245   -0.00042167    0.00032684
     atom   80 type  3   force =     0.00061245   -0.00042167   -0.00032684
     atom   81 type  3   force =     0.00053895   -0.00030624    0.00040782
     atom   82 type  3   force =    -0.00053895   -0.00030624   -0.00040782
     atom   83 type  3   force =    -0.00053895    0.00030624   -0.00040782
     atom   84 type  3   force =     0.00053895    0.00030624    0.00040782
     atom   85 type  3   force =     0.00064713   -0.00039048   -0.00001168
     atom   86 type  3   force =    -0.00064713   -0.00039048    0.00001168
     atom   87 type  3   force =    -0.00064713    0.00039048    0.00001168
     atom   88 type  3   force =     0.00064713    0.00039048   -0.00001168
     atom   89 type  3   force =    -0.00051836    0.00071385   -0.00152887
     atom   90 type  3   force =     0.00051836    0.00071385    0.00152887
     atom   91 type  3   force =     0.00051836   -0.00071385    0.00152887
     atom   92 type  3   force =    -0.00051836   -0.00071385   -0.00152887
     atom   93 type  3   force =     0.00028139   -0.00098243   -0.00072972
     atom   94 type  3   force =    -0.00028139   -0.00098243    0.00072972
     atom   95 type  3   force =    -0.00028139    0.00098243    0.00072972
     atom   96 type  3   force =     0.00028139    0.00098243   -0.00072972
     atom   97 type  3   force =     0.00001329   -0.00107752    0.00040402
     atom   98 type  3   force =    -0.00001329   -0.00107752   -0.00040402
     atom   99 type  3   force =    -0.00001329    0.00107752   -0.00040402
     atom  100 type  3   force =     0.00001329    0.00107752    0.00040402
     atom  101 type  2   force =     0.00279043   -0.00000190   -0.00319156
     atom  102 type  2   force =    -0.00279043   -0.00000190    0.00319156
     atom  103 type  2   force =    -0.00279043    0.00000190    0.00319156
     atom  104 type  2   force =     0.00279043    0.00000190   -0.00319156
     atom  105 type  2   force =     0.00409541   -0.00213375   -0.00301758
     atom  106 type  2   force =    -0.00409541   -0.00213375    0.00301758
     atom  107 type  2   force =    -0.00409541    0.00213375    0.00301758
     atom  108 type  2   force =     0.00409541    0.00213375   -0.00301758
     atom  109 type  2   force =    -0.00053945    0.00797834   -0.00003931
     atom  110 type  2   force =     0.00053945    0.00797834    0.00003931
     atom  111 type  2   force =     0.00053945   -0.00797834    0.00003931
     atom  112 type  2   force =    -0.00053945   -0.00797834   -0.00003931
     atom  113 type  2   force =    -0.00311474    0.00201128    0.00554261
     atom  114 type  2   force =     0.00311474    0.00201128   -0.00554261
     atom  115 type  2   force =     0.00311474   -0.00201128   -0.00554261
     atom  116 type  2   force =    -0.00311474   -0.00201128    0.00554261
     atom  117 type  2   force =     0.00083020   -0.00353180   -0.00137616
     atom  118 type  2   force =    -0.00083020   -0.00353180    0.00137616
     atom  119 type  2   force =    -0.00083020    0.00353180    0.00137616
     atom  120 type  2   force =     0.00083020    0.00353180   -0.00137616
     atom  121 type  2   force =    -0.00315107    0.00290257   -0.00351736
     atom  122 type  2   force =     0.00315107    0.00290257    0.00351736
     atom  123 type  2   force =     0.00315107   -0.00290257    0.00351736
     atom  124 type  2   force =    -0.00315107   -0.00290257   -0.00351736
     atom  125 type  2   force =    -0.00174086    0.00585356    0.00105304
     atom  126 type  2   force =     0.00174086    0.00585356   -0.00105304
     atom  127 type  2   force =     0.00174086   -0.00585356   -0.00105304
     atom  128 type  2   force =    -0.00174086   -0.00585356    0.00105304
     atom  129 type  4   force =    -0.00310318    0.00031002   -0.00139746
     atom  130 type  4   force =     0.00310318    0.00031002    0.00139746
     atom  131 type  4   force =     0.00310318   -0.00031002    0.00139746
     atom  132 type  4   force =    -0.00310318   -0.00031002   -0.00139746
     atom  133 type  4   force =     0.00101502   -0.00050175   -0.00009302
     atom  134 type  4   force =    -0.00101502   -0.00050175    0.00009302
     atom  135 type  4   force =    -0.00101502    0.00050175    0.00009302
     atom  136 type  4   force =     0.00101502    0.00050175   -0.00009302

     Total force =     0.076032     Total SCF correction =     0.000092


     Computing stress (Cartesian axis) and pressure

          total   stress  (Ry/bohr**3)                   (kbar)     P=  -11.00
  -0.00007530   0.00000000  -0.00000947        -11.08      0.00     -1.39
   0.00000000  -0.00009094   0.00000000          0.00    -13.38      0.00
  -0.00000947   0.00000000  -0.00005800         -1.39      0.00     -8.53


     Writing output data file scf.save
 
     init_run     :     76.48s CPU     79.28s WALL (       1 calls)
     electrons    :   2888.87s CPU   2999.08s WALL (       1 calls)
     forces       :     36.06s CPU     36.41s WALL (       1 calls)
     stress       :    261.79s CPU    262.31s WALL (       1 calls)

     Called by init_run:
     wfcinit      :     60.55s CPU     63.15s WALL (       1 calls)
     potinit      :      5.62s CPU      5.65s WALL (       1 calls)

     Called by electrons:
     c_bands      :   2581.04s CPU   2678.28s WALL (      19 calls)
     sum_band     :    282.33s CPU    292.77s WALL (      19 calls)
     v_of_rho     :      3.77s CPU      4.05s WALL (      20 calls)
     newd         :      9.04s CPU     11.31s WALL (      20 calls)
     PAW_pot      :     11.62s CPU     11.63s WALL (      20 calls)
     mix_rho      :      0.94s CPU      1.00s WALL (      19 calls)

     Called by c_bands:
     init_us_2    :     17.06s CPU     17.19s WALL (     287 calls)
     cegterg      :   2517.07s CPU   2614.12s WALL (     133 calls)

     Called by sum_band:
     sum_band:bec :      0.14s CPU      0.14s WALL (     133 calls)
     addusdens    :      9.44s CPU     11.63s WALL (      19 calls)

     Called by *egterg:
     h_psi        :   1465.22s CPU   1539.91s WALL (     590 calls)
     s_psi        :    278.81s CPU    278.84s WALL (     590 calls)
     g_psi        :      8.61s CPU      8.61s WALL (     450 calls)
     cdiaghg      :    150.47s CPU    150.51s WALL (     583 calls)

     Called by h_psi:
     h_psi:pot    :   1454.26s CPU   1528.79s WALL (     590 calls)
     h_psi:calbec :    266.20s CPU    266.76s WALL (     590 calls)
     vloc_psi     :    909.39s CPU    983.27s WALL (     590 calls)
     add_vuspsi   :    278.67s CPU    278.75s WALL (     590 calls)

     General routines
     calbec       :    385.86s CPU    386.64s WALL (     758 calls)
     fft          :      2.22s CPU      2.70s WALL (     284 calls)
     fftw         :    974.65s CPU   1056.20s WALL (  217216 calls)
 
     Parallel routines
     fft_scatter  :    159.68s CPU    235.94s WALL (  217500 calls)
 
     PWSCF        : 54m39.53s CPU    57m22.43s WALL

 
   This run was terminated on:  22: 6:11  22Dec2017            

=------------------------------------------------------------------------------=
   JOB DONE.
=------------------------------------------------------------------------------=
