
     Program PWSCF v.6.1 (svn rev. 13369) starts on  4Nov2017 at  3:46: 2 

     This program is part of the open-source Quantum ESPRESSO suite
     for quantum simulation of materials; please cite
         "P. Giannozzi et al., J. Phys.:Condens. Matter 21 395502 (2009);
          URL http://www.quantum-espresso.org", 
     in publications or presentations arising from this work. More details at
     http://www.quantum-espresso.org/quote

     Parallel version (MPI), running on     8 processors
     R & G space division:  proc/nbgrp/npool/nimage =       8
     Waiting for input...
     Reading input from standard input

     Current dimensions of program PWSCF are:
     Max number of different atomic species (ntypx) = 10
     Max number of k-points (npk) =  40000
     Max angular momentum in pseudopotentials (lmaxx) =  3
               file C.pbe-n-kjpaw_psl.0.1.UPF: wavefunction(s)  2P renormalized
               file N.pbe-n-kjpaw_psl.0.1.UPF: wavefunction(s)  2P renormalized
               file H.pbe-kjpaw_psl.0.1.UPF: wavefunction(s)  1S renormalized
               file O.pbe-n-kjpaw_psl.0.1.UPF: wavefunction(s)  2P renormalized

     -------------------------------------
     Parameters for Dispersion Correction:
     -------------------------------------
       atom      VdW radius       C_6     

        C          2.744         60.710
        N          2.640         42.670
        H          1.892          4.857
        O          2.536         24.284

     Subspace diagonalization in iterative solution of the eigenvalue problem:
     a serial algorithm will be used

 
     Parallelization info
     --------------------
     sticks:   dense  smooth     PW     G-vecs:    dense   smooth      PW
     Min        2083    2083    545               131570   131570   17666
     Max        2084    2084    546               131572   131572   17668
     Sum       16665   16665   4365              1052567  1052567  141337
 


     bravais-lattice index     =            0
     lattice parameter (alat)  =      26.0058  a.u.
     unit-cell volume          =    7790.7900 (a.u.)^3
     number of atoms/cell      =          132
     number of atomic types    =            4
     number of electrons       =       360.00
     number of Kohn-Sham states=          216
     kinetic-energy cutoff     =     100.0000  Ry
     charge density cutoff     =     400.0000  Ry
     convergence threshold     =      1.0E-08
     mixing beta               =       0.5000
     number of iterations used =            8  plain     mixing
     Exchange-correlation      =  SLA  PW   PBX  PBC ( 1  4  3  4 0 0)

     celldm(1)=  26.005844  celldm(2)=   0.000000  celldm(3)=   0.000000
     celldm(4)=   0.000000  celldm(5)=   0.000000  celldm(6)=   0.000000

     crystal axes: (cart. coord. in units of alat)
               a(1) = (   1.000000   0.000000   0.000000 )  
               a(2) = (   0.000000   0.773989   0.000000 )  
               a(3) = (  -0.018226   0.000000   0.572314 )  

     reciprocal axes: (cart. coord. in units 2 pi/alat)
               b(1) = (  1.000000  0.000000  0.031846 )  
               b(2) = (  0.000000  1.292009  0.000000 )  
               b(3) = (  0.000000  0.000000  1.747294 )  


     PseudoPot. # 1 for  C read from file:
     /scratch/ahofstet/pseudo/C.pbe-n-kjpaw_psl.0.1.UPF
     MD5 check sum: 430fe95172b1e11ef3f8ed03bac87931
     Pseudo is Projector augmented-wave + core cor, Zval =  4.0
     Generated using "atomic" code by A. Dal Corso  v.5.0.99 svn rev. 10869
     Shape of augmentation charge: BESSEL
     Using radial grid of 1073 points,  4 beta functions with: 
                l(1) =   0
                l(2) =   0
                l(3) =   1
                l(4) =   1
     Q(r) pseudized with 0 coefficients 


     PseudoPot. # 2 for  N read from file:
     /scratch/ahofstet/pseudo/N.pbe-n-kjpaw_psl.0.1.UPF
     MD5 check sum: f73187c8b701007e77325f868c9291d7
     Pseudo is Projector augmented-wave + core cor, Zval =  5.0
     Generated using "atomic" code by A. Dal Corso  v.5.0.99 svn rev. 10869
     Shape of augmentation charge: PSQ
     Using radial grid of 1085 points,  4 beta functions with: 
                l(1) =   0
                l(2) =   0
                l(3) =   1
                l(4) =   1
     Q(r) pseudized with 0 coefficients 


     PseudoPot. # 3 for  H read from file:
     /scratch/ahofstet/pseudo/H.pbe-kjpaw_psl.0.1.UPF
     MD5 check sum: 94e484f906d9e9773b2f6e52662335b2
     Pseudo is Projector augmented-wave, Zval =  1.0
     Generated using "atomic" code by A. Dal Corso  v.5.0.99 svn rev. 10869
     Shape of augmentation charge: PSQ
     Using radial grid of  929 points,  2 beta functions with: 
                l(1) =   0
                l(2) =   0
     Q(r) pseudized with 0 coefficients 


     PseudoPot. # 4 for  O read from file:
     /scratch/ahofstet/pseudo/O.pbe-n-kjpaw_psl.0.1.UPF
     MD5 check sum: 3f94a2996a3169367d6eb21d9b593f20
     Pseudo is Projector augmented-wave + core cor, Zval =  6.0
     Generated using "atomic" code by A. Dal Corso  v.5.0.99 svn rev. 10869
     Shape of augmentation charge: BESSEL
     Using radial grid of 1095 points,  4 beta functions with: 
                l(1) =   0
                l(2) =   0
                l(3) =   1
                l(4) =   1
     Q(r) pseudized with 0 coefficients 


     atomic species   valence    mass     pseudopotential
        C              4.00    12.01070      C( 1.00)
        N              5.00    14.00670      N( 1.00)
        H              1.00     1.00794      H( 1.00)
        O              6.00    15.99940      O( 1.00)

      2 Sym. Ops., with inversion, found



   Cartesian axes

     site n.     atom                  positions (alat units)
         1           O   tau(   1) = (   0.2765841   0.3750221   0.1373442  )
         2           O   tau(   2) = (   0.7143089   0.7620159   0.1487517  )
         3           O   tau(   3) = (   0.7051902   0.3989666   0.4349693  )
         4           O   tau(   4) = (   0.2674654   0.0119728   0.4235619  )
         5           O   tau(   5) = (   0.1635186   0.4216289   0.4954275  )
         6           O   tau(   6) = (   0.8091316   0.0346443   0.3630008  )
         7           O   tau(   7) = (   0.8182558   0.3523598   0.0768860  )
         8           O   tau(   8) = (   0.1726427   0.7393444   0.2093128  )
         9           O   tau(   9) = (   0.2225783   0.4659097   0.1160596  )
        10           O   tau(  10) = (   0.7683145   0.0789146   0.1700439  )
        11           O   tau(  11) = (   0.7591961   0.3080790   0.4562539  )
        12           O   tau(  12) = (   0.2134598   0.6950741   0.4022696  )
        13           O   tau(  13) = (   0.2956739   0.3129059   0.5220287  )
        14           O   tau(  14) = (   0.6769744   0.6999152   0.3363894  )
        15           O   tau(  15) = (   0.6861005   0.4610828   0.0502848  )
        16           O   tau(  16) = (   0.3048000   0.0740735   0.2359241  )
        17           O   tau(  17) = (   0.1276039   0.3750913   0.0038989  )
        18           O   tau(  18) = (   0.8632786   0.7620934   0.2822224  )
        19           O   tau(  19) = (   0.8541705   0.3988974   0.5684146  )
        20           O   tau(  20) = (   0.1184958   0.0118953   0.2900911  )
        21           O   tau(  21) = (   0.3508178   0.3948218   0.5650397  )
        22           O   tau(  22) = (   0.6218464   0.0078462   0.2933661  )
        23           O   tau(  23) = (   0.6309565   0.3791669   0.0072739  )
        24           O   tau(  24) = (   0.3599279   0.7661425   0.2789474  )
        25           C   tau(  25) = (   0.2278196   0.3520950   0.4539242  )
        26           C   tau(  26) = (   0.7448333   0.7390942   0.4044949  )
        27           C   tau(  27) = (   0.7539548   0.4218936   0.1183894  )
        28           C   tau(  28) = (   0.2369411   0.0348945   0.1678186  )
        29           C   tau(  29) = (   0.1273997   0.4407390   0.0838733  )
        30           C   tau(  30) = (   0.8634893   0.0537455   0.2022439  )
        31           C   tau(  31) = (   0.8543746   0.3332497   0.4884403  )
        32           C   tau(  32) = (   0.1182851   0.7202432   0.3700696  )
        33           C   tau(  33) = (   0.3707088   0.3830006   0.0958310  )
        34           C   tau(  34) = (   0.6201830   0.7699982   0.1902565  )
        35           C   tau(  35) = (   0.6110656   0.3909881   0.4764826  )
        36           C   tau(  36) = (   0.3615913   0.0039905   0.3820570  )
        37           C   tau(  37) = (   0.0832159   0.5393809   0.0584813  )
        38           C   tau(  38) = (   0.9076707   0.1523878   0.2276355  )
        39           C   tau(  39) = (   0.8985585   0.2346078   0.5138323  )
        40           C   tau(  40) = (   0.0741036   0.6216009   0.3446781  )
        41           H   tau(  41) = (   0.1272704   0.5751045   0.0026051  )
        42           H   tau(  42) = (   0.8636100   0.1881082   0.2835098  )
        43           H   tau(  43) = (   0.8545039   0.1988842   0.5697085  )
        44           H   tau(  44) = (   0.1181644   0.5858805   0.2888038  )
        45           H   tau(  45) = (   0.0802060   0.5859721   0.1229543  )
        46           H   tau(  46) = (   0.9106934   0.1989842   0.1631685  )
        47           H   tau(  47) = (   0.9015684   0.1880166   0.4493592  )
        48           H   tau(  48) = (   0.0710809   0.5750044   0.4091450  )
        49           H   tau(  49) = (   0.0094668   0.5265361   0.0310220  )
        50           H   tau(  50) = (   0.9814124   0.1395398   0.2551140  )
        51           H   tau(  51) = (   0.9723076   0.2474526   0.5412916  )
        52           H   tau(  52) = (   0.0003620   0.6344489   0.3171996  )
        53           C   tau(  53) = (   0.4263422   0.4729079   0.1296773  )
        54           C   tau(  54) = (   0.5645489   0.0859141   0.1564032  )
        55           C   tau(  55) = (   0.5554321   0.3010808   0.4426362  )
        56           C   tau(  56) = (   0.4172255   0.6880746   0.4159103  )
        57           H   tau(  57) = (   0.3900671   0.5390915   0.1044704  )
        58           H   tau(  58) = (   0.6008175   0.1520954   0.1816268  )
        59           H   tau(  59) = (   0.5917073   0.2348972   0.4678431  )
        60           H   tau(  60) = (   0.3809569   0.6218932   0.3906867  )
        61           H   tau(  61) = (   0.5010321   0.4706039   0.1021206  )
        62           H   tau(  62) = (   0.4898600   0.0836044   0.1839637  )
        63           H   tau(  63) = (   0.4807423   0.3033847   0.4701930  )
        64           H   tau(  64) = (   0.4919143   0.6903843   0.3883499  )
        65           H   tau(  65) = (   0.4273869   0.4728292   0.2094127  )
        66           H   tau(  66) = (   0.5635060   0.0858482   0.0766684  )
        67           H   tau(  67) = (   0.5543875   0.3011595   0.3629009  )
        68           H   tau(  68) = (   0.4182683   0.6881404   0.4956452  )
        69           C   tau(  69) = (   0.4204177   0.2887823   0.1270868  )
        70           C   tau(  70) = (   0.5704712   0.6757718   0.1590273  )
        71           C   tau(  71) = (   0.5613567   0.4852063   0.4452267  )
        72           C   tau(  72) = (   0.4113031   0.0982169   0.4132862  )
        73           H   tau(  73) = (   0.4229441   0.2838301   0.2065839  )
        74           H   tau(  74) = (   0.5679240   0.6707807   0.0795335  )
        75           H   tau(  75) = (   0.5588302   0.4901586   0.3657297  )
        76           H   tau(  76) = (   0.4138504   0.1032080   0.4927801  )
        77           H   tau(  77) = (   0.4947126   0.2899464   0.0982645  )
        78           H   tau(  78) = (   0.4961863   0.6769484   0.1878759  )
        79           H   tau(  79) = (   0.4870617   0.4840423   0.4740490  )
        80           H   tau(  80) = (   0.4855881   0.0970403   0.3844376  )
        81           H   tau(  81) = (   0.3816914   0.2253201   0.0988456  )
        82           H   tau(  82) = (   0.6092004   0.6123222   0.1872938  )
        83           H   tau(  83) = (   0.6000830   0.5486686   0.4734679  )
        84           H   tau(  84) = (   0.3725739   0.1616665   0.3850198  )
        85           C   tau(  85) = (   0.1748709   0.2618193   0.4168802  )
        86           C   tau(  86) = (   0.7977851   0.6488113   0.4415158  )
        87           C   tau(  87) = (   0.8069035   0.5121694   0.1554334  )
        88           C   tau(  88) = (   0.1839892   0.1251774   0.1307978  )
        89           H   tau(  89) = (   0.1420077   0.2226869   0.4778943  )
        90           H   tau(  90) = (   0.8306371   0.6096834   0.3804944  )
        91           H   tau(  91) = (   0.8397667   0.5513017   0.0944193  )
        92           H   tau(  92) = (   0.1511372   0.1643052   0.1918191  )
        93           H   tau(  93) = (   0.2241424   0.2128146   0.3779808  )
        94           H   tau(  94) = (   0.7485192   0.5998067   0.4804240  )
        95           H   tau(  95) = (   0.7576320   0.5611741   0.1943327  )
        96           H   tau(  96) = (   0.2332552   0.1741820   0.0918896  )
        97           H   tau(  97) = (   0.1173325   0.2857092   0.3671641  )
        98           H   tau(  98) = (   0.8553312   0.6726953   0.4912267  )
        99           H   tau(  99) = (   0.8644419   0.4882794   0.2051495  )
       100           H   tau( 100) = (   0.1264432   0.1012933   0.0810868  )
       101           C   tau( 101) = (   0.0687901   0.3858140   0.1605628  )
       102           C   tau( 102) = (   0.9221063   0.7728062   0.1255646  )
       103           C   tau( 103) = (   0.9129842   0.3881746   0.4117507  )
       104           C   tau( 104) = (   0.0596681   0.0011825   0.4467489  )
       105           H   tau( 105) = (  -0.0046517   0.3709837   0.1334555  )
       106           H   tau( 106) = (   0.9955451   0.7579726   0.1526798  )
       107           H   tau( 107) = (   0.9864260   0.4030050   0.4388581  )
       108           H   tau( 108) = (  -0.0137707   0.0160161   0.4196337  )
       109           H   tau( 109) = (   0.0639880   0.4316931   0.2256540  )
       110           H   tau( 110) = (   0.9269127   0.0446981   0.0604756  )
       111           H   tau( 111) = (   0.9177864   0.3422956   0.3466596  )
       112           H   tau( 112) = (   0.0548617   0.7292906   0.5118379  )
       113           H   tau( 113) = (   0.1051584   0.3174958   0.1791978  )
       114           H   tau( 114) = (   0.8857343   0.7044906   0.1069267  )
       115           H   tau( 115) = (   0.8766159   0.4564928   0.3931158  )
       116           H   tau( 116) = (   0.0960400   0.0694981   0.4653868  )
       117           C   tau( 117) = (   0.2770254   0.4104967   0.3734998  )
       118           C   tau( 118) = (   0.6956415   0.0234921   0.4849388  )
       119           C   tau( 119) = (   0.7047490   0.3634920   0.1988137  )
       120           C   tau( 120) = (   0.2861328   0.7504966   0.0873747  )
       121           H   tau( 121) = (   0.2248856   0.4304261   0.3168758  )
       122           H   tau( 122) = (   0.7477956   0.0434067   0.5415559  )
       123           H   tau( 123) = (   0.7568888   0.3435626   0.2554377  )
       124           H   tau( 124) = (   0.2339787   0.7305820   0.0307577  )
       125           H   tau( 125) = (   0.3335561   0.3649415   0.3405991  )
       126           H   tau( 126) = (   0.6391214   0.7519211   0.5178515  )
       127           H   tau( 127) = (   0.6482182   0.4090472   0.2317144  )
       128           H   tau( 128) = (   0.3426530   0.0220676   0.0544620  )
       129           H   tau( 129) = (   0.3098110   0.4764637   0.4036767  )
       130           H   tau( 130) = (   0.6628500   0.0894685   0.4547918  )
       131           H   tau( 131) = (   0.6719634   0.2975250   0.1686368  )
       132           H   tau( 132) = (   0.3189243   0.6845202   0.1175218  )

     number of k points=     8
                       cart. coord. in units 2pi/alat
        k(    1) = (   0.0000000   0.0000000   0.0000000), wk =   0.1666667
        k(    2) = (   0.0000000   0.0000000   0.5824313), wk =   0.3333333
        k(    3) = (   0.0000000  -0.6460043   0.0000000), wk =   0.1666667
        k(    4) = (   0.0000000  -0.6460043   0.5824313), wk =   0.3333333
        k(    5) = (  -0.5000000   0.0000000  -0.0159228), wk =   0.1666667
        k(    6) = (  -0.5000000   0.0000000   0.5665085), wk =   0.3333333
        k(    7) = (  -0.5000000  -0.6460043  -0.0159228), wk =   0.1666667
        k(    8) = (  -0.5000000  -0.6460043   0.5665085), wk =   0.3333333

     Dense  grid:  1052567 G-vectors     FFT dimensions: ( 180, 135,  96)

     Estimated max dynamical RAM per process >    1181.58MB

     Estimated total allocated dynamical RAM >    9452.65MB

     Check: negative/imaginary core charge=   -0.000002    0.000000

     Initial potential from superposition of free atoms

     starting charge  359.99778, renormalised to  360.00000
     Starting wfc are  312 randomized atomic wfcs
     Checking if some PAW data can be deallocated... 

     total cpu time spent up to now is       77.3 secs

     per-process dynamical memory:   793.2 Mb

     Self-consistent Calculation

     iteration #  1     ecut=   100.00 Ry     beta=0.50
     Davidson diagonalization with overlap
     ethr =  1.00E-02,  avg # of iterations =  4.0

     total cpu time spent up to now is      309.6 secs

     total energy              =   -1745.06340412 Ry
     Harris-Foulkes estimate   =   -1751.91180331 Ry
     estimated scf accuracy    <      13.32874371 Ry

     iteration #  2     ecut=   100.00 Ry     beta=0.50
     Davidson diagonalization with overlap
     ethr =  3.70E-03,  avg # of iterations =  2.0

     total cpu time spent up to now is      427.6 secs

     total energy              =   -1745.81419010 Ry
     Harris-Foulkes estimate   =   -1746.30963644 Ry
     estimated scf accuracy    <       1.17268706 Ry

     iteration #  3     ecut=   100.00 Ry     beta=0.50
     Davidson diagonalization with overlap
     ethr =  3.26E-04,  avg # of iterations =  5.0

     total cpu time spent up to now is      698.7 secs

     total energy              =   -1748.49429904 Ry
     Harris-Foulkes estimate   =   -1748.16490787 Ry
     estimated scf accuracy    <       2.48526540 Ry

     iteration #  4     ecut=   100.00 Ry     beta=0.50
     Davidson diagonalization with overlap
     ethr =  3.26E-04,  avg # of iterations =  1.0

     total cpu time spent up to now is      810.4 secs

     total energy              =   -1746.21318541 Ry
     Harris-Foulkes estimate   =   -1748.50230725 Ry
     estimated scf accuracy    <       3.13210554 Ry

     iteration #  5     ecut=   100.00 Ry     beta=0.50
     Davidson diagonalization with overlap
     ethr =  3.26E-04,  avg # of iterations =  6.0

     total cpu time spent up to now is     1073.7 secs

     total energy              =   -1747.36510478 Ry
     Harris-Foulkes estimate   =   -1747.94297444 Ry
     estimated scf accuracy    <       1.83725187 Ry

     iteration #  6     ecut=   100.00 Ry     beta=0.50
     Davidson diagonalization with overlap
     ethr =  3.26E-04,  avg # of iterations =  1.0

     total cpu time spent up to now is     1185.4 secs

     total energy              =   -1747.11963955 Ry
     Harris-Foulkes estimate   =   -1747.40409449 Ry
     estimated scf accuracy    <       0.79944431 Ry

     iteration #  7     ecut=   100.00 Ry     beta=0.50
     Davidson diagonalization with overlap
     ethr =  2.22E-04,  avg # of iterations =  3.2

     total cpu time spent up to now is     1351.8 secs

     total energy              =   -1747.35960810 Ry
     Harris-Foulkes estimate   =   -1747.36197091 Ry
     estimated scf accuracy    <       0.00648305 Ry

     iteration #  8     ecut=   100.00 Ry     beta=0.50
     Davidson diagonalization with overlap
     c_bands:  1 eigenvalues not converged
     c_bands:  4 eigenvalues not converged
     c_bands:  1 eigenvalues not converged
     c_bands:  2 eigenvalues not converged
     c_bands:  2 eigenvalues not converged
     c_bands:  2 eigenvalues not converged
     c_bands:  2 eigenvalues not converged
     ethr =  1.80E-06,  avg # of iterations = 18.1

     total cpu time spent up to now is     1660.9 secs

     total energy              =   -1747.36069213 Ry
     Harris-Foulkes estimate   =   -1747.36673917 Ry
     estimated scf accuracy    <       0.01263295 Ry

     iteration #  9     ecut=   100.00 Ry     beta=0.50
     Davidson diagonalization with overlap
     ethr =  1.80E-06,  avg # of iterations = 13.6

     total cpu time spent up to now is     1850.9 secs

     total energy              =   -1747.36213836 Ry
     Harris-Foulkes estimate   =   -1747.36242897 Ry
     estimated scf accuracy    <       0.00049315 Ry

     iteration # 10     ecut=   100.00 Ry     beta=0.50
     Davidson diagonalization with overlap
     ethr =  1.37E-07,  avg # of iterations =  4.0

     total cpu time spent up to now is     2097.8 secs

     total energy              =   -1747.36301255 Ry
     Harris-Foulkes estimate   =   -1747.36340387 Ry
     estimated scf accuracy    <       0.00196886 Ry

     iteration # 11     ecut=   100.00 Ry     beta=0.50
     Davidson diagonalization with overlap
     ethr =  1.37E-07,  avg # of iterations =  1.0

     total cpu time spent up to now is     2209.4 secs

     total energy              =   -1747.36235687 Ry
     Harris-Foulkes estimate   =   -1747.36302488 Ry
     estimated scf accuracy    <       0.00128816 Ry

     iteration # 12     ecut=   100.00 Ry     beta=0.50
     Davidson diagonalization with overlap
     ethr =  1.37E-07,  avg # of iterations =  3.5

     total cpu time spent up to now is     2416.4 secs

     total energy              =   -1747.36277229 Ry
     Harris-Foulkes estimate   =   -1747.36280849 Ry
     estimated scf accuracy    <       0.00008868 Ry

     iteration # 13     ecut=   100.00 Ry     beta=0.50
     Davidson diagonalization with overlap
     ethr =  2.46E-08,  avg # of iterations =  1.0

     total cpu time spent up to now is     2528.1 secs

     total energy              =   -1747.36275945 Ry
     Harris-Foulkes estimate   =   -1747.36277550 Ry
     estimated scf accuracy    <       0.00003149 Ry

     iteration # 14     ecut=   100.00 Ry     beta=0.50
     Davidson diagonalization with overlap
     ethr =  8.75E-09,  avg # of iterations =  4.0

     total cpu time spent up to now is     2757.2 secs

     total energy              =   -1747.36278341 Ry
     Harris-Foulkes estimate   =   -1747.36278873 Ry
     estimated scf accuracy    <       0.00002062 Ry

     iteration # 15     ecut=   100.00 Ry     beta=0.50
     Davidson diagonalization with overlap
     ethr =  5.73E-09,  avg # of iterations =  1.0

     total cpu time spent up to now is     2869.1 secs

     total energy              =   -1747.36277984 Ry
     Harris-Foulkes estimate   =   -1747.36278368 Ry
     estimated scf accuracy    <       0.00001138 Ry

     iteration # 16     ecut=   100.00 Ry     beta=0.50
     Davidson diagonalization with overlap
     ethr =  3.16E-09,  avg # of iterations =  3.1

     total cpu time spent up to now is     2987.1 secs

     total energy              =   -1747.36277959 Ry
     Harris-Foulkes estimate   =   -1747.36278072 Ry
     estimated scf accuracy    <       0.00000319 Ry

     iteration # 17     ecut=   100.00 Ry     beta=0.50
     Davidson diagonalization with overlap
     ethr =  8.85E-10,  avg # of iterations =  4.0

     total cpu time spent up to now is     3207.6 secs

     total energy              =   -1747.36278222 Ry
     Harris-Foulkes estimate   =   -1747.36278238 Ry
     estimated scf accuracy    <       0.00000050 Ry

     iteration # 18     ecut=   100.00 Ry     beta=0.50
     Davidson diagonalization with overlap
     ethr =  1.39E-10,  avg # of iterations =  1.0

     total cpu time spent up to now is     3319.3 secs

     total energy              =   -1747.36278214 Ry
     Harris-Foulkes estimate   =   -1747.36278224 Ry
     estimated scf accuracy    <       0.00000022 Ry

     iteration # 19     ecut=   100.00 Ry     beta=0.50
     Davidson diagonalization with overlap
     ethr =  6.23E-11,  avg # of iterations =  3.0

     total cpu time spent up to now is     3507.3 secs

     total energy              =   -1747.36278223 Ry
     Harris-Foulkes estimate   =   -1747.36278223 Ry
     estimated scf accuracy    <       0.00000002 Ry

     iteration # 20     ecut=   100.00 Ry     beta=0.50
     Davidson diagonalization with overlap
     ethr =  5.37E-12,  avg # of iterations =  1.0

     total cpu time spent up to now is     3618.9 secs

     End of self-consistent calculation

          k = 0.0000 0.0000 0.0000 (131537 PWs)   bands (ev):

   -22.8834 -22.8809 -22.8763 -22.8739 -21.8767 -21.8756 -21.8629 -21.8621
   -21.8297 -21.8290 -21.8279 -21.8273 -18.1813 -18.1794 -18.1708 -18.1672
   -18.1328 -18.1298 -18.1206 -18.1174 -16.5031 -16.4916 -16.4893 -16.4772
   -13.6054 -13.5512 -13.5246 -13.5232 -12.7296 -12.7120 -12.7051 -12.6772
   -12.6539 -12.6426 -12.6306 -12.6183 -11.6059 -11.5733 -11.5581 -11.5434
   -11.5281 -11.5205 -11.5002 -11.4535 -11.4524 -11.3994 -11.3493 -11.3376
    -9.2722  -9.0814  -9.0323  -8.9799  -8.5552  -8.5355  -8.5317  -8.5026
    -8.4891  -8.4887  -8.4713  -8.4273  -7.1355  -7.0922  -7.0890  -7.0285
    -6.9938  -6.9554  -6.9492  -6.9255  -6.7119  -6.6728  -6.6152  -6.5574
    -6.1927  -6.1110  -6.0874  -6.0348  -5.9916  -5.9549  -5.9297  -5.8794
    -5.8185  -5.8044  -5.7586  -5.7164  -5.1510  -5.0225  -5.0119  -4.9453
    -4.9291  -4.8575  -4.8339  -4.7711  -4.7615  -4.7280  -4.7149  -4.6930
    -4.6098  -4.5417  -4.5129  -4.4447  -4.2437  -4.1449  -4.1241  -4.1208
    -4.0976  -4.0617  -4.0116  -3.9575  -3.9352  -3.9183  -3.9131  -3.8860
    -3.8818  -3.8612  -3.8582  -3.8299  -3.7382  -3.7268  -3.7020  -3.6515
    -3.6510  -3.6443  -3.5404  -3.5327  -3.5265  -3.4877  -3.4568  -3.4557
    -3.4029  -3.3783  -3.3702  -3.3450  -3.2734  -3.2499  -3.1972  -3.1929
    -3.1564  -3.1270  -3.1016  -3.0850  -3.0761  -3.0444  -3.0109  -2.9922
    -2.9371  -2.8667  -2.7742  -2.7182  -2.5796  -2.5418  -2.5412  -2.4781
    -2.4769  -2.4752  -2.4672  -2.3371  -1.8663  -1.8527  -1.7754  -1.6591
    -1.4107  -1.3897  -1.3871  -1.3574  -1.3197  -1.3056  -1.2863  -1.2655
    -0.3392  -0.2618  -0.2209  -0.1974  -0.1942  -0.1818  -0.1801  -0.1765
    -0.0204   0.0369   0.0649   0.0829   4.2511   4.3185   4.3189   4.4585
     4.4696   4.4949   4.4955   4.5118   4.5368   4.5409   4.5600   4.6190
     5.4442   6.2084   6.3022   6.3823   6.4874   6.6119   6.7468   6.8451
     6.8870   7.1252   7.1655   7.2464   7.2726   7.2890   7.2978   7.5202
     7.5577   7.6245   7.6326   7.7578   7.7999   7.8149   7.8687   7.8819

          k = 0.0000 0.0000 0.5824 (131578 PWs)   bands (ev):

   -22.8821 -22.8808 -22.8750 -22.8738 -21.8764 -21.8759 -21.8628 -21.8624
   -21.8306 -21.8300 -21.8297 -21.8291 -18.1785 -18.1776 -18.1684 -18.1665
   -18.1329 -18.1314 -18.1203 -18.1188 -16.5003 -16.4945 -16.4864 -16.4803
   -13.5697 -13.5284 -13.5281 -13.5128 -12.7365 -12.7149 -12.7134 -12.7028
   -12.6671 -12.6463 -12.6367 -12.6355 -11.5997 -11.5949 -11.5871 -11.5638
   -11.5329 -11.5121 -11.4795 -11.4527 -11.4524 -11.4144 -11.3412 -11.3324
    -9.1545  -9.0476  -8.9438  -8.9265  -8.5903  -8.5779  -8.5448  -8.5191
    -8.5141  -8.5102  -8.4920  -8.4790  -7.1209  -7.1167  -7.0927  -7.0612
    -7.0483  -7.0112  -6.9462  -6.9384  -6.6788  -6.6384  -6.6244  -6.5790
    -6.1788  -6.1575  -6.1091  -6.0672  -5.9647  -5.9432  -5.9042  -5.8398
    -5.8330  -5.8068  -5.7821  -5.7405  -5.1243  -5.0689  -4.9823  -4.9427
    -4.8854  -4.8593  -4.8366  -4.7961  -4.7422  -4.7300  -4.7137  -4.6826
    -4.4808  -4.4546  -4.3908  -4.3546  -4.2338  -4.1800  -4.1714  -4.1123
    -4.0968  -4.0961  -4.0310  -4.0140  -4.0098  -3.9797  -3.9450  -3.9280
    -3.8324  -3.8088  -3.8009  -3.7369  -3.6862  -3.6576  -3.6337  -3.6163
    -3.5839  -3.5801  -3.5660  -3.5527  -3.5290  -3.5170  -3.4860  -3.4434
    -3.3963  -3.3637  -3.3339  -3.3313  -3.2763  -3.2351  -3.1846  -3.1757
    -3.1533  -3.1423  -3.1200  -3.1158  -3.0887  -3.0527  -3.0474  -3.0410
    -2.8996  -2.8562  -2.8223  -2.7782  -2.6563  -2.6153  -2.5841  -2.5798
    -2.5346  -2.5036  -2.4821  -2.4061  -1.8203  -1.7816  -1.7696  -1.6928
    -1.3947  -1.3902  -1.3621  -1.3596  -1.3490  -1.3165  -1.2925  -1.2863
    -0.3149  -0.2783  -0.2231  -0.2178  -0.2100  -0.2072  -0.1860  -0.1740
     0.0031   0.0281   0.0875   0.0931   4.2961   4.3243   4.3898   4.4189
     4.4499   4.4778   4.4910   4.4961   4.5297   4.5527   4.5738   4.6198
     5.7764   6.2272   6.2590   6.4813   6.5377   6.6380   6.7089   6.7610
     6.8363   6.9790   7.0500   7.1357   7.1994   7.2392   7.3127   7.4146
     7.4404   7.4786   7.4861   7.7283   7.7565   7.8029   7.8668   7.9875

          k = 0.0000-0.6460 0.0000 (131640 PWs)   bands (ev):

   -22.8822 -22.8821 -22.8752 -22.8750 -21.8762 -21.8760 -21.8626 -21.8625
   -21.8288 -21.8287 -21.8282 -21.8281 -18.1807 -18.1806 -18.1688 -18.1686
   -18.1320 -18.1317 -18.1187 -18.1184 -16.4974 -16.4973 -16.4833 -16.4832
   -13.5657 -13.5657 -13.5381 -13.5380 -12.7263 -12.7263 -12.6896 -12.6895
   -12.6539 -12.6539 -12.6148 -12.6147 -11.5716 -11.5716 -11.5305 -11.5304
   -11.4941 -11.4940 -11.4854 -11.4854 -11.4419 -11.4419 -11.3928 -11.3927
    -9.1714  -9.1713  -9.0055  -9.0054  -8.5552  -8.5552  -8.5180  -8.5178
    -8.4657  -8.4657  -8.4584  -8.4583  -7.1126  -7.1125  -7.0445  -7.0445
    -6.9877  -6.9877  -6.9377  -6.9376  -6.6760  -6.6759  -6.6155  -6.6155
    -6.1530  -6.1530  -6.0986  -6.0986  -5.9599  -5.9598  -5.8779  -5.8779
    -5.8015  -5.8014  -5.7469  -5.7469  -5.0592  -5.0591  -4.9714  -4.9713
    -4.8720  -4.8719  -4.8447  -4.8447  -4.7748  -4.7748  -4.7157  -4.7155
    -4.5542  -4.5540  -4.4826  -4.4825  -4.1495  -4.1495  -4.0945  -4.0943
    -4.0837  -4.0836  -4.0604  -4.0601  -3.9882  -3.9881  -3.9105  -3.9105
    -3.8494  -3.8494  -3.7955  -3.7954  -3.7741  -3.7739  -3.6569  -3.6569
    -3.5392  -3.5391  -3.5328  -3.5326  -3.4824  -3.4823  -3.4478  -3.4477
    -3.3927  -3.3925  -3.3565  -3.3562  -3.2842  -3.2842  -3.2274  -3.2273
    -3.1659  -3.1658  -3.1203  -3.1203  -3.0438  -3.0437  -3.0144  -3.0144
    -2.8611  -2.8611  -2.8235  -2.8233  -2.5391  -2.5389  -2.5236  -2.5236
    -2.4904  -2.4904  -2.3732  -2.3731  -1.8521  -1.8520  -1.7213  -1.7213
    -1.3952  -1.3951  -1.3536  -1.3534  -1.3287  -1.3286  -1.2713  -1.2713
    -0.3054  -0.3052  -0.2111  -0.2108  -0.1889  -0.1888  -0.1792  -0.1792
     0.0106   0.0106   0.0832   0.0833   4.3152   4.3156   4.3448   4.3449
     4.4877   4.4877   4.5112   4.5113   4.5287   4.5288   4.5792   4.5793
     5.8414   5.8417   6.2950   6.2951   6.6816   6.6818   6.8170   6.8170
     6.9421   6.9422   7.1550   7.1551   7.1976   7.1976   7.3530   7.3532
     7.6133   7.6135   7.6532   7.6536   7.7563   7.7568   7.8406   7.8408

          k = 0.0000-0.6460 0.5824 (131558 PWs)   bands (ev):

   -22.8815 -22.8814 -22.8744 -22.8743 -21.8762 -21.8761 -21.8626 -21.8626
   -21.8302 -21.8301 -21.8296 -21.8295 -18.1783 -18.1782 -18.1675 -18.1673
   -18.1324 -18.1321 -18.1196 -18.1192 -16.4975 -16.4974 -16.4834 -16.4833
   -13.5436 -13.5435 -13.5263 -13.5263 -12.7321 -12.7320 -12.6932 -12.6931
   -12.6637 -12.6636 -12.6417 -12.6415 -11.5780 -11.5780 -11.5408 -11.5407
   -11.5015 -11.5014 -11.4850 -11.4849 -11.4337 -11.4337 -11.3940 -11.3939
    -9.0914  -9.0913  -8.9407  -8.9407  -8.5847  -8.5846  -8.5522  -8.5521
    -8.5019  -8.5017  -8.4690  -8.4689  -7.1161  -7.1160  -7.0790  -7.0789
    -7.0232  -7.0232  -6.9402  -6.9401  -6.6495  -6.6494  -6.6215  -6.6215
    -6.1379  -6.1378  -6.1291  -6.1291  -6.0088  -6.0088  -5.8836  -5.8836
    -5.7684  -5.7683  -5.7318  -5.7318  -5.1157  -5.1155  -5.0264  -5.0263
    -4.8668  -4.8667  -4.7830  -4.7830  -4.7412  -4.7411  -4.6628  -4.6627
    -4.4387  -4.4386  -4.4039  -4.4038  -4.1787  -4.1785  -4.1268  -4.1267
    -4.0926  -4.0925  -4.0423  -4.0423  -3.9718  -3.9717  -3.9398  -3.9397
    -3.8355  -3.8354  -3.7499  -3.7497  -3.6829  -3.6828  -3.6527  -3.6527
    -3.5888  -3.5886  -3.5208  -3.5207  -3.4863  -3.4862  -3.4371  -3.4371
    -3.3911  -3.3909  -3.3383  -3.3382  -3.2940  -3.2939  -3.2268  -3.2267
    -3.1848  -3.1847  -3.1405  -3.1404  -3.0597  -3.0596  -2.9980  -2.9980
    -2.9017  -2.9016  -2.8149  -2.8148  -2.6675  -2.6674  -2.5677  -2.5677
    -2.4842  -2.4841  -2.4221  -2.4221  -1.8031  -1.8030  -1.7349  -1.7349
    -1.3924  -1.3923  -1.3655  -1.3653  -1.3228  -1.3228  -1.2889  -1.2888
    -0.2988  -0.2987  -0.2310  -0.2308  -0.2057  -0.2056  -0.1717  -0.1714
     0.0201   0.0201   0.0910   0.0912   4.3173   4.3174   4.3927   4.3930
     4.4593   4.4594   4.4905   4.4907   4.5407   4.5410   4.5939   4.5939
     6.0517   6.0522   6.3612   6.3612   6.5818   6.5819   6.7123   6.7125
     6.8420   6.8421   7.0454   7.0455   7.2461   7.2464   7.3524   7.3527
     7.5310   7.5312   7.6147   7.6148   7.7809   7.7812   7.8921   7.8922

          k =-0.5000 0.0000-0.0159 (131496 PWs)   bands (ev):

   -22.8803 -22.8794 -22.8779 -22.8770 -21.8708 -21.8700 -21.8688 -21.8678
   -21.8300 -21.8287 -21.8281 -21.8270 -18.1796 -18.1772 -18.1711 -18.1682
   -18.1319 -18.1295 -18.1230 -18.1191 -16.4966 -16.4958 -16.4848 -16.4839
   -13.5809 -13.5776 -13.5305 -13.5166 -12.7258 -12.7217 -12.6874 -12.6844
   -12.6584 -12.6457 -12.6276 -12.6164 -11.5987 -11.5609 -11.5565 -11.5452
   -11.5353 -11.5146 -11.5141 -11.4854 -11.4438 -11.3736 -11.3515 -11.3443
    -9.1641  -9.1593  -9.0536  -9.0085  -8.5685  -8.5264  -8.5200  -8.5106
    -8.4826  -8.4761  -8.4569  -8.4454  -7.0964  -7.0641  -7.0438  -7.0424
    -7.0218  -6.9806  -6.9619  -6.9495  -6.6988  -6.6906  -6.5915  -6.5913
    -6.1635  -6.1547  -6.0701  -6.0285  -5.9697  -5.9581  -5.9020  -5.8863
    -5.8215  -5.8041  -5.7484  -5.7415  -5.1004  -5.0653  -5.0239  -4.9671
    -4.9196  -4.8637  -4.8612  -4.8342  -4.8022  -4.7457  -4.7290  -4.7190
    -4.5099  -4.5017  -4.4805  -4.4465  -4.2551  -4.1734  -4.1527  -4.0902
    -4.0452  -4.0394  -4.0288  -3.9907  -3.9408  -3.9388  -3.8570  -3.8481
    -3.8345  -3.8206  -3.8182  -3.8127  -3.7411  -3.7349  -3.7175  -3.6323
    -3.6228  -3.6039  -3.5675  -3.5611  -3.5555  -3.4851  -3.4763  -3.4543
    -3.4458  -3.4365  -3.3810  -3.3373  -3.3308  -3.3065  -3.2569  -3.2513
    -3.2019  -3.0968  -3.0749  -3.0315  -3.0264  -3.0077  -2.9843  -2.9413
    -2.9192  -2.8966  -2.7690  -2.7357  -2.5419  -2.5357  -2.5291  -2.5140
    -2.5100  -2.4502  -2.4322  -2.4025  -1.8769  -1.8405  -1.7168  -1.7135
    -1.4015  -1.3954  -1.3680  -1.3440  -1.3236  -1.3212  -1.2843  -1.2788
    -0.2939  -0.2911  -0.2532  -0.2475  -0.1959  -0.1705  -0.1685  -0.1428
     0.0318   0.0348   0.0488   0.0608   4.3072   4.3215   4.3620   4.3764
     4.4439   4.4455   4.4505   4.4909   4.5656   4.5922   4.5943   4.5972
     5.5970   5.8818   6.4000   6.4924   6.4944   6.7463   6.8568   6.8730
     6.9114   6.9510   7.0666   7.2021   7.2060   7.2680   7.4089   7.4866
     7.5154   7.5591   7.7496   7.8193   7.8808   7.9225   7.9304   7.9442

          k =-0.5000 0.0000 0.5665 (131484 PWs)   bands (ev):

   -22.8790 -22.8781 -22.8777 -22.8769 -21.8706 -21.8702 -21.8686 -21.8680
   -21.8309 -21.8300 -21.8296 -21.8288 -18.1770 -18.1757 -18.1684 -18.1669
   -18.1320 -18.1308 -18.1229 -18.1210 -16.4937 -16.4929 -16.4878 -16.4869
   -13.5544 -13.5443 -13.5277 -13.5129 -12.7342 -12.7331 -12.7026 -12.7019
   -12.6650 -12.6473 -12.6397 -12.6283 -11.5947 -11.5907 -11.5854 -11.5555
   -11.5267 -11.5229 -11.5001 -11.4917 -11.4279 -11.3845 -11.3460 -11.3386
    -9.0700  -9.0459  -9.0145  -8.9601  -8.6004  -8.5713  -8.5470  -8.5343
    -8.5142  -8.5043  -8.4749  -8.4689  -7.1028  -7.0795  -7.0550  -7.0401
    -7.0299  -7.0249  -7.0058  -6.9883  -6.6682  -6.6553  -6.6203  -6.5923
    -6.1681  -6.1344  -6.1242  -6.0781  -5.9275  -5.9226  -5.8898  -5.8648
    -5.8454  -5.8063  -5.7767  -5.7625  -5.0639  -5.0429  -5.0389  -4.9492
    -4.8994  -4.8571  -4.8362  -4.8333  -4.8058  -4.7779  -4.7582  -4.7352
    -4.4248  -4.4100  -4.3706  -4.2761  -4.2472  -4.1989  -4.1818  -4.1366
    -4.0921  -4.0455  -3.9927  -3.9898  -3.9623  -3.9038  -3.8767  -3.8528
    -3.8036  -3.7883  -3.7847  -3.7499  -3.7460  -3.6984  -3.6803  -3.6576
    -3.6287  -3.5741  -3.5707  -3.5632  -3.5491  -3.5478  -3.4850  -3.4823
    -3.4256  -3.4251  -3.3622  -3.3029  -3.2839  -3.2671  -3.2267  -3.2186
    -3.1902  -3.1158  -3.1001  -3.0863  -3.0498  -3.0240  -3.0048  -2.9884
    -2.8917  -2.8621  -2.8392  -2.7821  -2.5980  -2.5977  -2.5831  -2.5582
    -2.5520  -2.5054  -2.5002  -2.4600  -1.8188  -1.7805  -1.7452  -1.7136
    -1.3923  -1.3784  -1.3747  -1.3638  -1.3220  -1.3150  -1.3060  -1.2981
    -0.2861  -0.2740  -0.2701  -0.2471  -0.1965  -0.1942  -0.1874  -0.1720
     0.0499   0.0526   0.0597   0.0660   4.3015   4.3265   4.3841   4.4075
     4.4256   4.4635   4.4736   4.4758   4.5712   4.5787   4.6017   4.6026
     5.8301   6.1444   6.2622   6.4426   6.6039   6.7394   6.7498   6.8411
     6.8927   6.9136   6.9614   7.1116   7.1574   7.2214   7.2295   7.3163
     7.4348   7.6090   7.6475   7.7677   7.8465   7.8473   7.8862   7.9332

          k =-0.5000-0.6460-0.0159 (131596 PWs)   bands (ev):

   -22.8792 -22.8791 -22.8783 -22.8781 -21.8704 -21.8703 -21.8683 -21.8682
   -21.8291 -21.8290 -21.8279 -21.8278 -18.1789 -18.1787 -18.1692 -18.1691
   -18.1315 -18.1312 -18.1206 -18.1203 -16.4908 -16.4906 -16.4899 -16.4898
   -13.5545 -13.5545 -13.5495 -13.5494 -12.7218 -12.7218 -12.7013 -12.7012
   -12.6435 -12.6433 -12.6179 -12.6179 -11.5563 -11.5563 -11.5415 -11.5415
   -11.5097 -11.5097 -11.4670 -11.4670 -11.4440 -11.4439 -11.3985 -11.3984
    -9.1089  -9.1089  -9.0788  -9.0787  -8.5227  -8.5227  -8.5175  -8.5175
    -8.4871  -8.4870  -8.4612  -8.4612  -7.0793  -7.0792  -7.0234  -7.0234
    -6.9930  -6.9929  -6.9854  -6.9853  -6.6786  -6.6785  -6.6179  -6.6179
    -6.1422  -6.1422  -6.0853  -6.0852  -5.9333  -5.9333  -5.9096  -5.9096
    -5.8054  -5.8053  -5.7540  -5.7539  -5.0153  -5.0151  -4.9730  -4.9730
    -4.9274  -4.9272  -4.8437  -4.8437  -4.8261  -4.8261  -4.7566  -4.7566
    -4.4755  -4.4754  -4.4531  -4.4531  -4.1978  -4.1977  -4.1208  -4.1206
    -4.0573  -4.0571  -4.0304  -4.0304  -3.9766  -3.9766  -3.8823  -3.8823
    -3.8065  -3.8063  -3.7908  -3.7908  -3.7467  -3.7466  -3.6218  -3.6217
    -3.5601  -3.5600  -3.5235  -3.5234  -3.5042  -3.5041  -3.4595  -3.4595
    -3.4351  -3.4350  -3.3769  -3.3768  -3.3608  -3.3608  -3.3173  -3.3173
    -3.1105  -3.1105  -3.0808  -3.0807  -3.0315  -3.0314  -2.9950  -2.9949
    -2.8625  -2.8624  -2.8063  -2.8062  -2.5342  -2.5342  -2.5195  -2.5195
    -2.4498  -2.4497  -2.4327  -2.4326  -1.8454  -1.8454  -1.7274  -1.7273
    -1.3964  -1.3963  -1.3421  -1.3421  -1.3120  -1.3119  -1.2936  -1.2936
    -0.2744  -0.2743  -0.2705  -0.2702  -0.1813  -0.1812  -0.1609  -0.1607
     0.0254   0.0256   0.0711   0.0711   4.3176   4.3177   4.3536   4.3537
     4.4383   4.4384   4.4698   4.4700   4.5721   4.5721   4.6106   4.6106
     5.9071   5.9075   6.2097   6.2099   6.7445   6.7447   6.8356   6.8357
     6.9713   6.9715   7.0345   7.0348   7.2542   7.2543   7.3858   7.3859
     7.5380   7.5382   7.6563   7.6566   7.7869   7.7869   7.8824   7.8828

          k =-0.5000-0.6460 0.5665 (131552 PWs)   bands (ev):

   -22.8784 -22.8783 -22.8775 -22.8774 -21.8705 -21.8704 -21.8684 -21.8682
   -21.8305 -21.8304 -21.8293 -21.8291 -18.1766 -18.1764 -18.1677 -18.1675
   -18.1317 -18.1313 -18.1219 -18.1215 -16.4908 -16.4907 -16.4900 -16.4898
   -13.5370 -13.5370 -13.5327 -13.5326 -12.7326 -12.7325 -12.7038 -12.7036
   -12.6528 -12.6528 -12.6418 -12.6417 -11.5623 -11.5623 -11.5376 -11.5375
   -11.5148 -11.5148 -11.4936 -11.4936 -11.4252 -11.4251 -11.4003 -11.4002
    -9.0285  -9.0284  -9.0098  -9.0097  -8.5583  -8.5583  -8.5529  -8.5528
    -8.5161  -8.5160  -8.4785  -8.4784  -7.0921  -7.0920  -7.0541  -7.0541
    -7.0134  -7.0134  -6.9954  -6.9953  -6.6532  -6.6531  -6.6217  -6.6217
    -6.1373  -6.1372  -6.1121  -6.1120  -5.9692  -5.9692  -5.9255  -5.9255
    -5.7639  -5.7638  -5.7379  -5.7378  -5.0936  -5.0934  -5.0624  -5.0623
    -4.8641  -4.8640  -4.8014  -4.8013  -4.7755  -4.7753  -4.7074  -4.7073
    -4.4030  -4.4030  -4.3364  -4.3362  -4.2059  -4.2058  -4.1778  -4.1777
    -4.0390  -4.0389  -3.9946  -3.9946  -3.9090  -3.9089  -3.8843  -3.8842
    -3.8157  -3.8155  -3.7705  -3.7704  -3.7184  -3.7183  -3.6774  -3.6773
    -3.5878  -3.5876  -3.5285  -3.5285  -3.5078  -3.5077  -3.4688  -3.4686
    -3.4462  -3.4461  -3.3530  -3.3529  -3.3256  -3.3255  -3.2748  -3.2746
    -3.1635  -3.1634  -3.0928  -3.0927  -3.0355  -3.0354  -2.9851  -2.9851
    -2.8659  -2.8658  -2.8301  -2.8299  -2.6161  -2.6160  -2.5814  -2.5814
    -2.4889  -2.4888  -2.4586  -2.4585  -1.8007  -1.8007  -1.7408  -1.7407
    -1.3825  -1.3825  -1.3546  -1.3545  -1.3219  -1.3219  -1.3049  -1.3048
    -0.2801  -0.2800  -0.2614  -0.2611  -0.1895  -0.1894  -0.1826  -0.1825
     0.0484   0.0485   0.0695   0.0695   4.3289   4.3290   4.3639   4.3640
     4.4599   4.4600   4.4824   4.4827   4.5577   4.5578   4.5997   4.5997
     6.0712   6.0718   6.3512   6.3513   6.6117   6.6118   6.6931   6.6933
     6.9303   6.9305   6.9560   6.9561   7.2562   7.2564   7.3177   7.3181
     7.5852   7.5853   7.6557   7.6558   7.7922   7.7926   7.9094   7.9097

     highest occupied, lowest unoccupied level (ev):     0.0931    4.2511

!    total energy              =   -1747.36278222 Ry
     Harris-Foulkes estimate   =   -1747.36278223 Ry
     estimated scf accuracy    <          6.4E-09 Ry

     total all-electron energy =     -6439.195540 Ry

     The total energy is the sum of the following terms:

     one-electron contribution =   -1312.17103406 Ry
     hartree contribution      =     790.83966085 Ry
     xc contribution           =    -377.18750098 Ry
     ewald contribution        =    -380.11087221 Ry
     Dispersion Correction     =      -0.52976580 Ry
     one-center paw contrib.   =    -468.20327003 Ry

     convergence has been achieved in  20 iterations

     Forces acting on atoms (cartesian axes, Ry/au):

     atom    1 type  4   force =     0.00022141   -0.00015497    0.00052168
     atom    2 type  4   force =    -0.00021126   -0.00016234   -0.00051380
     atom    3 type  4   force =    -0.00022141    0.00015497   -0.00052168
     atom    4 type  4   force =     0.00021126    0.00016234    0.00051380
     atom    5 type  4   force =    -0.00044504   -0.00050222   -0.00024779
     atom    6 type  4   force =     0.00045047   -0.00050406    0.00023534
     atom    7 type  4   force =     0.00044504    0.00050222    0.00024779
     atom    8 type  4   force =    -0.00045047    0.00050406   -0.00023534
     atom    9 type  4   force =    -0.00083090   -0.00029164   -0.00034983
     atom   10 type  4   force =     0.00082977   -0.00028867    0.00034286
     atom   11 type  4   force =     0.00083090    0.00029164    0.00034983
     atom   12 type  4   force =    -0.00082977    0.00028867   -0.00034286
     atom   13 type  4   force =    -0.00139424    0.00056792    0.00017594
     atom   14 type  4   force =     0.00138749    0.00057036   -0.00019143
     atom   15 type  4   force =     0.00139424   -0.00056792   -0.00017594
     atom   16 type  4   force =    -0.00138749   -0.00057036    0.00019143
     atom   17 type  4   force =     0.00055813    0.00026210    0.00042449
     atom   18 type  4   force =    -0.00054956    0.00026289   -0.00044034
     atom   19 type  4   force =    -0.00055813   -0.00026210   -0.00042449
     atom   20 type  4   force =     0.00054956   -0.00026289    0.00044034
     atom   21 type  4   force =    -0.00051466    0.00087463    0.00006177
     atom   22 type  4   force =     0.00049540    0.00086346   -0.00009075
     atom   23 type  4   force =     0.00051466   -0.00087463   -0.00006177
     atom   24 type  4   force =    -0.00049540   -0.00086346    0.00009075
     atom   25 type  1   force =     0.00069345   -0.00053875    0.00088451
     atom   26 type  1   force =    -0.00069662   -0.00053460   -0.00087769
     atom   27 type  1   force =    -0.00069345    0.00053875   -0.00088451
     atom   28 type  1   force =     0.00069662    0.00053460    0.00087769
     atom   29 type  1   force =     0.00081680   -0.00039356    0.00002776
     atom   30 type  1   force =    -0.00081943   -0.00037873   -0.00003196
     atom   31 type  1   force =    -0.00081680    0.00039356   -0.00002776
     atom   32 type  1   force =     0.00081943    0.00037873    0.00003196
     atom   33 type  1   force =    -0.00024594   -0.00036735    0.00035472
     atom   34 type  1   force =     0.00024183   -0.00035967   -0.00030740
     atom   35 type  1   force =     0.00024594    0.00036735   -0.00035472
     atom   36 type  1   force =    -0.00024183    0.00035967    0.00030740
     atom   37 type  1   force =    -0.00012360   -0.00067952   -0.00060966
     atom   38 type  1   force =     0.00012072   -0.00067476    0.00068256
     atom   39 type  1   force =     0.00012360    0.00067952    0.00060966
     atom   40 type  1   force =    -0.00012072    0.00067476   -0.00068256
     atom   41 type  3   force =     0.00049420    0.00060123   -0.00070711
     atom   42 type  3   force =    -0.00049532    0.00060770    0.00069490
     atom   43 type  3   force =    -0.00049420   -0.00060123    0.00070711
     atom   44 type  3   force =     0.00049532   -0.00060770   -0.00069490
     atom   45 type  3   force =     0.00028593    0.00110283    0.00119418
     atom   46 type  3   force =    -0.00028738    0.00110002   -0.00121107
     atom   47 type  3   force =    -0.00028593   -0.00110283   -0.00119418
     atom   48 type  3   force =     0.00028738   -0.00110002    0.00121107
     atom   49 type  3   force =    -0.00070238   -0.00011118    0.00018263
     atom   50 type  3   force =     0.00070924   -0.00011065   -0.00019879
     atom   51 type  3   force =     0.00070238    0.00011118   -0.00018263
     atom   52 type  3   force =    -0.00070924    0.00011065    0.00019879
     atom   53 type  1   force =     0.00000818   -0.00026410   -0.00077434
     atom   54 type  1   force =    -0.00001290   -0.00026083    0.00083611
     atom   55 type  1   force =    -0.00000818    0.00026410    0.00077434
     atom   56 type  1   force =     0.00001290    0.00026083   -0.00083611
     atom   57 type  3   force =    -0.00042469    0.00047581   -0.00032133
     atom   58 type  3   force =     0.00042534    0.00047992    0.00030007
     atom   59 type  3   force =     0.00042469   -0.00047581    0.00032133
     atom   60 type  3   force =    -0.00042534   -0.00047992   -0.00030007
     atom   61 type  3   force =     0.00028484    0.00016522   -0.00029486
     atom   62 type  3   force =    -0.00029406    0.00016578    0.00028113
     atom   63 type  3   force =    -0.00028484   -0.00016522    0.00029486
     atom   64 type  3   force =     0.00029406   -0.00016578   -0.00028113
     atom   65 type  3   force =     0.00014052    0.00005002    0.00081107
     atom   66 type  3   force =    -0.00013322    0.00003547   -0.00081217
     atom   67 type  3   force =    -0.00014052   -0.00005002   -0.00081107
     atom   68 type  3   force =     0.00013322   -0.00003547    0.00081217
     atom   69 type  1   force =    -0.00005036    0.00055385   -0.00089367
     atom   70 type  1   force =     0.00004917    0.00055155    0.00095409
     atom   71 type  1   force =     0.00005036   -0.00055385    0.00089367
     atom   72 type  1   force =    -0.00004917   -0.00055155   -0.00095409
     atom   73 type  3   force =     0.00012703   -0.00019976    0.00073578
     atom   74 type  3   force =    -0.00011507   -0.00017254   -0.00073054
     atom   75 type  3   force =    -0.00012703    0.00019976   -0.00073578
     atom   76 type  3   force =     0.00011507    0.00017254    0.00073054
     atom   77 type  3   force =     0.00029438   -0.00001025    0.00001009
     atom   78 type  3   force =    -0.00030754   -0.00001475   -0.00003439
     atom   79 type  3   force =    -0.00029438    0.00001025   -0.00001009
     atom   80 type  3   force =     0.00030754    0.00001475    0.00003439
     atom   81 type  3   force =    -0.00042389   -0.00032611   -0.00017043
     atom   82 type  3   force =     0.00042796   -0.00033043    0.00014676
     atom   83 type  3   force =     0.00042389    0.00032611    0.00017043
     atom   84 type  3   force =    -0.00042796    0.00033043   -0.00014676
     atom   85 type  1   force =     0.00050080    0.00049090   -0.00015544
     atom   86 type  1   force =    -0.00051116    0.00049379    0.00022702
     atom   87 type  1   force =    -0.00050080   -0.00049090    0.00015544
     atom   88 type  1   force =     0.00051116   -0.00049379   -0.00022702
     atom   89 type  3   force =    -0.00017996   -0.00034500    0.00052584
     atom   90 type  3   force =     0.00018162   -0.00035098   -0.00054145
     atom   91 type  3   force =     0.00017996    0.00034500   -0.00052584
     atom   92 type  3   force =    -0.00018162    0.00035098    0.00054145
     atom   93 type  3   force =     0.00016014   -0.00032669    0.00002962
     atom   94 type  3   force =    -0.00015388   -0.00032421   -0.00004480
     atom   95 type  3   force =    -0.00016014    0.00032669   -0.00002962
     atom   96 type  3   force =     0.00015388    0.00032421    0.00004480
     atom   97 type  3   force =    -0.00034597    0.00016642   -0.00063633
     atom   98 type  3   force =     0.00034733    0.00016026    0.00062821
     atom   99 type  3   force =     0.00034597   -0.00016642    0.00063633
     atom  100 type  3   force =    -0.00034733   -0.00016026   -0.00062821
     atom  101 type  1   force =     0.00013340   -0.00006092   -0.00002757
     atom  102 type  1   force =    -0.00013655   -0.00007462    0.00002155
     atom  103 type  1   force =    -0.00013340    0.00006092    0.00002757
     atom  104 type  1   force =     0.00013655    0.00007462   -0.00002155
     atom  105 type  3   force =    -0.00032801   -0.00020705   -0.00007646
     atom  106 type  3   force =     0.00032227   -0.00020497    0.00007340
     atom  107 type  3   force =     0.00032801    0.00020705    0.00007646
     atom  108 type  3   force =    -0.00032227    0.00020497   -0.00007340
     atom  109 type  3   force =     0.00001877    0.00016088    0.00026763
     atom  110 type  3   force =    -0.00000529    0.00015739   -0.00028224
     atom  111 type  3   force =    -0.00001877   -0.00016088   -0.00026763
     atom  112 type  3   force =     0.00000529   -0.00015739    0.00028224
     atom  113 type  3   force =     0.00039836   -0.00048578   -0.00015081
     atom  114 type  3   force =    -0.00038913   -0.00048867    0.00014677
     atom  115 type  3   force =    -0.00039836    0.00048578    0.00015081
     atom  116 type  3   force =     0.00038913    0.00048867   -0.00014677
     atom  117 type  1   force =     0.00062755   -0.00059794   -0.00027685
     atom  118 type  1   force =    -0.00061401   -0.00061317    0.00031769
     atom  119 type  1   force =    -0.00062755    0.00059794    0.00027685
     atom  120 type  1   force =     0.00061401    0.00061317   -0.00031769
     atom  121 type  3   force =    -0.00049231    0.00038478   -0.00100198
     atom  122 type  3   force =     0.00048891    0.00038932    0.00099030
     atom  123 type  3   force =     0.00049231   -0.00038478    0.00100198
     atom  124 type  3   force =    -0.00048891   -0.00038932   -0.00099030
     atom  125 type  3   force =    -0.00034481   -0.00008709   -0.00026223
     atom  126 type  3   force =     0.00033857   -0.00009151    0.00024384
     atom  127 type  3   force =     0.00034481    0.00008709    0.00026223
     atom  128 type  3   force =    -0.00033857    0.00009151   -0.00024384
     atom  129 type  3   force =     0.00040665    0.00043119    0.00043036
     atom  130 type  3   force =    -0.00041503    0.00043943   -0.00045974
     atom  131 type  3   force =    -0.00040665   -0.00043119   -0.00043036
     atom  132 type  3   force =     0.00041503   -0.00043943    0.00045974

     Total force =     0.009620     Total SCF correction =     0.000168


     Computing stress (Cartesian axis) and pressure

          total   stress  (Ry/bohr**3)                   (kbar)     P=   -3.95
  -0.00003145  -0.00000001  -0.00000142         -4.63     -0.00     -0.21
  -0.00000001  -0.00002634  -0.00000003         -0.00     -3.87     -0.00
  -0.00000142  -0.00000003  -0.00002282         -0.21     -0.00     -3.36


     Writing output data file scf.save
 
     init_run     :     74.00s CPU     76.45s WALL (       1 calls)
     electrons    :   3428.07s CPU   3541.89s WALL (       1 calls)
     forces       :     36.33s CPU     36.62s WALL (       1 calls)
     stress       :    161.63s CPU    162.11s WALL (       1 calls)

     Called by init_run:
     wfcinit      :     61.86s CPU     64.06s WALL (       1 calls)
     potinit      :      4.36s CPU      4.46s WALL (       1 calls)

     Called by electrons:
     c_bands      :   3114.63s CPU   3211.35s WALL (      20 calls)
     sum_band     :    290.18s CPU    304.77s WALL (      20 calls)
     v_of_rho     :      3.15s CPU      3.46s WALL (      21 calls)
     newd         :      8.38s CPU     10.47s WALL (      21 calls)
     PAW_pot      :     10.90s CPU     10.90s WALL (      21 calls)
     mix_rho      :      0.73s CPU      0.81s WALL (      20 calls)

     Called by c_bands:
     init_us_2    :     13.38s CPU     13.43s WALL (     344 calls)
     cegterg      :   3064.71s CPU   3161.33s WALL (     160 calls)

     Called by sum_band:
     sum_band:bec :      0.14s CPU      0.14s WALL (     160 calls)
     addusdens    :      8.65s CPU     10.67s WALL (      20 calls)

     Called by *egterg:
     h_psi        :   1618.67s CPU   1694.67s WALL (     813 calls)
     s_psi        :    375.79s CPU    375.87s WALL (     813 calls)
     g_psi        :      7.12s CPU      7.13s WALL (     645 calls)
     cdiaghg      :    148.50s CPU    148.58s WALL (     805 calls)

     Called by h_psi:
     h_psi:pot    :   1608.88s CPU   1684.74s WALL (     813 calls)
     h_psi:calbec :    361.94s CPU    362.48s WALL (     813 calls)
     vloc_psi     :    871.69s CPU    946.89s WALL (     813 calls)
     add_vuspsi   :    375.25s CPU    375.37s WALL (     813 calls)

     General routines
     calbec       :    511.26s CPU    512.01s WALL (    1013 calls)
     fft          :      2.03s CPU      2.53s WALL (     297 calls)
     fftw         :    937.56s CPU   1023.96s WALL (  240464 calls)
 
     Parallel routines
     fft_scatter  :    148.13s CPU    229.15s WALL (  240761 calls)
 
     PWSCF        :     1h 1m CPU        1h 4m WALL

 
   This run was terminated on:   4:50:43   4Nov2017            

=------------------------------------------------------------------------------=
   JOB DONE.
=------------------------------------------------------------------------------=
