
     Program PWSCF v.6.1 (svn rev. 13369) starts on  5Dec2017 at  0: 9:22 

     This program is part of the open-source Quantum ESPRESSO suite
     for quantum simulation of materials; please cite
         "P. Giannozzi et al., J. Phys.:Condens. Matter 21 395502 (2009);
          URL http://www.quantum-espresso.org", 
     in publications or presentations arising from this work. More details at
     http://www.quantum-espresso.org/quote

     Parallel version (MPI), running on     8 processors
     R & G space division:  proc/nbgrp/npool/nimage =       8
     Waiting for input...
     Reading input from standard input

     Current dimensions of program PWSCF are:
     Max number of different atomic species (ntypx) = 10
     Max number of k-points (npk) =  40000
     Max angular momentum in pseudopotentials (lmaxx) =  3
               file C.pbe-n-kjpaw_psl.0.1.UPF: wavefunction(s)  2P renormalized
               file N.pbe-n-kjpaw_psl.0.1.UPF: wavefunction(s)  2P renormalized
               file H.pbe-kjpaw_psl.0.1.UPF: wavefunction(s)  1S renormalized
               file O.pbe-n-kjpaw_psl.0.1.UPF: wavefunction(s)  2P renormalized

     -------------------------------------
     Parameters for Dispersion Correction:
     -------------------------------------
       atom      VdW radius       C_6     

        C          2.744         60.710
        N          2.640         42.670
        H          1.892          4.857
        O          2.536         24.284

     Subspace diagonalization in iterative solution of the eigenvalue problem:
     a serial algorithm will be used

 
     Parallelization info
     --------------------
     sticks:   dense  smooth     PW     G-vecs:    dense   smooth      PW
     Min         448     448    121                58552    58552    8197
     Max         449     449    122                58559    58559    8203
     Sum        3585    3585    969               468429   468429   65605
 


     bravais-lattice index     =            0
     lattice parameter (alat)  =      11.9629  a.u.
     unit-cell volume          =    3468.5026 (a.u.)^3
     number of atoms/cell      =           48
     number of atomic types    =            4
     number of electrons       =       192.00
     number of Kohn-Sham states=          115
     kinetic-energy cutoff     =     100.0000  Ry
     charge density cutoff     =     400.0000  Ry
     convergence threshold     =      1.0E-08
     mixing beta               =       0.5000
     number of iterations used =            8  plain     mixing
     Exchange-correlation      =  SLA  PW   PBX  PBC ( 1  4  3  4 0 0)

     celldm(1)=  11.962911  celldm(2)=   0.000000  celldm(3)=   0.000000
     celldm(4)=   0.000000  celldm(5)=   0.000000  celldm(6)=   0.000000

     crystal axes: (cart. coord. in units of alat)
               a(1) = (   1.000000   0.000000   0.000000 )  
               a(2) = (   0.000000   0.788705   0.000000 )  
               a(3) = (  -0.321317   0.000000   2.568719 )  

     reciprocal axes: (cart. coord. in units 2 pi/alat)
               b(1) = (  1.000000  0.000000  0.125088 )  
               b(2) = (  0.000000  1.267900  0.000000 )  
               b(3) = (  0.000000  0.000000  0.389299 )  


     PseudoPot. # 1 for  C read from file:
     /scratch/ahofstet/pseudo/C.pbe-n-kjpaw_psl.0.1.UPF
     MD5 check sum: 430fe95172b1e11ef3f8ed03bac87931
     Pseudo is Projector augmented-wave + core cor, Zval =  4.0
     Generated using "atomic" code by A. Dal Corso  v.5.0.99 svn rev. 10869
     Shape of augmentation charge: BESSEL
     Using radial grid of 1073 points,  4 beta functions with: 
                l(1) =   0
                l(2) =   0
                l(3) =   1
                l(4) =   1
     Q(r) pseudized with 0 coefficients 


     PseudoPot. # 2 for  N read from file:
     /scratch/ahofstet/pseudo/N.pbe-n-kjpaw_psl.0.1.UPF
     MD5 check sum: f73187c8b701007e77325f868c9291d7
     Pseudo is Projector augmented-wave + core cor, Zval =  5.0
     Generated using "atomic" code by A. Dal Corso  v.5.0.99 svn rev. 10869
     Shape of augmentation charge: PSQ
     Using radial grid of 1085 points,  4 beta functions with: 
                l(1) =   0
                l(2) =   0
                l(3) =   1
                l(4) =   1
     Q(r) pseudized with 0 coefficients 


     PseudoPot. # 3 for  H read from file:
     /scratch/ahofstet/pseudo/H.pbe-kjpaw_psl.0.1.UPF
     MD5 check sum: 94e484f906d9e9773b2f6e52662335b2
     Pseudo is Projector augmented-wave, Zval =  1.0
     Generated using "atomic" code by A. Dal Corso  v.5.0.99 svn rev. 10869
     Shape of augmentation charge: PSQ
     Using radial grid of  929 points,  2 beta functions with: 
                l(1) =   0
                l(2) =   0
     Q(r) pseudized with 0 coefficients 


     PseudoPot. # 4 for  O read from file:
     /scratch/ahofstet/pseudo/O.pbe-n-kjpaw_psl.0.1.UPF
     MD5 check sum: 3f94a2996a3169367d6eb21d9b593f20
     Pseudo is Projector augmented-wave + core cor, Zval =  6.0
     Generated using "atomic" code by A. Dal Corso  v.5.0.99 svn rev. 10869
     Shape of augmentation charge: BESSEL
     Using radial grid of 1095 points,  4 beta functions with: 
                l(1) =   0
                l(2) =   0
                l(3) =   1
                l(4) =   1
     Q(r) pseudized with 0 coefficients 


     atomic species   valence    mass     pseudopotential
        C              4.00    12.01070      C( 1.00)
        N              5.00    14.00670      N( 1.00)
        H              1.00     1.00794      H( 1.00)
        O              6.00    15.99940      O( 1.00)

      4 Sym. Ops., with inversion, found ( 2 have fractional translation)



   Cartesian axes

     site n.     atom                  positions (alat units)
         1           O   tau(   1) = (   0.7788126   0.2466842   0.9257733  )
         2           O   tau(   2) = (   0.0605291   0.6410369   0.3585860  )
         3           O   tau(   3) = (  -0.1001293   0.5420213   1.6429453  )
         4           O   tau(   4) = (   0.6181542   0.1476685   2.2101326  )
         5           O   tau(   5) = (   0.5812686   0.5320969   0.9361275  )
         6           O   tau(   6) = (   0.2580730   0.1377442   0.3482318  )
         7           O   tau(   7) = (   0.0974146   0.2566086   1.6325911  )
         8           O   tau(   8) = (   0.4206102   0.6509613   2.2204868  )
         9           N   tau(   9) = (   0.7128823   0.3072961   0.3068950  )
        10           N   tau(  10) = (   0.1264594   0.7016488   0.9774643  )
        11           N   tau(  11) = (  -0.0341990   0.4814094   2.2618236  )
        12           N   tau(  12) = (   0.5522239   0.0870567   1.5912543  )
        13           N   tau(  13) = (   0.5613975   0.5363917   0.5007051  )
        14           N   tau(  14) = (   0.2779442   0.1420390   0.7836542  )
        15           N   tau(  15) = (   0.1172858   0.2523138   2.0680135  )
        16           N   tau(  16) = (   0.4007391   0.6466665   1.7850644  )
        17           N   tau(  17) = (   0.7677163   0.2472434   0.4989737  )
        18           N   tau(  18) = (   0.0716254   0.6415961   0.7853856  )
        19           N   tau(  19) = (  -0.0890330   0.5414621   2.0697449  )
        20           N   tau(  20) = (   0.6070579   0.1471093   1.7833330  )
        21           N   tau(  21) = (   0.5904641   0.4801707   0.3021185  )
        22           N   tau(  22) = (   0.2488775   0.0858179   0.9822408  )
        23           N   tau(  23) = (   0.0882192   0.3085348   2.2666000  )
        24           N   tau(  24) = (   0.4298057   0.7028876   1.5864778  )
        25           N   tau(  25) = (   0.6769333   0.3903541   0.8424557  )
        26           N   tau(  26) = (   0.1624083   0.7847069   0.4419036  )
        27           N   tau(  27) = (   0.0017499   0.3983514   1.7262629  )
        28           N   tau(  28) = (   0.5162750   0.0039986   2.1268150  )
        29           C   tau(  29) = (   0.6696006   0.3933128   0.6137804  )
        30           C   tau(  30) = (   0.1697411   0.7876656   0.6705789  )
        31           C   tau(  31) = (   0.0090827   0.3953926   1.9549382  )
        32           C   tau(  32) = (   0.5089422   0.0010399   1.8981397  )
        33           C   tau(  33) = (   0.7663159   0.1863384   0.1204034  )
        34           C   tau(  34) = (   0.0730257   0.5806912   1.1639559  )
        35           C   tau(  35) = (  -0.0876326   0.6023670   2.4483152  )
        36           C   tau(  36) = (   0.6056575   0.2080143   1.4047627  )
        37           H   tau(  37) = (   0.9386284   0.1772652   0.1068858  )
        38           H   tau(  38) = (  -0.0992868   0.5716179   1.1774734  )
        39           H   tau(  39) = (  -0.2599451   0.6114403   2.4618327  )
        40           H   tau(  40) = (   0.7779700   0.2170876   1.3912451  )
        41           H   tau(  41) = (   0.7014521   0.0261503   0.1406741  )
        42           H   tau(  42) = (   0.1378896   0.4205031   1.1436852  )
        43           H   tau(  43) = (  -0.0227688   0.7625551   2.4280445  )
        44           H   tau(  44) = (   0.5407937   0.3682024   1.4250334  )
        45           H   tau(  45) = (   0.3754864   0.2652708   2.5522773  )
        46           H   tau(  46) = (   0.1425384   0.6596235   1.3008005  )
        47           H   tau(  47) = (   0.3031968   0.5234347   0.0164412  )
        48           H   tau(  48) = (   0.5361448   0.1290819   1.2679181  )

     number of k points=    12
                       cart. coord. in units 2pi/alat
        k(    1) = (   0.0000000   0.0000000   0.0000000), wk =   0.0833333
        k(    2) = (   0.0000000   0.0000000  -0.1946496), wk =   0.0833333
        k(    3) = (   0.0000000   0.3169751   0.0000000), wk =   0.1666667
        k(    4) = (   0.0000000   0.3169751  -0.1946496), wk =   0.1666667
        k(    5) = (   0.0000000  -0.6339502   0.0000000), wk =   0.0833333
        k(    6) = (   0.0000000  -0.6339502  -0.1946496), wk =   0.0833333
        k(    7) = (   0.3333333   0.0000000   0.0416961), wk =   0.1666667
        k(    8) = (   0.3333333   0.0000000  -0.1529535), wk =   0.1666667
        k(    9) = (   0.3333333   0.3169751   0.0416961), wk =   0.3333333
        k(   10) = (   0.3333333   0.3169751  -0.1529535), wk =   0.3333333
        k(   11) = (   0.3333333  -0.6339502   0.0416961), wk =   0.1666667
        k(   12) = (   0.3333333  -0.6339502  -0.1529535), wk =   0.1666667

     Dense  grid:   468429 G-vectors     FFT dimensions: (  80,  64, 200)

     Estimated max dynamical RAM per process >     346.56MB

     Estimated total allocated dynamical RAM >    2772.48MB

     Check: negative/imaginary core charge=   -0.000002    0.000000

     Initial potential from superposition of free atoms

     starting charge  191.99939, renormalised to  192.00000
     Starting wfc are  156 randomized atomic wfcs
     Checking if some PAW data can be deallocated... 

     total cpu time spent up to now is       18.9 secs

     per-process dynamical memory:   326.0 Mb

     Self-consistent Calculation

     iteration #  1     ecut=   100.00 Ry     beta=0.50
     Davidson diagonalization with overlap
     ethr =  1.00E-02,  avg # of iterations =  3.0

     total cpu time spent up to now is       59.1 secs

     total energy              =   -1057.21568250 Ry
     Harris-Foulkes estimate   =   -1059.51732257 Ry
     estimated scf accuracy    <       4.34705878 Ry

     iteration #  2     ecut=   100.00 Ry     beta=0.50
     Davidson diagonalization with overlap
     ethr =  2.26E-03,  avg # of iterations =  3.5

     total cpu time spent up to now is       90.0 secs

     total energy              =   -1057.88510073 Ry
     Harris-Foulkes estimate   =   -1058.41050616 Ry
     estimated scf accuracy    <       1.13951643 Ry

     iteration #  3     ecut=   100.00 Ry     beta=0.50
     Davidson diagonalization with overlap
     ethr =  5.93E-04,  avg # of iterations =  6.0

     total cpu time spent up to now is      124.4 secs

     total energy              =   -1058.14705357 Ry
     Harris-Foulkes estimate   =   -1058.20744475 Ry
     estimated scf accuracy    <       0.16506684 Ry

     iteration #  4     ecut=   100.00 Ry     beta=0.50
     Davidson diagonalization with overlap
     ethr =  8.60E-05,  avg # of iterations = 11.6

     total cpu time spent up to now is      161.0 secs

     total energy              =   -1058.16477857 Ry
     Harris-Foulkes estimate   =   -1058.17324380 Ry
     estimated scf accuracy    <       0.02321462 Ry

     iteration #  5     ecut=   100.00 Ry     beta=0.50
     Davidson diagonalization with overlap
     ethr =  1.21E-05,  avg # of iterations = 10.0

     total cpu time spent up to now is      206.5 secs

     total energy              =   -1058.17070943 Ry
     Harris-Foulkes estimate   =   -1058.17491280 Ry
     estimated scf accuracy    <       0.01123839 Ry

     iteration #  6     ecut=   100.00 Ry     beta=0.50
     Davidson diagonalization with overlap
     ethr =  5.85E-06,  avg # of iterations =  5.2

     total cpu time spent up to now is      234.7 secs

     total energy              =   -1058.17213656 Ry
     Harris-Foulkes estimate   =   -1058.17258488 Ry
     estimated scf accuracy    <       0.00100834 Ry

     iteration #  7     ecut=   100.00 Ry     beta=0.50
     Davidson diagonalization with overlap
     ethr =  5.25E-07,  avg # of iterations =  5.7

     total cpu time spent up to now is      276.0 secs

     total energy              =   -1058.17266656 Ry
     Harris-Foulkes estimate   =   -1058.17280298 Ry
     estimated scf accuracy    <       0.00042257 Ry

     iteration #  8     ecut=   100.00 Ry     beta=0.50
     Davidson diagonalization with overlap
     ethr =  2.20E-07,  avg # of iterations =  2.0

     total cpu time spent up to now is      299.9 secs

     total energy              =   -1058.17267799 Ry
     Harris-Foulkes estimate   =   -1058.17273224 Ry
     estimated scf accuracy    <       0.00015222 Ry

     iteration #  9     ecut=   100.00 Ry     beta=0.50
     Davidson diagonalization with overlap
     ethr =  7.93E-08,  avg # of iterations =  3.0

     total cpu time spent up to now is      328.7 secs

     total energy              =   -1058.17271677 Ry
     Harris-Foulkes estimate   =   -1058.17271980 Ry
     estimated scf accuracy    <       0.00001344 Ry

     iteration # 10     ecut=   100.00 Ry     beta=0.50
     Davidson diagonalization with overlap
     ethr =  7.00E-09,  avg # of iterations =  4.0

     total cpu time spent up to now is      362.3 secs

     total energy              =   -1058.17272010 Ry
     Harris-Foulkes estimate   =   -1058.17272157 Ry
     estimated scf accuracy    <       0.00000520 Ry

     iteration # 11     ecut=   100.00 Ry     beta=0.50
     Davidson diagonalization with overlap
     ethr =  2.71E-09,  avg # of iterations =  1.0

     total cpu time spent up to now is      384.5 secs

     total energy              =   -1058.17271985 Ry
     Harris-Foulkes estimate   =   -1058.17272042 Ry
     estimated scf accuracy    <       0.00000133 Ry

     iteration # 12     ecut=   100.00 Ry     beta=0.50
     Davidson diagonalization with overlap
     ethr =  6.95E-10,  avg # of iterations =  4.0

     total cpu time spent up to now is      419.1 secs

     total energy              =   -1058.17272048 Ry
     Harris-Foulkes estimate   =   -1058.17272053 Ry
     estimated scf accuracy    <       0.00000015 Ry

     iteration # 13     ecut=   100.00 Ry     beta=0.50
     Davidson diagonalization with overlap
     ethr =  7.95E-11,  avg # of iterations =  2.0

     total cpu time spent up to now is      442.7 secs

     total energy              =   -1058.17272047 Ry
     Harris-Foulkes estimate   =   -1058.17272050 Ry
     estimated scf accuracy    <       0.00000006 Ry

     iteration # 14     ecut=   100.00 Ry     beta=0.50
     Davidson diagonalization with overlap
     ethr =  3.34E-11,  avg # of iterations =  4.0

     total cpu time spent up to now is      474.8 secs

     End of self-consistent calculation

          k = 0.0000 0.0000 0.0000 ( 58447 PWs)   bands (ev):

   -24.2463 -24.2459 -24.2254 -24.2252 -22.4343 -22.4320 -22.4232 -22.4218
   -19.7939 -19.7939 -19.7924 -19.7923 -17.4512 -17.4490 -17.4476 -17.4457
   -16.0438 -16.0193 -15.9471 -15.9394 -12.8691 -12.7894 -12.7599 -12.7253
   -11.6115 -11.5700 -11.5539 -11.5288  -9.1567  -9.1091  -9.0069  -8.9867
    -8.7515  -8.7332  -8.7174  -8.6881  -7.1430  -7.0830  -7.0636  -7.0308
    -7.0185  -6.9948  -6.5937  -6.5931  -6.2453  -6.1755  -6.0106  -5.9109
    -5.7247  -5.7182  -5.5548  -5.5348  -5.4066  -5.3713  -5.3437  -5.3194
    -3.7654  -3.7285  -3.5557  -3.5543  -3.4747  -3.4632  -3.3437  -3.2501
    -2.9497  -2.9226  -2.8092  -2.7926  -1.6324  -1.6285  -1.3503  -1.3216
    -1.1922  -1.1566  -1.0441  -1.0265  -1.0251  -1.0170  -0.8838  -0.8574
    -0.8468  -0.7901  -0.7846  -0.7677  -0.5345  -0.5096  -0.4493  -0.4111
    -0.3501  -0.2881  -0.2762  -0.2355  -0.0625  -0.0188  -0.0185   0.0127
     3.2825   3.3085   3.4982   3.5117   4.7472   4.7591   5.0302   5.0375
     7.0778   7.0792   7.0967   7.1392   7.3826   7.4840   8.1668   8.5996
     8.6583   8.8848   8.9592

          k = 0.0000 0.0000-0.1946 ( 58458 PWs)   bands (ev):

   -24.2461 -24.2461 -24.2253 -24.2253 -22.4332 -22.4332 -22.4224 -22.4224
   -19.7939 -19.7939 -19.7923 -19.7923 -17.4504 -17.4504 -17.4464 -17.4464
   -16.0323 -16.0323 -15.9425 -15.9425 -12.8313 -12.8313 -12.7416 -12.7416
   -11.5822 -11.5822 -11.5486 -11.5486  -9.1344  -9.1344  -8.9951  -8.9951
    -8.7255  -8.7255  -8.7209  -8.7209  -7.1025  -7.1025  -7.0568  -7.0568
    -7.0072  -7.0072  -6.5934  -6.5934  -6.2118  -6.2118  -5.9664  -5.9664
    -5.7093  -5.7093  -5.5494  -5.5494  -5.3890  -5.3890  -5.3314  -5.3314
    -3.7448  -3.7448  -3.5588  -3.5588  -3.4687  -3.4687  -3.3001  -3.3001
    -2.9253  -2.9253  -2.8074  -2.8074  -1.6313  -1.6313  -1.3358  -1.3358
    -1.1756  -1.1756  -1.0285  -1.0285  -1.0197  -1.0197  -0.8677  -0.8677
    -0.8304  -0.8304  -0.7763  -0.7763  -0.5290  -0.5290  -0.4246  -0.4246
    -0.3256  -0.3256  -0.2423  -0.2423  -0.0431  -0.0431  -0.0027  -0.0027
     3.2953   3.2953   3.5050   3.5050   4.7533   4.7533   5.0338   5.0338
     7.0770   7.0770   7.1197   7.1197   7.4247   7.4247   8.3382   8.3382
     8.7757   8.7758   9.0085

          k = 0.0000 0.3170 0.0000 ( 58502 PWs)   bands (ev):

   -24.2407 -24.2403 -24.2259 -24.2257 -22.4291 -22.4270 -22.4213 -22.4198
   -19.7993 -19.7992 -19.7983 -19.7982 -17.4671 -17.4648 -17.4645 -17.4622
   -16.0231 -16.0015 -15.9541 -15.9448 -12.8525 -12.7839 -12.7743 -12.7379
   -11.6127 -11.5835 -11.5575 -11.5370  -9.1085  -9.0728  -8.9950  -8.9786
    -8.7404  -8.7174  -8.7056  -8.6874  -7.2692  -7.2022  -7.1159  -7.0793
    -6.7958  -6.7691  -6.6496  -6.6349  -6.1375  -6.0861  -6.0750  -5.9508
    -5.8231  -5.7188  -5.6519  -5.6425  -5.5272  -5.4652  -5.4032  -5.3875
    -3.6248  -3.6183  -3.5848  -3.5563  -3.4391  -3.3540  -3.3148  -3.2364
    -2.8414  -2.7639  -2.7426  -2.6676  -1.5711  -1.5572  -1.3313  -1.3052
    -1.1580  -1.1453  -1.1286  -1.1024  -0.9889  -0.9597  -0.8609  -0.8587
    -0.8459  -0.8114  -0.7887  -0.7663  -0.5060  -0.4721  -0.4467  -0.3906
    -0.3858  -0.2885  -0.2818  -0.2509  -0.1004  -0.0609  -0.0517  -0.0342
     3.2092   3.2347   3.3678   3.3745   4.7231   4.7413   4.9312   4.9354
     6.9482   6.9738   6.9773   7.0207   7.6235   7.7589   8.3320   8.4152
     8.7675   8.9005   9.0217

          k = 0.0000 0.3170-0.1946 ( 58512 PWs)   bands (ev):

   -24.2405 -24.2405 -24.2258 -24.2258 -22.4282 -22.4282 -22.4204 -22.4204
   -19.7993 -19.7993 -19.7982 -19.7982 -17.4664 -17.4664 -17.4629 -17.4629
   -16.0132 -16.0132 -15.9486 -15.9486 -12.8198 -12.8198 -12.7555 -12.7555
   -11.5876 -11.5876 -11.5567 -11.5567  -9.0916  -9.0916  -8.9863  -8.9863
    -8.7145  -8.7145  -8.7110  -8.7110  -7.2362  -7.2362  -7.0968  -7.0968
    -6.7828  -6.7828  -6.6422  -6.6422  -6.1192  -6.1192  -6.0136  -6.0136
    -5.7636  -5.7636  -5.6496  -5.6496  -5.4931  -5.4931  -5.3946  -5.3946
    -3.6186  -3.6186  -3.5654  -3.5654  -3.4243  -3.4243  -3.2567  -3.2567
    -2.8121  -2.8121  -2.6951  -2.6951  -1.5640  -1.5640  -1.3179  -1.3179
    -1.1472  -1.1472  -1.1198  -1.1198  -0.9733  -0.9733  -0.8602  -0.8602
    -0.8355  -0.8355  -0.7791  -0.7791  -0.4797  -0.4797  -0.4295  -0.4295
    -0.3309  -0.3309  -0.2598  -0.2598  -0.0843  -0.0843  -0.0431  -0.0431
     3.2218   3.2219   3.3710   3.3710   4.7324   4.7324   4.9332   4.9332
     6.9575   6.9575   7.0013   7.0013   7.6897   7.6898   8.3644   8.3644
     8.8716   8.8716   9.0099

          k = 0.0000-0.6340 0.0000 ( 58646 PWs)   bands (ev):

   -24.2307 -24.2307 -24.2305 -24.2305 -22.4216 -22.4216 -22.4198 -22.4198
   -19.8044 -19.8044 -19.8043 -19.8043 -17.4824 -17.4824 -17.4794 -17.4794
   -15.9817 -15.9817 -15.9668 -15.9668 -12.8121 -12.8121 -12.7649 -12.7649
   -11.6052 -11.6052 -11.5534 -11.5534  -9.0295  -9.0295  -8.9941  -8.9941
    -8.7169  -8.7169  -8.6883  -8.6883  -7.2484  -7.2484  -7.1969  -7.1969
    -6.6617  -6.6617  -6.6453  -6.6453  -6.0493  -6.0493  -5.9045  -5.9045
    -5.8674  -5.8674  -5.8206  -5.8206  -5.5967  -5.5967  -5.4473  -5.4473
    -3.6308  -3.6308  -3.4674  -3.4674  -3.3919  -3.3919  -3.2275  -3.2275
    -2.6759  -2.6759  -2.5548  -2.5548  -1.4489  -1.4489  -1.4138  -1.4138
    -1.1366  -1.1366  -1.1015  -1.1015  -0.9535  -0.9535  -0.8887  -0.8887
    -0.7974  -0.7974  -0.7752  -0.7752  -0.4766  -0.4766  -0.4108  -0.4108
    -0.3536  -0.3536  -0.2812  -0.2812  -0.1112  -0.1112  -0.0799  -0.0799
     3.1804   3.1804   3.1983   3.1983   4.7802   4.7802   4.7908   4.7908
     6.8483   6.8483   6.8776   6.8776   7.9194   7.9194   8.3104   8.3104
     8.9485   8.9485   9.0749

          k = 0.0000-0.6340-0.1946 ( 58576 PWs)   bands (ev):

   -24.2307 -24.2307 -24.2305 -24.2305 -22.4216 -22.4216 -22.4198 -22.4198
   -19.8044 -19.8044 -19.8043 -19.8043 -17.4823 -17.4823 -17.4794 -17.4794
   -15.9807 -15.9807 -15.9679 -15.9679 -12.7911 -12.7911 -12.7868 -12.7868
   -11.5916 -11.5916 -11.5661 -11.5661  -9.0293  -9.0293  -8.9953  -8.9953
    -8.7036  -8.7036  -8.7008  -8.7008  -7.2425  -7.2425  -7.2033  -7.2033
    -6.6617  -6.6617  -6.6458  -6.6458  -5.9938  -5.9938  -5.9743  -5.9743
    -5.8644  -5.8644  -5.8247  -5.8247  -5.5646  -5.5646  -5.4630  -5.4630
    -3.6219  -3.6219  -3.4966  -3.4966  -3.3618  -3.3618  -3.2376  -3.2376
    -2.6763  -2.6763  -2.5541  -2.5541  -1.4437  -1.4437  -1.4199  -1.4199
    -1.1340  -1.1340  -1.1038  -1.1038  -0.9416  -0.9416  -0.9065  -0.9065
    -0.7897  -0.7897  -0.7833  -0.7833  -0.4549  -0.4549  -0.4165  -0.4165
    -0.3591  -0.3591  -0.2790  -0.2790  -0.1019  -0.1019  -0.0949  -0.0949
     3.1858   3.1858   3.1927   3.1927   4.7815   4.7815   4.7897   4.7897
     6.8513   6.8513   6.8735   6.8735   7.9260   7.9260   8.3108   8.3108
     8.9274   8.9275   9.1133

          k = 0.3333 0.0000 0.0417 ( 58545 PWs)   bands (ev):

   -24.2406 -24.2402 -24.2298 -24.2297 -22.4326 -22.4319 -22.4263 -22.4261
   -19.7932 -19.7931 -19.7917 -19.7917 -17.4524 -17.4493 -17.4459 -17.4430
   -16.0183 -16.0061 -15.9652 -15.9598 -12.8628 -12.7951 -12.7687 -12.7194
   -11.6413 -11.5652 -11.5452 -11.5208  -9.1203  -9.0924  -9.0307  -9.0307
    -8.7636  -8.7495  -8.7233  -8.7054  -7.2908  -7.2083  -7.2070  -7.1659
    -6.7240  -6.7201  -6.5741  -6.5718  -6.0071  -5.9755  -5.9574  -5.8501
    -5.8027  -5.7441  -5.6301  -5.6112  -5.5047  -5.4126  -5.4039  -5.3440
    -3.7055  -3.6955  -3.6180  -3.5892  -3.4745  -3.4648  -3.3374  -3.2877
    -2.9141  -2.8320  -2.7849  -2.7449  -1.5469  -1.5274  -1.3395  -1.3349
    -1.2259  -1.1652  -1.1205  -1.1077  -1.0506  -1.0394  -0.9884  -0.9610
    -0.8446  -0.7851  -0.6932  -0.6615  -0.5943  -0.5577  -0.4939  -0.4830
    -0.3675  -0.2779  -0.2755  -0.2573  -0.0771  -0.0473  -0.0422  -0.0149
     3.3336   3.3502   3.4418   3.4520   4.8143   4.8242   4.9578   4.9628
     7.0430   7.0436   7.1272   7.1355   7.8413   7.9152   8.5770   8.7832
     8.7956   8.9261   9.0042

          k = 0.3333 0.0000-0.1530 ( 58538 PWs)   bands (ev):

   -24.2405 -24.2403 -24.2298 -24.2297 -22.4330 -22.4313 -22.4271 -22.4255
   -19.7932 -19.7931 -19.7918 -19.7917 -17.4513 -17.4511 -17.4442 -17.4440
   -16.0177 -16.0054 -15.9695 -15.9569 -12.8344 -12.8253 -12.7490 -12.7399
   -11.6045 -11.6032 -11.5321 -11.5300  -9.1103  -9.1022  -9.0331  -9.0270
    -8.7470  -8.7434  -8.7284  -8.7269  -7.2481  -7.2363  -7.2007  -7.1852
    -6.7235  -6.7211  -6.5763  -6.5701  -5.9923  -5.9774  -5.9222  -5.9164
    -5.7876  -5.7451  -5.6303  -5.6072  -5.5007  -5.4115  -5.3889  -5.3622
    -3.7110  -3.6843  -3.6167  -3.5986  -3.4715  -3.4657  -3.3445  -3.2769
    -2.8835  -2.8775  -2.7946  -2.7242  -1.5468  -1.5207  -1.3648  -1.3171
    -1.2245  -1.1691  -1.1186  -1.1117  -1.0539  -1.0267  -0.9794  -0.9710
    -0.8329  -0.8047  -0.6818  -0.6718  -0.5881  -0.5619  -0.5014  -0.4828
    -0.3387  -0.3114  -0.2692  -0.2484  -0.0664  -0.0621  -0.0290  -0.0245
     3.3405   3.3429   3.4450   3.4484   4.8121   4.8273   4.9562   4.9638
     7.0384   7.0517   7.1254   7.1351   7.8252   7.9201   8.7117   8.7186
     8.7518   8.8822   8.9952

          k = 0.3333 0.3170 0.0417 ( 58607 PWs)   bands (ev):

   -24.2367 -24.2364 -24.2290 -24.2290 -22.4273 -22.4267 -22.4227 -22.4224
   -19.7996 -19.7995 -19.7982 -19.7982 -17.4688 -17.4657 -17.4641 -17.4611
   -16.0040 -15.9938 -15.9651 -15.9601 -12.8465 -12.7875 -12.7792 -12.7336
   -11.6322 -11.5698 -11.5592 -11.5330  -9.0892  -9.0544  -9.0225  -8.9855
    -8.7386  -8.7230  -8.7040  -8.6910  -7.2697  -7.2142  -7.0877  -7.0623
    -6.8129  -6.7996  -6.6319  -6.6225  -6.1937  -6.1105  -6.0081  -5.9193
    -5.8086  -5.7232  -5.6834  -5.6720  -5.5302  -5.4470  -5.3829  -5.3602
    -3.6780  -3.6528  -3.5619  -3.4856  -3.4333  -3.4199  -3.2547  -3.2395
    -2.8390  -2.7903  -2.7444  -2.6675  -1.4894  -1.4803  -1.3411  -1.3166
    -1.1727  -1.1684  -1.1081  -1.0755  -1.0267  -1.0194  -0.9358  -0.9252
    -0.8032  -0.7692  -0.7317  -0.6913  -0.5728  -0.5360  -0.5042  -0.4931
    -0.3376  -0.2723  -0.2619  -0.2247  -0.0872  -0.0710  -0.0561  -0.0311
     3.2414   3.2615   3.3199   3.3342   4.7681   4.7723   4.8841   4.8899
     6.9255   6.9565   6.9948   7.0192   7.9428   8.2395   8.4253   8.7008
     8.8449   8.9544   9.0023

          k = 0.3333 0.3170-0.1530 ( 58603 PWs)   bands (ev):

   -24.2366 -24.2365 -24.2291 -24.2289 -22.4277 -22.4261 -22.4235 -22.4219
   -19.7996 -19.7995 -19.7982 -19.7981 -17.4680 -17.4674 -17.4627 -17.4617
   -16.0040 -15.9920 -15.9696 -15.9575 -12.8212 -12.8143 -12.7597 -12.7538
   -11.6045 -11.5936 -11.5523 -11.5415  -9.0853  -9.0576  -9.0226  -8.9862
    -8.7296  -8.7153  -8.7146  -8.6984  -7.2499  -7.2267  -7.0859  -7.0714
    -6.8113  -6.8019  -6.6334  -6.6215  -6.1732  -6.1296  -5.9780  -5.9470
    -5.7992  -5.7606  -5.6882  -5.6551  -5.5052  -5.4288  -5.4045  -5.3679
    -3.6686  -3.6626  -3.5363  -3.4978  -3.4715  -3.3932  -3.2608  -3.2344
    -2.8330  -2.8019  -2.7406  -2.6663  -1.4980  -1.4689  -1.3513  -1.3084
    -1.1842  -1.1497  -1.1157  -1.0743  -1.0296  -1.0144  -0.9377  -0.9229
    -0.8052  -0.7700  -0.7274  -0.7016  -0.5631  -0.5362  -0.5195  -0.4902
    -0.3206  -0.2770  -0.2550  -0.2301  -0.0842  -0.0778  -0.0498  -0.0392
     3.2498   3.2534   3.3229   3.3304   4.7495   4.8069   4.8500   4.9085
     6.9355   6.9469   7.0022   7.0105   7.9522   8.2274   8.4418   8.6784
     8.8485   8.9574   9.0477

          k = 0.3333-0.6340 0.0417 ( 58586 PWs)   bands (ev):

   -24.2306 -24.2306 -24.2303 -24.2303 -22.4212 -22.4212 -22.4196 -22.4196
   -19.8053 -19.8053 -19.8052 -19.8052 -17.4838 -17.4838 -17.4806 -17.4806
   -15.9808 -15.9808 -15.9674 -15.9674 -12.8098 -12.8098 -12.7645 -12.7645
   -11.6038 -11.6038 -11.5543 -11.5543  -9.0398  -9.0398  -8.9728  -8.9728
    -8.7016  -8.7016  -8.6821  -8.6821  -7.1248  -7.1248  -7.0800  -7.0800
    -6.8024  -6.8024  -6.7756  -6.7756  -6.2335  -6.2335  -6.1328  -6.1328
    -5.7586  -5.7586  -5.6695  -5.6695  -5.5020  -5.5020  -5.3897  -5.3897
    -3.6298  -3.6298  -3.5057  -3.5057  -3.3685  -3.3685  -3.2234  -3.2234
    -2.6938  -2.6938  -2.6142  -2.6142  -1.4141  -1.4141  -1.3809  -1.3809
    -1.1295  -1.1295  -1.0954  -1.0954  -0.9194  -0.9194  -0.8928  -0.8928
    -0.8106  -0.8106  -0.7499  -0.7499  -0.5293  -0.5293  -0.4827  -0.4827
    -0.2918  -0.2918  -0.2332  -0.2332  -0.0868  -0.0868  -0.0747  -0.0747
     3.1748   3.1748   3.1949   3.1949   4.7611   4.7611   4.7917   4.7917
     6.8487   6.8487   6.8810   6.8810   8.1466   8.1466   8.6067   8.6067
     8.9108   8.9108   9.0760

          k = 0.3333-0.6340-0.1530 ( 58638 PWs)   bands (ev):

   -24.2306 -24.2306 -24.2304 -24.2304 -22.4212 -22.4212 -22.4196 -22.4196
   -19.8053 -19.8053 -19.8052 -19.8052 -17.4838 -17.4838 -17.4806 -17.4806
   -15.9801 -15.9801 -15.9682 -15.9682 -12.7892 -12.7892 -12.7858 -12.7858
   -11.5875 -11.5875 -11.5697 -11.5697  -9.0400  -9.0400  -8.9731  -8.9731
    -8.6987  -8.6987  -8.6846  -8.6846  -7.1180  -7.1180  -7.0871  -7.0871
    -6.8005  -6.8005  -6.7784  -6.7784  -6.2102  -6.2102  -6.1554  -6.1554
    -5.7453  -5.7453  -5.6964  -5.6964  -5.4659  -5.4659  -5.4118  -5.4118
    -3.6279  -3.6279  -3.4976  -3.4976  -3.3824  -3.3824  -3.2193  -3.2193
    -2.6945  -2.6945  -2.6131  -2.6131  -1.4129  -1.4129  -1.3825  -1.3825
    -1.1160  -1.1160  -1.1098  -1.1098  -0.9141  -0.9141  -0.8961  -0.8961
    -0.7993  -0.7993  -0.7639  -0.7639  -0.5290  -0.5290  -0.4859  -0.4859
    -0.2733  -0.2733  -0.2403  -0.2403  -0.0938  -0.0938  -0.0744  -0.0744
     3.1804   3.1804   3.1892   3.1892   4.7612   4.7612   4.7918   4.7918
     6.8585   6.8585   6.8703   6.8703   8.1613   8.1613   8.5949   8.5949
     8.8633   8.8633   9.1663

     highest occupied, lowest unoccupied level (ev):     0.0127    3.1748

!    total energy              =   -1058.17272049 Ry
     Harris-Foulkes estimate   =   -1058.17272050 Ry
     estimated scf accuracy    <          6.6E-09 Ry

     total all-electron energy =     -4017.036641 Ry

     The total energy is the sum of the following terms:

     one-electron contribution =    -613.08494765 Ry
     hartree contribution      =     381.86630450 Ry
     xc contribution           =    -208.24995069 Ry
     ewald contribution        =    -323.44392015 Ry
     Dispersion Correction     =      -0.21592445 Ry
     one-center paw contrib.   =    -295.04428204 Ry

     convergence has been achieved in  14 iterations

     Forces acting on atoms (cartesian axes, Ry/au):

     atom    1 type  4   force =    -0.00371839    0.00430340    0.00152639
     atom    2 type  4   force =     0.00371839    0.00430340   -0.00152639
     atom    3 type  4   force =     0.00371839   -0.00430340   -0.00152639
     atom    4 type  4   force =    -0.00371839   -0.00430340    0.00152639
     atom    5 type  4   force =     0.00295679   -0.00472346    0.00149083
     atom    6 type  4   force =    -0.00295679   -0.00472346   -0.00149083
     atom    7 type  4   force =    -0.00295679    0.00472346   -0.00149083
     atom    8 type  4   force =     0.00295679    0.00472346    0.00149083
     atom    9 type  2   force =    -0.00091017   -0.00072944    0.00612938
     atom   10 type  2   force =     0.00091017   -0.00072944   -0.00612938
     atom   11 type  2   force =     0.00091017    0.00072944   -0.00612938
     atom   12 type  2   force =    -0.00091017    0.00072944    0.00612938
     atom   13 type  2   force =     0.00294951   -0.00071198   -0.00722652
     atom   14 type  2   force =    -0.00294951   -0.00071198    0.00722652
     atom   15 type  2   force =    -0.00294951    0.00071198    0.00722652
     atom   16 type  2   force =     0.00294951    0.00071198   -0.00722652
     atom   17 type  2   force =    -0.00621924    0.00230114   -0.00475488
     atom   18 type  2   force =     0.00621924    0.00230114    0.00475488
     atom   19 type  2   force =     0.00621924   -0.00230114    0.00475488
     atom   20 type  2   force =    -0.00621924   -0.00230114   -0.00475488
     atom   21 type  2   force =    -0.00218412   -0.00025941    0.00776639
     atom   22 type  2   force =     0.00218412   -0.00025941   -0.00776639
     atom   23 type  2   force =     0.00218412    0.00025941   -0.00776639
     atom   24 type  2   force =    -0.00218412    0.00025941    0.00776639
     atom   25 type  2   force =     0.00029829    0.00104892   -0.00167539
     atom   26 type  2   force =    -0.00029829    0.00104892    0.00167539
     atom   27 type  2   force =    -0.00029829   -0.00104892    0.00167539
     atom   28 type  2   force =     0.00029829   -0.00104892   -0.00167539
     atom   29 type  1   force =     0.00033877   -0.00163420    0.00531133
     atom   30 type  1   force =    -0.00033877   -0.00163420   -0.00531133
     atom   31 type  1   force =    -0.00033877    0.00163420   -0.00531133
     atom   32 type  1   force =     0.00033877    0.00163420    0.00531133
     atom   33 type  1   force =     0.00226732   -0.00581765   -0.00304552
     atom   34 type  1   force =    -0.00226732   -0.00581765    0.00304552
     atom   35 type  1   force =    -0.00226732    0.00581765    0.00304552
     atom   36 type  1   force =     0.00226732    0.00581765   -0.00304552
     atom   37 type  3   force =     0.00062150    0.00119446   -0.00150667
     atom   38 type  3   force =    -0.00062150    0.00119446    0.00150667
     atom   39 type  3   force =    -0.00062150   -0.00119446    0.00150667
     atom   40 type  3   force =     0.00062150   -0.00119446   -0.00150667
     atom   41 type  3   force =     0.00123652    0.00578516   -0.00465607
     atom   42 type  3   force =    -0.00123652    0.00578516    0.00465607
     atom   43 type  3   force =    -0.00123652   -0.00578516    0.00465607
     atom   44 type  3   force =     0.00123652   -0.00578516   -0.00465607
     atom   45 type  3   force =    -0.00068537   -0.00058060   -0.00132004
     atom   46 type  3   force =     0.00068537   -0.00058060    0.00132004
     atom   47 type  3   force =     0.00068537    0.00058060    0.00132004
     atom   48 type  3   force =    -0.00068537    0.00058060   -0.00132004

     Total force =     0.042266     Total SCF correction =     0.000129


     Computing stress (Cartesian axis) and pressure

          total   stress  (Ry/bohr**3)                   (kbar)     P=   -2.29
  -0.00002647   0.00000000  -0.00000927         -3.89      0.00     -1.36
   0.00000000  -0.00002932   0.00000000          0.00     -4.31      0.00
  -0.00000927   0.00000000   0.00000916         -1.36      0.00      1.35


     Writing output data file scf.save
 
     init_run     :     17.79s CPU     18.27s WALL (       1 calls)
     electrons    :    434.99s CPU    455.94s WALL (       1 calls)
     forces       :      9.12s CPU      9.21s WALL (       1 calls)
     stress       :     43.97s CPU     44.19s WALL (       1 calls)

     Called by init_run:
     wfcinit      :     11.18s CPU     11.57s WALL (       1 calls)
     potinit      :      2.33s CPU      2.35s WALL (       1 calls)

     Called by electrons:
     c_bands      :    383.25s CPU    401.33s WALL (      14 calls)
     sum_band     :     45.34s CPU     47.72s WALL (      14 calls)
     v_of_rho     :      1.02s CPU      1.11s WALL (      15 calls)
     newd         :      1.97s CPU      2.36s WALL (      15 calls)
     PAW_pot      :      3.10s CPU      3.10s WALL (      15 calls)
     mix_rho      :      0.25s CPU      0.26s WALL (      14 calls)

     Called by c_bands:
     init_us_2    :      4.74s CPU      4.75s WALL (     372 calls)
     cegterg      :    367.07s CPU    385.11s WALL (     168 calls)

     Called by sum_band:
     sum_band:bec :      0.04s CPU      0.04s WALL (     168 calls)
     addusdens    :      2.23s CPU      2.58s WALL (      14 calls)

     Called by *egterg:
     h_psi        :    216.14s CPU    227.96s WALL (     960 calls)
     s_psi        :     33.83s CPU     33.84s WALL (     960 calls)
     g_psi        :      1.98s CPU      1.98s WALL (     780 calls)
     cdiaghg      :     32.46s CPU     32.46s WALL (     948 calls)

     Called by h_psi:
     h_psi:pot    :    213.53s CPU    225.30s WALL (     960 calls)
     h_psi:calbec :     30.95s CPU     31.10s WALL (     960 calls)
     vloc_psi     :    148.78s CPU    160.39s WALL (     960 calls)
     add_vuspsi   :     33.79s CPU     33.80s WALL (     960 calls)

     General routines
     calbec       :     46.97s CPU     47.17s WALL (    1188 calls)
     fft          :      0.72s CPU      0.86s WALL (     219 calls)
     fftw         :    157.97s CPU    170.60s WALL (  125280 calls)
 
     Parallel routines
     fft_scatter  :     48.51s CPU     56.78s WALL (  125499 calls)
 
     PWSCF        :  8m32.11s CPU     8m55.37s WALL

 
   This run was terminated on:   0:18:18   5Dec2017            

=------------------------------------------------------------------------------=
   JOB DONE.
=------------------------------------------------------------------------------=
