
     Program PWSCF v.6.1 (svn rev. 13369) starts on  7Dec2017 at 18:14:25 

     This program is part of the open-source Quantum ESPRESSO suite
     for quantum simulation of materials; please cite
         "P. Giannozzi et al., J. Phys.:Condens. Matter 21 395502 (2009);
          URL http://www.quantum-espresso.org", 
     in publications or presentations arising from this work. More details at
     http://www.quantum-espresso.org/quote

     Parallel version (MPI), running on     8 processors
     R & G space division:  proc/nbgrp/npool/nimage =       8
     Waiting for input...
     Reading input from standard input

     Current dimensions of program PWSCF are:
     Max number of different atomic species (ntypx) = 10
     Max number of k-points (npk) =  40000
     Max angular momentum in pseudopotentials (lmaxx) =  3
               file C.pbe-n-kjpaw_psl.0.1.UPF: wavefunction(s)  2P renormalized
               file N.pbe-n-kjpaw_psl.0.1.UPF: wavefunction(s)  2P renormalized
               file H.pbe-kjpaw_psl.0.1.UPF: wavefunction(s)  1S renormalized
               file O.pbe-n-kjpaw_psl.0.1.UPF: wavefunction(s)  2P renormalized

     -------------------------------------
     Parameters for Dispersion Correction:
     -------------------------------------
       atom      VdW radius       C_6     

        C          2.744         60.710
        N          2.640         42.670
        H          1.892          4.857
        O          2.536         24.284

     Subspace diagonalization in iterative solution of the eigenvalue problem:
     a serial algorithm will be used

 
     Parallelization info
     --------------------
     sticks:   dense  smooth     PW     G-vecs:    dense   smooth      PW
     Min         773     773    202                61546    61546    8284
     Max         774     774    203                61548    61548    8288
     Sum        6187    6187   1619               492377   492377   66287
 


     bravais-lattice index     =            0
     lattice parameter (alat)  =      13.4851  a.u.
     unit-cell volume          =    3645.7415 (a.u.)^3
     number of atoms/cell      =           58
     number of atomic types    =            4
     number of electrons       =       188.00
     number of Kohn-Sham states=          112
     kinetic-energy cutoff     =     100.0000  Ry
     charge density cutoff     =     400.0000  Ry
     convergence threshold     =      1.0E-08
     mixing beta               =       0.5000
     number of iterations used =            8  plain     mixing
     Exchange-correlation      =  SLA  PW   PBX  PBC ( 1  4  3  4 0 0)

     celldm(1)=  13.485086  celldm(2)=   0.000000  celldm(3)=   0.000000
     celldm(4)=   0.000000  celldm(5)=   0.000000  celldm(6)=   0.000000

     crystal axes: (cart. coord. in units of alat)
               a(1) = (   1.000000   0.000000   0.000000 )  
               a(2) = (   0.000000   1.070067   0.000000 )  
               a(3) = (  -0.283678   0.000000   1.389356 )  

     reciprocal axes: (cart. coord. in units 2 pi/alat)
               b(1) = (  1.000000  0.000000  0.204179 )  
               b(2) = (  0.000000  0.934521  0.000000 )  
               b(3) = (  0.000000  0.000000  0.719758 )  


     PseudoPot. # 1 for  C read from file:
     /scratch/ahofstet/pseudo/C.pbe-n-kjpaw_psl.0.1.UPF
     MD5 check sum: 430fe95172b1e11ef3f8ed03bac87931
     Pseudo is Projector augmented-wave + core cor, Zval =  4.0
     Generated using "atomic" code by A. Dal Corso  v.5.0.99 svn rev. 10869
     Shape of augmentation charge: BESSEL
     Using radial grid of 1073 points,  4 beta functions with: 
                l(1) =   0
                l(2) =   0
                l(3) =   1
                l(4) =   1
     Q(r) pseudized with 0 coefficients 


     PseudoPot. # 2 for  N read from file:
     /scratch/ahofstet/pseudo/N.pbe-n-kjpaw_psl.0.1.UPF
     MD5 check sum: f73187c8b701007e77325f868c9291d7
     Pseudo is Projector augmented-wave + core cor, Zval =  5.0
     Generated using "atomic" code by A. Dal Corso  v.5.0.99 svn rev. 10869
     Shape of augmentation charge: PSQ
     Using radial grid of 1085 points,  4 beta functions with: 
                l(1) =   0
                l(2) =   0
                l(3) =   1
                l(4) =   1
     Q(r) pseudized with 0 coefficients 


     PseudoPot. # 3 for  H read from file:
     /scratch/ahofstet/pseudo/H.pbe-kjpaw_psl.0.1.UPF
     MD5 check sum: 94e484f906d9e9773b2f6e52662335b2
     Pseudo is Projector augmented-wave, Zval =  1.0
     Generated using "atomic" code by A. Dal Corso  v.5.0.99 svn rev. 10869
     Shape of augmentation charge: PSQ
     Using radial grid of  929 points,  2 beta functions with: 
                l(1) =   0
                l(2) =   0
     Q(r) pseudized with 0 coefficients 


     PseudoPot. # 4 for  O read from file:
     /scratch/ahofstet/pseudo/O.pbe-n-kjpaw_psl.0.1.UPF
     MD5 check sum: 3f94a2996a3169367d6eb21d9b593f20
     Pseudo is Projector augmented-wave + core cor, Zval =  6.0
     Generated using "atomic" code by A. Dal Corso  v.5.0.99 svn rev. 10869
     Shape of augmentation charge: BESSEL
     Using radial grid of 1095 points,  4 beta functions with: 
                l(1) =   0
                l(2) =   0
                l(3) =   1
                l(4) =   1
     Q(r) pseudized with 0 coefficients 


     atomic species   valence    mass     pseudopotential
        C              4.00    12.01070      C( 1.00)
        N              5.00    14.00670      N( 1.00)
        H              1.00     1.00794      H( 1.00)
        O              6.00    15.99940      O( 1.00)

      2 Sym. Ops. (no inversion) found ( 1 have fractional translation)



   Cartesian axes

     site n.     atom                  positions (alat units)
         1           N   tau(   1) = (   0.3048836   0.3013304   0.1812036  )
         2           N   tau(   2) = (   0.4114384   0.8363640   1.2081527  )
         3           C   tau(   3) = (  -0.0055441   0.3296125   1.3776621  )
         4           C   tau(   4) = (   0.7218661   0.8646462   0.0116943  )
         5           O   tau(   5) = (  -0.1688988   0.3234811   1.3107936  )
         6           O   tau(   6) = (   0.8852208   0.8585147   0.0785628  )
         7           C   tau(   7) = (   0.1585562   0.3633096   1.2718243  )
         8           C   tau(   8) = (   0.5577658   0.8983432   0.1175321  )
         9           C   tau(   9) = (   0.3319633   0.3590642   1.3557519  )
        10           C   tau(  10) = (   0.3843587   0.8940978   0.0336045  )
        11           O   tau(  11) = (   0.4840754   0.3853230   1.2499448  )
        12           O   tau(  12) = (   0.2322466   0.9203566   0.1394116  )
        13           C   tau(  13) = (   0.6231967   0.3281741   0.1649984  )
        14           C   tau(  14) = (   0.0931253   0.8632078   1.2243580  )
        15           N   tau(  15) = (   0.4721703   0.3043977   0.2673171  )
        16           N   tau(  16) = (   0.2441517   0.8394313   1.1220393  )
        17           C   tau(  17) = (   0.1355170   0.2831877   0.2979286  )
        18           C   tau(  18) = (   0.5808050   0.8182213   1.0914278  )
        19           C   tau(  19) = (   0.1645924   0.2033557   0.4959819  )
        20           C   tau(  20) = (   0.5517296   0.7383893   0.8933745  )
        21           O   tau(  21) = (  -0.0030000   0.1180733   0.5577659  )
        22           O   tau(  22) = (   0.7193220   0.6531069   0.8315905  )
        23           C   tau(  23) = (   0.1868438   0.3841643   0.6138268  )
        24           C   tau(  24) = (   0.5294782   0.9191980   0.7755296  )
        25           O   tau(  25) = (   0.1565146   0.3599705   0.8073219  )
        26           O   tau(  26) = (   0.5598074   0.8950041   0.5820345  )
        27           C   tau(  27) = (   0.0448560   0.5131460   0.5166300  )
        28           C   tau(  28) = (   0.6714660   1.0481797   0.8727264  )
        29           O   tau(  29) = (   0.0552976   0.4658425   0.3197496  )
        30           O   tau(  30) = (   0.6610244   1.0008761   1.0696068  )
        31           C   tau(  31) = (   0.0815822   0.7196436   0.5414114  )
        32           C   tau(  32) = (   0.6347398   0.1846100   0.8479450  )
        33           O   tau(  33) = (  -0.0670976   0.8328328   0.4637430  )
        34           O   tau(  34) = (   0.7834196   0.2977992   0.9256134  )
        35           H   tau(  35) = (   0.1464186   0.3901224   1.1220064  )
        36           H   tau(  36) = (   0.5699034   0.9251561   0.2673500  )
        37           H   tau(  37) = (   0.6050565   0.3687080   1.3171577  )
        38           H   tau(  38) = (   0.1112655   0.9037416   0.0721987  )
        39           H   tau(  39) = (   0.7564114   0.3293970   0.2410573  )
        40           H   tau(  40) = (  -0.0400894   0.8644307   1.1482991  )
        41           H   tau(  41) = (   0.0379839   0.1942462   0.2176079  )
        42           H   tau(  42) = (   0.6783381   0.7292798   1.1717485  )
        43           H   tau(  43) = (   0.2871625   0.1103575   0.5047096  )
        44           H   tau(  44) = (   0.4291595   0.6453911   0.8846468  )
        45           H   tau(  45) = (  -0.0155960  -0.0118995   0.5082677  )
        46           H   tau(  46) = (   0.7319180   0.5231342   0.8810887  )
        47           H   tau(  47) = (   0.3299801   0.4390983   0.5953665  )
        48           H   tau(  48) = (   0.3863419   0.9741319   0.7939899  )
        49           H   tau(  49) = (   0.0282794   0.3101252   0.8244653  )
        50           H   tau(  50) = (   0.6880426   0.8451589   0.5648911  )
        51           H   tau(  51) = (  -0.0974065   0.4805796   0.5685553  )
        52           H   tau(  52) = (   0.8137285   1.0156133   0.8208011  )
        53           H   tau(  53) = (   0.2171475   0.7586171   0.4777596  )
        54           H   tau(  54) = (   0.4991745   0.2235834   0.9115968  )
        55           H   tau(  55) = (   0.0845304   0.7507361   0.6921434  )
        56           H   tau(  56) = (   0.6317916   0.2157024   0.6972130  )
        57           H   tau(  57) = (   0.9269914   0.8190337   0.3254516  )
        58           H   tau(  58) = (  -0.2106694   0.2840001   1.0639048  )

     number of k points=     8
                       cart. coord. in units 2pi/alat
        k(    1) = (   0.0000000   0.0000000   0.0000000), wk =   0.1111111
        k(    2) = (   0.0000000   0.0000000  -0.3598789), wk =   0.1111111
        k(    3) = (   0.0000000   0.3115069   0.0000000), wk =   0.2222222
        k(    4) = (   0.0000000   0.3115069  -0.3598789), wk =   0.2222222
        k(    5) = (   0.3333333   0.0000000   0.0680598), wk =   0.2222222
        k(    6) = (   0.3333333   0.0000000  -0.2918191), wk =   0.2222222
        k(    7) = (   0.3333333   0.3115069   0.0680598), wk =   0.4444444
        k(    8) = (   0.3333333   0.3115069  -0.2918191), wk =   0.4444444

     Dense  grid:   492377 G-vectors     FFT dimensions: (  90,  96, 125)

     Estimated max dynamical RAM per process >     304.77MB

     Estimated total allocated dynamical RAM >    2438.14MB

     Check: negative/imaginary core charge=   -0.000002    0.000000

     Initial potential from superposition of free atoms

     starting charge  187.99898, renormalised to  188.00000
     Starting wfc are  160 randomized atomic wfcs
     Checking if some PAW data can be deallocated... 

     total cpu time spent up to now is       17.3 secs

     per-process dynamical memory:   259.1 Mb

     Self-consistent Calculation

     iteration #  1     ecut=   100.00 Ry     beta=0.50
     Davidson diagonalization with overlap
     ethr =  1.00E-02,  avg # of iterations =  3.8

     total cpu time spent up to now is       56.6 secs

     total energy              =    -972.28116148 Ry
     Harris-Foulkes estimate   =    -974.84541888 Ry
     estimated scf accuracy    <       4.99920705 Ry

     iteration #  2     ecut=   100.00 Ry     beta=0.50
     Davidson diagonalization with overlap
     ethr =  2.66E-03,  avg # of iterations =  2.6

     total cpu time spent up to now is       79.9 secs

     total energy              =    -972.91394009 Ry
     Harris-Foulkes estimate   =    -973.19986198 Ry
     estimated scf accuracy    <       0.66045975 Ry

     iteration #  3     ecut=   100.00 Ry     beta=0.50
     Davidson diagonalization with overlap
     ethr =  3.51E-04,  avg # of iterations =  6.6

     total cpu time spent up to now is      118.4 secs

     total energy              =    -973.09472297 Ry
     Harris-Foulkes estimate   =    -973.18559755 Ry
     estimated scf accuracy    <       0.21845371 Ry

     iteration #  4     ecut=   100.00 Ry     beta=0.50
     Davidson diagonalization with overlap
     ethr =  1.16E-04,  avg # of iterations =  3.2

     total cpu time spent up to now is      140.2 secs

     total energy              =    -973.12000878 Ry
     Harris-Foulkes estimate   =    -973.13413222 Ry
     estimated scf accuracy    <       0.03816100 Ry

     iteration #  5     ecut=   100.00 Ry     beta=0.50
     Davidson diagonalization with overlap
     ethr =  2.03E-05,  avg # of iterations =  5.5

     total cpu time spent up to now is      178.5 secs

     total energy              =    -973.13288440 Ry
     Harris-Foulkes estimate   =    -973.13947074 Ry
     estimated scf accuracy    <       0.01787200 Ry

     iteration #  6     ecut=   100.00 Ry     beta=0.50
     Davidson diagonalization with overlap
     ethr =  9.51E-06,  avg # of iterations =  1.9

     total cpu time spent up to now is      198.3 secs

     total energy              =    -973.13215725 Ry
     Harris-Foulkes estimate   =    -973.13426849 Ry
     estimated scf accuracy    <       0.00403467 Ry

     iteration #  7     ecut=   100.00 Ry     beta=0.50
     Davidson diagonalization with overlap
     ethr =  2.15E-06,  avg # of iterations =  6.1

     total cpu time spent up to now is      239.8 secs

     total energy              =    -973.13487663 Ry
     Harris-Foulkes estimate   =    -973.13551510 Ry
     estimated scf accuracy    <       0.00219336 Ry

     iteration #  8     ecut=   100.00 Ry     beta=0.50
     Davidson diagonalization with overlap
     ethr =  1.17E-06,  avg # of iterations =  1.1

     total cpu time spent up to now is      259.4 secs

     total energy              =    -973.13444692 Ry
     Harris-Foulkes estimate   =    -973.13495563 Ry
     estimated scf accuracy    <       0.00093706 Ry

     iteration #  9     ecut=   100.00 Ry     beta=0.50
     Davidson diagonalization with overlap
     ethr =  4.98E-07,  avg # of iterations =  3.8

     total cpu time spent up to now is      292.2 secs

     total energy              =    -973.13488496 Ry
     Harris-Foulkes estimate   =    -973.13495172 Ry
     estimated scf accuracy    <       0.00022549 Ry

     iteration # 10     ecut=   100.00 Ry     beta=0.50
     Davidson diagonalization with overlap
     ethr =  1.20E-07,  avg # of iterations =  1.0

     total cpu time spent up to now is      311.4 secs

     total energy              =    -973.13483902 Ry
     Harris-Foulkes estimate   =    -973.13489288 Ry
     estimated scf accuracy    <       0.00009403 Ry

     iteration # 11     ecut=   100.00 Ry     beta=0.50
     Davidson diagonalization with overlap
     ethr =  5.00E-08,  avg # of iterations =  4.0

     total cpu time spent up to now is      345.1 secs

     total energy              =    -973.13488765 Ry
     Harris-Foulkes estimate   =    -973.13489915 Ry
     estimated scf accuracy    <       0.00003399 Ry

     iteration # 12     ecut=   100.00 Ry     beta=0.50
     Davidson diagonalization with overlap
     ethr =  1.81E-08,  avg # of iterations =  1.0

     total cpu time spent up to now is      364.3 secs

     total energy              =    -973.13488261 Ry
     Harris-Foulkes estimate   =    -973.13488897 Ry
     estimated scf accuracy    <       0.00001245 Ry

     iteration # 13     ecut=   100.00 Ry     beta=0.50
     Davidson diagonalization with overlap
     ethr =  6.62E-09,  avg # of iterations =  3.9

     total cpu time spent up to now is      396.4 secs

     total energy              =    -973.13488917 Ry
     Harris-Foulkes estimate   =    -973.13488983 Ry
     estimated scf accuracy    <       0.00000244 Ry

     iteration # 14     ecut=   100.00 Ry     beta=0.50
     Davidson diagonalization with overlap
     ethr =  1.30E-09,  avg # of iterations =  1.0

     total cpu time spent up to now is      415.5 secs

     total energy              =    -973.13488878 Ry
     Harris-Foulkes estimate   =    -973.13488924 Ry
     estimated scf accuracy    <       0.00000117 Ry

     iteration # 15     ecut=   100.00 Ry     beta=0.50
     Davidson diagonalization with overlap
     ethr =  6.22E-10,  avg # of iterations =  3.1

     total cpu time spent up to now is      443.3 secs

     total energy              =    -973.13488913 Ry
     Harris-Foulkes estimate   =    -973.13488913 Ry
     estimated scf accuracy    <       0.00000001 Ry

     iteration # 16     ecut=   100.00 Ry     beta=0.50
     Davidson diagonalization with overlap
     ethr =  6.22E-12,  avg # of iterations =  4.0

     total cpu time spent up to now is      484.1 secs

     total energy              =    -973.13488913 Ry
     Harris-Foulkes estimate   =    -973.13488914 Ry
     estimated scf accuracy    <       0.00000002 Ry

     iteration # 17     ecut=   100.00 Ry     beta=0.50
     Davidson diagonalization with overlap
     ethr =  6.22E-12,  avg # of iterations =  3.1

     total cpu time spent up to now is      505.1 secs

     End of self-consistent calculation

          k = 0.0000 0.0000 0.0000 ( 61603 PWs)   bands (ev):

   -20.7394 -20.6798 -20.3628 -20.3219 -19.7421 -19.7256 -19.2233 -19.1162
   -18.9949 -18.9257 -18.8334 -18.7875 -18.3535 -18.3430 -14.9895 -14.9751
   -13.7463 -13.7194 -12.5415 -12.5042 -12.0876 -12.0867 -10.6913 -10.6697
   -10.2237 -10.0768  -9.4118  -9.3610  -8.4166  -8.3218  -8.2303  -8.2256
    -8.1507  -7.9551  -7.0799  -7.0772  -6.9808  -6.7468  -6.4408  -6.3383
    -6.2630  -6.2134  -6.0984  -6.0315  -5.4415  -5.2317  -5.1445  -5.0097
    -4.8654  -4.7486  -4.2878  -4.2315  -4.2257  -4.1237  -4.1005  -3.9233
    -3.9207  -3.7342  -3.6734  -3.5234  -3.4946  -3.3763  -3.2249  -3.1876
    -2.9361  -2.9164  -2.8885  -2.8171  -2.7361  -2.6173  -2.1936  -2.0586
    -1.7416  -1.6156  -1.4190  -1.4154  -1.1618  -1.0059  -0.7914  -0.7653
    -0.5024  -0.3566  -0.2368  -0.0915  -0.0448  -0.0178   0.1261   0.2398
     0.2855   0.3655   0.4151   0.5780   0.7202   0.7283   3.8305   4.0845
     5.2380   5.2971   6.6001   7.0303   7.1796   7.5280   7.7096   7.7430
     8.1218   8.1502   8.3208   8.4297   8.4796   8.5266   8.6586   8.9353

          k = 0.0000 0.0000-0.3599 ( 61550 PWs)   bands (ev):

   -20.7368 -20.6801 -20.3659 -20.3202 -19.7838 -19.6927 -19.2052 -19.0871
   -19.0071 -18.9643 -18.8195 -18.7908 -18.3541 -18.3412 -14.9888 -14.9773
   -13.7440 -13.7164 -12.5481 -12.5083 -12.0962 -12.0883 -10.7171 -10.6674
   -10.1407 -10.0876  -9.3780  -9.3490  -8.4809  -8.3828  -8.2185  -8.2057
    -8.0636  -8.0302  -7.1237  -7.0496  -6.8609  -6.7826  -6.4797  -6.3760
    -6.3334  -6.2826  -6.1499  -5.9854  -5.3501  -5.2952  -5.0347  -5.0289
    -4.9555  -4.6941  -4.2932  -4.2653  -4.1752  -4.0432  -3.9893  -3.8903
    -3.8338  -3.7813  -3.7369  -3.6730  -3.4145  -3.3104  -3.2237  -3.2215
    -2.9841  -2.9171  -2.8870  -2.8460  -2.6801  -2.6339  -2.2653  -1.9876
    -1.6885  -1.6869  -1.4231  -1.3832  -1.1652  -1.0561  -0.7940  -0.7180
    -0.4587  -0.4410  -0.2079  -0.1316  -0.0813  -0.0724   0.1684   0.2389
     0.2778   0.3398   0.5073   0.5562   0.6709   0.7497   3.8250   4.0902
     5.2343   5.2994   6.5621   6.8518   7.3409   7.5117   7.5696   7.8874
     8.1768   8.2302   8.2777   8.3539   8.5286   8.5566   8.6466   8.8470

          k = 0.0000 0.3115 0.0000 ( 61604 PWs)   bands (ev):

   -20.7240 -20.6942 -20.3508 -20.3302 -19.7106 -19.7010 -19.2498 -19.1976
   -19.0376 -19.0002 -18.7697 -18.7544 -18.3097 -18.3064 -14.9876 -14.9804
   -13.7402 -13.7268 -12.4974 -12.4770 -12.1330 -12.1317 -10.7094 -10.7033
   -10.1986 -10.1287  -9.3944  -9.3709  -8.3418  -8.3045  -8.2203  -8.2042
    -8.1118  -8.0119  -7.1378  -7.1145  -6.8993  -6.8153  -6.4410  -6.3970
    -6.2363  -6.1684  -5.9275  -5.9009  -5.4866  -5.3613  -5.0698  -4.9814
    -4.8735  -4.8372  -4.4312  -4.3033  -4.1308  -4.0560  -4.0192  -3.9997
    -3.8116  -3.7944  -3.6567  -3.6221  -3.3854  -3.3608  -3.3222  -3.1727
    -2.9420  -2.9031  -2.8387  -2.8232  -2.7395  -2.6837  -2.1791  -2.0885
    -1.8329  -1.7907  -1.3601  -1.3380  -1.1052  -1.0123  -0.7882  -0.7715
    -0.5456  -0.4128  -0.2519  -0.1103  -0.0321  -0.0314   0.1521   0.2112
     0.3540   0.3921   0.4462   0.5379   0.7785   0.7786   3.8759   3.9997
     5.2461   5.2752   6.8297   7.0296   7.1771   7.4754   7.7573   7.8029
     8.0698   8.1193   8.2923   8.4387   8.4893   8.5226   8.7834   8.8332

          k = 0.0000 0.3115-0.3599 ( 61530 PWs)   bands (ev):

   -20.7221 -20.6937 -20.3528 -20.3298 -19.7401 -19.6881 -19.2245 -19.1443
   -19.0704 -19.0373 -18.7633 -18.7537 -18.3101 -18.3055 -14.9876 -14.9819
   -13.7378 -13.7240 -12.5039 -12.4803 -12.1386 -12.1380 -10.7270 -10.7030
   -10.1425 -10.1166  -9.3667  -9.3529  -8.4148  -8.3685  -8.1864  -8.1829
    -8.0691  -8.0519  -7.1500  -7.1071  -6.8409  -6.8108  -6.4736  -6.4338
    -6.2882  -6.2465  -5.9609  -5.9070  -5.4271  -5.3584  -5.0106  -4.9888
    -4.9325  -4.7638  -4.3827  -4.2083  -4.1157  -4.0752  -3.9655  -3.9218
    -3.8837  -3.8633  -3.7129  -3.6342  -3.4102  -3.3997  -3.2012  -3.1635
    -2.9470  -2.9414  -2.8790  -2.8422  -2.6484  -2.6423  -2.2148  -2.0589
    -1.8446  -1.8225  -1.3571  -1.3532  -1.1040  -1.0586  -0.7709  -0.7257
    -0.4847  -0.4514  -0.2394  -0.1577  -0.0944  -0.0794   0.1249   0.1781
     0.4051   0.4229   0.4949   0.5392   0.7422   0.7763   3.8740   4.0034
     5.2443   5.2765   6.8101   6.9255   7.3009   7.3448   7.5803   7.7889
     8.1486   8.2359   8.3445   8.3550   8.5890   8.5979   8.8797   8.9437

          k = 0.3333 0.0000 0.0681 ( 61465 PWs)   bands (ev):

   -20.6772 -20.6340 -20.4242 -20.3865 -19.7683 -19.7403 -19.2063 -19.0918
   -18.9860 -18.9154 -18.8385 -18.7886 -18.3563 -18.3414 -15.0188 -14.9919
   -13.6308 -13.6044 -12.5265 -12.5016 -12.1317 -12.0822 -10.7044 -10.6113
   -10.4014 -10.2963  -9.5951  -9.5299  -8.4010  -8.3429  -8.1796  -8.0825
    -8.0079  -7.9869  -7.1538  -7.1142  -6.7309  -6.5853  -6.4108  -6.3635
    -6.2174  -6.1925  -6.0509  -5.9541  -5.3959  -5.2481  -5.0617  -4.9278
    -4.8025  -4.6818  -4.4394  -4.3825  -4.2839  -4.1939  -4.1303  -4.0332
    -3.8187  -3.6956  -3.6622  -3.5773  -3.4419  -3.3141  -3.2836  -3.1961
    -3.0151  -2.8748  -2.8597  -2.6995  -2.6754  -2.5991  -2.2064  -2.1016
    -1.7604  -1.6145  -1.4916  -1.4408  -1.2306  -1.0712  -0.9552  -0.8135
    -0.4740  -0.3876  -0.1878  -0.1067  -0.0931   0.0066   0.1944   0.2509
     0.3855   0.4221   0.4614   0.5937   0.6571   0.6975   3.8098   4.0690
     5.0914   5.2007   6.7138   7.0208   7.1464   7.4167   7.6087   7.6872
     7.8270   7.9796   8.1398   8.3620   8.4342   8.4596   8.6474   8.8056

          k = 0.3333 0.0000-0.2918 ( 61533 PWs)   bands (ev):

   -20.6752 -20.6337 -20.4245 -20.3864 -19.8067 -19.7129 -19.1851 -19.0568
   -19.0044 -18.9565 -18.8246 -18.7909 -18.3571 -18.3399 -15.0208 -14.9915
   -13.6276 -13.6013 -12.5286 -12.5081 -12.1187 -12.1057 -10.7145 -10.6338
   -10.3671 -10.2883  -9.5443  -9.4997  -8.4670  -8.3991  -8.1303  -8.0882
    -8.0065  -7.9814  -7.1555  -7.0889  -6.7017  -6.5852  -6.4354  -6.3707
    -6.2347  -6.2065  -6.1338  -5.9948  -5.4047  -5.2896  -4.9730  -4.9151
    -4.8042  -4.7676  -4.4635  -4.3937  -4.3030  -4.0774  -4.0015  -3.9002
    -3.7783  -3.6738  -3.6634  -3.6191  -3.4128  -3.3275  -3.3084  -3.2170
    -3.0406  -2.9838  -2.7479  -2.6867  -2.6625  -2.6295  -2.3008  -2.0687
    -1.7842  -1.6351  -1.5071  -1.4842  -1.1317  -1.0535  -1.0250  -0.8068
    -0.4148  -0.3798  -0.3039  -0.1051  -0.0592  -0.0351   0.1483   0.2749
     0.4056   0.4323   0.4946   0.5919   0.6411   0.7019   3.8097   4.0761
     5.0914   5.2029   6.7197   6.8536   7.0955   7.4106   7.5901   7.7138
     7.9273   8.0982   8.1722   8.2862   8.4836   8.5499   8.7717   9.0168

          k = 0.3333 0.3115 0.0681 ( 61576 PWs)   bands (ev):

   -20.6648 -20.6430 -20.4151 -20.3959 -19.7344 -19.7184 -19.2352 -19.1831
   -19.0204 -18.9871 -18.7730 -18.7549 -18.3110 -18.3054 -15.0137 -15.0003
   -13.6247 -13.6116 -12.4844 -12.4720 -12.1647 -12.1387 -10.7089 -10.6669
   -10.3798 -10.3324  -9.5741  -9.5428  -8.3366  -8.3121  -8.1608  -8.1225
    -7.9907  -7.9824  -7.1648  -7.1505  -6.7191  -6.6707  -6.3957  -6.3817
    -6.1530  -6.1095  -5.9095  -5.8557  -5.4632  -5.3732  -5.0008  -4.8888
    -4.8367  -4.7441  -4.4541  -4.4023  -4.3134  -4.2019  -4.0920  -4.0423
    -3.8065  -3.7661  -3.6561  -3.5264  -3.3863  -3.3781  -3.2857  -3.2111
    -2.9697  -2.8918  -2.8483  -2.7162  -2.6549  -2.6415  -2.1909  -2.1322
    -1.8511  -1.7990  -1.4220  -1.4000  -1.1340  -1.0795  -0.9183  -0.8415
    -0.5133  -0.4183  -0.2390  -0.1470  -0.0418  -0.0020   0.2122   0.2530
     0.3888   0.4319   0.4956   0.5784   0.7280   0.7431   3.8597   3.9857
     5.1085   5.1629   6.8415   7.0042   7.2536   7.3572   7.5045   7.7751
     7.9687   8.0751   8.2422   8.3329   8.3709   8.4951   8.6459   8.6827

          k = 0.3333 0.3115-0.2918 ( 61549 PWs)   bands (ev):

   -20.6633 -20.6423 -20.4153 -20.3959 -19.7621 -19.7091 -19.2099 -19.1332
   -19.0496 -19.0216 -18.7679 -18.7553 -18.3114 -18.3046 -15.0151 -15.0004
   -13.6216 -13.6085 -12.4883 -12.4760 -12.1604 -12.1543 -10.7205 -10.6816
   -10.3561 -10.3204  -9.5277  -9.5072  -8.4066  -8.3740  -8.1234  -8.1020
    -7.9974  -7.9802  -7.1643  -7.1242  -6.6955  -6.6485  -6.4202  -6.3969
    -6.1948  -6.1776  -5.9453  -5.8948  -5.4440  -5.3874  -4.9713  -4.9146
    -4.8133  -4.7590  -4.4660  -4.3750  -4.2839  -4.2099  -3.9525  -3.9249
    -3.7704  -3.7173  -3.6872  -3.6493  -3.4175  -3.3529  -3.2603  -3.2028
    -2.9842  -2.9472  -2.7811  -2.7175  -2.6571  -2.6167  -2.2430  -2.1275
    -1.8797  -1.8186  -1.4474  -1.4401  -1.0895  -1.0686  -0.9623  -0.8551
    -0.4500  -0.3935  -0.2731  -0.1541  -0.0740  -0.0575   0.1913   0.2622
     0.4321   0.4602   0.5091   0.5826   0.7089   0.7349   3.8619   3.9917
     5.1102   5.1660   6.8157   6.9024   7.1123   7.4313   7.5720   7.7542
     7.9252   8.0529   8.2518   8.4010   8.4611   8.6309   8.7756   8.9577

     highest occupied, lowest unoccupied level (ev):     0.7786    3.8097

!    total energy              =    -973.13488913 Ry
     Harris-Foulkes estimate   =    -973.13488913 Ry
     estimated scf accuracy    <          5.6E-09 Ry

     total all-electron energy =     -3644.246524 Ry

     The total energy is the sum of the following terms:

     one-electron contribution =    -562.61059669 Ry
     hartree contribution      =     356.69920564 Ry
     xc contribution           =    -202.63921293 Ry
     ewald contribution        =    -297.38630065 Ry
     Dispersion Correction     =      -0.25170959 Ry
     one-center paw contrib.   =    -266.94627491 Ry

     convergence has been achieved in  17 iterations

     Forces acting on atoms (cartesian axes, Ry/au):

     atom    1 type  2   force =     0.00788721    0.00105617   -0.00022443
     atom    2 type  2   force =    -0.00788721    0.00105617    0.00022443
     atom    3 type  1   force =     0.00127388    0.00073202    0.00831253
     atom    4 type  1   force =    -0.00127388    0.00073202   -0.00831253
     atom    5 type  4   force =    -0.00294726   -0.00102821   -0.00834925
     atom    6 type  4   force =     0.00294726   -0.00102821    0.00834925
     atom    7 type  1   force =    -0.00263721   -0.00142112   -0.00903426
     atom    8 type  1   force =     0.00263721   -0.00142112    0.00903426
     atom    9 type  1   force =     0.00577205   -0.00184806    0.00243734
     atom   10 type  1   force =    -0.00577205   -0.00184806   -0.00243734
     atom   11 type  4   force =    -0.01166136    0.00464642    0.00344986
     atom   12 type  4   force =     0.01166136    0.00464642   -0.00344986
     atom   13 type  1   force =     0.00105162    0.00255174    0.00142018
     atom   14 type  1   force =    -0.00105162    0.00255174   -0.00142018
     atom   15 type  2   force =    -0.00577106   -0.00105298   -0.00301910
     atom   16 type  2   force =     0.00577106   -0.00105298    0.00301910
     atom   17 type  1   force =    -0.00300867   -0.00257771   -0.00080545
     atom   18 type  1   force =     0.00300867   -0.00257771    0.00080545
     atom   19 type  1   force =     0.00383487    0.00314645    0.00059635
     atom   20 type  1   force =    -0.00383487    0.00314645   -0.00059635
     atom   21 type  4   force =    -0.00302825   -0.00027688   -0.00069072
     atom   22 type  4   force =     0.00302825   -0.00027688    0.00069072
     atom   23 type  1   force =     0.00379566   -0.00481222   -0.00015491
     atom   24 type  1   force =    -0.00379566   -0.00481222    0.00015491
     atom   25 type  4   force =    -0.00228291    0.00063433   -0.00114008
     atom   26 type  4   force =     0.00228291    0.00063433    0.00114008
     atom   27 type  1   force =    -0.00643836    0.00203574    0.00198128
     atom   28 type  1   force =     0.00643836    0.00203574   -0.00198128
     atom   29 type  4   force =    -0.00289210   -0.00222815   -0.00170539
     atom   30 type  4   force =     0.00289210   -0.00222815    0.00170539
     atom   31 type  1   force =     0.00088442    0.00032449   -0.00291608
     atom   32 type  1   force =    -0.00088442    0.00032449    0.00291608
     atom   33 type  4   force =     0.00207107   -0.00114830   -0.00224344
     atom   34 type  4   force =    -0.00207107   -0.00114830    0.00224344
     atom   35 type  3   force =    -0.00011016   -0.00107556   -0.00027145
     atom   36 type  3   force =     0.00011016   -0.00107556    0.00027145
     atom   37 type  3   force =     0.00871403   -0.00225043    0.00438242
     atom   38 type  3   force =    -0.00871403   -0.00225043   -0.00438242
     atom   39 type  3   force =    -0.00347375    0.00105244   -0.00155486
     atom   40 type  3   force =     0.00347375    0.00105244    0.00155486
     atom   41 type  3   force =     0.00507103    0.00201260    0.00270586
     atom   42 type  3   force =    -0.00507103    0.00201260   -0.00270586
     atom   43 type  3   force =    -0.00006242   -0.00104060   -0.00064652
     atom   44 type  3   force =     0.00006242   -0.00104060    0.00064652
     atom   45 type  3   force =     0.00051952    0.00219788    0.00135198
     atom   46 type  3   force =    -0.00051952    0.00219788   -0.00135198
     atom   47 type  3   force =    -0.00122963   -0.00066116   -0.00058256
     atom   48 type  3   force =     0.00122963   -0.00066116    0.00058256
     atom   49 type  3   force =     0.00272907    0.00114226   -0.00010263
     atom   50 type  3   force =    -0.00272907    0.00114226    0.00010263
     atom   51 type  3   force =     0.00229157    0.00032260    0.00033498
     atom   52 type  3   force =    -0.00229157    0.00032260   -0.00033498
     atom   53 type  3   force =    -0.00260392   -0.00059076    0.00112516
     atom   54 type  3   force =     0.00260392   -0.00059076   -0.00112516
     atom   55 type  3   force =     0.00006029   -0.00021239    0.00087318
     atom   56 type  3   force =    -0.00006029   -0.00021239   -0.00087318
     atom   57 type  3   force =    -0.00008961    0.00036938   -0.00030230
     atom   58 type  3   force =     0.00008961    0.00036938    0.00030230

     Total force =     0.043355     Total SCF correction =     0.000201


     Computing stress (Cartesian axis) and pressure

          total   stress  (Ry/bohr**3)                   (kbar)     P=   -6.20
  -0.00005595   0.00000000   0.00000684         -8.23      0.00      1.01
   0.00000000  -0.00003016   0.00000000          0.00     -4.44      0.00
   0.00000684   0.00000000  -0.00004025          1.01      0.00     -5.92


     Writing output data file scf.save
 
     init_run     :     16.28s CPU     16.62s WALL (       1 calls)
     electrons    :    473.82s CPU    487.93s WALL (       1 calls)
     forces       :      8.88s CPU      8.97s WALL (       1 calls)
     stress       :     25.42s CPU     25.59s WALL (       1 calls)

     Called by init_run:
     wfcinit      :     10.37s CPU     10.64s WALL (       1 calls)
     potinit      :      2.15s CPU      2.16s WALL (       1 calls)

     Called by electrons:
     c_bands      :    418.22s CPU    430.29s WALL (      17 calls)
     sum_band     :     46.92s CPU     48.36s WALL (      17 calls)
     v_of_rho     :      1.27s CPU      1.39s WALL (      18 calls)
     newd         :      2.59s CPU      3.00s WALL (      18 calls)
     PAW_pot      :      4.45s CPU      4.45s WALL (      18 calls)
     mix_rho      :      0.30s CPU      0.32s WALL (      17 calls)

     Called by c_bands:
     init_us_2    :      3.03s CPU      3.04s WALL (     296 calls)
     cegterg      :    406.58s CPU    418.60s WALL (     136 calls)

     Called by sum_band:
     sum_band:bec :      0.04s CPU      0.04s WALL (     136 calls)
     addusdens    :      2.60s CPU      3.02s WALL (      17 calls)

     Called by *egterg:
     h_psi        :    239.27s CPU    246.82s WALL (     590 calls)
     s_psi        :     40.42s CPU     40.43s WALL (     590 calls)
     g_psi        :      1.42s CPU      1.43s WALL (     446 calls)
     cdiaghg      :     23.62s CPU     23.65s WALL (     582 calls)

     Called by h_psi:
     h_psi:pot    :    237.51s CPU    245.04s WALL (     590 calls)
     h_psi:calbec :     41.11s CPU     41.22s WALL (     590 calls)
     vloc_psi     :    156.00s CPU    163.41s WALL (     590 calls)
     add_vuspsi   :     40.39s CPU     40.40s WALL (     590 calls)

     General routines
     calbec       :     59.03s CPU     59.18s WALL (     766 calls)
     fft          :      0.98s CPU      1.18s WALL (     258 calls)
     fftw         :    167.09s CPU    174.96s WALL (  104230 calls)
 
     Parallel routines
     fft_scatter  :     42.40s CPU     47.29s WALL (  104488 calls)
 
     PWSCF        :  8m48.96s CPU     9m 7.57s WALL

 
   This run was terminated on:  18:23:33   7Dec2017            

=------------------------------------------------------------------------------=
   JOB DONE.
=------------------------------------------------------------------------------=
