
     Program PWSCF v.6.1 (svn rev. 13369) starts on 18Dec2017 at 12: 6:52 

     This program is part of the open-source Quantum ESPRESSO suite
     for quantum simulation of materials; please cite
         "P. Giannozzi et al., J. Phys.:Condens. Matter 21 395502 (2009);
          URL http://www.quantum-espresso.org", 
     in publications or presentations arising from this work. More details at
     http://www.quantum-espresso.org/quote

     Parallel version (MPI), running on     8 processors
     R & G space division:  proc/nbgrp/npool/nimage =       8
     Waiting for input...
     Reading input from standard input

     Current dimensions of program PWSCF are:
     Max number of different atomic species (ntypx) = 10
     Max number of k-points (npk) =  40000
     Max angular momentum in pseudopotentials (lmaxx) =  3
               file C.pbe-n-kjpaw_psl.0.1.UPF: wavefunction(s)  2P renormalized
               file N.pbe-n-kjpaw_psl.0.1.UPF: wavefunction(s)  2P renormalized
               file H.pbe-kjpaw_psl.0.1.UPF: wavefunction(s)  1S renormalized
               file O.pbe-n-kjpaw_psl.0.1.UPF: wavefunction(s)  2P renormalized

     -------------------------------------
     Parameters for Dispersion Correction:
     -------------------------------------
       atom      VdW radius       C_6     

        C          2.744         60.710
        N          2.640         42.670
        H          1.892          4.857
        O          2.536         24.284

     Subspace diagonalization in iterative solution of the eigenvalue problem:
     a serial algorithm will be used

 
     Parallelization info
     --------------------
     sticks:   dense  smooth     PW     G-vecs:    dense   smooth      PW
     Min        1168    1168    306               126467   126467   17035
     Max        1170    1170    307               126468   126468   17037
     Sum        9349    9349   2451              1011737  1011737  136285
 


     bravais-lattice index     =            0
     lattice parameter (alat)  =      24.8990  a.u.
     unit-cell volume          =    7487.9742 (a.u.)^3
     number of atoms/cell      =          108
     number of atomic types    =            4
     number of electrons       =       376.00
     number of Kohn-Sham states=          225
     kinetic-energy cutoff     =     100.0000  Ry
     charge density cutoff     =     400.0000  Ry
     convergence threshold     =      1.0E-08
     mixing beta               =       0.5000
     number of iterations used =            8  plain     mixing
     Exchange-correlation      =  SLA  PW   PBX  PBC ( 1  4  3  4 0 0)

     celldm(1)=  24.899032  celldm(2)=   0.000000  celldm(3)=   0.000000
     celldm(4)=   0.000000  celldm(5)=   0.000000  celldm(6)=   0.000000

     crystal axes: (cart. coord. in units of alat)
               a(1) = (   1.000000   0.000000   0.000000 )  
               a(2) = (   0.000000   0.473163   0.000000 )  
               a(3) = (  -0.046769   0.000000   1.025194 )  

     reciprocal axes: (cart. coord. in units 2 pi/alat)
               b(1) = (  1.000000  0.000000  0.045620 )  
               b(2) = (  0.000000  2.113435  0.000000 )  
               b(3) = (  0.000000  0.000000  0.975425 )  


     PseudoPot. # 1 for  C read from file:
     /scratch/ahofstet/pseudo/C.pbe-n-kjpaw_psl.0.1.UPF
     MD5 check sum: 430fe95172b1e11ef3f8ed03bac87931
     Pseudo is Projector augmented-wave + core cor, Zval =  4.0
     Generated using "atomic" code by A. Dal Corso  v.5.0.99 svn rev. 10869
     Shape of augmentation charge: BESSEL
     Using radial grid of 1073 points,  4 beta functions with: 
                l(1) =   0
                l(2) =   0
                l(3) =   1
                l(4) =   1
     Q(r) pseudized with 0 coefficients 


     PseudoPot. # 2 for  N read from file:
     /scratch/ahofstet/pseudo/N.pbe-n-kjpaw_psl.0.1.UPF
     MD5 check sum: f73187c8b701007e77325f868c9291d7
     Pseudo is Projector augmented-wave + core cor, Zval =  5.0
     Generated using "atomic" code by A. Dal Corso  v.5.0.99 svn rev. 10869
     Shape of augmentation charge: PSQ
     Using radial grid of 1085 points,  4 beta functions with: 
                l(1) =   0
                l(2) =   0
                l(3) =   1
                l(4) =   1
     Q(r) pseudized with 0 coefficients 


     PseudoPot. # 3 for  H read from file:
     /scratch/ahofstet/pseudo/H.pbe-kjpaw_psl.0.1.UPF
     MD5 check sum: 94e484f906d9e9773b2f6e52662335b2
     Pseudo is Projector augmented-wave, Zval =  1.0
     Generated using "atomic" code by A. Dal Corso  v.5.0.99 svn rev. 10869
     Shape of augmentation charge: PSQ
     Using radial grid of  929 points,  2 beta functions with: 
                l(1) =   0
                l(2) =   0
     Q(r) pseudized with 0 coefficients 


     PseudoPot. # 4 for  O read from file:
     /scratch/ahofstet/pseudo/O.pbe-n-kjpaw_psl.0.1.UPF
     MD5 check sum: 3f94a2996a3169367d6eb21d9b593f20
     Pseudo is Projector augmented-wave + core cor, Zval =  6.0
     Generated using "atomic" code by A. Dal Corso  v.5.0.99 svn rev. 10869
     Shape of augmentation charge: BESSEL
     Using radial grid of 1095 points,  4 beta functions with: 
                l(1) =   0
                l(2) =   0
                l(3) =   1
                l(4) =   1
     Q(r) pseudized with 0 coefficients 


     atomic species   valence    mass     pseudopotential
        C              4.00    12.01070      C( 1.00)
        N              5.00    14.00670      N( 1.00)
        H              1.00     1.00794      H( 1.00)
        O              6.00    15.99940      O( 1.00)

      2 Sym. Ops., with inversion, found
          (note:  2 additional sym.ops. were found but ignored
           their fractional translations are incommensurate with FFT grid)


   Cartesian axes

     site n.     atom                  positions (alat units)
         1           N   tau(   1) = (   0.6762499   0.1669195   0.8505606  )
         2           N   tau(   2) = (   0.2535967   0.4035012   0.6872299  )
         3           N   tau(   3) = (   0.2769812   0.3062438   0.1746331  )
         4           N   tau(   4) = (   0.6996344   0.0696621   0.3379638  )
         5           O   tau(   5) = (   0.6886271  -0.0015286   0.8507453  )
         6           O   tau(   6) = (   0.2412195   0.2350531   0.6870451  )
         7           O   tau(   7) = (   0.2646039   0.4746919   0.1744483  )
         8           O   tau(   8) = (   0.7120116   0.2381103   0.3381485  )
         9           O   tau(   9) = (   0.6989037   0.3296736   1.0491288  )
        10           O   tau(  10) = (   0.2309429   0.0930920   0.4886617  )
        11           O   tau(  11) = (   0.2543274   0.1434897  -0.0239352  )
        12           O   tau(  12) = (   0.7222881   0.3800714   0.5365320  )
        13           O   tau(  13) = (   0.5984042   0.4059157   0.0178536  )
        14           O   tau(  14) = (   0.3782113   0.1693341   0.4947432  )
        15           O   tau(  15) = (   0.3548268   0.0672476   1.0073400  )
        16           O   tau(  16) = (   0.5750198   0.3038293   0.5304504  )
        17           O   tau(  17) = (   0.4166636   0.2918219   0.9172677  )
        18           O   tau(  18) = (   0.5131830   0.0552403   0.6205227  )
        19           O   tau(  19) = (   0.5365675   0.1813414   0.1079259  )
        20           O   tau(  20) = (   0.4400480   0.4179231   0.4046709  )
        21           O   tau(  21) = (   0.4919758   0.3736776   0.7941168  )
        22           O   tau(  22) = (   0.4378708   0.1370959   0.7436736  )
        23           O   tau(  23) = (   0.4612553   0.0994857   0.2310768  )
        24           O   tau(  24) = (   0.5153602   0.3360674   0.2815200  )
        25           C   tau(  25) = (   0.8768598   0.0222990   0.7320261  )
        26           C   tau(  26) = (   0.0529868   0.2588807   0.8057644  )
        27           C   tau(  27) = (   0.0763712   0.4508643   0.2931675  )
        28           C   tau(  28) = (   0.9002443   0.2142827   0.2194293  )
        29           H   tau(  29) = (   0.8824137   0.4381716   0.7914425  )
        30           H   tau(  30) = (   0.0474329   0.2015900   0.7463479  )
        31           H   tau(  31) = (   0.0708174   0.0349917   0.2337511  )
        32           H   tau(  32) = (   0.9057982   0.2715734   0.2788457  )
        33           C   tau(  33) = (   0.9523508   0.0302142   0.6582122  )
        34           C   tau(  34) = (  -0.0225042   0.2667958   0.8795783  )
        35           C   tau(  35) = (   0.0008803   0.4429492   0.3669815  )
        36           C   tau(  36) = (   0.9757352   0.2063675   0.1456154  )
        37           H   tau(  37) = (   0.0168480  -0.0216935   0.6598448  )
        38           H   tau(  38) = (   0.9129987   0.2148881   0.8779456  )
        39           H   tau(  39) = (   0.9363831   0.4948569   0.3653488  )
        40           H   tau(  40) = (   0.0402324   0.2582752   0.1472480  )
        41           C   tau(  41) = (   0.9448589   0.1035064   0.5818172  )
        42           C   tau(  42) = (  -0.0150123   0.3400880   0.9559732  )
        43           C   tau(  43) = (   0.0083722   0.3696569   0.4433764  )
        44           C   tau(  44) = (   0.9682433   0.1330753   0.0692204  )
        45           H   tau(  45) = (   0.0033661   0.1085467   0.5234632  )
        46           H   tau(  46) = (   0.9264805   0.3451283   1.0143272  )
        47           H   tau(  47) = (   0.9498650   0.3646167   0.5017304  )
        48           H   tau(  48) = (   0.0267506   0.1280350   0.0108664  )
        49           C   tau(  49) = (   0.8611487   0.1685012   0.5789369  )
        50           C   tau(  50) = (   0.0686979   0.4050829   0.9588535  )
        51           C   tau(  51) = (   0.0920824   0.3046621   0.4462567  )
        52           C   tau(  52) = (   0.8845331   0.0680804   0.0663401  )
        53           H   tau(  53) = (   0.8526890   0.2239275   0.5181128  )
        54           H   tau(  54) = (   0.0771576   0.4605092   1.0196776  )
        55           H   tau(  55) = (   0.1005421   0.2492358   0.5070808  )
        56           H   tau(  56) = (   0.8760734   0.0126542   0.0055160  )
        57           C   tau(  57) = (   0.7861830   0.1618857   0.6536185  )
        58           C   tau(  58) = (   0.1436636   0.3984674   0.8841720  )
        59           C   tau(  59) = (   0.1670480   0.3112776   0.3715752  )
        60           C   tau(  60) = (   0.8095675   0.0746960   0.1410217  )
        61           H   tau(  61) = (   0.7206546   0.2120371   0.6494384  )
        62           H   tau(  62) = (   0.2091920   0.4486187   0.8883521  )
        63           H   tau(  63) = (   0.2325765   0.2611262   0.3757553  )
        64           H   tau(  64) = (   0.7440390   0.0245446   0.1368415  )
        65           C   tau(  65) = (   0.7941417   0.0893978   0.7310288  )
        66           C   tau(  66) = (   0.1357049   0.3259795   0.8067616  )
        67           C   tau(  67) = (   0.1590893   0.3837655   0.2941648  )
        68           C   tau(  68) = (   0.8175262   0.1471839   0.2184320  )
        69           C   tau(  69) = (   0.7166280   0.0809250   0.8131717  )
        70           C   tau(  70) = (   0.2132186   0.3175067   0.7246188  )
        71           C   tau(  71) = (   0.2366030   0.3922383   0.2120220  )
        72           C   tau(  72) = (   0.7400125   0.1556566   0.3005749  )
        73           C   tau(  73) = (   0.6829564   0.2793816   0.8381242  )
        74           C   tau(  74) = (   0.2468902   0.0427999   0.6996662  )
        75           C   tau(  75) = (   0.2702747   0.1937818   0.1870694  )
        76           C   tau(  76) = (   0.7063409   0.4303634   0.3255274  )
        77           H   tau(  77) = (   0.6656533   0.3101172   0.7628528  )
        78           H   tau(  78) = (   0.2641933   0.0735356   0.7749377  )
        79           H   tau(  79) = (   0.2875778   0.1630461   0.2623408  )
        80           H   tau(  80) = (   0.6890377   0.3996278   0.2502560  )
        81           H   tau(  81) = (   0.7534856   0.3124665   0.8673456  )
        82           H   tau(  82) = (   0.1763610   0.0758849   0.6704449  )
        83           H   tau(  83) = (   0.1997455   0.1606968   0.1578480  )
        84           H   tau(  84) = (   0.7768700   0.3972785   0.3547488  )
        85           C   tau(  85) = (   0.5943272   0.2865449   0.9139019  )
        86           C   tau(  86) = (   0.3355194   0.0499632   0.6238885  )
        87           C   tau(  87) = (   0.3589038   0.1866184   0.1112917  )
        88           C   tau(  88) = (   0.6177117   0.4232001   0.4013051  )
        89           C   tau(  89) = (   0.5994113   0.1709181   0.9304597  )
        90           C   tau(  90) = (   0.3304353   0.4074997   0.6073307  )
        91           C   tau(  91) = (   0.3538198   0.3022452   0.0947339  )
        92           C   tau(  92) = (   0.6227958   0.0656636   0.4178629  )
        93           H   tau(  93) = (   0.6286299   0.1493080   1.0053430  )
        94           H   tau(  94) = (   0.3012167   0.3858896   0.5324474  )
        95           H   tau(  95) = (   0.3246012   0.3238554   0.0198506  )
        96           H   tau(  96) = (   0.6520143   0.0872737   0.4927462  )
        97           H   tau(  97) = (   0.5287416   0.1304388   0.9139313  )
        98           H   tau(  98) = (   0.4011050   0.3670205   0.6238591  )
        99           H   tau(  99) = (   0.4244895   0.3427245   0.1112623  )
       100           H   tau( 100) = (   0.5521260   0.1061428   0.4013345  )
       101           N   tau( 101) = (   0.6159615   0.3474935   1.0106012  )
       102           N   tau( 102) = (   0.3138851   0.1109119   0.5271892  )
       103           N   tau( 103) = (   0.3372696   0.1256698   0.0145924  )
       104           N   tau( 104) = (   0.6393460   0.3622514   0.4980044  )
       105           N   tau( 105) = (   0.4918355   0.3210666   0.8707142  )
       106           N   tau( 106) = (   0.4380112   0.0844849   0.6670762  )
       107           N   tau( 107) = (   0.4613956   0.1520967   0.1544794  )
       108           N   tau( 108) = (   0.5152199   0.3886784   0.3581174  )

     number of k points=     8
                       cart. coord. in units 2pi/alat
        k(    1) = (   0.0000000   0.0000000   0.0000000), wk =   0.1666667
        k(    2) = (   0.0000000   0.0000000  -0.4877127), wk =   0.1666667
        k(    3) = (   0.0000000   0.7044784   0.0000000), wk =   0.3333333
        k(    4) = (   0.0000000   0.7044784  -0.4877127), wk =   0.3333333
        k(    5) = (  -0.5000000   0.0000000  -0.0228098), wk =   0.1666667
        k(    6) = (  -0.5000000   0.0000000  -0.5105225), wk =   0.1666667
        k(    7) = (  -0.5000000   0.7044784  -0.0228098), wk =   0.3333333
        k(    8) = (  -0.5000000   0.7044784  -0.5105225), wk =   0.3333333

     Dense  grid:  1011737 G-vectors     FFT dimensions: ( 160,  75, 180)

     Estimated max dynamical RAM per process >    1181.14MB

     Estimated total allocated dynamical RAM >    9449.12MB

     Check: negative/imaginary core charge=   -0.000002    0.000000

     Initial potential from superposition of free atoms

     starting charge  375.99788, renormalised to  376.00000
     Starting wfc are  324 randomized atomic wfcs
     Checking if some PAW data can be deallocated... 

     total cpu time spent up to now is       82.2 secs

     per-process dynamical memory:   789.9 Mb

     Self-consistent Calculation

     iteration #  1     ecut=   100.00 Ry     beta=0.50
     Davidson diagonalization with overlap
     ethr =  1.00E-02,  avg # of iterations =  3.0

     total cpu time spent up to now is      311.6 secs

     total energy              =   -1947.86192715 Ry
     Harris-Foulkes estimate   =   -1954.13187398 Ry
     estimated scf accuracy    <      11.53891956 Ry

     iteration #  2     ecut=   100.00 Ry     beta=0.50
     Davidson diagonalization with overlap
     ethr =  3.07E-03,  avg # of iterations =  3.0

     total cpu time spent up to now is      451.7 secs

     total energy              =   -1948.92295280 Ry
     Harris-Foulkes estimate   =   -1950.23405544 Ry
     estimated scf accuracy    <       2.63372574 Ry

     iteration #  3     ecut=   100.00 Ry     beta=0.50
     Davidson diagonalization with overlap
     ethr =  7.00E-04,  avg # of iterations =  7.2

     total cpu time spent up to now is      707.0 secs

     total energy              =   -1950.12619860 Ry
     Harris-Foulkes estimate   =   -1950.59100357 Ry
     estimated scf accuracy    <       1.14987242 Ry

     iteration #  4     ecut=   100.00 Ry     beta=0.50
     Davidson diagonalization with overlap
     ethr =  3.06E-04,  avg # of iterations =  1.9

     total cpu time spent up to now is      824.0 secs

     total energy              =   -1950.10397131 Ry
     Harris-Foulkes estimate   =   -1950.23470723 Ry
     estimated scf accuracy    <       0.25784751 Ry

     iteration #  5     ecut=   100.00 Ry     beta=0.50
     Davidson diagonalization with overlap
     ethr =  6.86E-05,  avg # of iterations =  6.9

     total cpu time spent up to now is     1079.1 secs

     total energy              =   -1950.25899406 Ry
     Harris-Foulkes estimate   =   -1950.33493679 Ry
     estimated scf accuracy    <       0.29476717 Ry

     iteration #  6     ecut=   100.00 Ry     beta=0.50
     Davidson diagonalization with overlap
     ethr =  6.86E-05,  avg # of iterations =  2.0

     total cpu time spent up to now is     1201.7 secs

     total energy              =   -1950.25924362 Ry
     Harris-Foulkes estimate   =   -1950.29673355 Ry
     estimated scf accuracy    <       0.09608313 Ry

     iteration #  7     ecut=   100.00 Ry     beta=0.50
     Davidson diagonalization with overlap
     ethr =  2.56E-05,  avg # of iterations =  4.0

     total cpu time spent up to now is     1327.2 secs

     total energy              =   -1950.25328168 Ry
     Harris-Foulkes estimate   =   -1950.26771537 Ry
     estimated scf accuracy    <       0.02292594 Ry

     iteration #  8     ecut=   100.00 Ry     beta=0.50
     Davidson diagonalization with overlap
     ethr =  6.10E-06,  avg # of iterations =  7.2

     total cpu time spent up to now is     1599.8 secs

     total energy              =   -1950.26984454 Ry
     Harris-Foulkes estimate   =   -1950.27734528 Ry
     estimated scf accuracy    <       0.01731412 Ry

     iteration #  9     ecut=   100.00 Ry     beta=0.50
     Davidson diagonalization with overlap
     ethr =  4.60E-06,  avg # of iterations =  2.0

     total cpu time spent up to now is     1718.5 secs

     total energy              =   -1950.26847094 Ry
     Harris-Foulkes estimate   =   -1950.27077030 Ry
     estimated scf accuracy    <       0.00441862 Ry

     iteration # 10     ecut=   100.00 Ry     beta=0.50
     Davidson diagonalization with overlap
     ethr =  1.18E-06,  avg # of iterations =  6.6

     total cpu time spent up to now is     1961.0 secs

     total energy              =   -1950.27231371 Ry
     Harris-Foulkes estimate   =   -1950.27245881 Ry
     estimated scf accuracy    <       0.00201232 Ry

     iteration # 11     ecut=   100.00 Ry     beta=0.50
     Davidson diagonalization with overlap
     ethr =  5.35E-07,  avg # of iterations =  1.0

     total cpu time spent up to now is     2075.4 secs

     total energy              =   -1950.27180700 Ry
     Harris-Foulkes estimate   =   -1950.27235612 Ry
     estimated scf accuracy    <       0.00164384 Ry

     iteration # 12     ecut=   100.00 Ry     beta=0.50
     Davidson diagonalization with overlap
     ethr =  4.37E-07,  avg # of iterations =  1.5

     total cpu time spent up to now is     2189.5 secs

     total energy              =   -1950.27160006 Ry
     Harris-Foulkes estimate   =   -1950.27187173 Ry
     estimated scf accuracy    <       0.00058006 Ry

     iteration # 13     ecut=   100.00 Ry     beta=0.50
     Davidson diagonalization with overlap
     ethr =  1.54E-07,  avg # of iterations =  4.0

     total cpu time spent up to now is     2378.1 secs

     total energy              =   -1950.27185570 Ry
     Harris-Foulkes estimate   =   -1950.27186900 Ry
     estimated scf accuracy    <       0.00004447 Ry

     iteration # 14     ecut=   100.00 Ry     beta=0.50
     Davidson diagonalization with overlap
     ethr =  1.18E-08,  avg # of iterations =  2.0

     total cpu time spent up to now is     2494.6 secs

     total energy              =   -1950.27184946 Ry
     Harris-Foulkes estimate   =   -1950.27185829 Ry
     estimated scf accuracy    <       0.00001975 Ry

     iteration # 15     ecut=   100.00 Ry     beta=0.50
     Davidson diagonalization with overlap
     ethr =  5.25E-09,  avg # of iterations =  4.0

     total cpu time spent up to now is     2685.6 secs

     total energy              =   -1950.27185771 Ry
     Harris-Foulkes estimate   =   -1950.27185807 Ry
     estimated scf accuracy    <       0.00000229 Ry

     iteration # 16     ecut=   100.00 Ry     beta=0.50
     Davidson diagonalization with overlap
     ethr =  6.09E-10,  avg # of iterations =  2.2

     total cpu time spent up to now is     2807.1 secs

     total energy              =   -1950.27185781 Ry
     Harris-Foulkes estimate   =   -1950.27185798 Ry
     estimated scf accuracy    <       0.00000147 Ry

     iteration # 17     ecut=   100.00 Ry     beta=0.50
     Davidson diagonalization with overlap
     ethr =  3.91E-10,  avg # of iterations =  1.4

     total cpu time spent up to now is     2922.0 secs

     total energy              =   -1950.27185728 Ry
     Harris-Foulkes estimate   =   -1950.27185791 Ry
     estimated scf accuracy    <       0.00000112 Ry

     iteration # 18     ecut=   100.00 Ry     beta=0.50
     Davidson diagonalization with overlap
     ethr =  2.97E-10,  avg # of iterations =  4.0

     total cpu time spent up to now is     3096.4 secs

     total energy              =   -1950.27185763 Ry
     Harris-Foulkes estimate   =   -1950.27185764 Ry
     estimated scf accuracy    <       0.00000011 Ry

     iteration # 19     ecut=   100.00 Ry     beta=0.50
     Davidson diagonalization with overlap
     ethr =  2.85E-11,  avg # of iterations =  3.0

     total cpu time spent up to now is     3223.4 secs

     total energy              =   -1950.27185760 Ry
     Harris-Foulkes estimate   =   -1950.27185764 Ry
     estimated scf accuracy    <       0.00000007 Ry

     iteration # 20     ecut=   100.00 Ry     beta=0.50
     Davidson diagonalization with overlap
     ethr =  1.97E-11,  avg # of iterations =  4.0

     total cpu time spent up to now is     3402.4 secs

     total energy              =   -1950.27185762 Ry
     Harris-Foulkes estimate   =   -1950.27185763 Ry
     estimated scf accuracy    <       0.00000003 Ry

     iteration # 21     ecut=   100.00 Ry     beta=0.50
     Davidson diagonalization with overlap
     ethr =  9.19E-12,  avg # of iterations =  1.0

     total cpu time spent up to now is     3516.1 secs

     total energy              =   -1950.27185762 Ry
     Harris-Foulkes estimate   =   -1950.27185762 Ry
     estimated scf accuracy    <       0.00000001 Ry

     iteration # 22     ecut=   100.00 Ry     beta=0.50
     Davidson diagonalization with overlap
     ethr =  2.81E-12,  avg # of iterations =  4.0

     total cpu time spent up to now is     3732.6 secs

     End of self-consistent calculation

          k = 0.0000 0.0000 0.0000 (126489 PWs)   bands (ev):

   -24.9500 -24.9380 -24.9342 -24.9244 -24.6285 -24.6192 -24.6029 -24.5959
   -20.5008 -20.4994 -20.4879 -20.4868 -20.3499 -20.3439 -20.3384 -20.3301
   -19.4225 -19.4224 -19.4204 -19.4202 -17.6843 -17.6816 -17.6798 -17.6766
   -14.9386 -14.8979 -14.8830 -14.8773 -14.5968 -14.5910 -14.5881 -14.5572
   -12.5472 -12.5203 -12.4427 -12.4332 -11.9596 -11.9568 -11.9322 -11.9120
   -11.5798 -11.5764 -11.5657 -11.5307 -11.1740 -11.1474 -11.1176 -11.1152
   -11.0847 -11.0313 -11.0038 -10.9977  -8.8654  -8.8569  -8.8218  -8.7963
    -8.4149  -8.4068  -8.3895  -8.3284  -8.0619  -8.0223  -7.9297  -7.8513
    -7.8103  -7.7814  -7.6514  -7.5884  -7.3481  -7.2454  -7.2192  -7.1590
    -7.1309  -7.1034  -7.0655  -7.0463  -6.9228  -6.8284  -6.8027  -6.7118
    -6.6705  -6.5867  -6.5699  -6.5165  -6.4885  -6.3921  -6.3153  -6.3074
    -6.2931  -6.2337  -6.2145  -6.1246  -5.5436  -5.4726  -5.4643  -5.4350
    -5.3104  -5.3077  -5.2505  -5.2067  -4.9362  -4.9052  -4.8893  -4.8420
    -4.6956  -4.6590  -4.6495  -4.6174  -4.3385  -4.3333  -4.3110  -4.3090
    -4.0056  -4.0055  -4.0037  -3.9973  -3.8526  -3.8514  -3.8095  -3.7654
    -3.6892  -3.6390  -3.6158  -3.5801  -3.5672  -3.4752  -3.4648  -3.4352
    -3.0505  -2.9816  -2.9498  -2.9441  -2.6308  -2.6228  -2.5797  -2.5356
    -2.3558  -2.3244  -2.2847  -2.2375  -2.1114  -1.9696  -1.8766  -1.8221
    -1.8092  -1.7318  -1.6948  -1.6244  -1.6240  -1.6110  -1.5799  -1.5316
    -1.4571  -1.3844  -1.3736  -1.3497  -1.3491  -1.2930  -1.2926  -1.2530
    -0.8521  -0.8105  -0.8017  -0.7920  -0.7767  -0.7657  -0.6000  -0.5829
    -0.5721  -0.5702  -0.4938  -0.4764  -0.0577  -0.0391  -0.0126  -0.0035
     0.1380   0.1448   0.2346   0.2534   0.4299   0.4909   0.5081   0.5429
     0.5715   0.6005   0.6032   0.6162   3.0308   3.0802   3.0944   3.0960
     3.1562   3.2407   3.2433   3.2529   4.6350   4.6358   4.7098   4.7165
     4.9796   5.0309   5.2705   5.3957   6.3542   6.3636   6.4530   6.5177
     6.6903   7.0676   7.1610   7.1943   7.3498   7.3864   7.5505   7.5535
     7.6417   7.6884   7.8413   8.0014   8.1137   8.1421   8.3185   8.3755
     8.5697

          k = 0.0000 0.0000-0.4877 (126442 PWs)   bands (ev):

   -24.9458 -24.9458 -24.9275 -24.9275 -24.6245 -24.6245 -24.5988 -24.5987
   -20.5001 -20.5001 -20.4874 -20.4874 -20.3478 -20.3478 -20.3333 -20.3333
   -19.4224 -19.4224 -19.4203 -19.4203 -17.6833 -17.6833 -17.6778 -17.6778
   -14.9238 -14.9238 -14.8745 -14.8745 -14.5982 -14.5982 -14.5685 -14.5685
   -12.5291 -12.5291 -12.4439 -12.4439 -11.9594 -11.9594 -11.9211 -11.9211
   -11.5884 -11.5883 -11.5341 -11.5341 -11.1562 -11.1562 -11.1232 -11.1232
   -11.0595 -11.0595 -11.0002 -11.0002  -8.8455  -8.8455  -8.8202  -8.8202
    -8.4016  -8.4016  -8.3747  -8.3747  -8.0564  -8.0564  -7.8630  -7.8630
    -7.8162  -7.8162  -7.6110  -7.6110  -7.2966  -7.2966  -7.2034  -7.2034
    -7.1303  -7.1303  -7.0233  -7.0233  -6.8794  -6.8794  -6.7454  -6.7454
    -6.6480  -6.6480  -6.5274  -6.5274  -6.4621  -6.4621  -6.3294  -6.3294
    -6.2423  -6.2423  -6.1622  -6.1622  -5.4986  -5.4986  -5.4591  -5.4591
    -5.3064  -5.3064  -5.2284  -5.2284  -4.9227  -4.9226  -4.8628  -4.8627
    -4.6672  -4.6672  -4.6510  -4.6510  -4.3262  -4.3262  -4.3094  -4.3094
    -4.0312  -4.0312  -3.9850  -3.9850  -3.8244  -3.8244  -3.8213  -3.8213
    -3.6552  -3.6552  -3.5911  -3.5911  -3.5050  -3.5050  -3.4726  -3.4726
    -3.0063  -3.0063  -2.9517  -2.9517  -2.6037  -2.6036  -2.5949  -2.5949
    -2.3430  -2.3430  -2.2485  -2.2485  -2.0504  -2.0504  -1.8544  -1.8544
    -1.7171  -1.7171  -1.7098  -1.7098  -1.6164  -1.6164  -1.5295  -1.5295
    -1.4515  -1.4515  -1.3514  -1.3514  -1.3205  -1.3205  -1.2647  -1.2647
    -0.8444  -0.8444  -0.7840  -0.7840  -0.7723  -0.7723  -0.5930  -0.5930
    -0.5653  -0.5652  -0.4899  -0.4899  -0.0488  -0.0488  -0.0162  -0.0162
     0.1679   0.1679   0.2227   0.2227   0.4610   0.4610   0.5256   0.5256
     0.5835   0.5835   0.6153   0.6153   3.0481   3.0481   3.0974   3.0975
     3.1947   3.1947   3.2572   3.2572   4.6175   4.6175   4.7287   4.7287
     5.0172   5.0172   5.3181   5.3181   6.3763   6.3763   6.5078   6.5078
     6.7933   6.7934   7.1617   7.1617   7.2822   7.2822   7.5910   7.5910
     7.8441   7.8441   7.9709   7.9709   8.1937   8.1937   8.3245   8.3246
     8.4314

          k = 0.0000 0.7045 0.0000 (126446 PWs)   bands (ev):

   -24.9445 -24.9382 -24.9335 -24.9288 -24.6215 -24.6144 -24.6085 -24.6029
   -20.4979 -20.4967 -20.4905 -20.4894 -20.3483 -20.3425 -20.3403 -20.3335
   -19.3965 -19.3962 -19.3955 -19.3950 -17.7563 -17.7542 -17.7532 -17.7511
   -14.8889 -14.8754 -14.8734 -14.8470 -14.5528 -14.5391 -14.5338 -14.5310
   -12.5332 -12.5250 -12.4767 -12.4720 -11.9702 -11.9584 -11.9444 -11.9252
   -11.4891 -11.4604 -11.4539 -11.4510 -11.1643 -11.1590 -11.1292 -11.1162
   -11.0771 -11.0477 -11.0130 -11.0063  -8.8496  -8.8482  -8.8226  -8.8058
    -8.4240  -8.4102  -8.3803  -8.3494  -8.0533  -8.0524  -7.9787  -7.9065
    -7.7974  -7.7186  -7.6807  -7.6398  -7.3188  -7.3094  -7.2462  -7.2424
    -7.1768  -7.1628  -7.1170  -7.0903  -6.8927  -6.8486  -6.8427  -6.7502
    -6.6835  -6.6317  -6.5788  -6.5590  -6.4274  -6.4184  -6.3816  -6.3010
    -6.2794  -6.2166  -6.2001  -6.1807  -5.5482  -5.5181  -5.4965  -5.4940
    -5.2685  -5.2680  -5.2432  -5.2062  -5.1837  -5.1754  -5.1426  -5.1393
    -4.6808  -4.6496  -4.6276  -4.6069  -4.3732  -4.3577  -4.2837  -4.2667
    -4.0391  -4.0316  -3.9713  -3.9605  -3.8739  -3.8514  -3.8408  -3.8317
    -3.7457  -3.7211  -3.6279  -3.5622  -3.1978  -3.1600  -3.1550  -3.1358
    -3.0754  -3.0528  -2.9847  -2.9577  -2.5612  -2.5503  -2.5408  -2.5150
    -2.3620  -2.3433  -2.2953  -2.2748  -1.9718  -1.9616  -1.8523  -1.7947
    -1.7616  -1.7213  -1.6430  -1.6315  -1.6245  -1.6141  -1.6022  -1.5571
    -1.4804  -1.4215  -1.4070  -1.3874  -1.3193  -1.2870  -1.2819  -1.2697
    -0.8763  -0.8635  -0.8303  -0.8260  -0.7421  -0.7374  -0.6228  -0.6221
    -0.5053  -0.5045  -0.4720  -0.4549  -0.0263  -0.0065   0.0660   0.1189
     0.1381   0.1989   0.2438   0.2720   0.6350   0.6605   0.6619   0.6792
     0.7162   0.7174   0.7264   0.7424   3.0418   3.0654   3.1234   3.1252
     3.2130   3.2397   3.2664   3.2897   4.5333   4.5668   4.5684   4.6116
     5.1259   5.2137   5.3010   5.3754   6.2770   6.3100   6.3713   6.3927
     6.8437   7.1679   7.2095   7.3553   7.3893   7.3983   7.4112   7.5497
     7.6481   7.7259   7.8137   7.8953   8.0209   8.0623   8.0760   8.1601
     8.2593

          k = 0.0000 0.7045-0.4877 (126412 PWs)   bands (ev):

   -24.9420 -24.9420 -24.9305 -24.9305 -24.6187 -24.6187 -24.6049 -24.6049
   -20.4973 -20.4973 -20.4900 -20.4900 -20.3464 -20.3464 -20.3358 -20.3358
   -19.3964 -19.3964 -19.3952 -19.3952 -17.7555 -17.7555 -17.7519 -17.7519
   -14.8858 -14.8858 -14.8566 -14.8566 -14.5477 -14.5477 -14.5306 -14.5306
   -12.5315 -12.5314 -12.4718 -12.4718 -11.9668 -11.9668 -11.9318 -11.9318
   -11.4861 -11.4861 -11.4416 -11.4416 -11.1612 -11.1612 -11.1276 -11.1276
   -11.0593 -11.0593 -11.0083 -11.0083  -8.8537  -8.8537  -8.8164  -8.8164
    -8.3888  -8.3888  -8.3731  -8.3731  -8.0682  -8.0681  -7.9466  -7.9466
    -7.7675  -7.7675  -7.6516  -7.6516  -7.3095  -7.3095  -7.2327  -7.2327
    -7.1778  -7.1778  -7.1039  -7.1039  -6.8801  -6.8801  -6.7920  -6.7920
    -6.6404  -6.6404  -6.5869  -6.5869  -6.4198  -6.4198  -6.3464  -6.3464
    -6.2530  -6.2530  -6.1785  -6.1785  -5.5228  -5.5228  -5.5057  -5.5057
    -5.2694  -5.2694  -5.2221  -5.2221  -5.1949  -5.1949  -5.1277  -5.1277
    -4.6510  -4.6510  -4.6353  -4.6353  -4.3351  -4.3351  -4.3008  -4.3008
    -4.0310  -4.0310  -3.9687  -3.9687  -3.8893  -3.8893  -3.8138  -3.8138
    -3.7140  -3.7140  -3.6169  -3.6168  -3.2055  -3.2055  -3.1315  -3.1315
    -3.0201  -3.0201  -2.9939  -2.9939  -2.5662  -2.5662  -2.5293  -2.5293
    -2.3290  -2.3290  -2.3025  -2.3025  -1.9592  -1.9592  -1.8301  -1.8301
    -1.7260  -1.7260  -1.6728  -1.6728  -1.6082  -1.6082  -1.5779  -1.5779
    -1.4417  -1.4417  -1.3986  -1.3986  -1.3051  -1.3051  -1.2757  -1.2757
    -0.8618  -0.8618  -0.8353  -0.8353  -0.7400  -0.7400  -0.6227  -0.6227
    -0.5053  -0.5053  -0.4629  -0.4628  -0.0135  -0.0135   0.0816   0.0817
     0.1893   0.1893   0.2454   0.2454   0.6462   0.6462   0.6763   0.6763
     0.7214   0.7215   0.7265   0.7265   3.0529   3.0529   3.1203   3.1204
     3.2373   3.2373   3.2724   3.2724   4.5407   4.5407   4.5988   4.5988
     5.1707   5.1707   5.3352   5.3352   6.2681   6.2681   6.3940   6.3940
     6.9887   6.9887   7.2988   7.2988   7.3848   7.3848   7.4939   7.4939
     7.6968   7.6968   7.8735   7.8735   7.9526   7.9526   8.2398   8.2398
     8.3789

          k =-0.5000 0.0000-0.0228 (126534 PWs)   bands (ev):

   -24.9500 -24.9380 -24.9342 -24.9244 -24.6285 -24.6192 -24.6029 -24.5959
   -20.5008 -20.4994 -20.4879 -20.4868 -20.3499 -20.3439 -20.3384 -20.3302
   -19.4226 -19.4225 -19.4203 -19.4201 -17.6842 -17.6815 -17.6798 -17.6766
   -14.9389 -14.8925 -14.8886 -14.8767 -14.6005 -14.5921 -14.5872 -14.5533
   -12.5430 -12.5131 -12.4521 -12.4385 -11.9597 -11.9576 -11.9319 -11.9118
   -11.5889 -11.5762 -11.5654 -11.5145 -11.1696 -11.1372 -11.1242 -11.1120
   -11.0846 -11.0313 -11.0151 -11.0033  -8.8449  -8.8396  -8.8353  -8.8111
    -8.4254  -8.4076  -8.3840  -8.3410  -8.0488  -8.0326  -7.9209  -7.8558
    -7.8001  -7.7886  -7.6574  -7.5942  -7.3209  -7.2445  -7.2355  -7.1941
    -7.1332  -7.1092  -7.0739  -6.9767  -6.9024  -6.8275  -6.8217  -6.7618
    -6.6074  -6.5885  -6.5722  -6.5598  -6.4718  -6.3960  -6.3127  -6.3016
    -6.2885  -6.2316  -6.2202  -6.1370  -5.5100  -5.5050  -5.4789  -5.4233
    -5.3119  -5.2670  -5.2527  -5.2356  -4.9283  -4.8989  -4.8943  -4.8438
    -4.6890  -4.6667  -4.6404  -4.6318  -4.3402  -4.3186  -4.3167  -4.3053
    -4.0580  -4.0469  -3.9835  -3.9725  -3.8561  -3.8153  -3.7976  -3.7725
    -3.6891  -3.6421  -3.6254  -3.5654  -3.5623  -3.4916  -3.4673  -3.4339
    -3.0636  -2.9771  -2.9463  -2.9401  -2.6170  -2.6065  -2.5706  -2.5603
    -2.3718  -2.3360  -2.2988  -2.2252  -2.0977  -1.9509  -1.9029  -1.8097
    -1.7804  -1.7315  -1.6620  -1.6502  -1.6250  -1.6139  -1.5638  -1.5592
    -1.4813  -1.3910  -1.3711  -1.3488  -1.3309  -1.3013  -1.2848  -1.2572
    -0.8582  -0.8115  -0.7941  -0.7855  -0.7719  -0.7617  -0.6024  -0.5860
    -0.5737  -0.5703  -0.4939  -0.4711  -0.0690  -0.0399  -0.0227  -0.0062
     0.1428   0.1495   0.2301   0.2558   0.4354   0.4759   0.5230   0.5297
     0.5698   0.6025   0.6079   0.6156   3.0285   3.0785   3.0958   3.0971
     3.1557   3.2396   3.2440   3.2543   4.6348   4.6517   4.7018   4.7080
     5.0031   5.0430   5.2715   5.3918   6.3005   6.4869   6.4923   6.5589
     6.6553   6.7543   7.1016   7.3079   7.3483   7.3788   7.4470   7.4582
     7.7718   7.8640   8.0214   8.1135   8.1574   8.1615   8.3025   8.3415
     8.4218

          k =-0.5000 0.0000-0.5105 (126414 PWs)   bands (ev):

   -24.9458 -24.9458 -24.9275 -24.9275 -24.6245 -24.6245 -24.5988 -24.5987
   -20.5001 -20.5001 -20.4874 -20.4874 -20.3478 -20.3478 -20.3333 -20.3333
   -19.4226 -19.4226 -19.4202 -19.4202 -17.6833 -17.6833 -17.6778 -17.6778
   -14.9206 -14.9206 -14.8789 -14.8789 -14.5911 -14.5911 -14.5743 -14.5743
   -12.5356 -12.5356 -12.4365 -12.4365 -11.9600 -11.9600 -11.9209 -11.9209
   -11.5814 -11.5814 -11.5447 -11.5447 -11.1458 -11.1458 -11.1320 -11.1320
   -11.0574 -11.0574 -11.0000 -11.0000  -8.8602  -8.8602  -8.8100  -8.8100
    -8.4232  -8.4232  -8.3484  -8.3484  -8.0481  -8.0480  -7.8744  -7.8744
    -7.8084  -7.8084  -7.6126  -7.6126  -7.3031  -7.3031  -7.2248  -7.2248
    -7.1132  -7.1132  -7.0213  -7.0213  -6.8721  -6.8721  -6.7800  -6.7800
    -6.5826  -6.5826  -6.5685  -6.5685  -6.4384  -6.4383  -6.3344  -6.3344
    -6.2443  -6.2442  -6.1709  -6.1709  -5.5052  -5.5052  -5.4512  -5.4512
    -5.3014  -5.3014  -5.2372  -5.2372  -4.9243  -4.9243  -4.8561  -4.8561
    -4.6772  -4.6772  -4.6370  -4.6370  -4.3216  -4.3216  -4.3146  -4.3146
    -4.0560  -4.0560  -3.9704  -3.9704  -3.8386  -3.8386  -3.8037  -3.8037
    -3.6526  -3.6526  -3.5965  -3.5965  -3.5139  -3.5139  -3.4672  -3.4672
    -3.0132  -3.0132  -2.9452  -2.9452  -2.6248  -2.6248  -2.5525  -2.5525
    -2.3633  -2.3633  -2.2474  -2.2474  -2.0582  -2.0582  -1.8215  -1.8215
    -1.7246  -1.7246  -1.7098  -1.7098  -1.5989  -1.5989  -1.5590  -1.5589
    -1.4549  -1.4549  -1.3542  -1.3542  -1.3144  -1.3144  -1.2653  -1.2653
    -0.8443  -0.8443  -0.7788  -0.7787  -0.7694  -0.7694  -0.5931  -0.5931
    -0.5699  -0.5699  -0.4849  -0.4849  -0.0543  -0.0543  -0.0187  -0.0187
     0.1575   0.1575   0.2289   0.2289   0.4719   0.4719   0.5157   0.5157
     0.5839   0.5839   0.6152   0.6153   3.0469   3.0469   3.0981   3.0981
     3.1933   3.1933   3.2588   3.2588   4.6263   4.6263   4.7197   4.7197
     5.0329   5.0329   5.3204   5.3204   6.3217   6.3217   6.6421   6.6421
     6.7779   6.7779   6.9263   6.9263   7.4222   7.4222   7.6139   7.6139
     7.8367   7.8367   7.9382   7.9382   8.1795   8.1795   8.3424   8.3424
     8.4890

          k =-0.5000 0.7045-0.0228 (126426 PWs)   bands (ev):

   -24.9445 -24.9382 -24.9335 -24.9288 -24.6215 -24.6144 -24.6085 -24.6029
   -20.4979 -20.4967 -20.4905 -20.4894 -20.3483 -20.3425 -20.3403 -20.3335
   -19.3966 -19.3962 -19.3954 -19.3950 -17.7563 -17.7542 -17.7532 -17.7511
   -14.8900 -14.8735 -14.8728 -14.8483 -14.5487 -14.5477 -14.5335 -14.5268
   -12.5363 -12.5263 -12.4769 -12.4666 -11.9703 -11.9578 -11.9443 -11.9249
   -11.5081 -11.4640 -11.4465 -11.4372 -11.1801 -11.1444 -11.1285 -11.1187
   -11.0774 -11.0452 -11.0154 -11.0024  -8.8551  -8.8497  -8.8272  -8.8055
    -8.4034  -8.3885  -8.3836  -8.3512  -8.0885  -8.0444  -7.9963  -7.9082
    -7.7946  -7.7171  -7.6799  -7.6430  -7.3183  -7.3044  -7.2422  -7.2386
    -7.1711  -7.1641  -7.1324  -7.0611  -6.8855  -6.8482  -6.8215  -6.7784
    -6.6694  -6.6303  -6.6000  -6.5909  -6.4186  -6.4009  -6.3759  -6.3024
    -6.2693  -6.2209  -6.2117  -6.1849  -5.5368  -5.5256  -5.4961  -5.4954
    -5.2684  -5.2660  -5.2339  -5.2282  -5.1942  -5.1740  -5.1484  -5.1067
    -4.6681  -4.6422  -4.6355  -4.6176  -4.3816  -4.3500  -4.2833  -4.2640
    -4.0701  -4.0328  -3.9828  -3.9562  -3.8690  -3.8472  -3.8347  -3.8211
    -3.7576  -3.7174  -3.6210  -3.5633  -3.2103  -3.1918  -3.1317  -3.1185
    -3.0679  -3.0376  -2.9901  -2.9571  -2.5737  -2.5683  -2.5336  -2.5286
    -2.3548  -2.3405  -2.2947  -2.2684  -1.9552  -1.9537  -1.8730  -1.7844
    -1.7424  -1.7341  -1.6589  -1.6328  -1.6136  -1.5957  -1.5955  -1.5811
    -1.4797  -1.4178  -1.4125  -1.3850  -1.3224  -1.2880  -1.2789  -1.2697
    -0.8832  -0.8646  -0.8265  -0.8240  -0.7403  -0.7354  -0.6241  -0.6212
    -0.5055  -0.5052  -0.4684  -0.4489  -0.0296  -0.0124   0.0645   0.1166
     0.1408   0.1950   0.2397   0.2721   0.6392   0.6515   0.6646   0.6735
     0.7160   0.7242   0.7294   0.7381   3.0411   3.0652   3.1238   3.1246
     3.2121   3.2402   3.2679   3.2888   4.5402   4.5657   4.5665   4.6086
     5.1354   5.2283   5.3028   5.3844   6.2514   6.2975   6.3890   6.3935
     6.9486   7.0295   7.0932   7.3110   7.4360   7.4603   7.4904   7.5587
     7.5986   7.7002   7.8610   7.9336   8.0181   8.0664   8.0867   8.1575
     8.3569

          k =-0.5000 0.7045-0.5105 (126406 PWs)   bands (ev):

   -24.9420 -24.9420 -24.9305 -24.9305 -24.6187 -24.6187 -24.6049 -24.6049
   -20.4973 -20.4973 -20.4900 -20.4900 -20.3464 -20.3464 -20.3358 -20.3358
   -19.3964 -19.3964 -19.3952 -19.3952 -17.7555 -17.7555 -17.7520 -17.7519
   -14.8850 -14.8850 -14.8574 -14.8574 -14.5464 -14.5464 -14.5318 -14.5318
   -12.5293 -12.5293 -12.4740 -12.4740 -11.9675 -11.9675 -11.9314 -11.9314
   -11.4802 -11.4802 -11.4478 -11.4478 -11.1515 -11.1515 -11.1382 -11.1382
   -11.0557 -11.0557 -11.0104 -11.0103  -8.8477  -8.8477  -8.8139  -8.8139
    -8.4180  -8.4180  -8.3650  -8.3650  -8.0551  -8.0551  -7.9512  -7.9512
    -7.7623  -7.7623  -7.6529  -7.6529  -7.3155  -7.3155  -7.2232  -7.2232
    -7.1830  -7.1830  -7.1008  -7.1008  -6.8610  -6.8610  -6.8018  -6.8018
    -6.6552  -6.6552  -6.5928  -6.5928  -6.4079  -6.4079  -6.3400  -6.3400
    -6.2584  -6.2584  -6.1823  -6.1823  -5.5242  -5.5242  -5.5061  -5.5061
    -5.2667  -5.2667  -5.2191  -5.2191  -5.1895  -5.1895  -5.1306  -5.1306
    -4.6664  -4.6664  -4.6198  -4.6198  -4.3339  -4.3339  -4.3091  -4.3091
    -4.0310  -4.0310  -3.9818  -3.9818  -3.8827  -3.8827  -3.8064  -3.8064
    -3.7140  -3.7140  -3.6210  -3.6210  -3.1822  -3.1822  -3.1419  -3.1419
    -3.0316  -3.0316  -2.9961  -2.9961  -2.5689  -2.5689  -2.5217  -2.5217
    -2.3374  -2.3374  -2.2917  -2.2917  -1.9717  -1.9717  -1.8202  -1.8202
    -1.7203  -1.7203  -1.6672  -1.6672  -1.6107  -1.6107  -1.5760  -1.5760
    -1.4511  -1.4510  -1.3972  -1.3972  -1.3099  -1.3099  -1.2699  -1.2699
    -0.8674  -0.8674  -0.8303  -0.8303  -0.7381  -0.7381  -0.6225  -0.6225
    -0.5065  -0.5065  -0.4576  -0.4576  -0.0152  -0.0152   0.0769   0.0769
     0.1850   0.1850   0.2454   0.2454   0.6472   0.6472   0.6767   0.6767
     0.7140   0.7140   0.7331   0.7331   3.0527   3.0527   3.1195   3.1195
     3.2360   3.2360   3.2738   3.2739   4.5402   4.5402   4.6004   4.6004
     5.1818   5.1818   5.3401   5.3401   6.2743   6.2743   6.3780   6.3780
     7.0608   7.0608   7.1572   7.1572   7.3617   7.3617   7.5641   7.5641
     7.7004   7.7004   7.8354   7.8354   7.9882   7.9882   8.2426   8.2426
     8.3964

     highest occupied, lowest unoccupied level (ev):     0.7424    3.0285

!    total energy              =   -1950.27185762 Ry
     Harris-Foulkes estimate   =   -1950.27185762 Ry
     estimated scf accuracy    <          4.3E-09 Ry

     total all-electron energy =     -7413.359220 Ry

     The total energy is the sum of the following terms:

     one-electron contribution =   -1262.37773765 Ry
     hartree contribution      =     776.52744617 Ry
     xc contribution           =    -402.87913313 Ry
     ewald contribution        =    -505.10807094 Ry
     Dispersion Correction     =      -0.49067445 Ry
     one-center paw contrib.   =    -555.94368761 Ry

     convergence has been achieved in  22 iterations

     Forces acting on atoms (cartesian axes, Ry/au):

     atom    1 type  2   force =    -0.00801579    0.01996260   -0.00113642
     atom    2 type  2   force =     0.00801687    0.01996019    0.00113531
     atom    3 type  2   force =     0.00801579   -0.01996260    0.00113642
     atom    4 type  2   force =    -0.00801687   -0.01996019   -0.00113531
     atom    5 type  4   force =     0.01645441    0.02284345   -0.00584978
     atom    6 type  4   force =    -0.01645529    0.02284507    0.00584997
     atom    7 type  4   force =    -0.01645441   -0.02284345    0.00584978
     atom    8 type  4   force =     0.01645529   -0.02284507   -0.00584997
     atom    9 type  4   force =     0.00040382   -0.00059991    0.00036378
     atom   10 type  4   force =    -0.00040033   -0.00059466   -0.00036144
     atom   11 type  4   force =    -0.00040382    0.00059991   -0.00036378
     atom   12 type  4   force =     0.00040033    0.00059466    0.00036144
     atom   13 type  4   force =     0.00010191    0.00202137   -0.00086227
     atom   14 type  4   force =    -0.00009550    0.00202785    0.00085896
     atom   15 type  4   force =    -0.00010191   -0.00202137    0.00086227
     atom   16 type  4   force =     0.00009550   -0.00202785   -0.00085896
     atom   17 type  4   force =     0.00080296    0.00022122   -0.00075445
     atom   18 type  4   force =    -0.00079485    0.00022679    0.00074995
     atom   19 type  4   force =    -0.00080296   -0.00022122    0.00075445
     atom   20 type  4   force =     0.00079485   -0.00022679   -0.00074995
     atom   21 type  4   force =     0.00161279   -0.00000373    0.00081327
     atom   22 type  4   force =    -0.00161267   -0.00000527   -0.00081763
     atom   23 type  4   force =    -0.00161279    0.00000373   -0.00081327
     atom   24 type  4   force =     0.00161267    0.00000527    0.00081763
     atom   25 type  1   force =     0.00202077    0.00193929   -0.00009174
     atom   26 type  1   force =    -0.00202147    0.00193935    0.00009133
     atom   27 type  1   force =    -0.00202077   -0.00193929    0.00009174
     atom   28 type  1   force =     0.00202147   -0.00193935   -0.00009133
     atom   29 type  3   force =    -0.00028407    0.00006435    0.00024642
     atom   30 type  3   force =     0.00028407    0.00006447   -0.00024618
     atom   31 type  3   force =     0.00028407   -0.00006435   -0.00024642
     atom   32 type  3   force =    -0.00028407   -0.00006447    0.00024618
     atom   33 type  1   force =    -0.00109382   -0.00073518    0.00168322
     atom   34 type  1   force =     0.00109342   -0.00071998   -0.00168450
     atom   35 type  1   force =     0.00109382    0.00073518   -0.00168322
     atom   36 type  1   force =    -0.00109342    0.00071998    0.00168450
     atom   37 type  3   force =    -0.00081669    0.00025446    0.00055375
     atom   38 type  3   force =     0.00081685    0.00025408   -0.00055363
     atom   39 type  3   force =     0.00081669   -0.00025446   -0.00055375
     atom   40 type  3   force =    -0.00081685   -0.00025408    0.00055363
     atom   41 type  1   force =    -0.00068383    0.00087167   -0.00171182
     atom   42 type  1   force =     0.00068369    0.00086643    0.00171313
     atom   43 type  1   force =     0.00068383   -0.00087167    0.00171182
     atom   44 type  1   force =    -0.00068369   -0.00086643   -0.00171313
     atom   45 type  3   force =    -0.00044057   -0.00049390    0.00152611
     atom   46 type  3   force =     0.00044062   -0.00049363   -0.00152600
     atom   47 type  3   force =     0.00044057    0.00049390   -0.00152611
     atom   48 type  3   force =    -0.00044062    0.00049363    0.00152600
     atom   49 type  1   force =    -0.00227614   -0.00200233    0.00098999
     atom   50 type  1   force =     0.00227498   -0.00198506   -0.00099021
     atom   51 type  1   force =     0.00227614    0.00200233   -0.00098999
     atom   52 type  1   force =    -0.00227498    0.00198506    0.00099021
     atom   53 type  3   force =     0.00045911   -0.00006976   -0.00007581
     atom   54 type  3   force =    -0.00045917   -0.00006950    0.00007604
     atom   55 type  3   force =    -0.00045911    0.00006976    0.00007581
     atom   56 type  3   force =     0.00045917    0.00006950   -0.00007604
     atom   57 type  1   force =     0.00154022    0.00084880   -0.00236632
     atom   58 type  1   force =    -0.00154029    0.00086558    0.00236564
     atom   59 type  1   force =    -0.00154022   -0.00084880    0.00236632
     atom   60 type  1   force =     0.00154029   -0.00086558   -0.00236564
     atom   61 type  3   force =     0.00026752   -0.00020680   -0.00027869
     atom   62 type  3   force =    -0.00026742   -0.00020694    0.00027873
     atom   63 type  3   force =    -0.00026752    0.00020680    0.00027869
     atom   64 type  3   force =     0.00026742    0.00020694   -0.00027873
     atom   65 type  1   force =     0.00066810   -0.00073431    0.00214854
     atom   66 type  1   force =    -0.00066852   -0.00074431   -0.00214706
     atom   67 type  1   force =    -0.00066810    0.00073431   -0.00214854
     atom   68 type  1   force =     0.00066852    0.00074431    0.00214706
     atom   69 type  1   force =    -0.00650717   -0.01311773    0.00701296
     atom   70 type  1   force =     0.00650697   -0.01310671   -0.00701307
     atom   71 type  1   force =     0.00650717    0.01311773   -0.00701296
     atom   72 type  1   force =    -0.00650697    0.01310671    0.00701307
     atom   73 type  1   force =    -0.00051502   -0.02313929   -0.00046750
     atom   74 type  1   force =     0.00051540   -0.02317968    0.00046802
     atom   75 type  1   force =     0.00051502    0.02313929    0.00046750
     atom   76 type  1   force =    -0.00051540    0.02317968   -0.00046802
     atom   77 type  3   force =    -0.00093290   -0.00322152    0.00226684
     atom   78 type  3   force =     0.00093298   -0.00322101   -0.00226669
     atom   79 type  3   force =     0.00093290    0.00322152   -0.00226684
     atom   80 type  3   force =    -0.00093298    0.00322101    0.00226669
     atom   81 type  3   force =    -0.00255875   -0.00487257   -0.00171516
     atom   82 type  3   force =     0.00255866   -0.00487225    0.00171498
     atom   83 type  3   force =     0.00255875    0.00487257    0.00171516
     atom   84 type  3   force =    -0.00255866    0.00487225   -0.00171498
     atom   85 type  1   force =    -0.00119065    0.00317782    0.00340408
     atom   86 type  1   force =     0.00119161    0.00318737   -0.00340494
     atom   87 type  1   force =     0.00119065   -0.00317782   -0.00340408
     atom   88 type  1   force =    -0.00119161   -0.00318737    0.00340494
     atom   89 type  1   force =     0.00263274   -0.00439103   -0.00305313
     atom   90 type  1   force =    -0.00263194   -0.00439037    0.00305343
     atom   91 type  1   force =    -0.00263274    0.00439103    0.00305313
     atom   92 type  1   force =     0.00263194    0.00439037   -0.00305343
     atom   93 type  3   force =    -0.00038335   -0.00061500    0.00184483
     atom   94 type  3   force =     0.00038400   -0.00061517   -0.00184469
     atom   95 type  3   force =     0.00038335    0.00061500   -0.00184483
     atom   96 type  3   force =    -0.00038400    0.00061517    0.00184469
     atom   97 type  3   force =    -0.00116132   -0.00149257   -0.00051474
     atom   98 type  3   force =     0.00116121   -0.00149245    0.00051449
     atom   99 type  3   force =     0.00116132    0.00149257    0.00051474
     atom  100 type  3   force =    -0.00116121    0.00149245   -0.00051449
     atom  101 type  2   force =    -0.00012712    0.00080864   -0.00344001
     atom  102 type  2   force =     0.00012346    0.00080704    0.00344003
     atom  103 type  2   force =     0.00012712   -0.00080864    0.00344001
     atom  104 type  2   force =    -0.00012346   -0.00080704   -0.00344003
     atom  105 type  2   force =    -0.00034910    0.00050944    0.00070199
     atom  106 type  2   force =     0.00034688    0.00051109   -0.00069913
     atom  107 type  2   force =     0.00034910   -0.00050944   -0.00070199
     atom  108 type  2   force =    -0.00034688   -0.00051109    0.00069913

     Total force =     0.095414     Total SCF correction =     0.000147


     Computing stress (Cartesian axis) and pressure

          total   stress  (Ry/bohr**3)                   (kbar)     P=   -3.48
  -0.00006376   0.00000000  -0.00000234         -9.38      0.00     -0.34
   0.00000000   0.00003959   0.00000000          0.00      5.82      0.00
  -0.00000234   0.00000000  -0.00004670         -0.34      0.00     -6.87


     Writing output data file scf.save
 
     init_run     :     79.09s CPU     81.58s WALL (       1 calls)
     electrons    :   3515.66s CPU   3650.50s WALL (       1 calls)
     forces       :     37.72s CPU     37.98s WALL (       1 calls)
     stress       :    175.82s CPU    176.34s WALL (       1 calls)

     Called by init_run:
     wfcinit      :     66.02s CPU     68.33s WALL (       1 calls)
     potinit      :      4.52s CPU      4.54s WALL (       1 calls)

     Called by electrons:
     c_bands      :   3176.85s CPU   3290.57s WALL (      22 calls)
     sum_band     :    316.28s CPU    335.11s WALL (      22 calls)
     v_of_rho     :      3.29s CPU      3.64s WALL (      23 calls)
     newd         :      8.66s CPU     10.59s WALL (      23 calls)
     PAW_pot      :      9.83s CPU      9.83s WALL (      23 calls)
     mix_rho      :      0.87s CPU      0.91s WALL (      22 calls)

     Called by c_bands:
     init_us_2    :     13.72s CPU     13.77s WALL (     376 calls)
     cegterg      :   3112.60s CPU   3226.23s WALL (     176 calls)

     Called by sum_band:
     sum_band:bec :      0.16s CPU      0.16s WALL (     176 calls)
     addusdens    :      8.76s CPU     10.59s WALL (      22 calls)

     Called by *egterg:
     h_psi        :   1610.72s CPU   1701.00s WALL (     792 calls)
     s_psi        :    394.11s CPU    394.17s WALL (     792 calls)
     g_psi        :      6.83s CPU      6.83s WALL (     608 calls)
     cdiaghg      :    183.54s CPU    183.55s WALL (     784 calls)

     Called by h_psi:
     h_psi:pot    :   1601.12s CPU   1691.26s WALL (     792 calls)
     h_psi:calbec :    389.71s CPU    390.37s WALL (     792 calls)
     vloc_psi     :    816.14s CPU    905.53s WALL (     792 calls)
     add_vuspsi   :    395.27s CPU    395.35s WALL (     792 calls)

     General routines
     calbec       :    570.35s CPU    571.32s WALL (    1008 calls)
     fft          :      3.39s CPU      4.00s WALL (     323 calls)
     fftw         :    882.05s CPU    987.89s WALL (  256274 calls)
 
     Parallel routines
     fft_scatter  :    177.47s CPU    279.69s WALL (  256597 calls)
 
     PWSCF        :     1h 3m CPU        1h 6m WALL

 
   This run was terminated on:  13:13:48  18Dec2017            

=------------------------------------------------------------------------------=
   JOB DONE.
=------------------------------------------------------------------------------=
