
     Program PWSCF v.6.1 (svn rev. 13369) starts on  3Nov2017 at 23:55:58 

     This program is part of the open-source Quantum ESPRESSO suite
     for quantum simulation of materials; please cite
         "P. Giannozzi et al., J. Phys.:Condens. Matter 21 395502 (2009);
          URL http://www.quantum-espresso.org", 
     in publications or presentations arising from this work. More details at
     http://www.quantum-espresso.org/quote

     Parallel version (MPI), running on     8 processors
     R & G space division:  proc/nbgrp/npool/nimage =       8
     Waiting for input...
     Reading input from standard input

     Current dimensions of program PWSCF are:
     Max number of different atomic species (ntypx) = 10
     Max number of k-points (npk) =  40000
     Max angular momentum in pseudopotentials (lmaxx) =  3
               file C.pbe-n-kjpaw_psl.0.1.UPF: wavefunction(s)  2P renormalized
               file N.pbe-n-kjpaw_psl.0.1.UPF: wavefunction(s)  2P renormalized
               file H.pbe-kjpaw_psl.0.1.UPF: wavefunction(s)  1S renormalized
               file O.pbe-n-kjpaw_psl.0.1.UPF: wavefunction(s)  2P renormalized

     -------------------------------------
     Parameters for Dispersion Correction:
     -------------------------------------
       atom      VdW radius       C_6     

        C          2.744         60.710
        N          2.640         42.670
        H          1.892          4.857
        O          2.536         24.284

     Subspace diagonalization in iterative solution of the eigenvalue problem:
     a serial algorithm will be used

 
     Parallelization info
     --------------------
     sticks:   dense  smooth     PW     G-vecs:    dense   smooth      PW
     Min         952     952    248               137284   137284   18392
     Max         953     953    249               137289   137289   18399
     Sum        7623    7623   1989              1098303  1098303  147167
 


     bravais-lattice index     =            0
     lattice parameter (alat)  =      18.4097  a.u.
     unit-cell volume          =    8128.6146 (a.u.)^3
     number of atoms/cell      =          120
     number of atomic types    =            4
     number of electrons       =       448.00
     number of Kohn-Sham states=          268
     kinetic-energy cutoff     =     100.0000  Ry
     charge density cutoff     =     400.0000  Ry
     convergence threshold     =      1.0E-08
     mixing beta               =       0.5000
     number of iterations used =            8  plain     mixing
     Exchange-correlation      =  SLA  PW   PBX  PBC ( 1  4  3  4 0 0)

     celldm(1)=  18.409712  celldm(2)=   0.000000  celldm(3)=   0.000000
     celldm(4)=   0.000000  celldm(5)=   0.000000  celldm(6)=   0.000000

     crystal axes: (cart. coord. in units of alat)
               a(1) = (   1.000000   0.000000   0.000000 )  
               a(2) = (   0.000000   0.705297   0.000000 )  
               a(3) = (   0.000000   0.000000   1.847157 )  

     reciprocal axes: (cart. coord. in units 2 pi/alat)
               b(1) = (  1.000000  0.000000  0.000000 )  
               b(2) = (  0.000000  1.417843  0.000000 )  
               b(3) = (  0.000000  0.000000  0.541373 )  


     PseudoPot. # 1 for  C read from file:
     /scratch/ahofstet/pseudo/C.pbe-n-kjpaw_psl.0.1.UPF
     MD5 check sum: 430fe95172b1e11ef3f8ed03bac87931
     Pseudo is Projector augmented-wave + core cor, Zval =  4.0
     Generated using "atomic" code by A. Dal Corso  v.5.0.99 svn rev. 10869
     Shape of augmentation charge: BESSEL
     Using radial grid of 1073 points,  4 beta functions with: 
                l(1) =   0
                l(2) =   0
                l(3) =   1
                l(4) =   1
     Q(r) pseudized with 0 coefficients 


     PseudoPot. # 2 for  N read from file:
     /scratch/ahofstet/pseudo/N.pbe-n-kjpaw_psl.0.1.UPF
     MD5 check sum: f73187c8b701007e77325f868c9291d7
     Pseudo is Projector augmented-wave + core cor, Zval =  5.0
     Generated using "atomic" code by A. Dal Corso  v.5.0.99 svn rev. 10869
     Shape of augmentation charge: PSQ
     Using radial grid of 1085 points,  4 beta functions with: 
                l(1) =   0
                l(2) =   0
                l(3) =   1
                l(4) =   1
     Q(r) pseudized with 0 coefficients 


     PseudoPot. # 3 for  H read from file:
     /scratch/ahofstet/pseudo/H.pbe-kjpaw_psl.0.1.UPF
     MD5 check sum: 94e484f906d9e9773b2f6e52662335b2
     Pseudo is Projector augmented-wave, Zval =  1.0
     Generated using "atomic" code by A. Dal Corso  v.5.0.99 svn rev. 10869
     Shape of augmentation charge: PSQ
     Using radial grid of  929 points,  2 beta functions with: 
                l(1) =   0
                l(2) =   0
     Q(r) pseudized with 0 coefficients 


     PseudoPot. # 4 for  O read from file:
     /scratch/ahofstet/pseudo/O.pbe-n-kjpaw_psl.0.1.UPF
     MD5 check sum: 3f94a2996a3169367d6eb21d9b593f20
     Pseudo is Projector augmented-wave + core cor, Zval =  6.0
     Generated using "atomic" code by A. Dal Corso  v.5.0.99 svn rev. 10869
     Shape of augmentation charge: BESSEL
     Using radial grid of 1095 points,  4 beta functions with: 
                l(1) =   0
                l(2) =   0
                l(3) =   1
                l(4) =   1
     Q(r) pseudized with 0 coefficients 


     atomic species   valence    mass     pseudopotential
        C              4.00    12.01070      C( 1.00)
        N              5.00    14.00670      N( 1.00)
        H              1.00     1.00794      H( 1.00)
        O              6.00    15.99940      O( 1.00)

      2 Sym. Ops. (no inversion) found ( 1 have fractional translation)
          (note:  2 additional sym.ops. were found but ignored
           their fractional translations are incommensurate with FFT grid)


   Cartesian axes

     site n.     atom                  positions (alat units)
         1           C   tau(   1) = (   0.7494960   0.1654363   0.3215358  )
         2           C   tau(   2) = (   0.2505040   0.5398603   1.2451141  )
         3           C   tau(   3) = (   0.2494960   0.5398603   0.3215358  )
         4           C   tau(   4) = (   0.7505040   0.1654363   1.2451141  )
         5           H   tau(   5) = (   0.7681482   0.1099108   0.4184066  )
         6           H   tau(   6) = (   0.2318518   0.5953859   1.3419849  )
         7           H   tau(   7) = (   0.2681482   0.5953859   0.4184066  )
         8           H   tau(   8) = (   0.7318518   0.1099108   1.3419849  )
         9           H   tau(   9) = (   0.6405888   0.1536215   0.2956825  )
        10           H   tau(  10) = (   0.3594112   0.5516752   1.2192608  )
        11           H   tau(  11) = (   0.1405888   0.5516752   0.2956825  )
        12           H   tau(  12) = (   0.8594112   0.1536215   1.2192608  )
        13           C   tau(  13) = (   0.8379575   0.1003304   0.2143845  )
        14           C   tau(  14) = (   0.1620425   0.6049663   1.1379628  )
        15           C   tau(  15) = (   0.3379575   0.6049663   0.2143845  )
        16           C   tau(  16) = (   0.6620425   0.1003304   1.1379628  )
        17           C   tau(  17) = (   0.7841232   0.3138753   0.3400884  )
        18           C   tau(  18) = (   0.2158768   0.3914214   1.2636667  )
        19           C   tau(  19) = (   0.2841232   0.3914214   0.3400884  )
        20           C   tau(  20) = (   0.7158768   0.3138753   1.2636667  )
        21           C   tau(  21) = (   0.9644001   0.1910681   1.5995163  )
        22           C   tau(  22) = (   0.0355999   0.5142285   0.6759380  )
        23           C   tau(  23) = (   0.4644001   0.5142285   1.5995163  )
        24           C   tau(  24) = (   0.5355999   0.1910681   0.6759380  )
        25           H   tau(  25) = (   0.8548425   0.2031782   1.6228298  )
        26           H   tau(  26) = (   0.1451575   0.5021185   0.6992515  )
        27           H   tau(  27) = (   0.3548425   0.5021185   1.6228298  )
        28           H   tau(  28) = (   0.6451575   0.2031782   0.6992515  )
        29           H   tau(  29) = (   0.9838983   0.2478412   1.5034351  )
        30           H   tau(  30) = (   0.0161017   0.4574555   0.5798567  )
        31           H   tau(  31) = (   0.4838983   0.4574555   1.5034351  )
        32           H   tau(  32) = (   0.5161017   0.2478412   0.5798567  )
        33           C   tau(  33) = (   0.9984723   0.0424649   1.5793385  )
        34           C   tau(  34) = (   0.0015277   0.6628318   0.6557602  )
        35           C   tau(  35) = (   0.4984723   0.6628318   1.5793385  )
        36           C   tau(  36) = (   0.5015277   0.0424649   0.6557602  )
        37           C   tau(  37) = (   0.0510037   0.2555452   1.7089902  )
        38           C   tau(  38) = (   0.9489963   0.4497515   0.7854118  )
        39           C   tau(  39) = (   0.5510037   0.4497515   1.7089902  )
        40           C   tau(  40) = (   0.4489963   0.2555452   0.7854118  )
        41           N   tau(  41) = (   0.9742759   0.1014296   0.2116423  )
        42           N   tau(  42) = (   0.0257241   0.6038671   1.1352206  )
        43           N   tau(  43) = (   0.4742759   0.6038671   0.2116423  )
        44           N   tau(  44) = (   0.5257241   0.1014296   1.1352206  )
        45           N   tau(  45) = (   0.0094120   0.0271984   0.1000309  )
        46           N   tau(  46) = (   0.9905880   0.6780983   1.0236093  )
        47           N   tau(  47) = (   0.5094120   0.6780983   0.1000309  )
        48           N   tau(  48) = (   0.4905880   0.0271984   1.0236093  )
        49           N   tau(  49) = (   0.9014718   0.6863167   0.0351947  )
        50           N   tau(  50) = (   0.0985282   0.0189800   0.9587730  )
        51           N   tau(  51) = (   0.4014718   0.0189800   0.0351947  )
        52           N   tau(  52) = (   0.5985282   0.6863167   0.9587730  )
        53           N   tau(  53) = (   0.7930398   0.0280118   0.1059410  )
        54           N   tau(  54) = (   0.2069602   0.6772849   1.0295193  )
        55           N   tau(  55) = (   0.2930398   0.6772849   0.1059410  )
        56           N   tau(  56) = (   0.7069602   0.0280118   1.0295193  )
        57           H   tau(  57) = (   0.6904042   0.0040450   0.0816445  )
        58           H   tau(  58) = (   0.3095958   0.7012517   1.0052229  )
        59           H   tau(  59) = (   0.1904042   0.7012517   0.0816445  )
        60           H   tau(  60) = (   0.8095958   0.0040450   1.0052229  )
        61           N   tau(  61) = (   0.9093797   0.3685517   0.3477419  )
        62           N   tau(  62) = (   0.0906203   0.3367450   1.2713202  )
        63           N   tau(  63) = (   0.4093797   0.3367450   0.3477419  )
        64           N   tau(  64) = (   0.5906203   0.3685517   1.2713202  )
        65           N   tau(  65) = (   0.8912558   0.5058673   0.3597519  )
        66           N   tau(  66) = (   0.1087442   0.1994294   1.2833302  )
        67           N   tau(  67) = (   0.3912558   0.1994294   0.3597519  )
        68           N   tau(  68) = (   0.6087442   0.5058673   1.2833302  )
        69           N   tau(  69) = (   0.7606242   0.5364614   0.3593466  )
        70           N   tau(  70) = (   0.2393758   0.1688352   1.2829250  )
        71           N   tau(  71) = (   0.2606242   0.1688352   0.3593466  )
        72           N   tau(  72) = (   0.7393758   0.5364614   1.2829250  )
        73           N   tau(  73) = (   0.6928039   0.4168738   0.3471380  )
        74           N   tau(  74) = (   0.3071961   0.2884229   1.2707163  )
        75           N   tau(  75) = (   0.1928039   0.2884229   0.3471380  )
        76           N   tau(  76) = (   0.8071961   0.4168738   1.2707163  )
        77           H   tau(  77) = (   0.5852132   0.4102021   0.3409529  )
        78           H   tau(  78) = (   0.4147868   0.2950945   1.2645312  )
        79           H   tau(  79) = (   0.0852132   0.2950945   0.3409529  )
        80           H   tau(  80) = (   0.9147868   0.4102021   1.2645312  )
        81           N   tau(  81) = (   0.1233104   0.6918542   1.5750093  )
        82           N   tau(  82) = (   0.8766896   0.0134424   0.6514309  )
        83           N   tau(  83) = (   0.6233104   0.0134424   1.5750093  )
        84           N   tau(  84) = (   0.3766896   0.6918542   0.6514309  )
        85           N   tau(  85) = (   0.1042790   0.5548008   1.5612190  )
        86           N   tau(  86) = (   0.8957210   0.1504959   0.6376407  )
        87           N   tau(  87) = (   0.6042790   0.1504959   1.5612190  )
        88           N   tau(  88) = (   0.3957210   0.5548008   0.6376407  )
        89           N   tau(  89) = (   0.9733976   0.5256492   1.5572831  )
        90           N   tau(  90) = (   0.0266024   0.1796474   0.6337047  )
        91           N   tau(  91) = (   0.4733976   0.1796474   1.5572831  )
        92           N   tau(  92) = (   0.5266024   0.5256492   0.6337047  )
        93           N   tau(  93) = (   0.9064980   0.6456688   1.5678317  )
        94           N   tau(  94) = (   0.0935020   0.0596279   0.6442533  )
        95           N   tau(  95) = (   0.4064980   0.0596279   1.5678317  )
        96           N   tau(  96) = (   0.5935020   0.6456688   0.6442533  )
        97           H   tau(  97) = (   0.7986679   0.6521491   1.5744039  )
        98           H   tau(  98) = (   0.2013321   0.0531475   0.6508256  )
        99           H   tau(  99) = (   0.2986679   0.0531475   1.5744039  )
       100           H   tau( 100) = (   0.7013321   0.6521491   0.6508256  )
       101           N   tau( 101) = (   0.1868571   0.2487772   1.7176663  )
       102           N   tau( 102) = (   0.8131429   0.4565195   0.7940880  )
       103           N   tau( 103) = (   0.6868571   0.4565195   1.7176663  )
       104           N   tau( 104) = (   0.3131429   0.2487772   0.7940880  )
       105           N   tau( 105) = (   0.2205149   0.3251104   1.8283891  )
       106           N   tau( 106) = (   0.7794851   0.3801863   0.9048108  )
       107           N   tau( 107) = (   0.7205149   0.3801863   1.8283891  )
       108           N   tau( 108) = (   0.2794851   0.3251104   0.9048108  )
       109           N   tau( 109) = (   0.1121719   0.3780534   0.0398740  )
       110           N   tau( 110) = (   0.8878281   0.3272433   0.9634523  )
       111           N   tau( 111) = (   0.6121719   0.3272433   0.0398740  )
       112           N   tau( 112) = (   0.3878281   0.3780534   0.9634523  )
       113           N   tau( 113) = (   0.0050510   0.3339197   1.8128746  )
       114           N   tau( 114) = (   0.9949490   0.3713769   0.8892963  )
       115           N   tau( 115) = (   0.5050510   0.3713769   1.8128746  )
       116           N   tau( 116) = (   0.4949490   0.3339197   0.8892963  )
       117           H   tau( 117) = (   0.9029178   0.3597629   1.8361690  )
       118           H   tau( 118) = (   0.0970822   0.3455338   0.9125907  )
       119           H   tau( 119) = (   0.4029178   0.3455338   1.8361690  )
       120           H   tau( 120) = (   0.5970822   0.3597629   0.9125907  )

     number of k points=     4
                       cart. coord. in units 2pi/alat
        k(    1) = (   0.0000000   0.0000000   0.0000000), wk =   0.3333333
        k(    2) = (   0.0000000   0.4726144   0.0000000), wk =   0.6666667
        k(    3) = (  -0.5000000   0.0000000   0.0000000), wk =   0.3333333
        k(    4) = (  -0.5000000   0.4726144   0.0000000), wk =   0.6666667

     Dense  grid:  1098303 G-vectors     FFT dimensions: ( 120,  90, 225)

     Estimated max dynamical RAM per process >    1234.21MB

     Estimated total allocated dynamical RAM >    9873.67MB

     Check: negative/imaginary core charge=   -0.000002    0.000000

     Initial potential from superposition of free atoms

     starting charge  447.99823, renormalised to  448.00000
     Starting wfc are  384 randomized atomic wfcs
     Checking if some PAW data can be deallocated... 

     total cpu time spent up to now is       45.6 secs

     per-process dynamical memory:   710.2 Mb

     Self-consistent Calculation

     iteration #  1     ecut=   100.00 Ry     beta=0.50
     Davidson diagonalization with overlap
     ethr =  1.00E-02,  avg # of iterations =  3.2

     total cpu time spent up to now is      169.4 secs

     total energy              =   -2284.27896121 Ry
     Harris-Foulkes estimate   =   -2288.37601687 Ry
     estimated scf accuracy    <       8.62986572 Ry

     iteration #  2     ecut=   100.00 Ry     beta=0.50
     Davidson diagonalization with overlap
     ethr =  1.93E-03,  avg # of iterations =  2.0

     total cpu time spent up to now is      243.0 secs

     total energy              =   -2284.91455899 Ry
     Harris-Foulkes estimate   =   -2285.31396407 Ry
     estimated scf accuracy    <       0.98447275 Ry

     iteration #  3     ecut=   100.00 Ry     beta=0.50
     Davidson diagonalization with overlap
     ethr =  2.20E-04,  avg # of iterations =  9.5

     total cpu time spent up to now is      385.3 secs

     total energy              =   -2285.33485846 Ry
     Harris-Foulkes estimate   =   -2285.51916937 Ry
     estimated scf accuracy    <       0.47542254 Ry

     iteration #  4     ecut=   100.00 Ry     beta=0.50
     Davidson diagonalization with overlap
     ethr =  1.06E-04,  avg # of iterations =  1.8

     total cpu time spent up to now is      451.4 secs

     total energy              =   -2285.31177908 Ry
     Harris-Foulkes estimate   =   -2285.37570600 Ry
     estimated scf accuracy    <       0.10987835 Ry

     iteration #  5     ecut=   100.00 Ry     beta=0.50
     Davidson diagonalization with overlap
     ethr =  2.45E-05,  avg # of iterations =  7.2

     total cpu time spent up to now is      588.6 secs

     total energy              =   -2285.40049127 Ry
     Harris-Foulkes estimate   =   -2285.45371391 Ry
     estimated scf accuracy    <       0.18770817 Ry

     iteration #  6     ecut=   100.00 Ry     beta=0.50
     Davidson diagonalization with overlap
     ethr =  2.45E-05,  avg # of iterations =  2.0

     total cpu time spent up to now is      655.6 secs

     total energy              =   -2285.38828115 Ry
     Harris-Foulkes estimate   =   -2285.40528002 Ry
     estimated scf accuracy    <       0.09069623 Ry

     iteration #  7     ecut=   100.00 Ry     beta=0.50
     Davidson diagonalization with overlap
     ethr =  2.02E-05,  avg # of iterations =  3.0

     total cpu time spent up to now is      730.4 secs

     total energy              =   -2285.39040115 Ry
     Harris-Foulkes estimate   =   -2285.39910880 Ry
     estimated scf accuracy    <       0.02087648 Ry

     iteration #  8     ecut=   100.00 Ry     beta=0.50
     Davidson diagonalization with overlap
     ethr =  4.66E-06,  avg # of iterations =  8.8

     total cpu time spent up to now is      819.8 secs

     total energy              =   -2285.39256617 Ry
     Harris-Foulkes estimate   =   -2285.39327950 Ry
     estimated scf accuracy    <       0.00226367 Ry

     iteration #  9     ecut=   100.00 Ry     beta=0.50
     Davidson diagonalization with overlap
     ethr =  5.05E-07,  avg # of iterations =  4.0

     total cpu time spent up to now is      934.5 secs

     total energy              =   -2285.39414585 Ry
     Harris-Foulkes estimate   =   -2285.39421214 Ry
     estimated scf accuracy    <       0.00021007 Ry

     iteration # 10     ecut=   100.00 Ry     beta=0.50
     Davidson diagonalization with overlap
     ethr =  4.69E-08,  avg # of iterations =  2.0

     total cpu time spent up to now is     1001.6 secs

     total energy              =   -2285.39415575 Ry
     Harris-Foulkes estimate   =   -2285.39416602 Ry
     estimated scf accuracy    <       0.00004186 Ry

     iteration # 11     ecut=   100.00 Ry     beta=0.50
     Davidson diagonalization with overlap
     ethr =  9.34E-09,  avg # of iterations =  4.0

     total cpu time spent up to now is     1111.7 secs

     total energy              =   -2285.39416480 Ry
     Harris-Foulkes estimate   =   -2285.39417214 Ry
     estimated scf accuracy    <       0.00001658 Ry

     iteration # 12     ecut=   100.00 Ry     beta=0.50
     Davidson diagonalization with overlap
     ethr =  3.70E-09,  avg # of iterations =  3.8

     total cpu time spent up to now is     1183.9 secs

     total energy              =   -2285.39416615 Ry
     Harris-Foulkes estimate   =   -2285.39416680 Ry
     estimated scf accuracy    <       0.00000194 Ry

     iteration # 13     ecut=   100.00 Ry     beta=0.50
     Davidson diagonalization with overlap
     ethr =  4.33E-10,  avg # of iterations =  4.0

     total cpu time spent up to now is     1297.6 secs

     total energy              =   -2285.39416782 Ry
     Harris-Foulkes estimate   =   -2285.39416805 Ry
     estimated scf accuracy    <       0.00000065 Ry

     iteration # 14     ecut=   100.00 Ry     beta=0.50
     Davidson diagonalization with overlap
     ethr =  1.44E-10,  avg # of iterations =  1.0

     total cpu time spent up to now is     1362.1 secs

     total energy              =   -2285.39416776 Ry
     Harris-Foulkes estimate   =   -2285.39416786 Ry
     estimated scf accuracy    <       0.00000025 Ry

     iteration # 15     ecut=   100.00 Ry     beta=0.50
     Davidson diagonalization with overlap
     ethr =  5.64E-11,  avg # of iterations =  4.0

     total cpu time spent up to now is     1455.9 secs

     total energy              =   -2285.39416786 Ry
     Harris-Foulkes estimate   =   -2285.39416786 Ry
     estimated scf accuracy    <       0.00000002 Ry

     iteration # 16     ecut=   100.00 Ry     beta=0.50
     Davidson diagonalization with overlap
     ethr =  3.82E-12,  avg # of iterations =  4.0

     total cpu time spent up to now is     1543.4 secs

     End of self-consistent calculation

          k = 0.0000 0.0000 0.0000 (137299 PWs)   bands (ev):

   -21.3308 -21.3293 -21.2719 -21.2708 -21.2653 -21.2649 -21.2400 -21.2396
   -21.1279 -21.1224 -21.1041 -21.0991 -21.0872 -21.0870 -21.0814 -21.0812
   -16.2452 -16.2448 -16.2415 -16.2409 -16.0930 -16.0897 -16.0782 -16.0750
   -16.0267 -16.0267 -15.9809 -15.9808 -15.8973 -15.8969 -15.8672 -15.8672
   -15.1697 -15.1547 -15.1541 -15.1507 -15.1315 -15.1280 -15.1042 -15.0851
   -14.6424 -14.6265 -14.6179 -14.6161 -14.6099 -14.5987 -14.5890 -14.5830
   -11.7034 -11.7014 -11.6952 -11.6931 -11.6663 -11.6659 -11.6637 -11.6630
    -9.6591  -9.6561  -9.6045  -9.6022  -9.1725  -9.1708  -9.1503  -9.1488
    -9.1377  -9.1358  -9.1041  -9.1024  -8.9985  -8.9976  -8.9842  -8.9842
    -8.9374  -8.9360  -8.9066  -8.9055  -8.7170  -8.7161  -8.6925  -8.6912
    -8.4844  -8.4367  -8.4159  -8.3608  -7.9907  -7.9781  -7.9697  -7.9581
    -6.6674  -6.6170  -6.6064  -6.5557  -6.5387  -6.4870  -6.4746  -6.4516
    -6.4302  -6.4268  -6.3835  -6.3796  -6.1383  -6.1381  -6.1349  -6.1341
    -5.3104  -5.3065  -5.3037  -5.1996  -5.1876  -5.0179  -4.9702  -4.9515
    -4.9059  -4.8602  -4.8509  -4.8434  -4.8017  -4.7438  -4.7230  -4.6876
    -4.3630  -4.3627  -4.3336  -4.3235  -4.0993  -4.0912  -4.0707  -4.0662
    -3.9716  -3.9627  -3.8102  -3.8095  -3.5673  -3.5508  -3.3939  -3.3783
    -3.2354  -3.2303  -3.1296  -3.1093  -3.0875  -3.0591  -3.0082  -2.9764
    -2.3787  -2.3725  -2.2908  -2.2839  -2.0760  -2.0357  -2.0124  -2.0006
    -1.6322  -1.5648  -1.5444  -1.5378  -1.2952  -1.2602  -1.2331  -1.2165
    -0.9282  -0.9081  -0.8873  -0.8790  -0.8277  -0.8002  -0.7946  -0.7857
    -0.7249  -0.7115  -0.6374  -0.6005  -0.5928  -0.5775  -0.5211  -0.4983
    -0.3345  -0.3133  -0.2222  -0.1913  -0.1590  -0.1458  -0.1404  -0.1343
    -0.1077  -0.1058  -0.0537  -0.0334   0.0093   0.0367   0.0455   0.1082
     0.1125   0.1238   0.1455   0.1572   0.1650   0.1902   0.1928   0.2103
     0.2298   0.2362   0.2533   0.2788   0.2844   0.3138   0.3368   0.3500
     0.3592   0.3860   0.4140   0.4288   0.4638   0.4674   0.4828   0.4838
     0.4843   0.4994   0.5209   0.5372   0.6958   0.6968   0.7513   0.7550
     5.5243   5.5324   5.6775   5.7020   5.7076   5.7372   5.7431   5.7731
     5.8878   5.9316   6.0017   6.0304   6.0401   6.0888   6.0920   6.1392
     6.2656   6.3100   6.3673   6.3700   6.4204   6.4825   6.5342   6.6098
     6.8401   6.8523   6.8694   6.8956   6.9128   6.9429   6.9768   6.9990
     8.3720   8.6702   8.7611   8.8841   8.9116   9.1624   9.2259   9.3123
     9.3732   9.3887   9.4131   9.4920

          k = 0.0000 0.4726 0.0000 (137283 PWs)   bands (ev):

   -21.3148 -21.3141 -21.2869 -21.2868 -21.2515 -21.2511 -21.2409 -21.2408
   -21.1256 -21.1221 -21.1135 -21.1108 -21.0885 -21.0883 -21.0827 -21.0825
   -16.2398 -16.2395 -16.2323 -16.2319 -16.1060 -16.1045 -16.0989 -16.0976
   -16.0036 -16.0035 -15.9828 -15.9827 -15.8917 -15.8911 -15.8721 -15.8720
   -15.2269 -15.2256 -15.2045 -15.1986 -15.1667 -15.1603 -15.1364 -15.1363
   -14.6024 -14.6009 -14.5888 -14.5856 -14.5372 -14.5369 -14.5267 -14.5249
   -11.6772 -11.6753 -11.6673 -11.6511 -11.6393 -11.6252 -11.6149 -11.6146
    -9.6574  -9.6562  -9.6263  -9.6259  -9.2150  -9.2125  -9.1918  -9.1906
    -9.0810  -9.0759  -9.0650  -9.0631  -8.9872  -8.9840  -8.9681  -8.9658
    -8.9642  -8.9600  -8.9430  -8.9404  -8.8241  -8.8232  -8.8093  -8.8088
    -8.3056  -8.2926  -8.2742  -8.2558  -8.0449  -8.0436  -8.0221  -8.0206
    -6.6857  -6.6633  -6.6479  -6.6326  -6.6215  -6.5941  -6.5407  -6.5336
    -6.4216  -6.4197  -6.3686  -6.3678  -6.2491  -6.2476  -6.2447  -6.2419
    -5.3620  -5.3374  -5.3283  -5.2563  -5.1157  -5.1089  -5.0572  -5.0299
    -4.8553  -4.7611  -4.7280  -4.7188  -4.7055  -4.6657  -4.6270  -4.6026
    -4.2868  -4.2642  -4.2342  -4.2143  -4.1755  -4.1687  -4.1512  -4.1381
    -3.8322  -3.8182  -3.6723  -3.6577  -3.6317  -3.5909  -3.5402  -3.5371
    -3.2638  -3.2240  -3.2004  -3.1777  -3.1596  -3.1487  -3.0713  -3.0606
    -2.2432  -2.2408  -2.2046  -2.1875  -2.0837  -2.0693  -2.0325  -2.0192
    -1.4603  -1.3980  -1.3918  -1.3916  -1.2164  -1.2062  -1.1866  -1.1683
    -0.9179  -0.9143  -0.8948  -0.8895  -0.8616  -0.8331  -0.7807  -0.7423
    -0.7334  -0.7167  -0.6476  -0.6309  -0.5802  -0.5690  -0.5215  -0.5165
    -0.2300  -0.2165  -0.1938  -0.1723  -0.1568  -0.1430  -0.1353  -0.1286
    -0.0571  -0.0381  -0.0140   0.0163   0.0205   0.0280   0.0551   0.0687
     0.0864   0.0986   0.1007   0.1097   0.1390   0.1763   0.1923   0.2082
     0.2250   0.2413   0.2480   0.2638   0.3057   0.3131   0.3299   0.3436
     0.3593   0.3634   0.3840   0.4009   0.4179   0.4349   0.4803   0.4946
     0.5071   0.5084   0.5436   0.5463   0.6621   0.6653   0.6744   0.6884
     5.6128   5.6161   5.6824   5.6835   5.7115   5.7213   5.7819   5.7841
     5.8304   5.8399   5.9087   5.9182   6.0172   6.0360   6.0576   6.1127
     6.2956   6.3079   6.3328   6.3756   6.4080   6.4154   6.4827   6.5313
     6.8664   6.8842   6.8903   6.9036   6.9401   6.9441   6.9738   7.0079
     8.4617   8.6242   8.7849   8.8395   8.9573   9.0455   9.1936   9.1938
     9.2363   9.3361   9.4187   9.4818

          k =-0.5000 0.0000 0.0000 (137294 PWs)   bands (ev):

   -21.3004 -21.3004 -21.2993 -21.2993 -21.2543 -21.2543 -21.2535 -21.2535
   -21.1095 -21.1095 -21.1054 -21.1054 -21.0920 -21.0920 -21.0884 -21.0884
   -16.1431 -16.1431 -16.1418 -16.1418 -16.1087 -16.1087 -16.1072 -16.1072
   -15.9982 -15.9982 -15.9950 -15.9950 -15.9785 -15.9785 -15.9757 -15.9757
   -15.1657 -15.1657 -15.1476 -15.1476 -15.1182 -15.1182 -15.0980 -15.0980
   -14.6321 -14.6321 -14.6174 -14.6174 -14.6070 -14.6070 -14.5907 -14.5907
   -11.7059 -11.7059 -11.6943 -11.6943 -11.6721 -11.6721 -11.6604 -11.6604
    -9.3490  -9.3490  -9.3481  -9.3481  -9.3094  -9.3094  -9.3072  -9.3072
    -9.0469  -9.0469  -9.0418  -9.0418  -9.0383  -9.0383  -9.0359  -9.0359
    -8.9105  -8.9105  -8.8993  -8.8993  -8.8851  -8.8851  -8.8752  -8.8752
    -8.2599  -8.2599  -8.2258  -8.2258  -8.1948  -8.1948  -8.1577  -8.1577
    -6.5848  -6.5848  -6.5517  -6.5517  -6.5117  -6.5117  -6.4812  -6.4812
    -6.3823  -6.3823  -6.3673  -6.3673  -6.3323  -6.3323  -6.3244  -6.3244
    -5.3078  -5.3078  -5.2504  -5.2504  -5.1127  -5.1127  -4.9860  -4.9860
    -4.8643  -4.8643  -4.7982  -4.7982  -4.7389  -4.7389  -4.7126  -4.7126
    -4.2186  -4.2186  -4.2116  -4.2116  -4.1915  -4.1915  -4.1816  -4.1816
    -3.7322  -3.7322  -3.7275  -3.7275  -3.4969  -3.4969  -3.4900  -3.4900
    -3.1856  -3.1856  -3.1394  -3.1394  -3.0897  -3.0897  -3.0363  -3.0363
    -2.0080  -2.0080  -1.9774  -1.9774  -1.9223  -1.9223  -1.8975  -1.8975
    -1.6787  -1.6787  -1.6499  -1.6499  -1.6385  -1.6385  -1.5958  -1.5958
    -0.8517  -0.8517  -0.8446  -0.8446  -0.8402  -0.8402  -0.7566  -0.7566
    -0.7152  -0.7152  -0.6595  -0.6595  -0.6362  -0.6362  -0.5883  -0.5883
    -0.2608  -0.2608  -0.2203  -0.2203  -0.2057  -0.2057  -0.1117  -0.1117
    -0.0683  -0.0683  -0.0616  -0.0616  -0.0341  -0.0341   0.0346   0.0346
     0.0889   0.0889   0.1432   0.1432   0.2167   0.2167   0.2360   0.2360
     0.2534   0.2534   0.2677   0.2677   0.2909   0.2909   0.3122   0.3122
     0.3635   0.3635   0.3733   0.3733   0.4022   0.4022   0.4509   0.4509
     0.6108   0.6108   0.6413   0.6413   0.6523   0.6523   0.6715   0.6715
     5.5980   5.5980   5.6151   5.6151   5.7038   5.7038   5.7419   5.7419
     5.9585   5.9585   6.0128   6.0128   6.0673   6.0673   6.1678   6.1678
     6.2880   6.2880   6.3698   6.3698   6.4398   6.4398   6.5332   6.5332
     6.8358   6.8358   6.9002   6.9002   6.9403   6.9403   6.9791   6.9791
     8.5487   8.5487   8.8550   8.8550   8.9588   8.9588   9.3606   9.3606
     9.4029   9.4029   9.4539   9.4540

          k =-0.5000 0.4726 0.0000 (137196 PWs)   bands (ev):

   -21.2912 -21.2912 -21.2907 -21.2907 -21.2565 -21.2565 -21.2563 -21.2563
   -21.1100 -21.1100 -21.1078 -21.1078 -21.0957 -21.0957 -21.0939 -21.0939
   -16.1392 -16.1392 -16.1386 -16.1386 -16.1055 -16.1055 -16.1048 -16.1048
   -15.9996 -15.9996 -15.9975 -15.9975 -15.9826 -15.9826 -15.9811 -15.9811
   -15.2099 -15.2099 -15.2021 -15.2021 -15.1591 -15.1591 -15.1500 -15.1500
   -14.5750 -14.5750 -14.5667 -14.5667 -14.5602 -14.5602 -14.5511 -14.5511
   -11.6710 -11.6710 -11.6583 -11.6583 -11.6365 -11.6365 -11.6230 -11.6230
    -9.3507  -9.3507  -9.3466  -9.3466  -9.3243  -9.3243  -9.3205  -9.3205
    -9.0908  -9.0908  -9.0800  -9.0800  -9.0686  -9.0686  -9.0592  -9.0592
    -8.9046  -8.9046  -8.8929  -8.8929  -8.8721  -8.8721  -8.8603  -8.8603
    -8.2259  -8.2259  -8.2153  -8.2153  -8.1855  -8.1855  -8.1737  -8.1737
    -6.5880  -6.5880  -6.5736  -6.5736  -6.5615  -6.5615  -6.5289  -6.5289
    -6.4892  -6.4892  -6.4403  -6.4403  -6.4174  -6.4174  -6.3915  -6.3915
    -5.3343  -5.3343  -5.2953  -5.2953  -5.1319  -5.1319  -5.0428  -5.0428
    -4.7908  -4.7908  -4.7120  -4.7120  -4.6544  -4.6544  -4.5806  -4.5806
    -4.1898  -4.1898  -4.1781  -4.1781  -4.1475  -4.1475  -4.1392  -4.1392
    -3.7335  -3.7335  -3.7087  -3.7087  -3.5496  -3.5496  -3.5327  -3.5327
    -3.2438  -3.2438  -3.1953  -3.1953  -3.1435  -3.1435  -3.0979  -3.0979
    -1.9279  -1.9279  -1.9061  -1.9061  -1.8544  -1.8544  -1.8163  -1.8163
    -1.5930  -1.5930  -1.5682  -1.5682  -1.5422  -1.5422  -1.5126  -1.5126
    -0.8891  -0.8891  -0.8812  -0.8812  -0.8135  -0.8135  -0.7841  -0.7841
    -0.6959  -0.6959  -0.6899  -0.6899  -0.6303  -0.6303  -0.5835  -0.5835
    -0.2065  -0.2065  -0.1713  -0.1713  -0.1316  -0.1316  -0.1049  -0.1049
    -0.0720  -0.0720  -0.0452  -0.0452  -0.0083  -0.0083   0.0286   0.0286
     0.0855   0.0855   0.1080   0.1080   0.1271   0.1271   0.1813   0.1813
     0.2232   0.2232   0.2392   0.2392   0.2949   0.2949   0.3619   0.3619
     0.3842   0.3842   0.4049   0.4049   0.4201   0.4201   0.4562   0.4562
     0.5805   0.5805   0.6007   0.6007   0.6354   0.6354   0.6443   0.6443
     5.6607   5.6607   5.6934   5.6934   5.7188   5.7188   5.7592   5.7592
     5.8257   5.8257   5.9245   5.9245   6.0171   6.0171   6.0818   6.0818
     6.2984   6.2984   6.3729   6.3729   6.4003   6.4003   6.4849   6.4849
     6.8754   6.8754   6.9131   6.9131   6.9529   6.9529   6.9879   6.9879
     8.5537   8.5537   8.8032   8.8032   9.0263   9.0263   9.1873   9.1873
     9.2724   9.2725   9.4217   9.4217

     highest occupied, lowest unoccupied level (ev):     0.7550    5.5243

!    total energy              =   -2285.39416786 Ry
     Harris-Foulkes estimate   =   -2285.39416786 Ry
     estimated scf accuracy    <          2.0E-09 Ry

     total all-electron energy =     -8874.855735 Ry

     The total energy is the sum of the following terms:

     one-electron contribution =   -1088.94900331 Ry
     hartree contribution      =     725.87552252 Ry
     xc contribution           =    -467.55999375 Ry
     ewald contribution        =    -764.44537596 Ry
     Dispersion Correction     =      -0.60481752 Ry
     one-center paw contrib.   =    -689.71049984 Ry

     convergence has been achieved in  16 iterations

     Forces acting on atoms (cartesian axes, Ry/au):

     atom    1 type  1   force =     0.00361119    0.00054775   -0.00090664
     atom    2 type  1   force =    -0.00361046   -0.00054770   -0.00091364
     atom    3 type  1   force =     0.00361119   -0.00054775   -0.00090664
     atom    4 type  1   force =    -0.00361046    0.00054770   -0.00091364
     atom    5 type  3   force =    -0.00175914    0.00213049   -0.00129441
     atom    6 type  3   force =     0.00175932   -0.00213079   -0.00129464
     atom    7 type  3   force =    -0.00175914   -0.00213049   -0.00129441
     atom    8 type  3   force =     0.00175932    0.00213079   -0.00129464
     atom    9 type  3   force =    -0.00044416   -0.00020326   -0.00032497
     atom   10 type  3   force =     0.00044403    0.00020326   -0.00032487
     atom   11 type  3   force =    -0.00044416    0.00020326   -0.00032497
     atom   12 type  3   force =     0.00044403   -0.00020326   -0.00032487
     atom   13 type  1   force =    -0.00132205    0.00498818    0.00465805
     atom   14 type  1   force =     0.00132260   -0.00498872    0.00465246
     atom   15 type  1   force =    -0.00132205   -0.00498818    0.00465805
     atom   16 type  1   force =     0.00132260    0.00498872    0.00465246
     atom   17 type  1   force =     0.00168628   -0.00204084   -0.00425366
     atom   18 type  1   force =    -0.00168589    0.00204174   -0.00425266
     atom   19 type  1   force =     0.00168628    0.00204084   -0.00425366
     atom   20 type  1   force =    -0.00168589   -0.00204174   -0.00425266
     atom   21 type  1   force =     0.00348729   -0.00115811    0.00137285
     atom   22 type  1   force =    -0.00348751    0.00115767    0.00137938
     atom   23 type  1   force =     0.00348729    0.00115811    0.00137285
     atom   24 type  1   force =    -0.00348751   -0.00115767    0.00137938
     atom   25 type  3   force =    -0.00058493    0.00029852    0.00049819
     atom   26 type  3   force =     0.00058481   -0.00029853    0.00049803
     atom   27 type  3   force =    -0.00058493   -0.00029852    0.00049819
     atom   28 type  3   force =     0.00058481    0.00029853    0.00049803
     atom   29 type  3   force =    -0.00099754   -0.00207372    0.00198652
     atom   30 type  3   force =     0.00099755    0.00207400    0.00198683
     atom   31 type  3   force =    -0.00099754    0.00207372    0.00198652
     atom   32 type  3   force =     0.00099755   -0.00207400    0.00198683
     atom   33 type  1   force =     0.00125350    0.00217640    0.00462012
     atom   34 type  1   force =    -0.00125314   -0.00217637    0.00462331
     atom   35 type  1   force =     0.00125350   -0.00217640    0.00462012
     atom   36 type  1   force =    -0.00125314    0.00217637    0.00462331
     atom   37 type  1   force =    -0.00124916   -0.00433294   -0.00455628
     atom   38 type  1   force =     0.00124971    0.00433241   -0.00456432
     atom   39 type  1   force =    -0.00124916    0.00433294   -0.00455628
     atom   40 type  1   force =     0.00124971   -0.00433241   -0.00456432
     atom   41 type  2   force =     0.00085238   -0.00067948    0.00023590
     atom   42 type  2   force =    -0.00085288    0.00067913    0.00023598
     atom   43 type  2   force =     0.00085238    0.00067948    0.00023590
     atom   44 type  2   force =    -0.00085288   -0.00067913    0.00023598
     atom   45 type  2   force =     0.00064162   -0.00016415   -0.00040631
     atom   46 type  2   force =    -0.00064168    0.00016424   -0.00040637
     atom   47 type  2   force =     0.00064162    0.00016415   -0.00040631
     atom   48 type  2   force =    -0.00064168   -0.00016424   -0.00040637
     atom   49 type  2   force =    -0.00173838   -0.00064634   -0.00088115
     atom   50 type  2   force =     0.00173792    0.00064628   -0.00088090
     atom   51 type  2   force =    -0.00173838    0.00064634   -0.00088115
     atom   52 type  2   force =     0.00173792   -0.00064628   -0.00088090
     atom   53 type  2   force =     0.00052803   -0.00184325   -0.00103717
     atom   54 type  2   force =    -0.00052753    0.00184343   -0.00103808
     atom   55 type  2   force =     0.00052803    0.00184325   -0.00103717
     atom   56 type  2   force =    -0.00052753   -0.00184343   -0.00103808
     atom   57 type  3   force =    -0.00199634   -0.00015743    0.00036884
     atom   58 type  3   force =     0.00199612    0.00015745    0.00036884
     atom   59 type  3   force =    -0.00199634    0.00015743    0.00036884
     atom   60 type  3   force =     0.00199612   -0.00015745    0.00036884
     atom   61 type  2   force =    -0.00254508   -0.00320852    0.00091603
     atom   62 type  2   force =     0.00254472    0.00320886    0.00091592
     atom   63 type  2   force =    -0.00254508    0.00320852    0.00091603
     atom   64 type  2   force =     0.00254472   -0.00320886    0.00091592
     atom   65 type  2   force =    -0.00548771    0.00288048   -0.00004217
     atom   66 type  2   force =     0.00548720   -0.00288105   -0.00004212
     atom   67 type  2   force =    -0.00548771   -0.00288048   -0.00004217
     atom   68 type  2   force =     0.00548720    0.00288105   -0.00004212
     atom   69 type  2   force =     0.00435176   -0.00330109    0.00395811
     atom   70 type  2   force =    -0.00435172    0.00330035    0.00395822
     atom   71 type  2   force =     0.00435176    0.00330109    0.00395811
     atom   72 type  2   force =    -0.00435172   -0.00330035    0.00395822
     atom   73 type  2   force =     0.00271080   -0.00153610   -0.00083084
     atom   74 type  2   force =    -0.00271065    0.00153630   -0.00083092
     atom   75 type  2   force =     0.00271080    0.00153610   -0.00083084
     atom   76 type  2   force =    -0.00271065   -0.00153630   -0.00083092
     atom   77 type  3   force =    -0.00049236    0.00017107    0.00069704
     atom   78 type  3   force =     0.00049215   -0.00017112    0.00069696
     atom   79 type  3   force =    -0.00049236   -0.00017107    0.00069704
     atom   80 type  3   force =     0.00049215    0.00017112    0.00069696
     atom   81 type  2   force =    -0.00234322    0.00322652   -0.00153747
     atom   82 type  2   force =     0.00234355   -0.00322647   -0.00153738
     atom   83 type  2   force =    -0.00234322   -0.00322652   -0.00153747
     atom   84 type  2   force =     0.00234355    0.00322647   -0.00153738
     atom   85 type  2   force =    -0.00551456   -0.00309744   -0.00036609
     atom   86 type  2   force =     0.00551446    0.00309739   -0.00036605
     atom   87 type  2   force =    -0.00551456    0.00309744   -0.00036609
     atom   88 type  2   force =     0.00551446   -0.00309739   -0.00036605
     atom   89 type  2   force =     0.00463927    0.00283799   -0.00443223
     atom   90 type  2   force =    -0.00463941   -0.00283809   -0.00443225
     atom   91 type  2   force =     0.00463927   -0.00283799   -0.00443223
     atom   92 type  2   force =    -0.00463941    0.00283809   -0.00443225
     atom   93 type  2   force =     0.00300289    0.00155757    0.00101712
     atom   94 type  2   force =    -0.00300315   -0.00155785    0.00101702
     atom   95 type  2   force =     0.00300289   -0.00155757    0.00101712
     atom   96 type  2   force =    -0.00300315    0.00155785    0.00101702
     atom   97 type  3   force =    -0.00065728    0.00034243   -0.00047479
     atom   98 type  3   force =     0.00065710   -0.00034239   -0.00047500
     atom   99 type  3   force =    -0.00065728   -0.00034243   -0.00047479
     atom  100 type  3   force =     0.00065710    0.00034239   -0.00047500
     atom  101 type  2   force =     0.00060640    0.00066933   -0.00085394
     atom  102 type  2   force =    -0.00060646   -0.00066963   -0.00085380
     atom  103 type  2   force =     0.00060640   -0.00066933   -0.00085394
     atom  104 type  2   force =    -0.00060646    0.00066963   -0.00085380
     atom  105 type  2   force =     0.00116199   -0.00015349   -0.00057763
     atom  106 type  2   force =    -0.00116196    0.00015359   -0.00057797
     atom  107 type  2   force =     0.00116199    0.00015349   -0.00057763
     atom  108 type  2   force =    -0.00116196   -0.00015359   -0.00057797
     atom  109 type  2   force =    -0.00104691    0.00044909    0.00087253
     atom  110 type  2   force =     0.00104705   -0.00044929    0.00087279
     atom  111 type  2   force =    -0.00104691   -0.00044909    0.00087253
     atom  112 type  2   force =     0.00104705    0.00044929    0.00087279
     atom  113 type  2   force =     0.00075123    0.00162180    0.00120056
     atom  114 type  2   force =    -0.00075148   -0.00162134    0.00119999
     atom  115 type  2   force =     0.00075123   -0.00162180    0.00120056
     atom  116 type  2   force =    -0.00075148    0.00162134    0.00119999
     atom  117 type  3   force =    -0.00317022    0.00031603    0.00037967
     atom  118 type  3   force =     0.00317003   -0.00031597    0.00037942
     atom  119 type  3   force =    -0.00317022   -0.00031603    0.00037967
     atom  120 type  3   force =     0.00317003    0.00031597    0.00037942

     Total force =     0.042900     Total SCF correction =     0.000072


     Computing stress (Cartesian axis) and pressure

          total   stress  (Ry/bohr**3)                   (kbar)     P=   -6.71
  -0.00009228   0.00000000  -0.00000000        -13.57      0.00     -0.00
   0.00000000  -0.00002820   0.00000000          0.00     -4.15      0.00
  -0.00000000   0.00000000  -0.00001644         -0.00      0.00     -2.42


     Writing output data file scf.save
 
     init_run     :     42.88s CPU     44.97s WALL (       1 calls)
     electrons    :   1424.00s CPU   1498.07s WALL (       1 calls)
     forces       :     22.10s CPU     22.40s WALL (       1 calls)
     stress       :    161.40s CPU    161.82s WALL (       1 calls)

     Called by init_run:
     wfcinit      :     34.03s CPU     35.91s WALL (       1 calls)
     potinit      :      3.07s CPU      3.14s WALL (       1 calls)

     Called by electrons:
     c_bands      :   1271.20s CPU   1331.60s WALL (      16 calls)
     sum_band     :    134.69s CPU    146.05s WALL (      16 calls)
     v_of_rho     :      2.76s CPU      3.10s WALL (      17 calls)
     newd         :      5.88s CPU      7.70s WALL (      17 calls)
     PAW_pot      :      8.70s CPU      8.72s WALL (      17 calls)
     mix_rho      :      0.68s CPU      0.80s WALL (      16 calls)

     Called by c_bands:
     init_us_2    :      7.06s CPU      7.11s WALL (     140 calls)
     cegterg      :   1236.66s CPU   1297.00s WALL (      64 calls)

     Called by sum_band:
     sum_band:bec :      0.07s CPU      0.07s WALL (      64 calls)
     addusdens    :      6.12s CPU      7.82s WALL (      16 calls)

     Called by *egterg:
     h_psi        :    672.11s CPU    721.30s WALL (     325 calls)
     s_psi        :    125.16s CPU    125.19s WALL (     325 calls)
     g_psi        :      3.35s CPU      3.35s WALL (     257 calls)
     cdiaghg      :     76.14s CPU     76.16s WALL (     321 calls)

     Called by h_psi:
     h_psi:pot    :    667.31s CPU    716.40s WALL (     325 calls)
     h_psi:calbec :    141.83s CPU    142.14s WALL (     325 calls)
     vloc_psi     :    400.11s CPU    448.86s WALL (     325 calls)
     add_vuspsi   :    125.37s CPU    125.40s WALL (     325 calls)

     General routines
     calbec       :    214.67s CPU    215.11s WALL (     409 calls)
     fft          :      6.09s CPU      6.66s WALL (     245 calls)
     fftw         :    432.18s CPU    490.12s WALL (  112632 calls)
 
     Parallel routines
     fft_scatter  :    111.42s CPU    169.26s WALL (  112877 calls)
 
     PWSCF        : 27m39.23s CPU    29m23.82s WALL

 
   This run was terminated on:   0:25:22   4Nov2017            

=------------------------------------------------------------------------------=
   JOB DONE.
=------------------------------------------------------------------------------=
