
     Program PWSCF v.6.1 (svn rev. 13369) starts on 20Dec2017 at 18: 9:53 

     This program is part of the open-source Quantum ESPRESSO suite
     for quantum simulation of materials; please cite
         "P. Giannozzi et al., J. Phys.:Condens. Matter 21 395502 (2009);
          URL http://www.quantum-espresso.org", 
     in publications or presentations arising from this work. More details at
     http://www.quantum-espresso.org/quote

     Parallel version (MPI), running on     8 processors
     R & G space division:  proc/nbgrp/npool/nimage =       8
     Waiting for input...
     Reading input from standard input

     Current dimensions of program PWSCF are:
     Max number of different atomic species (ntypx) = 10
     Max number of k-points (npk) =  40000
     Max angular momentum in pseudopotentials (lmaxx) =  3
               file C.pbe-n-kjpaw_psl.0.1.UPF: wavefunction(s)  2P renormalized
               file N.pbe-n-kjpaw_psl.0.1.UPF: wavefunction(s)  2P renormalized
               file H.pbe-kjpaw_psl.0.1.UPF: wavefunction(s)  1S renormalized
               file O.pbe-n-kjpaw_psl.0.1.UPF: wavefunction(s)  2P renormalized

     -------------------------------------
     Parameters for Dispersion Correction:
     -------------------------------------
       atom      VdW radius       C_6     

        C          2.744         60.710
        N          2.640         42.670
        H          1.892          4.857
        O          2.536         24.284

     Subspace diagonalization in iterative solution of the eigenvalue problem:
     a serial algorithm will be used

 
     Parallelization info
     --------------------
     sticks:   dense  smooth     PW     G-vecs:    dense   smooth      PW
     Min         769     769    205                51302    51302    7088
     Max         770     770    206                51304    51304    7091
     Sum        6157    6157   1647               410425   410425   56717
 


     bravais-lattice index     =            0
     lattice parameter (alat)  =      13.6136  a.u.
     unit-cell volume          =    3037.7057 (a.u.)^3
     number of atoms/cell      =           50
     number of atomic types    =            4
     number of electrons       =       152.00
     number of Kohn-Sham states=           91
     kinetic-energy cutoff     =     100.0000  Ry
     charge density cutoff     =     400.0000  Ry
     convergence threshold     =      1.0E-08
     mixing beta               =       0.5000
     number of iterations used =            8  plain     mixing
     Exchange-correlation      =  SLA  PW   PBX  PBC ( 1  4  3  4 0 0)

     celldm(1)=  13.613587  celldm(2)=   0.000000  celldm(3)=   0.000000
     celldm(4)=   0.000000  celldm(5)=   0.000000  celldm(6)=   0.000000

     crystal axes: (cart. coord. in units of alat)
               a(1) = (   1.000000   0.000000   0.000000 )  
               a(2) = (   0.084728   1.042370   0.000000 )  
               a(3) = (   0.337938   0.225664   1.155064 )  

     reciprocal axes: (cart. coord. in units 2 pi/alat)
               b(1) = (  1.000000 -0.081284 -0.276690 )  
               b(2) = (  0.000000  0.959352 -0.187428 )  
               b(3) = (  0.000000  0.000000  0.865753 )  


     PseudoPot. # 1 for  C read from file:
     /scratch/ahofstet/pseudo/C.pbe-n-kjpaw_psl.0.1.UPF
     MD5 check sum: 430fe95172b1e11ef3f8ed03bac87931
     Pseudo is Projector augmented-wave + core cor, Zval =  4.0
     Generated using "atomic" code by A. Dal Corso  v.5.0.99 svn rev. 10869
     Shape of augmentation charge: BESSEL
     Using radial grid of 1073 points,  4 beta functions with: 
                l(1) =   0
                l(2) =   0
                l(3) =   1
                l(4) =   1
     Q(r) pseudized with 0 coefficients 


     PseudoPot. # 2 for  N read from file:
     /scratch/ahofstet/pseudo/N.pbe-n-kjpaw_psl.0.1.UPF
     MD5 check sum: f73187c8b701007e77325f868c9291d7
     Pseudo is Projector augmented-wave + core cor, Zval =  5.0
     Generated using "atomic" code by A. Dal Corso  v.5.0.99 svn rev. 10869
     Shape of augmentation charge: PSQ
     Using radial grid of 1085 points,  4 beta functions with: 
                l(1) =   0
                l(2) =   0
                l(3) =   1
                l(4) =   1
     Q(r) pseudized with 0 coefficients 


     PseudoPot. # 3 for  H read from file:
     /scratch/ahofstet/pseudo/H.pbe-kjpaw_psl.0.1.UPF
     MD5 check sum: 94e484f906d9e9773b2f6e52662335b2
     Pseudo is Projector augmented-wave, Zval =  1.0
     Generated using "atomic" code by A. Dal Corso  v.5.0.99 svn rev. 10869
     Shape of augmentation charge: PSQ
     Using radial grid of  929 points,  2 beta functions with: 
                l(1) =   0
                l(2) =   0
     Q(r) pseudized with 0 coefficients 


     PseudoPot. # 4 for  O read from file:
     /scratch/ahofstet/pseudo/O.pbe-n-kjpaw_psl.0.1.UPF
     MD5 check sum: 3f94a2996a3169367d6eb21d9b593f20
     Pseudo is Projector augmented-wave + core cor, Zval =  6.0
     Generated using "atomic" code by A. Dal Corso  v.5.0.99 svn rev. 10869
     Shape of augmentation charge: BESSEL
     Using radial grid of 1095 points,  4 beta functions with: 
                l(1) =   0
                l(2) =   0
                l(3) =   1
                l(4) =   1
     Q(r) pseudized with 0 coefficients 


     atomic species   valence    mass     pseudopotential
        C              4.00    12.01070      C( 1.00)
        N              5.00    14.00670      N( 1.00)
        H              1.00     1.00794      H( 1.00)
        O              6.00    15.99940      O( 1.00)

      2 Sym. Ops., with inversion, found



   Cartesian axes

     site n.     atom                  positions (alat units)
         1           C   tau(   1) = (   0.5804934   0.3299740   0.8291966  )
         2           C   tau(   2) = (   0.8421723   0.9380596   0.3258674  )
         3           C   tau(   3) = (   0.6793504   0.4747767   1.1050171  )
         4           C   tau(   4) = (   0.7433153   0.7932569   0.0500469  )
         5           C   tau(   5) = (   0.4239632   0.1709777   0.5738179  )
         6           C   tau(   6) = (   0.9987025   1.0970559   0.5812462  )
         7           C   tau(   7) = (   0.4709335   1.1005533   0.8963947  )
         8           C   tau(   8) = (   0.9517321   0.1674803   0.2586693  )
         9           N   tau(   9) = (   0.4798812   0.1843980   0.7679892  )
        10           N   tau(  10) = (   0.9427845   1.0836356   0.3870748  )
        11           N   tau(  11) = (   0.6193199   0.4688500   0.7107686  )
        12           N   tau(  12) = (   0.8033457   0.7991836   0.4442955  )
        13           N   tau(  13) = (   0.6547803   0.3222338   1.0007854  )
        14           N   tau(  14) = (   0.7678854   0.9457998   0.1542786  )
        15           N   tau(  15) = (   0.5819037   0.6333798   1.0821757  )
        16           N   tau(  16) = (   0.8407620   0.6346538   0.0728883  )
        17           N   tau(  17) = (   0.4649992   0.2417926   0.0883257  )
        18           N   tau(  18) = (   0.9576665   1.0262410   1.0667383  )
        19           N   tau(  19) = (   0.3424280   0.6818070   0.3487984  )
        20           N   tau(  20) = (   1.0802377   0.5862266   0.8062656  )
        21           O   tau(  21) = (   0.4753597   0.5623505   0.3425648  )
        22           O   tau(  22) = (   0.9473060   0.7056831   0.8124992  )
        23           O   tau(  23) = (   0.3290569   0.7875343   0.4843290  )
        24           O   tau(  24) = (   1.0936088   0.4804993   0.6707350  )
        25           O   tau(  25) = (   0.2292003   0.6892167   0.2146405  )
        26           O   tau(  26) = (   1.1934654   0.5788169   0.9404235  )
        27           H   tau(  27) = (   0.5477629   0.4912551   0.5898617  )
        28           H   tau(  28) = (   0.8749028   0.7767785   0.5652023  )
        29           H   tau(  29) = (   0.7177231   0.5634591   0.7495464  )
        30           H   tau(  30) = (   0.7049426   0.7045744   0.4055176  )
        31           H   tau(  31) = (   0.2542921   0.5114317   0.0246377  )
        32           H   tau(  32) = (   1.1683735   0.7566019   1.1304263  )
        33           H   tau(  33) = (   0.4684652   0.6301520   0.9980419  )
        34           H   tau(  34) = (   0.9542005   0.6378815   0.1570221  )
        35           H   tau(  35) = (   0.5464804   0.1246765   0.1054292  )
        36           H   tau(  36) = (   0.8761853   1.1433571   1.0496348  )
        37           H   tau(  37) = (   0.4783012   0.3541874   0.1744716  )
        38           H   tau(  38) = (   0.9443645   0.9138462   0.9805924  )
        39           H   tau(  39) = (   0.5407637   0.2084590   0.4835204  )
        40           H   tau(  40) = (   0.8819019   1.0595746   0.6715436  )
        41           H   tau(  41) = (   0.3211765   1.1310022   0.8993484  )
        42           H   tau(  42) = (   1.1014892   0.1370314   0.2557156  )
        43           H   tau(  43) = (   0.3056661   0.2626154   0.5443436  )
        44           H   tau(  44) = (   1.1169995   1.0054182   0.6107205  )
        45           H   tau(  45) = (   0.4909346   0.9577234   0.8474106  )
        46           H   tau(  46) = (   0.9317311   0.3103102   0.3076535  )
        47           H   tau(  47) = (   0.4695988   1.0690803   0.5446497  )
        48           H   tau(  48) = (   0.9530669   0.1989533   0.6104143  )
        49           H   tau(  49) = (   0.5279768   1.1155416   1.0363454  )
        50           H   tau(  50) = (   0.8946888   0.1524920   0.1187186  )

     number of k points=    10
                       cart. coord. in units 2pi/alat
        k(    1) = (   0.0000000   0.0000000   0.0000000), wk =   0.1111111
        k(    2) = (   0.0000000   0.0000000  -0.4328764), wk =   0.1111111
        k(    3) = (   0.0000000   0.3197841  -0.0624758), wk =   0.2222222
        k(    4) = (   0.0000000   0.3197841  -0.4953523), wk =   0.2222222
        k(    5) = (   0.3333333  -0.0270946  -0.0922301), wk =   0.2222222
        k(    6) = (   0.3333333  -0.0270946  -0.5251066), wk =   0.2222222
        k(    7) = (   0.3333333   0.2926895  -0.1547060), wk =   0.2222222
        k(    8) = (   0.3333333   0.2926895  -0.5875824), wk =   0.2222222
        k(    9) = (   0.3333333  -0.3468787  -0.0297543), wk =   0.2222222
        k(   10) = (   0.3333333  -0.3468787  -0.4626307), wk =   0.2222222

     Dense  grid:   410425 G-vectors     FFT dimensions: (  90,  96, 108)

     Estimated max dynamical RAM per process >     229.81MB

     Estimated total allocated dynamical RAM >    1838.51MB

     Check: negative/imaginary core charge=   -0.000002    0.000000

     Initial potential from superposition of free atoms

     starting charge  151.99934, renormalised to  152.00000
     Starting wfc are  128 randomized atomic wfcs
     Checking if some PAW data can be deallocated... 

     total cpu time spent up to now is       14.9 secs

     per-process dynamical memory:   237.9 Mb

     Self-consistent Calculation

     iteration #  1     ecut=   100.00 Ry     beta=0.50
     Davidson diagonalization with overlap
     ethr =  1.00E-02,  avg # of iterations =  4.0

     total cpu time spent up to now is       41.2 secs

     total energy              =    -763.28150652 Ry
     Harris-Foulkes estimate   =    -766.31857159 Ry
     estimated scf accuracy    <       5.58009518 Ry

     iteration #  2     ecut=   100.00 Ry     beta=0.50
     Davidson diagonalization with overlap
     ethr =  3.67E-03,  avg # of iterations =  3.0

     total cpu time spent up to now is       60.1 secs

     total energy              =    -764.29505563 Ry
     Harris-Foulkes estimate   =    -764.69478165 Ry
     estimated scf accuracy    <       0.86242083 Ry

     iteration #  3     ecut=   100.00 Ry     beta=0.50
     Davidson diagonalization with overlap
     ethr =  5.67E-04,  avg # of iterations =  6.7

     total cpu time spent up to now is       84.3 secs

     total energy              =    -764.54317218 Ry
     Harris-Foulkes estimate   =    -764.62421023 Ry
     estimated scf accuracy    <       0.21483751 Ry

     iteration #  4     ecut=   100.00 Ry     beta=0.50
     Davidson diagonalization with overlap
     ethr =  1.41E-04,  avg # of iterations =  3.2

     total cpu time spent up to now is      100.8 secs

     total energy              =    -764.55393422 Ry
     Harris-Foulkes estimate   =    -764.56944113 Ry
     estimated scf accuracy    <       0.04108007 Ry

     iteration #  5     ecut=   100.00 Ry     beta=0.50
     Davidson diagonalization with overlap
     ethr =  2.70E-05,  avg # of iterations =  7.7

     total cpu time spent up to now is      129.4 secs

     total energy              =    -764.56779767 Ry
     Harris-Foulkes estimate   =    -764.58044244 Ry
     estimated scf accuracy    <       0.03765117 Ry

     iteration #  6     ecut=   100.00 Ry     beta=0.50
     Davidson diagonalization with overlap
     ethr =  2.48E-05,  avg # of iterations =  2.0

     total cpu time spent up to now is      144.6 secs

     total energy              =    -764.56826398 Ry
     Harris-Foulkes estimate   =    -764.57165363 Ry
     estimated scf accuracy    <       0.01010648 Ry

     iteration #  7     ecut=   100.00 Ry     beta=0.50
     Davidson diagonalization with overlap
     ethr =  6.65E-06,  avg # of iterations =  6.2

     total cpu time spent up to now is      165.1 secs

     total energy              =    -764.57036412 Ry
     Harris-Foulkes estimate   =    -764.57065583 Ry
     estimated scf accuracy    <       0.00062954 Ry

     iteration #  8     ecut=   100.00 Ry     beta=0.50
     Davidson diagonalization with overlap
     ethr =  4.14E-07,  avg # of iterations =  4.7

     total cpu time spent up to now is      187.8 secs

     total energy              =    -764.57057525 Ry
     Harris-Foulkes estimate   =    -764.57059910 Ry
     estimated scf accuracy    <       0.00009590 Ry

     iteration #  9     ecut=   100.00 Ry     beta=0.50
     Davidson diagonalization with overlap
     ethr =  6.31E-08,  avg # of iterations =  2.0

     total cpu time spent up to now is      203.4 secs

     total energy              =    -764.57057889 Ry
     Harris-Foulkes estimate   =    -764.57058821 Ry
     estimated scf accuracy    <       0.00002376 Ry

     iteration # 10     ecut=   100.00 Ry     beta=0.50
     Davidson diagonalization with overlap
     ethr =  1.56E-08,  avg # of iterations =  4.0

     total cpu time spent up to now is      226.5 secs

     total energy              =    -764.57059063 Ry
     Harris-Foulkes estimate   =    -764.57059164 Ry
     estimated scf accuracy    <       0.00000619 Ry

     iteration # 11     ecut=   100.00 Ry     beta=0.50
     Davidson diagonalization with overlap
     ethr =  4.07E-09,  avg # of iterations =  2.0

     total cpu time spent up to now is      241.9 secs

     total energy              =    -764.57058974 Ry
     Harris-Foulkes estimate   =    -764.57059133 Ry
     estimated scf accuracy    <       0.00000384 Ry

     iteration # 12     ecut=   100.00 Ry     beta=0.50
     Davidson diagonalization with overlap
     ethr =  2.53E-09,  avg # of iterations =  3.0

     total cpu time spent up to now is      258.3 secs

     total energy              =    -764.57059014 Ry
     Harris-Foulkes estimate   =    -764.57059025 Ry
     estimated scf accuracy    <       0.00000025 Ry

     iteration # 13     ecut=   100.00 Ry     beta=0.50
     Davidson diagonalization with overlap
     ethr =  1.66E-10,  avg # of iterations =  4.0

     total cpu time spent up to now is      283.0 secs

     total energy              =    -764.57059033 Ry
     Harris-Foulkes estimate   =    -764.57059034 Ry
     estimated scf accuracy    <       0.00000004 Ry

     iteration # 14     ecut=   100.00 Ry     beta=0.50
     Davidson diagonalization with overlap
     ethr =  2.69E-11,  avg # of iterations =  2.0

     total cpu time spent up to now is      298.1 secs

     End of self-consistent calculation

          k = 0.0000 0.0000 0.0000 ( 51337 PWs)   bands (ev):

   -24.7948 -24.7749 -19.4718 -19.4430 -19.2027 -19.1323 -19.0971 -19.0966
   -18.1335 -18.0879 -16.3900 -16.3407 -15.5213 -15.3954 -15.2711 -15.2251
   -11.6581 -11.5694 -11.4696 -11.4000  -9.6997  -9.3962  -8.9625  -8.8190
    -8.3209  -8.0300  -7.8463  -7.5981  -7.3723  -7.3279  -7.3171  -7.1939
    -6.9066  -6.8181  -6.4195  -6.3579  -6.3281  -6.2993  -6.0179  -5.7784
    -5.6821  -5.3237  -5.2689  -5.1809  -5.0799  -5.0313  -4.7278  -4.5731
    -3.8804  -3.7624  -3.5921  -3.4422  -3.3559  -3.3313  -2.9725  -2.9343
    -2.8867  -2.8368  -1.4718  -1.3680  -1.2534  -1.1647  -1.0711  -1.0531
    -0.9853  -0.8469  -0.6520  -0.4208  -0.0080   0.0311   0.1548   0.2344
     0.5219   0.5227   0.6231   0.6468   4.1786   4.2058   5.0896   5.1042
     5.9377   6.6611   6.8244   7.1398   7.7594   7.9058   8.3241   8.3709
     8.4389   8.4901   8.8299

          k = 0.0000 0.0000-0.4329 ( 51312 PWs)   bands (ev):

   -24.7945 -24.7752 -19.4648 -19.4513 -19.1649 -19.1559 -19.1178 -19.0891
   -18.1185 -18.1085 -16.3800 -16.3395 -15.5207 -15.4022 -15.3027 -15.1786
   -11.6869 -11.6421 -11.4697 -11.4063  -9.5483  -9.3688  -8.8956  -8.7363
    -8.3651  -8.1027  -7.9287  -7.6237  -7.5566  -7.4272  -7.1607  -7.0379
    -6.8245  -6.7741  -6.4705  -6.4259  -6.3478  -6.3216  -6.0760  -6.0505
    -5.5933  -5.4046  -5.0997  -5.0896  -5.0442  -5.0114  -4.5961  -4.5928
    -3.9211  -3.8268  -3.5779  -3.4329  -3.3678  -3.3263  -3.0225  -2.8830
    -2.8795  -2.8683  -1.5127  -1.4295  -1.2055  -1.1734  -1.0629  -1.0324
    -0.9830  -0.8383  -0.6617  -0.3353  -0.0562   0.0280   0.2082   0.2419
     0.4776   0.4995   0.6031   0.6885   4.1735   4.1856   5.0023   5.1477
     6.3325   6.5422   6.7175   6.9398   7.8327   7.8338   8.0910   8.2234
     8.6113   8.6158   8.7127

          k = 0.0000 0.3198-0.0625 ( 51329 PWs)   bands (ev):

   -24.7947 -24.7749 -19.4714 -19.4433 -19.1883 -19.1533 -19.1087 -19.0765
   -18.1259 -18.1008 -16.3851 -16.3439 -15.4905 -15.4099 -15.3207 -15.1907
   -11.6494 -11.5652 -11.4695 -11.4201  -9.5880  -9.4226  -8.9628  -8.8897
    -8.3004  -8.0968  -7.8093  -7.5847  -7.4052  -7.3660  -7.3132  -7.2824
    -6.8725  -6.7751  -6.3864  -6.3356  -6.3246  -6.2527  -6.0030  -5.8600
    -5.6871  -5.2808  -5.2522  -5.1997  -5.0789  -5.0088  -4.7648  -4.5344
    -3.8727  -3.8102  -3.5914  -3.4828  -3.3797  -3.2918  -2.9678  -2.9574
    -2.8726  -2.7986  -1.4517  -1.3673  -1.2599  -1.1681  -1.0647  -1.0277
    -0.9761  -0.8198  -0.6409  -0.4483  -0.0728   0.0584   0.1930   0.2389
     0.5010   0.5373   0.5567   0.6192   4.1486   4.1793   5.0884   5.1169
     6.2896   6.6413   6.9712   7.2355   7.4571   7.7823   7.9678   8.1578
     8.4421   8.6769   8.8017

          k = 0.0000 0.3198-0.4954 ( 51280 PWs)   bands (ev):

   -24.7944 -24.7752 -19.4646 -19.4503 -19.1771 -19.1378 -19.1152 -19.0971
   -18.1223 -18.1092 -16.3781 -16.3440 -15.4926 -15.4072 -15.3007 -15.2003
   -11.6775 -11.6277 -11.4673 -11.4243  -9.5398  -9.3832  -8.9332  -8.6928
    -8.2957  -8.1870  -7.8601  -7.5821  -7.5691  -7.4922  -7.2091  -7.0581
    -6.8442  -6.8358  -6.4163  -6.3896  -6.3313  -6.2904  -6.1101  -6.0042
    -5.6245  -5.4409  -5.2046  -5.1121  -4.9860  -4.9176  -4.5836  -4.5680
    -3.9561  -3.8538  -3.5639  -3.4156  -3.3696  -3.3312  -2.9994  -2.8909
    -2.8817  -2.8319  -1.4924  -1.4509  -1.1985  -1.1787  -1.0532  -1.0262
    -1.0156  -0.8220  -0.5842  -0.3789  -0.1131   0.0547   0.1745   0.2588
     0.4589   0.4969   0.5877   0.6830   4.1481   4.1601   4.9829   5.2111
     6.5001   6.6516   6.8067   7.0873   7.4141   7.6103   8.0442   8.3128
     8.3735   8.6048   8.7751

          k = 0.3333-0.0271-0.0922 ( 51282 PWs)   bands (ev):

   -24.7943 -24.7752 -19.4698 -19.4438 -19.2290 -19.1350 -19.1024 -19.0626
   -18.1335 -18.0890 -16.3829 -16.3489 -15.4856 -15.4152 -15.2873 -15.2237
   -11.6408 -11.5955 -11.4516 -11.4128  -9.6282  -9.4751  -8.9439  -8.8397
    -8.3178  -8.0945  -7.7332  -7.6025  -7.4077  -7.3082  -7.2957  -7.2521
    -6.9623  -6.8035  -6.4402  -6.3606  -6.2869  -6.2493  -6.0062  -5.7861
    -5.5759  -5.4055  -5.2206  -5.1791  -5.1231  -5.0281  -4.7636  -4.5276
    -3.8699  -3.7647  -3.5775  -3.4712  -3.3966  -3.2611  -3.0669  -2.9262
    -2.9075  -2.8302  -1.4640  -1.3769  -1.2611  -1.1483  -1.0942  -1.0388
    -0.9766  -0.8685  -0.6158  -0.4667  -0.0330   0.0230   0.1355   0.2542
     0.5083   0.5494   0.6438   0.6535   4.1609   4.1994   5.0755   5.1142
     6.3368   6.6679   6.8878   7.2352   7.6088   7.6915   8.1495   8.3821
     8.4368   8.4565   8.5708

          k = 0.3333-0.0271-0.5251 ( 51304 PWs)   bands (ev):

   -24.7943 -24.7752 -19.4659 -19.4495 -19.1993 -19.1657 -19.1032 -19.0589
   -18.1199 -18.1088 -16.3813 -16.3387 -15.4869 -15.4203 -15.3181 -15.1780
   -11.6820 -11.6529 -11.4720 -11.4016  -9.4967  -9.4062  -8.9409  -8.7394
    -8.2840  -8.1586  -7.8649  -7.6210  -7.5781  -7.4906  -7.1530  -6.9986
    -6.9692  -6.7314  -6.4430  -6.4340  -6.3079  -6.2937  -6.0720  -6.0253
    -5.5330  -5.3919  -5.1854  -5.1037  -5.0634  -4.9805  -4.5714  -4.5681
    -3.9069  -3.8238  -3.5729  -3.4668  -3.4055  -3.3006  -3.0994  -2.8950
    -2.8823  -2.8284  -1.5413  -1.4148  -1.2001  -1.1710  -1.0672  -1.0221
    -1.0101  -0.8431  -0.6292  -0.3769  -0.0338   0.0164   0.1955   0.2394
     0.4710   0.5090   0.5384   0.7727   4.1529   4.1892   4.9912   5.1511
     6.5598   6.6554   6.8298   7.2388   7.4332   7.7282   8.0469   8.1280
     8.4142   8.5832   8.6313

          k = 0.3333 0.2927-0.1547 ( 51266 PWs)   bands (ev):

   -24.7943 -24.7752 -19.4702 -19.4440 -19.2056 -19.1639 -19.1146 -19.0424
   -18.1343 -18.0922 -16.3855 -16.3440 -15.5279 -15.3935 -15.2962 -15.1913
   -11.6324 -11.5926 -11.4668 -11.4156  -9.6105  -9.4054  -8.9757  -8.9126
    -8.3186  -8.1322  -7.7207  -7.5759  -7.4057  -7.3745  -7.2569  -7.1788
    -6.9594  -6.7846  -6.4252  -6.3921  -6.3002  -6.2731  -5.9993  -5.8604
    -5.6227  -5.3470  -5.2430  -5.1624  -5.0514  -5.0144  -4.7566  -4.5276
    -3.9005  -3.7899  -3.5808  -3.4607  -3.4175  -3.2640  -3.0377  -2.9359
    -2.9185  -2.7950  -1.4383  -1.3618  -1.2773  -1.1714  -1.0563  -1.0381
    -0.9756  -0.8259  -0.6569  -0.4129  -0.0865   0.0184   0.1868   0.2435
     0.5000   0.5396   0.5758   0.6445   4.1091   4.1823   5.0876   5.1132
     6.4796   6.8063   6.9288   7.2373   7.6598   7.7316   7.9163   8.1110
     8.3253   8.5114   8.6638

          k = 0.3333 0.2927-0.5876 ( 51271 PWs)   bands (ev):

   -24.7943 -24.7752 -19.4654 -19.4493 -19.2073 -19.1483 -19.1002 -19.0708
   -18.1258 -18.1056 -16.3789 -16.3432 -15.5295 -15.3842 -15.2844 -15.2002
   -11.6726 -11.6432 -11.4693 -11.4138  -9.5709  -9.3623  -8.9080  -8.7170
    -8.4544  -8.1024  -7.8270  -7.5944  -7.4969  -7.4418  -7.1509  -7.0097
    -6.9848  -6.7491  -6.5077  -6.3919  -6.3559  -6.2717  -6.1665  -6.0116
    -5.5542  -5.4535  -5.1443  -5.0751  -5.0023  -4.9882  -4.5934  -4.5393
    -3.9547  -3.8299  -3.5585  -3.4460  -3.4049  -3.3100  -3.0236  -2.9068
    -2.8915  -2.8289  -1.4983  -1.4390  -1.1932  -1.1733  -1.0538  -1.0247
    -1.0035  -0.8274  -0.6087  -0.3804  -0.1153   0.0392   0.1795   0.2482
     0.3954   0.5349   0.6051   0.7119   4.1014   4.1740   4.9978   5.1988
     6.6192   6.7076   6.7783   7.3094   7.5787   7.7365   7.9046   8.1616
     8.2731   8.4590   8.6824

          k = 0.3333-0.3469-0.0298 ( 51313 PWs)   bands (ev):

   -24.7943 -24.7752 -19.4698 -19.4441 -19.2183 -19.1464 -19.1127 -19.0494
   -18.1286 -18.0987 -16.3922 -16.3371 -15.4949 -15.4051 -15.3193 -15.1910
   -11.6356 -11.5916 -11.4753 -11.4043  -9.5238  -9.4875  -8.9794  -8.8915
    -8.3185  -8.1415  -7.7248  -7.5473  -7.4436  -7.3598  -7.3266  -7.2201
    -6.9657  -6.7561  -6.3985  -6.3488  -6.2843  -6.2643  -5.9890  -5.8581
    -5.6166  -5.3229  -5.2219  -5.1596  -5.1255  -5.0101  -4.7357  -4.5650
    -3.9295  -3.7690  -3.5800  -3.4694  -3.3646  -3.2880  -3.0491  -2.9469
    -2.8998  -2.8092  -1.4390  -1.3702  -1.2740  -1.1580  -1.0631  -1.0428
    -0.9735  -0.8156  -0.6320  -0.4511  -0.0514  -0.0147   0.1815   0.2613
     0.4911   0.5429   0.5982   0.6159   4.1204   4.1756   5.0895   5.1250
     6.6037   6.7188   7.0152   7.3275   7.4680   7.6695   7.8292   8.0976
     8.3113   8.5321   8.7192

          k = 0.3333-0.3469-0.4626 ( 51279 PWs)   bands (ev):

   -24.7943 -24.7752 -19.4655 -19.4489 -19.2044 -19.1554 -19.1024 -19.0644
   -18.1222 -18.1101 -16.3789 -16.3434 -15.4975 -15.4028 -15.2992 -15.1999
   -11.6761 -11.6416 -11.4634 -11.4170  -9.5264  -9.3999  -8.9307  -8.7011
    -8.3962  -8.1259  -7.7871  -7.6292  -7.5363  -7.5098  -7.1852  -7.0260
    -6.9528  -6.7345  -6.4890  -6.3855  -6.3484  -6.2462  -6.1119  -6.0050
    -5.5377  -5.4771  -5.1643  -5.0896  -5.0328  -4.9529  -4.5947  -4.5470
    -3.9786  -3.7737  -3.5799  -3.4691  -3.4037  -3.3075  -3.0211  -2.9036
    -2.8910  -2.8143  -1.5150  -1.4436  -1.2004  -1.1685  -1.0468  -1.0418
    -1.0177  -0.8195  -0.5755  -0.4072  -0.0836   0.0229   0.1921   0.2467
     0.4108   0.5295   0.5646   0.7302   4.1104   4.1665   5.0155   5.1896
     6.6104   6.7994   7.0350   7.3223   7.3912   7.4801   7.7626   8.1506
     8.3626   8.5330   8.7230

     highest occupied, lowest unoccupied level (ev):     0.7727    4.1014

!    total energy              =    -764.57059032 Ry
     Harris-Foulkes estimate   =    -764.57059033 Ry
     estimated scf accuracy    <          8.6E-09 Ry

     total all-electron energy =     -2855.350266 Ry

     The total energy is the sum of the following terms:

     one-electron contribution =    -425.03944078 Ry
     hartree contribution      =     270.54698739 Ry
     xc contribution           =    -160.25314949 Ry
     ewald contribution        =    -240.00138597 Ry
     Dispersion Correction     =      -0.21756256 Ry
     one-center paw contrib.   =    -209.60603890 Ry

     convergence has been achieved in  14 iterations

     Forces acting on atoms (cartesian axes, Ry/au):

     atom    1 type  1   force =     0.00174504   -0.00087238   -0.00052878
     atom    2 type  1   force =    -0.00174504    0.00087238    0.00052878
     atom    3 type  1   force =     0.00027790   -0.00005888   -0.00093009
     atom    4 type  1   force =    -0.00027790    0.00005888    0.00093009
     atom    5 type  1   force =     0.00137606   -0.00271857    0.00010151
     atom    6 type  1   force =    -0.00137606    0.00271857   -0.00010151
     atom    7 type  1   force =     0.00238703    0.00210547   -0.00235106
     atom    8 type  1   force =    -0.00238703   -0.00210547    0.00235106
     atom    9 type  2   force =    -0.00419551   -0.00186265    0.00177446
     atom   10 type  2   force =     0.00419551    0.00186265   -0.00177446
     atom   11 type  2   force =     0.00021765   -0.00002415   -0.00028548
     atom   12 type  2   force =    -0.00021765    0.00002415    0.00028548
     atom   13 type  2   force =    -0.00097548    0.00032494    0.00064459
     atom   14 type  2   force =     0.00097548   -0.00032494   -0.00064459
     atom   15 type  2   force =    -0.00143198   -0.00092789    0.00054834
     atom   16 type  2   force =     0.00143198    0.00092789   -0.00054834
     atom   17 type  2   force =     0.00094790    0.00174781    0.00180688
     atom   18 type  2   force =    -0.00094790   -0.00174781   -0.00180688
     atom   19 type  2   force =    -0.00124665   -0.00035774   -0.00147163
     atom   20 type  2   force =     0.00124665    0.00035774    0.00147163
     atom   21 type  4   force =     0.00022041   -0.00001149   -0.00122804
     atom   22 type  4   force =    -0.00022041    0.00001149    0.00122804
     atom   23 type  4   force =     0.00017316    0.00075581    0.00057525
     atom   24 type  4   force =    -0.00017316   -0.00075581   -0.00057525
     atom   25 type  4   force =     0.00066018   -0.00115355    0.00138817
     atom   26 type  4   force =    -0.00066018    0.00115355   -0.00138817
     atom   27 type  3   force =     0.00006722    0.00040654   -0.00047191
     atom   28 type  3   force =    -0.00006722   -0.00040654    0.00047191
     atom   29 type  3   force =    -0.00010466   -0.00004083   -0.00029862
     atom   30 type  3   force =     0.00010466    0.00004083    0.00029862
     atom   31 type  3   force =    -0.00008603    0.00003105   -0.00002725
     atom   32 type  3   force =     0.00008603   -0.00003105    0.00002725
     atom   33 type  3   force =     0.00006561   -0.00018927    0.00030575
     atom   34 type  3   force =    -0.00006561    0.00018927   -0.00030575
     atom   35 type  3   force =    -0.00024145   -0.00041102   -0.00043862
     atom   36 type  3   force =     0.00024145    0.00041102    0.00043862
     atom   37 type  3   force =    -0.00011955   -0.00037813    0.00092900
     atom   38 type  3   force =     0.00011955    0.00037813   -0.00092900
     atom   39 type  3   force =     0.00031654    0.00031071    0.00066393
     atom   40 type  3   force =    -0.00031654   -0.00031071   -0.00066393
     atom   41 type  3   force =    -0.00083136    0.00033202    0.00030163
     atom   42 type  3   force =     0.00083136   -0.00033202   -0.00030163
     atom   43 type  3   force =    -0.00005554    0.00067605   -0.00083367
     atom   44 type  3   force =     0.00005554   -0.00067605    0.00083367
     atom   45 type  3   force =    -0.00038005   -0.00268690    0.00000708
     atom   46 type  3   force =     0.00038005    0.00268690   -0.00000708
     atom   47 type  3   force =     0.00056048    0.00136868    0.00056541
     atom   48 type  3   force =    -0.00056048   -0.00136868   -0.00056541
     atom   49 type  3   force =     0.00057780    0.00051191    0.00005750
     atom   50 type  3   force =    -0.00057780   -0.00051191   -0.00005750

     Total force =     0.013528     Total SCF correction =     0.000148


     Computing stress (Cartesian axis) and pressure

          total   stress  (Ry/bohr**3)                   (kbar)     P=   -3.48
  -0.00003168   0.00000177  -0.00000068         -4.66      0.26     -0.10
   0.00000177  -0.00001908   0.00000739          0.26     -2.81      1.09
  -0.00000068   0.00000739  -0.00002020         -0.10      1.09     -2.97


     Writing output data file scf.save
 
     init_run     :     14.00s CPU     14.32s WALL (       1 calls)
     electrons    :    272.88s CPU    283.25s WALL (       1 calls)
     forces       :      7.21s CPU      7.26s WALL (       1 calls)
     stress       :     22.81s CPU     22.83s WALL (       1 calls)

     Called by init_run:
     wfcinit      :      7.54s CPU      7.80s WALL (       1 calls)
     potinit      :      2.23s CPU      2.24s WALL (       1 calls)

     Called by electrons:
     c_bands      :    234.54s CPU    243.62s WALL (      14 calls)
     sum_band     :     31.36s CPU     32.50s WALL (      14 calls)
     v_of_rho     :      0.99s CPU      1.07s WALL (      15 calls)
     newd         :      1.99s CPU      2.03s WALL (      15 calls)
     PAW_pot      :      3.58s CPU      3.59s WALL (      15 calls)
     mix_rho      :      0.25s CPU      0.26s WALL (      14 calls)

     Called by c_bands:
     init_us_2    :      2.70s CPU      2.71s WALL (     310 calls)
     cegterg      :    225.31s CPU    234.34s WALL (     140 calls)

     Called by sum_band:
     sum_band:bec :      0.03s CPU      0.03s WALL (     140 calls)
     addusdens    :      2.05s CPU      2.08s WALL (      14 calls)

     Called by *egterg:
     h_psi        :    153.41s CPU    159.01s WALL (     695 calls)
     s_psi        :     15.67s CPU     15.67s WALL (     695 calls)
     g_psi        :      1.19s CPU      1.19s WALL (     545 calls)
     cdiaghg      :     14.81s CPU     14.86s WALL (     685 calls)

     Called by h_psi:
     h_psi:pot    :    152.19s CPU    157.76s WALL (     695 calls)
     h_psi:calbec :     15.70s CPU     15.81s WALL (     695 calls)
     vloc_psi     :    121.06s CPU    126.51s WALL (     695 calls)
     add_vuspsi   :     15.42s CPU     15.43s WALL (     695 calls)

     General routines
     calbec       :     28.45s CPU     28.62s WALL (     885 calls)
     fft          :      1.52s CPU      1.67s WALL (     219 calls)
     fftw         :    130.62s CPU    136.72s WALL (   84360 calls)
 
     Parallel routines
     fft_scatter  :     34.63s CPU     38.51s WALL (   84579 calls)
 
     PWSCF        :  5m20.84s CPU     5m32.64s WALL

 
   This run was terminated on:  18:15:26  20Dec2017            

=------------------------------------------------------------------------------=
   JOB DONE.
=------------------------------------------------------------------------------=
