
     Program PWSCF v.6.1 (svn rev. 13369) starts on 14Dec2017 at 18:11:30 

     This program is part of the open-source Quantum ESPRESSO suite
     for quantum simulation of materials; please cite
         "P. Giannozzi et al., J. Phys.:Condens. Matter 21 395502 (2009);
          URL http://www.quantum-espresso.org", 
     in publications or presentations arising from this work. More details at
     http://www.quantum-espresso.org/quote

     Parallel version (MPI), running on     8 processors
     R & G space division:  proc/nbgrp/npool/nimage =       8
     Waiting for input...
     Reading input from standard input

     Current dimensions of program PWSCF are:
     Max number of different atomic species (ntypx) = 10
     Max number of k-points (npk) =  40000
     Max angular momentum in pseudopotentials (lmaxx) =  3
               file C.pbe-n-kjpaw_psl.0.1.UPF: wavefunction(s)  2P renormalized
               file N.pbe-n-kjpaw_psl.0.1.UPF: wavefunction(s)  2P renormalized
               file H.pbe-kjpaw_psl.0.1.UPF: wavefunction(s)  1S renormalized
               file O.pbe-n-kjpaw_psl.0.1.UPF: wavefunction(s)  2P renormalized

     -------------------------------------
     Parameters for Dispersion Correction:
     -------------------------------------
       atom      VdW radius       C_6     

        C          2.744         60.710
        N          2.640         42.670
        H          1.892          4.857
        O          2.536         24.284

     Subspace diagonalization in iterative solution of the eigenvalue problem:
     a serial algorithm will be used

 
     Parallelization info
     --------------------
     sticks:   dense  smooth     PW     G-vecs:    dense   smooth      PW
     Min        1431    1431    378               111357   111357   15099
     Max        1432    1432    379               111358   111358   15102
     Sum       11453   11453   3029               890861   890861  120807
 


     bravais-lattice index     =            0
     lattice parameter (alat)  =      26.0385  a.u.
     unit-cell volume          =    6596.3870 (a.u.)^3
     number of atoms/cell      =          132
     number of atomic types    =            4
     number of electrons       =       328.00
     number of Kohn-Sham states=          196
     kinetic-energy cutoff     =     100.0000  Ry
     charge density cutoff     =     400.0000  Ry
     convergence threshold     =      1.0E-08
     mixing beta               =       0.5000
     number of iterations used =            8  plain     mixing
     Exchange-correlation      =  SLA  PW   PBX  PBC ( 1  4  3  4 0 0)

     celldm(1)=  26.038536  celldm(2)=   0.000000  celldm(3)=   0.000000
     celldm(4)=   0.000000  celldm(5)=   0.000000  celldm(6)=   0.000000

     crystal axes: (cart. coord. in units of alat)
               a(1) = (   1.000000   0.000000   0.000000 )  
               a(2) = (   0.000000   0.531533   0.000000 )  
               a(3) = (  -0.127495   0.000000   0.702952 )  

     reciprocal axes: (cart. coord. in units 2 pi/alat)
               b(1) = (  1.000000  0.000000  0.181370 )  
               b(2) = (  0.000000  1.881349  0.000000 )  
               b(3) = (  0.000000  0.000000  1.422572 )  


     PseudoPot. # 1 for  C read from file:
     /scratch/ahofstet/pseudo/C.pbe-n-kjpaw_psl.0.1.UPF
     MD5 check sum: 430fe95172b1e11ef3f8ed03bac87931
     Pseudo is Projector augmented-wave + core cor, Zval =  4.0
     Generated using "atomic" code by A. Dal Corso  v.5.0.99 svn rev. 10869
     Shape of augmentation charge: BESSEL
     Using radial grid of 1073 points,  4 beta functions with: 
                l(1) =   0
                l(2) =   0
                l(3) =   1
                l(4) =   1
     Q(r) pseudized with 0 coefficients 


     PseudoPot. # 2 for  N read from file:
     /scratch/ahofstet/pseudo/N.pbe-n-kjpaw_psl.0.1.UPF
     MD5 check sum: f73187c8b701007e77325f868c9291d7
     Pseudo is Projector augmented-wave + core cor, Zval =  5.0
     Generated using "atomic" code by A. Dal Corso  v.5.0.99 svn rev. 10869
     Shape of augmentation charge: PSQ
     Using radial grid of 1085 points,  4 beta functions with: 
                l(1) =   0
                l(2) =   0
                l(3) =   1
                l(4) =   1
     Q(r) pseudized with 0 coefficients 


     PseudoPot. # 3 for  H read from file:
     /scratch/ahofstet/pseudo/H.pbe-kjpaw_psl.0.1.UPF
     MD5 check sum: 94e484f906d9e9773b2f6e52662335b2
     Pseudo is Projector augmented-wave, Zval =  1.0
     Generated using "atomic" code by A. Dal Corso  v.5.0.99 svn rev. 10869
     Shape of augmentation charge: PSQ
     Using radial grid of  929 points,  2 beta functions with: 
                l(1) =   0
                l(2) =   0
     Q(r) pseudized with 0 coefficients 


     PseudoPot. # 4 for  O read from file:
     /scratch/ahofstet/pseudo/O.pbe-n-kjpaw_psl.0.1.UPF
     MD5 check sum: 3f94a2996a3169367d6eb21d9b593f20
     Pseudo is Projector augmented-wave + core cor, Zval =  6.0
     Generated using "atomic" code by A. Dal Corso  v.5.0.99 svn rev. 10869
     Shape of augmentation charge: BESSEL
     Using radial grid of 1095 points,  4 beta functions with: 
                l(1) =   0
                l(2) =   0
                l(3) =   1
                l(4) =   1
     Q(r) pseudized with 0 coefficients 


     atomic species   valence    mass     pseudopotential
        C              4.00    12.01070      C( 1.00)
        N              5.00    14.00670      N( 1.00)
        H              1.00     1.00794      H( 1.00)
        O              6.00    15.99940      O( 1.00)

      4 Sym. Ops., with inversion, found ( 2 have fractional translation)



   Cartesian axes

     site n.     atom                  positions (alat units)
         1           O   tau(   1) = (   0.4303121   0.1011616   0.4021296  )
         2           O   tau(   2) = (   0.3784460   0.3669283   0.6522986  )
         3           O   tau(   3) = (   0.4421933   0.4303719   0.3008226  )
         4           O   tau(   4) = (   0.4940594   0.1646052   0.0506535  )
         5           O   tau(   5) = (   0.5476034   0.5206109   0.4234553  )
         6           O   tau(   6) = (   0.2611547   0.2548441   0.6309730  )
         7           O   tau(   7) = (   0.3249020   0.0109226   0.2794969  )
         8           O   tau(   8) = (   0.6113507   0.2766894   0.0719792  )
         9           H   tau(   9) = (   0.5041989   0.4832339   0.3751680  )
        10           H   tau(  10) = (   0.3045592   0.2174672   0.6792603  )
        11           H   tau(  11) = (   0.3683065   0.0482996   0.3277842  )
        12           H   tau(  12) = (   0.5679462   0.3140663   0.0236919  )
        13           C   tau(  13) = (   0.5707551   0.1464614   0.4922405  )
        14           C   tau(  14) = (   0.2380030   0.4122281   0.5621877  )
        15           C   tau(  15) = (   0.3017503   0.3850721   0.2107117  )
        16           C   tau(  16) = (   0.6345024   0.1193053   0.1407644  )
        17           H   tau(  17) = (   0.6210704   0.1054070   0.5377837  )
        18           H   tau(  18) = (   0.1876877   0.3711737   0.5166445  )
        19           H   tau(  19) = (   0.2514350   0.4261265   0.1651684  )
        20           H   tau(  20) = (   0.6848177   0.1603597   0.1863076  )
        21           C   tau(  21) = (   0.6283575   0.2013201   0.4162643  )
        22           C   tau(  22) = (   0.1804006   0.4670868   0.6381640  )
        23           C   tau(  23) = (   0.2441479   0.3302134   0.2866879  )
        24           C   tau(  24) = (   0.6921048   0.0644467   0.0647882  )
        25           C   tau(  25) = (   0.5095084   0.0754145   0.4364094  )
        26           C   tau(  26) = (   0.2992497   0.3411813   0.6180189  )
        27           C   tau(  27) = (   0.3629970   0.4561190   0.2665428  )
        28           C   tau(  28) = (   0.5732557   0.1903522   0.0849333  )
        29           C   tau(  29) = (   0.8684563   0.4210492   0.2429050  )
        30           C   tau(  30) = (   0.0677964   0.1552824   0.1085711  )
        31           C   tau(  31) = (   0.0040491   0.1104843   0.4600472  )
        32           C   tau(  32) = (   0.8047090   0.3762511   0.5943810  )
        33           H   tau(  33) = (   0.9045329   0.3788199   0.3006152  )
        34           H   tau(  34) = (   0.0317198   0.1130532   0.0508609  )
        35           H   tau(  35) = (  -0.0320275   0.1527136   0.4023370  )
        36           H   tau(  36) = (   0.8407856   0.4184803   0.6520913  )
        37           C   tau(  37) = (   0.7335936   0.3018389   0.2726027  )
        38           C   tau(  38) = (   0.2026591   0.0360722   0.0788734  )
        39           C   tau(  39) = (   0.1389118   0.2296945   0.4303495  )
        40           C   tau(  40) = (   0.6698463   0.4954613   0.6240788  )
        41           C   tau(  41) = (   0.7760405   0.2250224   0.3240531  )
        42           C   tau(  42) = (   0.1602122   0.4907891   0.0274230  )
        43           C   tau(  43) = (   0.0964649   0.3065111   0.3788991  )
        44           C   tau(  44) = (   0.7122932   0.0407443   0.6755292  )
        45           H   tau(  45) = (   0.8506191   0.2039958   0.3081613  )
        46           H   tau(  46) = (   0.0856336   0.4697626   0.0433148  )
        47           H   tau(  47) = (   0.0218863   0.3275377   0.3947909  )
        48           H   tau(  48) = (   0.7868718   0.0617709   0.6596374  )
        49           C   tau(  49) = (   0.7899167   0.3562018   0.1973594  )
        50           C   tau(  50) = (   0.1463360   0.0904351   0.1541167  )
        51           C   tau(  51) = (   0.0825887   0.1753317   0.5055928  )
        52           C   tau(  52) = (   0.7261694   0.4410984   0.5488355  )
        53           H   tau(  53) = (   0.7409866   0.4011085   0.1531256  )
        54           H   tau(  54) = (   0.1952661   0.1353417   0.1983505  )
        55           H   tau(  55) = (   0.1315188   0.1304250   0.5498266  )
        56           H   tau(  56) = (   0.6772393   0.3961918   0.5046017  )
        57           H   tau(  57) = (   0.8236811   0.3043707   0.1470592  )
        58           H   tau(  58) = (   0.1125716   0.0386040   0.2044169  )
        59           H   tau(  59) = (   0.0488243   0.2271628   0.5558929  )
        60           H   tau(  60) = (   0.7599338   0.4929295   0.4985353  )
        61           C   tau(  61) = (   0.7238011   0.1749268   0.3946725  )
        62           C   tau(  62) = (   0.0849570   0.4406936   0.6597557  )
        63           C   tau(  63) = (   0.1487043   0.3566067   0.3082796  )
        64           C   tau(  64) = (   0.7875484   0.0908399   0.0431965  )
        65           H   tau(  65) = (   0.7574665   0.1152795   0.4341684  )
        66           H   tau(  66) = (   0.0512916   0.3810463   0.6202599  )
        67           H   tau(  67) = (   0.1150389   0.4162540   0.2687838  )
        68           H   tau(  68) = (   0.8212138   0.1504872   0.0826923  )
        69           C   tau(  69) = (   0.6375209   0.3261759   0.2931766  )
        70           C   tau(  70) = (   0.2987318   0.0604092   0.0582995  )
        71           C   tau(  71) = (   0.2349845   0.2053576   0.4097756  )
        72           C   tau(  72) = (   0.5737736   0.4711243   0.6446527  )
        73           H   tau(  73) = (   0.6025443   0.3837780   0.2520889  )
        74           H   tau(  74) = (   0.3337084   0.1180113   0.0993872  )
        75           H   tau(  75) = (   0.2699611   0.1477555   0.4508633  )
        76           H   tau(  76) = (   0.5387970   0.4135222   0.6035649  )
        77           C   tau(  77) = (   0.5853113   0.2765289   0.3637235  )
        78           C   tau(  78) = (   0.2234468   0.0107622   0.6907047  )
        79           C   tau(  79) = (   0.2871941   0.2550046   0.3392286  )
        80           C   tau(  80) = (   0.6490586   0.5207713   0.0122475  )
        81           H   tau(  81) = (   0.5101841   0.2964534   0.3770633  )
        82           H   tau(  82) = (   0.2985740   0.0306867   0.6773649  )
        83           H   tau(  83) = (   0.3623213   0.2350801   0.3258888  )
        84           H   tau(  84) = (   0.5739314   0.5008468   0.0255872  )
        85           C   tau(  85) = (   0.8205286   0.5101476   0.2881914  )
        86           C   tau(  86) = (   0.1157241   0.2443808   0.0632847  )
        87           C   tau(  87) = (   0.0519768   0.0213859   0.4147608  )
        88           C   tau(  88) = (   0.7567813   0.2871527   0.6396674  )
        89           H   tau(  89) = (   0.8730778   0.0258757   0.3249885  )
        90           H   tau(  90) = (   0.0631749   0.2916424   0.0264876  )
        91           H   tau(  91) = (  -0.0005724   0.5056578   0.3779637  )
        92           H   tau(  92) = (   0.8093305   0.2398911   0.6764646  )
        93           H   tau(  93) = (   0.7649558   0.4889138   0.3412136  )
        94           H   tau(  94) = (   0.1712969   0.2231470   0.0102625  )
        95           H   tau(  95) = (   0.1075496   0.0426197   0.3617386  )
        96           H   tau(  96) = (   0.7012085   0.3083864   0.6926897  )
        97           H   tau(  97) = (   0.7851723   0.0218948   0.2314416  )
        98           H   tau(  98) = (   0.1510804   0.2876615   0.1200345  )
        99           H   tau(  99) = (   0.0873331   0.5096387   0.4715106  )
       100           H   tau( 100) = (   0.7214250   0.2438720   0.5829177  )
       101           C   tau( 101) = (   0.9441944   0.4493099   0.1676873  )
       102           C   tau( 102) = (  -0.0079417   0.1835431   0.1837888  )
       103           C   tau( 103) = (  -0.0716890   0.0822236   0.5352649  )
       104           C   tau( 104) = (   0.8804471   0.3479904   0.5191633  )
       105           H   tau( 105) = (  -0.0008281   0.4964812   0.2002646  )
       106           H   tau( 106) = (   0.9370808   0.2307144   0.1512115  )
       107           H   tau( 107) = (   0.8733335   0.0350523   0.5026875  )
       108           H   tau( 108) = (  -0.0645754   0.3008191   0.5517407  )
       109           H   tau( 109) = (   0.9104965   0.4894997   0.1078958  )
       110           H   tau( 110) = (   0.0257562   0.2237330   0.2435803  )
       111           H   tau( 111) = (  -0.0379911   0.0420338   0.5950564  )
       112           H   tau( 112) = (   0.8467492   0.3078005   0.4593718  )
       113           H   tau( 113) = (  -0.0193908   0.3852919   0.1375596  )
       114           H   tau( 114) = (  -0.0443565   0.1195251   0.2139165  )
       115           H   tau( 115) = (  -0.1081038   0.1462416   0.5653926  )
       116           H   tau( 116) = (  -0.0831381   0.4120084   0.4890357  )
       117           C   tau( 117) = (   0.5065544   0.2111003   0.5548128  )
       118           C   tau( 118) = (   0.3022037   0.4768671   0.4996155  )
       119           C   tau( 119) = (   0.3659510   0.3204332   0.1481394  )
       120           C   tau( 120) = (   0.5703017   0.0546664   0.2033367  )
       121           H   tau( 121) = (   0.4632459   0.1662063   0.6040153  )
       122           H   tau( 122) = (   0.3455122   0.4319730   0.4504129  )
       123           H   tau( 123) = (   0.4092595   0.3653272   0.0989368  )
       124           H   tau( 124) = (   0.5269932   0.0995605   0.2525392  )
       125           H   tau( 125) = (   0.4563899   0.2537645   0.5103290  )
       126           H   tau( 126) = (   0.3523682   0.5195313   0.5440993  )
       127           H   tau( 127) = (   0.4161155   0.2777690   0.1926232  )
       128           H   tau( 128) = (   0.5201372   0.0120022   0.1588529  )
       129           H   tau( 129) = (   0.5517821   0.2599299   0.5980112  )
       130           H   tau( 130) = (   0.2569760   0.5256967   0.4564170  )
       131           H   tau( 131) = (   0.3207233   0.2716036   0.1049410  )
       132           H   tau( 132) = (   0.6155294   0.0058368   0.2465351  )

     number of k points=     8
                       cart. coord. in units 2pi/alat
        k(    1) = (   0.0000000   0.0000000   0.0000000), wk =   0.1666667
        k(    2) = (   0.0000000   0.0000000  -0.7112859), wk =   0.1666667
        k(    3) = (   0.0000000   0.6271163   0.0000000), wk =   0.3333333
        k(    4) = (   0.0000000   0.6271163  -0.7112859), wk =   0.3333333
        k(    5) = (  -0.5000000   0.0000000  -0.0906851), wk =   0.1666667
        k(    6) = (  -0.5000000   0.0000000  -0.8019710), wk =   0.1666667
        k(    7) = (  -0.5000000   0.6271163  -0.0906851), wk =   0.3333333
        k(    8) = (  -0.5000000   0.6271163  -0.8019710), wk =   0.3333333

     Dense  grid:   890861 G-vectors     FFT dimensions: ( 180,  90, 120)

     Estimated max dynamical RAM per process >     927.52MB

     Estimated total allocated dynamical RAM >    7420.13MB

     Check: negative/imaginary core charge=   -0.000002    0.000000

     Initial potential from superposition of free atoms

     starting charge  327.99714, renormalised to  328.00000
     Starting wfc are  312 randomized atomic wfcs
     Checking if some PAW data can be deallocated... 

     total cpu time spent up to now is       64.9 secs

     per-process dynamical memory:   633.4 Mb

     Self-consistent Calculation

     iteration #  1     ecut=   100.00 Ry     beta=0.50
     Davidson diagonalization with overlap
     ethr =  1.00E-02,  avg # of iterations =  4.0

     total cpu time spent up to now is      245.1 secs

     total energy              =   -1375.76761035 Ry
     Harris-Foulkes estimate   =   -1383.05366848 Ry
     estimated scf accuracy    <      13.98533584 Ry

     iteration #  2     ecut=   100.00 Ry     beta=0.50
     Davidson diagonalization with overlap
     ethr =  4.26E-03,  avg # of iterations =  2.0

     total cpu time spent up to now is      333.6 secs

     total energy              =   -1376.11889287 Ry
     Harris-Foulkes estimate   =   -1376.97274868 Ry
     estimated scf accuracy    <       1.69454112 Ry

     iteration #  3     ecut=   100.00 Ry     beta=0.50
     Davidson diagonalization with overlap
     ethr =  5.17E-04,  avg # of iterations =  5.0

     total cpu time spent up to now is      547.1 secs

     total energy              =   -1378.10310098 Ry
     Harris-Foulkes estimate   =   -1379.03805061 Ry
     estimated scf accuracy    <       2.94363962 Ry

     iteration #  4     ecut=   100.00 Ry     beta=0.50
     Davidson diagonalization with overlap
     ethr =  5.17E-04,  avg # of iterations =  1.1

     total cpu time spent up to now is      631.7 secs

     total energy              =   -1377.22395397 Ry
     Harris-Foulkes estimate   =   -1378.17906700 Ry
     estimated scf accuracy    <       1.29666570 Ry

     iteration #  5     ecut=   100.00 Ry     beta=0.50
     Davidson diagonalization with overlap
     ethr =  3.95E-04,  avg # of iterations =  4.1

     total cpu time spent up to now is      831.2 secs

     total energy              =   -1377.99418143 Ry
     Harris-Foulkes estimate   =   -1378.86293362 Ry
     estimated scf accuracy    <       2.29997155 Ry

     iteration #  6     ecut=   100.00 Ry     beta=0.50
     Davidson diagonalization with overlap
     ethr =  3.95E-04,  avg # of iterations =  1.0

     total cpu time spent up to now is      915.5 secs

     total energy              =   -1377.68416959 Ry
     Harris-Foulkes estimate   =   -1378.06860077 Ry
     estimated scf accuracy    <       0.82174841 Ry

     iteration #  7     ecut=   100.00 Ry     beta=0.50
     Davidson diagonalization with overlap
     ethr =  2.51E-04,  avg # of iterations =  6.2

     total cpu time spent up to now is     1077.4 secs

     total energy              =   -1378.09167113 Ry
     Harris-Foulkes estimate   =   -1378.11182048 Ry
     estimated scf accuracy    <       0.06242630 Ry

     iteration #  8     ecut=   100.00 Ry     beta=0.50
     Davidson diagonalization with overlap
     ethr =  1.90E-05,  avg # of iterations =  2.0

     total cpu time spent up to now is     1169.3 secs

     total energy              =   -1378.08163463 Ry
     Harris-Foulkes estimate   =   -1378.09430868 Ry
     estimated scf accuracy    <       0.02660150 Ry

     iteration #  9     ecut=   100.00 Ry     beta=0.50
     Davidson diagonalization with overlap
     ethr =  8.11E-06,  avg # of iterations =  8.0

     total cpu time spent up to now is     1339.8 secs

     total energy              =   -1378.09381925 Ry
     Harris-Foulkes estimate   =   -1378.09447119 Ry
     estimated scf accuracy    <       0.00162004 Ry

     iteration # 10     ecut=   100.00 Ry     beta=0.50
     Davidson diagonalization with overlap
     ethr =  4.94E-07,  avg # of iterations =  4.1

     total cpu time spent up to now is     1435.0 secs

     total energy              =   -1378.09362746 Ry
     Harris-Foulkes estimate   =   -1378.09395527 Ry
     estimated scf accuracy    <       0.00047712 Ry

     iteration # 11     ecut=   100.00 Ry     beta=0.50
     Davidson diagonalization with overlap
     ethr =  1.45E-07,  avg # of iterations =  4.9

     total cpu time spent up to now is     1623.6 secs

     total energy              =   -1378.09406111 Ry
     Harris-Foulkes estimate   =   -1378.09431214 Ry
     estimated scf accuracy    <       0.00078943 Ry

     iteration # 12     ecut=   100.00 Ry     beta=0.50
     Davidson diagonalization with overlap
     ethr =  1.45E-07,  avg # of iterations =  1.1

     total cpu time spent up to now is     1708.4 secs

     total energy              =   -1378.09391807 Ry
     Harris-Foulkes estimate   =   -1378.09407821 Ry
     estimated scf accuracy    <       0.00035215 Ry

     iteration # 13     ecut=   100.00 Ry     beta=0.50
     Davidson diagonalization with overlap
     ethr =  1.07E-07,  avg # of iterations =  3.1

     total cpu time spent up to now is     1848.5 secs

     total energy              =   -1378.09406363 Ry
     Harris-Foulkes estimate   =   -1378.09406610 Ry
     estimated scf accuracy    <       0.00001524 Ry

     iteration # 14     ecut=   100.00 Ry     beta=0.50
     Davidson diagonalization with overlap
     ethr =  4.65E-09,  avg # of iterations =  2.0

     total cpu time spent up to now is     1935.7 secs

     total energy              =   -1378.09406166 Ry
     Harris-Foulkes estimate   =   -1378.09406446 Ry
     estimated scf accuracy    <       0.00001037 Ry

     iteration # 15     ecut=   100.00 Ry     beta=0.50
     Davidson diagonalization with overlap
     ethr =  3.16E-09,  avg # of iterations =  2.0

     total cpu time spent up to now is     2023.9 secs

     total energy              =   -1378.09406022 Ry
     Harris-Foulkes estimate   =   -1378.09406236 Ry
     estimated scf accuracy    <       0.00000455 Ry

     iteration # 16     ecut=   100.00 Ry     beta=0.50
     Davidson diagonalization with overlap
     ethr =  1.39E-09,  avg # of iterations =  4.0

     total cpu time spent up to now is     2174.9 secs

     total energy              =   -1378.09406224 Ry
     Harris-Foulkes estimate   =   -1378.09406237 Ry
     estimated scf accuracy    <       0.00000024 Ry

     iteration # 17     ecut=   100.00 Ry     beta=0.50
     Davidson diagonalization with overlap
     ethr =  7.43E-11,  avg # of iterations =  2.9

     total cpu time spent up to now is     2266.0 secs

     total energy              =   -1378.09406224 Ry
     Harris-Foulkes estimate   =   -1378.09406227 Ry
     estimated scf accuracy    <       0.00000004 Ry

     iteration # 18     ecut=   100.00 Ry     beta=0.50
     Davidson diagonalization with overlap
     ethr =  1.12E-11,  avg # of iterations =  4.0

     total cpu time spent up to now is     2465.9 secs

     total energy              =   -1378.09406228 Ry
     Harris-Foulkes estimate   =   -1378.09406237 Ry
     estimated scf accuracy    <       0.00000019 Ry

     iteration # 19     ecut=   100.00 Ry     beta=0.50
     Davidson diagonalization with overlap
     ethr =  1.12E-11,  avg # of iterations =  4.0

     total cpu time spent up to now is     2627.8 secs

     End of self-consistent calculation

          k = 0.0000 0.0000 0.0000 (111341 PWs)   bands (ev):

   -21.0338 -21.0277 -20.6331 -20.6329 -18.7289 -18.7276 -18.2901 -18.2895
   -14.6278 -14.6061 -14.5039 -14.4932 -13.4746 -13.4446 -13.4387 -13.3306
   -12.7840 -12.7617 -12.7581 -12.6465 -11.5379 -11.4690 -11.4540 -11.4193
   -11.4176 -11.3316 -11.3084 -11.2860  -9.9621  -9.9105  -9.9077  -9.8018
    -9.8012  -9.7849  -9.7578  -9.7153  -9.5610  -9.4944  -9.2285  -9.1883
    -8.2109  -8.0473  -7.9908  -7.9689  -7.7533  -7.7182  -7.6962  -7.6029
    -7.2797  -7.2506  -7.2076  -7.0067  -6.9249  -6.7808  -6.6782  -6.6751
    -6.0841  -6.0788  -5.5646  -5.5095  -5.4683  -5.3842  -5.3745  -5.2875
    -5.0795  -5.0051  -4.9463  -4.9138  -4.7596  -4.7340  -4.6788  -4.6598
    -4.5100  -4.3905  -4.3623  -4.2110  -4.1816  -4.1325  -4.0142  -3.9719
    -3.9011  -3.8966  -3.8824  -3.7762  -3.6701  -3.6588  -3.6427  -3.6023
    -3.5559  -3.4880  -3.4815  -3.3662  -3.3502  -3.2689  -3.2202  -3.0248
    -3.0092  -2.9724  -2.7991  -2.7153  -2.6200  -2.5665  -2.4968  -2.4690
    -2.3809  -2.3716  -2.3691  -2.3500  -2.3374  -2.2446  -2.2343  -2.2287
    -2.0355  -1.9993  -1.9843  -1.9673  -1.9186  -1.8879  -1.7482  -1.7128
    -1.7033  -1.6717  -1.6192  -1.5124  -1.5111  -1.4888  -1.4064  -1.3162
    -1.2913  -1.2569  -1.2509  -1.2316  -1.1402  -1.1339  -1.0748  -0.9312
    -0.9235  -0.8834  -0.8257  -0.7724  -0.7555  -0.7512  -0.7397  -0.6432
    -0.6398  -0.5618  -0.5550  -0.4930  -0.4333  -0.4146  -0.2275  -0.1699
    -0.0657   0.0686   0.2085   0.2677   0.7125   0.7880   0.7931   0.8295
     1.0559   1.1761   1.2602   1.3305   5.0325   5.3013   5.3870   5.5022
     5.6246   5.6537   5.7267   5.8150   6.2080   6.2252   6.3149   6.3874
     7.4248   7.6652   7.8457   8.0318   8.1208   8.3995   8.4423   8.4815
     8.4836   8.5431   8.6372   8.6603   8.8156   8.9240   8.9252   9.0302
     9.0954   9.1646   9.2518   9.2781

          k = 0.0000 0.0000-0.7113 (111344 PWs)   bands (ev):

   -21.0308 -21.0308 -20.6330 -20.6330 -18.7282 -18.7282 -18.2898 -18.2898
   -14.5708 -14.5708 -14.5527 -14.5527 -13.4551 -13.4551 -13.3695 -13.3695
   -12.7953 -12.7953 -12.6943 -12.6943 -11.5009 -11.5009 -11.4427 -11.4427
   -11.3767 -11.3767 -11.2929 -11.2929  -9.9264  -9.9264  -9.8464  -9.8464
    -9.7788  -9.7788  -9.7498  -9.7498  -9.5463  -9.5463  -9.2006  -9.2006
    -8.1474  -8.1474  -7.9734  -7.9734  -7.7534  -7.7534  -7.6408  -7.6408
    -7.2564  -7.2564  -7.1068  -7.1068  -6.8581  -6.8581  -6.6760  -6.6760
    -6.0711  -6.0711  -5.5493  -5.5493  -5.4507  -5.4507  -5.3244  -5.3244
    -5.0913  -5.0913  -4.9079  -4.9079  -4.6736  -4.6736  -4.6032  -4.6032
    -4.4244  -4.4244  -4.3142  -4.3142  -4.1654  -4.1654  -4.0827  -4.0827
    -3.9398  -3.9398  -3.8123  -3.8123  -3.7071  -3.7071  -3.5798  -3.5798
    -3.4972  -3.4972  -3.4361  -3.4361  -3.2217  -3.2217  -3.1311  -3.1311
    -3.0150  -3.0150  -2.7923  -2.7923  -2.5919  -2.5919  -2.5404  -2.5404
    -2.4120  -2.4120  -2.3136  -2.3136  -2.2362  -2.2362  -2.1408  -2.1408
    -2.0746  -2.0746  -1.9541  -1.9541  -1.8834  -1.8834  -1.8080  -1.8080
    -1.7098  -1.7098  -1.5938  -1.5938  -1.4925  -1.4925  -1.3445  -1.3445
    -1.3017  -1.3017  -1.2404  -1.2404  -1.0996  -1.0996  -1.0434  -1.0434
    -0.9054  -0.9054  -0.8229  -0.8229  -0.7127  -0.7127  -0.6163  -0.6163
    -0.5967  -0.5967  -0.4842  -0.4842  -0.3980  -0.3980  -0.2787  -0.2787
    -0.0031  -0.0031   0.2243   0.2243   0.7728   0.7728   0.8026   0.8026
     1.1378   1.1378   1.2395   1.2395   5.1992   5.1992   5.4157   5.4157
     5.6758   5.6758   5.7514   5.7514   6.2024   6.2024   6.3659   6.3659
     7.6307   7.6307   7.8224   7.8224   8.0725   8.0725   8.3458   8.3458
     8.5117   8.5117   8.7819   8.7820   8.9618   8.9618   9.1406   9.1406
     9.1741   9.1741   9.2434   9.2434

          k = 0.0000 0.6271 0.0000 (111430 PWs)   bands (ev):

   -21.0318 -21.0287 -20.6332 -20.6332 -18.7302 -18.7295 -18.2889 -18.2886
   -14.5985 -14.5913 -14.5215 -14.5209 -13.4550 -13.4411 -13.3946 -13.3790
   -12.8312 -12.7963 -12.7001 -12.6847 -11.5317 -11.4754 -11.4571 -11.4205
   -11.3411 -11.3321 -11.3215 -11.2939  -9.9657  -9.9015  -9.8714  -9.8162
    -9.8139  -9.7511  -9.7391  -9.7197  -9.5642  -9.4940  -9.2513  -9.1569
    -8.1150  -8.1126  -8.0445  -8.0242  -7.8862  -7.8562  -7.7867  -7.7665
    -7.1318  -7.1131  -7.0154  -6.9730  -6.6955  -6.6695  -6.6003  -6.5708
    -6.3176  -6.2993  -5.5760  -5.5334  -5.4816  -5.4615  -5.3739  -5.3014
    -5.0385  -5.0369  -4.8430  -4.7956  -4.7621  -4.6683  -4.6291  -4.5794
    -4.5569  -4.4523  -4.4173  -4.3815  -4.1189  -4.0798  -4.0289  -3.9868
    -3.9341  -3.8566  -3.8444  -3.8087  -3.7483  -3.6746  -3.6708  -3.6236
    -3.6095  -3.5197  -3.3897  -3.3780  -3.2235  -3.2096  -3.1680  -3.0489
    -3.0391  -2.9941  -2.8722  -2.7133  -2.6641  -2.6062  -2.5427  -2.5077
    -2.4242  -2.3839  -2.3588  -2.3260  -2.2967  -2.2779  -2.1867  -2.1846
    -2.1163  -2.1017  -1.9505  -1.9002  -1.8223  -1.8099  -1.7369  -1.7291
    -1.6624  -1.6558  -1.6028  -1.5498  -1.5306  -1.5142  -1.4387  -1.4190
    -1.3910  -1.3537  -1.2361  -1.1846  -1.1266  -1.0488  -0.9973  -0.9524
    -0.9448  -0.9011  -0.8947  -0.8307  -0.7334  -0.7328  -0.6989  -0.6713
    -0.5961  -0.5902  -0.4826  -0.4753  -0.4435  -0.3215  -0.2952  -0.1856
    -0.0316   0.0370   0.2605   0.2734   0.7268   0.7766   0.8064   0.8114
     1.0783   1.1337   1.2557   1.2813   5.0901   5.2152   5.4283   5.4887
     5.6188   5.6189   5.7364   5.7882   6.2147   6.2509   6.3748   6.4363
     7.6081   7.7688   7.8527   8.1022   8.1426   8.1877   8.5003   8.5269
     8.5680   8.6487   8.7347   8.7455   8.7908   8.8002   8.8605   8.9783
     9.0484   9.1119   9.1684   9.2369

          k = 0.0000 0.6271-0.7113 (111378 PWs)   bands (ev):

   -21.0302 -21.0302 -20.6332 -20.6332 -18.7299 -18.7299 -18.2887 -18.2887
   -14.5637 -14.5637 -14.5550 -14.5550 -13.4374 -13.4374 -13.3970 -13.3970
   -12.7874 -12.7874 -12.7157 -12.7157 -11.4994 -11.4994 -11.4426 -11.4426
   -11.3397 -11.3397 -11.3107 -11.3107  -9.9036  -9.9036  -9.8493  -9.8493
    -9.7897  -9.7897  -9.7286  -9.7286  -9.5356  -9.5356  -9.2135  -9.2135
    -8.1002  -8.1002  -8.0318  -8.0318  -7.8849  -7.8849  -7.7841  -7.7841
    -7.1149  -7.1149  -7.0156  -7.0156  -6.6437  -6.6437  -6.6190  -6.6190
    -6.3016  -6.3016  -5.5471  -5.5471  -5.4435  -5.4435  -5.3736  -5.3736
    -5.0470  -5.0470  -4.8224  -4.8224  -4.6985  -4.6985  -4.6240  -4.6240
    -4.4213  -4.4213  -4.3686  -4.3686  -4.1118  -4.1118  -4.0591  -4.0591
    -3.9578  -3.9578  -3.8249  -3.8249  -3.7710  -3.7710  -3.6523  -3.6523
    -3.4184  -3.4184  -3.3457  -3.3457  -3.3042  -3.3042  -3.0923  -3.0923
    -3.0157  -3.0157  -2.7492  -2.7492  -2.6543  -2.6543  -2.5267  -2.5267
    -2.4295  -2.4295  -2.3546  -2.3546  -2.2767  -2.2767  -2.1868  -2.1868
    -2.0462  -2.0462  -1.9797  -1.9797  -1.8833  -1.8833  -1.7291  -1.7291
    -1.6941  -1.6941  -1.5665  -1.5665  -1.5325  -1.5325  -1.4329  -1.4329
    -1.3190  -1.3190  -1.2947  -1.2947  -1.0469  -1.0469  -0.9668  -0.9668
    -0.9117  -0.9117  -0.8214  -0.8214  -0.6902  -0.6902  -0.6215  -0.6215
    -0.5272  -0.5272  -0.4829  -0.4829  -0.4395  -0.4395  -0.3168  -0.3168
    -0.0077  -0.0077   0.2496   0.2496   0.7712   0.7712   0.7978   0.7979
     1.1416   1.1416   1.2181   1.2181   5.2400   5.2400   5.3666   5.3666
     5.6634   5.6634   5.7332   5.7332   6.2561   6.2561   6.4140   6.4140
     7.7651   7.7651   7.9078   7.9078   8.0494   8.0494   8.3471   8.3471
     8.5501   8.5501   8.7135   8.7135   8.7907   8.7907   9.0013   9.0013
     9.2140   9.2141   9.2975   9.2975

          k =-0.5000 0.0000-0.0907 (111260 PWs)   bands (ev):

   -21.0338 -21.0277 -20.6331 -20.6329 -18.7289 -18.7276 -18.2901 -18.2895
   -14.6215 -14.6126 -14.4991 -14.4981 -13.4958 -13.4177 -13.4152 -13.3600
   -12.8301 -12.7215 -12.7081 -12.6908 -11.5305 -11.4823 -11.4481 -11.4353
   -11.3619 -11.3553 -11.3386 -11.2707  -9.9520  -9.9185  -9.9138  -9.8057
    -9.8030  -9.7703  -9.7633  -9.7433  -9.5191  -9.4839  -9.2360  -9.2108
    -8.1023  -8.0667  -8.0627  -7.9697  -7.8057  -7.7269  -7.6896  -7.5762
    -7.3456  -7.1601  -7.1261  -7.0500  -6.9265  -6.7883  -6.7565  -6.6823
    -6.0720  -6.0249  -5.5645  -5.5153  -5.4427  -5.4313  -5.3587  -5.2611
    -5.0746  -4.9900  -4.9049  -4.9038  -4.8669  -4.8232  -4.6093  -4.5995
    -4.5708  -4.3724  -4.3369  -4.2349  -4.1813  -4.0791  -4.0165  -4.0164
    -3.9251  -3.9059  -3.7916  -3.7859  -3.7756  -3.6906  -3.6296  -3.5473
    -3.5323  -3.4912  -3.4352  -3.4255  -3.3924  -3.2045  -3.1535  -3.0899
    -3.0281  -3.0224  -2.7893  -2.7247  -2.6163  -2.5483  -2.5169  -2.4925
    -2.4368  -2.3667  -2.3204  -2.2846  -2.2732  -2.2305  -2.2192  -2.1895
    -2.0671  -2.0657  -2.0404  -2.0167  -1.8950  -1.8036  -1.7585  -1.7085
    -1.6913  -1.6243  -1.5794  -1.5726  -1.4722  -1.4391  -1.4369  -1.4211
    -1.2954  -1.2632  -1.1917  -1.1911  -1.1624  -1.1146  -1.0774  -1.0568
    -1.0050  -0.8852  -0.8252  -0.7757  -0.7313  -0.6928  -0.6880  -0.6854
    -0.6092  -0.5974  -0.5734  -0.4821  -0.4059  -0.3813  -0.2830  -0.1466
    -0.0682   0.0923   0.2093   0.2545   0.7333   0.7792   0.8059   0.8177
     1.1105   1.1207   1.2229   1.3585   5.0217   5.3215   5.3578   5.5442
     5.6251   5.6496   5.7615   5.7819   6.1766   6.2178   6.3346   6.3835
     7.4426   7.5793   7.8610   8.0819   8.1361   8.3777   8.4126   8.4226
     8.5594   8.6243   8.6599   8.7312   8.8402   8.9063   8.9290   9.0410
     9.0659   9.0665   9.1133   9.1858

          k =-0.5000 0.0000-0.8020 (111356 PWs)   bands (ev):

   -21.0308 -21.0308 -20.6330 -20.6330 -18.7282 -18.7282 -18.2898 -18.2898
   -14.5651 -14.5651 -14.5587 -14.5587 -13.4343 -13.4343 -13.3932 -13.3932
   -12.7763 -12.7763 -12.7108 -12.7108 -11.4911 -11.4911 -11.4577 -11.4577
   -11.3596 -11.3596 -11.3040 -11.3040  -9.9141  -9.9141  -9.8606  -9.8606
    -9.8035  -9.8035  -9.7376  -9.7376  -9.5160  -9.5160  -9.2200  -9.2200
    -8.0955  -8.0955  -8.0185  -8.0185  -7.7812  -7.7812  -7.6232  -7.6232
    -7.2430  -7.2430  -7.0944  -7.0944  -6.8780  -6.8780  -6.6913  -6.6913
    -6.0445  -6.0445  -5.5866  -5.5866  -5.4259  -5.4259  -5.2976  -5.2976
    -5.0858  -5.0858  -4.8700  -4.8700  -4.8132  -4.8132  -4.5391  -4.5391
    -4.4487  -4.4487  -4.3026  -4.3026  -4.1480  -4.1480  -3.9923  -3.9923
    -3.9600  -3.9600  -3.9064  -3.9064  -3.6822  -3.6822  -3.6425  -3.6425
    -3.4526  -3.4526  -3.3276  -3.3276  -3.2247  -3.2247  -3.1963  -3.1963
    -3.0831  -3.0831  -2.7715  -2.7715  -2.6241  -2.6241  -2.4654  -2.4654
    -2.3947  -2.3947  -2.3220  -2.3220  -2.2427  -2.2427  -2.1870  -2.1870
    -2.0142  -2.0142  -1.9830  -1.9830  -1.8912  -1.8912  -1.7782  -1.7782
    -1.7567  -1.7567  -1.5511  -1.5511  -1.5017  -1.5017  -1.4132  -1.4132
    -1.2362  -1.2362  -1.1816  -1.1816  -1.1307  -1.1307  -1.0457  -1.0457
    -0.9275  -0.9275  -0.8244  -0.8244  -0.7050  -0.7050  -0.6580  -0.6580
    -0.6057  -0.6057  -0.4703  -0.4703  -0.4148  -0.4148  -0.2468  -0.2468
    -0.0014  -0.0014   0.2291   0.2291   0.7616   0.7616   0.8165   0.8165
     1.1394   1.1394   1.2316   1.2316   5.1858   5.1858   5.4388   5.4388
     5.7015   5.7015   5.7200   5.7201   6.2007   6.2007   6.3622   6.3622
     7.6358   7.6358   7.7696   7.7696   8.1552   8.1552   8.3473   8.3473
     8.5634   8.5634   8.7873   8.7873   8.8782   8.8782   9.0447   9.0447
     9.1452   9.1453   9.1892   9.1892

          k =-0.5000 0.6271-0.0907 (111434 PWs)   bands (ev):

   -21.0318 -21.0287 -20.6332 -20.6332 -18.7302 -18.7295 -18.2889 -18.2886
   -14.6012 -14.5903 -14.5236 -14.5168 -13.4780 -13.4257 -13.3872 -13.3771
   -12.8614 -12.7513 -12.7241 -12.6751 -11.5404 -11.4840 -11.4507 -11.4374
   -11.3561 -11.3055 -11.3025 -11.2977  -9.9340  -9.9123  -9.8887  -9.8253
    -9.7936  -9.7872  -9.7214  -9.7055  -9.5696  -9.5152  -9.2400  -9.1525
    -8.1629  -8.0932  -8.0284  -7.9851  -7.9225  -7.8287  -7.8059  -7.7568
    -7.1225  -7.1123  -7.0308  -6.9989  -6.7010  -6.6896  -6.5843  -6.5796
    -6.2999  -6.2477  -5.6187  -5.6081  -5.4263  -5.4154  -5.3443  -5.2818
    -5.0289  -5.0158  -4.9239  -4.9091  -4.7073  -4.6657  -4.6037  -4.6024
    -4.5817  -4.4788  -4.3701  -4.3282  -4.1548  -4.0949  -4.0239  -3.9835
    -3.9540  -3.8952  -3.8348  -3.7989  -3.6693  -3.6467  -3.6159  -3.6072
    -3.5367  -3.5042  -3.4587  -3.3529  -3.3412  -3.2194  -3.2083  -3.0826
    -3.0006  -2.9834  -2.8755  -2.7766  -2.6718  -2.6138  -2.5241  -2.4697
    -2.4203  -2.4015  -2.3530  -2.3151  -2.3121  -2.2619  -2.2588  -2.1714
    -2.0758  -2.0390  -1.9028  -1.8952  -1.8650  -1.8444  -1.7229  -1.7140
    -1.7073  -1.5924  -1.5897  -1.5635  -1.5048  -1.4904  -1.4723  -1.4659
    -1.4028  -1.3605  -1.1813  -1.1786  -1.1195  -1.1101  -1.0565  -0.9554
    -0.9195  -0.9129  -0.8258  -0.8019  -0.7608  -0.7159  -0.7122  -0.6345
    -0.6232  -0.6134  -0.4769  -0.4566  -0.4365  -0.4048  -0.2685  -0.1878
    -0.0347   0.0468   0.2713   0.2732   0.7419   0.7719   0.8025   0.8083
     1.0962   1.1044   1.2415   1.3035   5.0772   5.2285   5.4182   5.5054
     5.6182   5.6206   5.7545   5.7681   6.2113   6.2557   6.3750   6.4336
     7.6112   7.7209   7.8809   8.1270   8.1506   8.1780   8.4884   8.5201
     8.5402   8.5917   8.7148   8.7721   8.7891   8.8298   8.9100   8.9703
     9.0800   9.1501   9.2343   9.2382

          k =-0.5000 0.6271-0.8020 (111370 PWs)   bands (ev):

   -21.0302 -21.0302 -20.6332 -20.6332 -18.7299 -18.7299 -18.2887 -18.2887
   -14.5694 -14.5694 -14.5491 -14.5491 -13.4444 -13.4444 -13.3900 -13.3900
   -12.7914 -12.7914 -12.7106 -12.7106 -11.5014 -11.5014 -11.4536 -11.4536
   -11.3477 -11.3477 -11.2905 -11.2905  -9.8909  -9.8909  -9.8326  -9.8326
    -9.8210  -9.8210  -9.7265  -9.7265  -9.5403  -9.5403  -9.2093  -9.2093
    -8.1327  -8.1327  -8.0070  -8.0070  -7.8629  -7.8629  -7.7891  -7.7891
    -7.1138  -7.1138  -7.0352  -7.0352  -6.6747  -6.6747  -6.5993  -6.5993
    -6.2694  -6.2694  -5.6163  -5.6163  -5.3784  -5.3784  -5.3473  -5.3473
    -5.0655  -5.0655  -4.8503  -4.8503  -4.7135  -4.7135  -4.5851  -4.5851
    -4.4680  -4.4680  -4.3526  -4.3526  -4.1080  -4.1080  -4.0647  -4.0647
    -3.9420  -3.9420  -3.8377  -3.8377  -3.6838  -3.6838  -3.6335  -3.6335
    -3.4637  -3.4637  -3.4396  -3.4396  -3.2221  -3.2221  -3.1670  -3.1670
    -3.0000  -3.0000  -2.7072  -2.7072  -2.6870  -2.6870  -2.5538  -2.5538
    -2.4210  -2.4210  -2.3207  -2.3207  -2.2760  -2.2760  -2.1713  -2.1713
    -2.0817  -2.0817  -1.9855  -1.9855  -1.8258  -1.8258  -1.7458  -1.7458
    -1.6877  -1.6877  -1.5649  -1.5649  -1.5211  -1.5211  -1.4248  -1.4248
    -1.3508  -1.3508  -1.2814  -1.2814  -1.0619  -1.0619  -0.9974  -0.9974
    -0.8709  -0.8709  -0.8180  -0.8180  -0.7335  -0.7335  -0.6040  -0.6040
    -0.5477  -0.5477  -0.4887  -0.4887  -0.4253  -0.4253  -0.3044  -0.3044
    -0.0028  -0.0028   0.2528   0.2528   0.7688   0.7688   0.8015   0.8015
     1.1298   1.1298   1.2253   1.2253   5.2374   5.2374   5.3718   5.3718
     5.6926   5.6926   5.7026   5.7026   6.2540   6.2540   6.4159   6.4159
     7.7685   7.7685   7.9103   7.9103   8.0386   8.0386   8.3246   8.3246
     8.5229   8.5229   8.8070   8.8070   8.8893   8.8894   8.9665   8.9665
     9.1472   9.1472   9.2379   9.2379

     highest occupied, lowest unoccupied level (ev):     1.3585    5.0217

!    total energy              =   -1378.09406231 Ry
     Harris-Foulkes estimate   =   -1378.09406231 Ry
     estimated scf accuracy    <          6.6E-09 Ry

     total all-electron energy =     -5252.602164 Ry

     The total energy is the sum of the following terms:

     one-electron contribution =    -571.22811319 Ry
     hartree contribution      =     415.78163351 Ry
     xc contribution           =    -327.48821227 Ry
     ewald contribution        =    -472.34697701 Ry
     Dispersion Correction     =      -0.76292001 Ry
     one-center paw contrib.   =    -422.04947335 Ry

     convergence has been achieved in  19 iterations

     Forces acting on atoms (cartesian axes, Ry/au):

     atom    1 type  4   force =    -0.00101497    0.00050085   -0.00089750
     atom    2 type  4   force =     0.00101497    0.00050085    0.00089750
     atom    3 type  4   force =     0.00101497   -0.00050085    0.00089750
     atom    4 type  4   force =    -0.00101497   -0.00050085   -0.00089750
     atom    5 type  4   force =    -0.00145772    0.00123443   -0.00194644
     atom    6 type  4   force =     0.00145772    0.00123443    0.00194644
     atom    7 type  4   force =     0.00145772   -0.00123443    0.00194644
     atom    8 type  4   force =    -0.00145772   -0.00123443   -0.00194644
     atom    9 type  3   force =     0.00015002    0.00016772   -0.00030173
     atom   10 type  3   force =    -0.00015002    0.00016772    0.00030173
     atom   11 type  3   force =    -0.00015002   -0.00016772    0.00030173
     atom   12 type  3   force =     0.00015002   -0.00016772   -0.00030173
     atom   13 type  1   force =    -0.00098447   -0.00024458    0.00125681
     atom   14 type  1   force =     0.00098447   -0.00024458   -0.00125681
     atom   15 type  1   force =     0.00098447    0.00024458   -0.00125681
     atom   16 type  1   force =    -0.00098447    0.00024458    0.00125681
     atom   17 type  3   force =     0.00109507   -0.00013995    0.00020046
     atom   18 type  3   force =    -0.00109507   -0.00013995   -0.00020046
     atom   19 type  3   force =    -0.00109507    0.00013995   -0.00020046
     atom   20 type  3   force =     0.00109507    0.00013995    0.00020046
     atom   21 type  1   force =     0.00014071    0.00058264   -0.00077258
     atom   22 type  1   force =    -0.00014071    0.00058264    0.00077258
     atom   23 type  1   force =    -0.00014071   -0.00058264    0.00077258
     atom   24 type  1   force =     0.00014071   -0.00058264   -0.00077258
     atom   25 type  1   force =     0.00171879   -0.00075190    0.00177638
     atom   26 type  1   force =    -0.00171879   -0.00075190   -0.00177638
     atom   27 type  1   force =    -0.00171879    0.00075190   -0.00177638
     atom   28 type  1   force =     0.00171879    0.00075190    0.00177638
     atom   29 type  1   force =     0.00000113   -0.00057841   -0.00012198
     atom   30 type  1   force =    -0.00000113   -0.00057841    0.00012198
     atom   31 type  1   force =    -0.00000113    0.00057841    0.00012198
     atom   32 type  1   force =     0.00000113    0.00057841   -0.00012198
     atom   33 type  3   force =     0.00018127    0.00003432   -0.00007436
     atom   34 type  3   force =    -0.00018127    0.00003432    0.00007436
     atom   35 type  3   force =    -0.00018127   -0.00003432    0.00007436
     atom   36 type  3   force =     0.00018127   -0.00003432   -0.00007436
     atom   37 type  1   force =     0.00027947   -0.00019699    0.00015520
     atom   38 type  1   force =    -0.00027947   -0.00019699   -0.00015520
     atom   39 type  1   force =    -0.00027947    0.00019699   -0.00015520
     atom   40 type  1   force =     0.00027947    0.00019699    0.00015520
     atom   41 type  1   force =    -0.00156099    0.00071121    0.00036141
     atom   42 type  1   force =     0.00156099    0.00071121   -0.00036141
     atom   43 type  1   force =     0.00156099   -0.00071121   -0.00036141
     atom   44 type  1   force =    -0.00156099   -0.00071121    0.00036141
     atom   45 type  3   force =     0.00014515    0.00009841   -0.00025802
     atom   46 type  3   force =    -0.00014515    0.00009841    0.00025802
     atom   47 type  3   force =    -0.00014515   -0.00009841    0.00025802
     atom   48 type  3   force =     0.00014515   -0.00009841   -0.00025802
     atom   49 type  1   force =     0.00024181    0.00010440   -0.00092168
     atom   50 type  1   force =    -0.00024181    0.00010440    0.00092168
     atom   51 type  1   force =    -0.00024181   -0.00010440    0.00092168
     atom   52 type  1   force =     0.00024181   -0.00010440   -0.00092168
     atom   53 type  3   force =    -0.00005750    0.00058534   -0.00018844
     atom   54 type  3   force =     0.00005750    0.00058534    0.00018844
     atom   55 type  3   force =     0.00005750   -0.00058534    0.00018844
     atom   56 type  3   force =    -0.00005750   -0.00058534   -0.00018844
     atom   57 type  3   force =     0.00041438   -0.00005100   -0.00026540
     atom   58 type  3   force =    -0.00041438   -0.00005100    0.00026540
     atom   59 type  3   force =    -0.00041438    0.00005100    0.00026540
     atom   60 type  3   force =     0.00041438    0.00005100   -0.00026540
     atom   61 type  1   force =     0.00052287    0.00026431   -0.00038037
     atom   62 type  1   force =    -0.00052287    0.00026431    0.00038037
     atom   63 type  1   force =    -0.00052287   -0.00026431    0.00038037
     atom   64 type  1   force =     0.00052287   -0.00026431   -0.00038037
     atom   65 type  3   force =     0.00015424    0.00015166   -0.00009145
     atom   66 type  3   force =    -0.00015424    0.00015166    0.00009145
     atom   67 type  3   force =    -0.00015424   -0.00015166    0.00009145
     atom   68 type  3   force =     0.00015424   -0.00015166   -0.00009145
     atom   69 type  1   force =    -0.00094720    0.00129591    0.00000848
     atom   70 type  1   force =     0.00094720    0.00129591   -0.00000848
     atom   71 type  1   force =     0.00094720   -0.00129591   -0.00000848
     atom   72 type  1   force =    -0.00094720   -0.00129591    0.00000848
     atom   73 type  3   force =    -0.00025764   -0.00062433   -0.00054105
     atom   74 type  3   force =     0.00025764   -0.00062433    0.00054105
     atom   75 type  3   force =     0.00025764    0.00062433    0.00054105
     atom   76 type  3   force =    -0.00025764    0.00062433   -0.00054105
     atom   77 type  1   force =     0.00031109   -0.00008083    0.00025688
     atom   78 type  1   force =    -0.00031109   -0.00008083   -0.00025688
     atom   79 type  1   force =    -0.00031109    0.00008083   -0.00025688
     atom   80 type  1   force =     0.00031109    0.00008083    0.00025688
     atom   81 type  3   force =    -0.00018800    0.00022805    0.00013114
     atom   82 type  3   force =     0.00018800    0.00022805   -0.00013114
     atom   83 type  3   force =     0.00018800   -0.00022805   -0.00013114
     atom   84 type  3   force =    -0.00018800   -0.00022805    0.00013114
     atom   85 type  1   force =     0.00156796    0.00025438    0.00132493
     atom   86 type  1   force =    -0.00156796    0.00025438   -0.00132493
     atom   87 type  1   force =    -0.00156796   -0.00025438   -0.00132493
     atom   88 type  1   force =     0.00156796   -0.00025438    0.00132493
     atom   89 type  3   force =    -0.00007620   -0.00047535   -0.00009272
     atom   90 type  3   force =     0.00007620   -0.00047535    0.00009272
     atom   91 type  3   force =     0.00007620    0.00047535    0.00009272
     atom   92 type  3   force =    -0.00007620    0.00047535   -0.00009272
     atom   93 type  3   force =    -0.00156339   -0.00014621    0.00034026
     atom   94 type  3   force =     0.00156339   -0.00014621   -0.00034026
     atom   95 type  3   force =     0.00156339    0.00014621   -0.00034026
     atom   96 type  3   force =    -0.00156339    0.00014621    0.00034026
     atom   97 type  3   force =    -0.00065085    0.00063064   -0.00054123
     atom   98 type  3   force =     0.00065085    0.00063064    0.00054123
     atom   99 type  3   force =     0.00065085   -0.00063064    0.00054123
     atom  100 type  3   force =    -0.00065085   -0.00063064   -0.00054123
     atom  101 type  1   force =    -0.00108619    0.00165867    0.00196145
     atom  102 type  1   force =     0.00108619    0.00165867   -0.00196145
     atom  103 type  1   force =     0.00108619   -0.00165867   -0.00196145
     atom  104 type  1   force =    -0.00108619   -0.00165867    0.00196145
     atom  105 type  3   force =     0.00127046    0.00059952    0.00032971
     atom  106 type  3   force =    -0.00127046    0.00059952   -0.00032971
     atom  107 type  3   force =    -0.00127046   -0.00059952   -0.00032971
     atom  108 type  3   force =     0.00127046   -0.00059952    0.00032971
     atom  109 type  3   force =    -0.00050717   -0.00011256   -0.00075352
     atom  110 type  3   force =     0.00050717   -0.00011256    0.00075352
     atom  111 type  3   force =     0.00050717    0.00011256    0.00075352
     atom  112 type  3   force =    -0.00050717    0.00011256   -0.00075352
     atom  113 type  3   force =     0.00110755   -0.00241717    0.00035844
     atom  114 type  3   force =    -0.00110755   -0.00241717   -0.00035844
     atom  115 type  3   force =    -0.00110755    0.00241717   -0.00035844
     atom  116 type  3   force =     0.00110755    0.00241717    0.00035844
     atom  117 type  1   force =     0.00105674   -0.00051397   -0.00011324
     atom  118 type  1   force =    -0.00105674   -0.00051397    0.00011324
     atom  119 type  1   force =    -0.00105674    0.00051397    0.00011324
     atom  120 type  1   force =     0.00105674    0.00051397   -0.00011324
     atom  121 type  3   force =    -0.00039089   -0.00065295   -0.00024977
     atom  122 type  3   force =     0.00039089   -0.00065295    0.00024977
     atom  123 type  3   force =     0.00039089    0.00065295    0.00024977
     atom  124 type  3   force =    -0.00039089    0.00065295   -0.00024977
     atom  125 type  3   force =     0.00023911    0.00030040    0.00076441
     atom  126 type  3   force =    -0.00023911    0.00030040   -0.00076441
     atom  127 type  3   force =    -0.00023911   -0.00030040   -0.00076441
     atom  128 type  3   force =     0.00023911   -0.00030040    0.00076441
     atom  129 type  3   force =     0.00070331    0.00114184    0.00052664
     atom  130 type  3   force =    -0.00070331    0.00114184   -0.00052664
     atom  131 type  3   force =    -0.00070331   -0.00114184   -0.00052664
     atom  132 type  3   force =     0.00070331   -0.00114184    0.00052664

     Total force =     0.015685     Total SCF correction =     0.000151


     Computing stress (Cartesian axis) and pressure

          total   stress  (Ry/bohr**3)                   (kbar)     P=   20.07
   0.00015028   0.00000000  -0.00000078         22.11      0.00     -0.11
   0.00000000   0.00013093   0.00000000          0.00     19.26      0.00
  -0.00000078   0.00000000   0.00012817         -0.11      0.00     18.85


     Writing output data file scf.save
 
     init_run     :     62.19s CPU     64.28s WALL (       1 calls)
     electrons    :   2475.11s CPU   2563.10s WALL (       1 calls)
     forces       :     30.70s CPU     30.95s WALL (       1 calls)
     stress       :    136.03s CPU    136.47s WALL (       1 calls)

     Called by init_run:
     wfcinit      :     51.72s CPU     53.67s WALL (       1 calls)
     potinit      :      3.67s CPU      3.70s WALL (       1 calls)

     Called by electrons:
     c_bands      :   2247.36s CPU   2322.60s WALL (      19 calls)
     sum_band     :    209.39s CPU    220.17s WALL (      19 calls)
     v_of_rho     :      2.60s CPU      2.84s WALL (      20 calls)
     newd         :      7.02s CPU      8.67s WALL (      20 calls)
     PAW_pot      :      7.51s CPU      7.51s WALL (      20 calls)
     mix_rho      :      0.67s CPU      0.73s WALL (      19 calls)

     Called by c_bands:
     init_us_2    :     11.94s CPU     12.04s WALL (     328 calls)
     cegterg      :   2204.85s CPU   2279.86s WALL (     152 calls)

     Called by sum_band:
     sum_band:bec :      0.11s CPU      0.11s WALL (     152 calls)
     addusdens    :      7.10s CPU      8.68s WALL (      19 calls)

     Called by *egterg:
     h_psi        :   1164.61s CPU   1224.56s WALL (     685 calls)
     s_psi        :    284.40s CPU    284.49s WALL (     685 calls)
     g_psi        :      5.38s CPU      5.39s WALL (     525 calls)
     cdiaghg      :    107.41s CPU    107.43s WALL (     677 calls)

     Called by h_psi:
     h_psi:pot    :   1157.12s CPU   1216.95s WALL (     685 calls)
     h_psi:calbec :    276.04s CPU    276.48s WALL (     685 calls)
     vloc_psi     :    596.54s CPU    655.82s WALL (     685 calls)
     add_vuspsi   :    284.53s CPU    284.65s WALL (     685 calls)

     General routines
     calbec       :    395.82s CPU    396.43s WALL (     877 calls)
     fft          :      3.02s CPU      3.40s WALL (     284 calls)
     fftw         :    628.47s CPU    694.93s WALL (  210538 calls)
 
     Parallel routines
     fft_scatter  :    124.18s CPU    182.70s WALL (  210822 calls)
 
     PWSCF        : 45m16.22s CPU    48m 3.70s WALL

 
   This run was terminated on:  18:59:34  14Dec2017            

=------------------------------------------------------------------------------=
   JOB DONE.
=------------------------------------------------------------------------------=
