
     Program PWSCF v.6.1 (svn rev. 13369) starts on  4Nov2017 at  2:56:34 

     This program is part of the open-source Quantum ESPRESSO suite
     for quantum simulation of materials; please cite
         "P. Giannozzi et al., J. Phys.:Condens. Matter 21 395502 (2009);
          URL http://www.quantum-espresso.org", 
     in publications or presentations arising from this work. More details at
     http://www.quantum-espresso.org/quote

     Parallel version (MPI), running on     8 processors
     R & G space division:  proc/nbgrp/npool/nimage =       8
     Waiting for input...
     Reading input from standard input

     Current dimensions of program PWSCF are:
     Max number of different atomic species (ntypx) = 10
     Max number of k-points (npk) =  40000
     Max angular momentum in pseudopotentials (lmaxx) =  3
               file C.pbe-n-kjpaw_psl.0.1.UPF: wavefunction(s)  2P renormalized
               file N.pbe-n-kjpaw_psl.0.1.UPF: wavefunction(s)  2P renormalized
               file H.pbe-kjpaw_psl.0.1.UPF: wavefunction(s)  1S renormalized
               file O.pbe-n-kjpaw_psl.0.1.UPF: wavefunction(s)  2P renormalized

     -------------------------------------
     Parameters for Dispersion Correction:
     -------------------------------------
       atom      VdW radius       C_6     

        C          2.744         60.710
        N          2.640         42.670
        H          1.892          4.857
        O          2.536         24.284

     Subspace diagonalization in iterative solution of the eigenvalue problem:
     a serial algorithm will be used

 
     Parallelization info
     --------------------
     sticks:   dense  smooth     PW     G-vecs:    dense   smooth      PW
     Min         880     880    237                64911    64911    8970
     Max         881     881    238                64913    64913    8971
     Sum        7041    7041   1897               519295   519295   71765
 


     bravais-lattice index     =            0
     lattice parameter (alat)  =      19.5700  a.u.
     unit-cell volume          =    3844.9151 (a.u.)^3
     number of atoms/cell      =           60
     number of atomic types    =            4
     number of electrons       =       144.00
     number of Kohn-Sham states=           86
     kinetic-energy cutoff     =     100.0000  Ry
     charge density cutoff     =     400.0000  Ry
     convergence threshold     =      1.0E-08
     mixing beta               =       0.5000
     number of iterations used =            8  plain     mixing
     Exchange-correlation      =  SLA  PW   PBX  PBC ( 1  4  3  4 0 0)

     celldm(1)=  19.570004  celldm(2)=   0.000000  celldm(3)=   0.000000
     celldm(4)=   0.000000  celldm(5)=   0.000000  celldm(6)=   0.000000

     crystal axes: (cart. coord. in units of alat)
               a(1) = (   1.000000   0.000000   0.000000 )  
               a(2) = (   0.000000   0.578409   0.000000 )  
               a(3) = (  -0.289887   0.000000   0.886909 )  

     reciprocal axes: (cart. coord. in units 2 pi/alat)
               b(1) = (  1.000000  0.000000  0.326850 )  
               b(2) = (  0.000000  1.728881  0.000000 )  
               b(3) = (  0.000000  0.000000  1.127511 )  


     PseudoPot. # 1 for  C read from file:
     /scratch/ahofstet/pseudo/C.pbe-n-kjpaw_psl.0.1.UPF
     MD5 check sum: 430fe95172b1e11ef3f8ed03bac87931
     Pseudo is Projector augmented-wave + core cor, Zval =  4.0
     Generated using "atomic" code by A. Dal Corso  v.5.0.99 svn rev. 10869
     Shape of augmentation charge: BESSEL
     Using radial grid of 1073 points,  4 beta functions with: 
                l(1) =   0
                l(2) =   0
                l(3) =   1
                l(4) =   1
     Q(r) pseudized with 0 coefficients 


     PseudoPot. # 2 for  N read from file:
     /scratch/ahofstet/pseudo/N.pbe-n-kjpaw_psl.0.1.UPF
     MD5 check sum: f73187c8b701007e77325f868c9291d7
     Pseudo is Projector augmented-wave + core cor, Zval =  5.0
     Generated using "atomic" code by A. Dal Corso  v.5.0.99 svn rev. 10869
     Shape of augmentation charge: PSQ
     Using radial grid of 1085 points,  4 beta functions with: 
                l(1) =   0
                l(2) =   0
                l(3) =   1
                l(4) =   1
     Q(r) pseudized with 0 coefficients 


     PseudoPot. # 3 for  H read from file:
     /scratch/ahofstet/pseudo/H.pbe-kjpaw_psl.0.1.UPF
     MD5 check sum: 94e484f906d9e9773b2f6e52662335b2
     Pseudo is Projector augmented-wave, Zval =  1.0
     Generated using "atomic" code by A. Dal Corso  v.5.0.99 svn rev. 10869
     Shape of augmentation charge: PSQ
     Using radial grid of  929 points,  2 beta functions with: 
                l(1) =   0
                l(2) =   0
     Q(r) pseudized with 0 coefficients 


     PseudoPot. # 4 for  O read from file:
     /scratch/ahofstet/pseudo/O.pbe-n-kjpaw_psl.0.1.UPF
     MD5 check sum: 3f94a2996a3169367d6eb21d9b593f20
     Pseudo is Projector augmented-wave + core cor, Zval =  6.0
     Generated using "atomic" code by A. Dal Corso  v.5.0.99 svn rev. 10869
     Shape of augmentation charge: BESSEL
     Using radial grid of 1095 points,  4 beta functions with: 
                l(1) =   0
                l(2) =   0
                l(3) =   1
                l(4) =   1
     Q(r) pseudized with 0 coefficients 


     atomic species   valence    mass     pseudopotential
        C              4.00    12.01070      C( 1.00)
        N              5.00    14.00670      N( 1.00)
        H              1.00     1.00794      H( 1.00)
        O              6.00    15.99940      O( 1.00)

      2 Sym. Ops., with inversion, found
          (note:  2 additional sym.ops. were found but ignored
           their fractional translations are incommensurate with FFT grid)


   Cartesian axes

     site n.     atom                  positions (alat units)
         1           C   tau(   1) = (   0.1499721   0.1303602   0.0097573  )
         2           C   tau(   2) = (   0.7050845   0.4195645   0.4336973  )
         3           C   tau(   3) = (   0.5601412   0.4480485   0.8771520  )
         4           C   tau(   4) = (   0.0050288   0.1588441   0.4532120  )
         5           C   tau(   5) = (   0.2675646   0.2200848   0.0109759  )
         6           C   tau(   6) = (   0.5874920   0.5092892   0.4324788  )
         7           C   tau(   7) = (   0.4425487   0.3583238   0.8759335  )
         8           C   tau(   8) = (   0.1226213   0.0691195   0.4544305  )
         9           C   tau(   9) = (   0.2284411   0.3510992   0.0667141  )
        10           C   tau(  10) = (   0.6266156   0.0618949   0.3767406  )
        11           C   tau(  11) = (   0.4816722   0.2273094   0.8201953  )
        12           C   tau(  12) = (   0.0834978   0.5165138   0.5101688  )
        13           C   tau(  13) = (   0.3777038   0.1600388   0.0903939  )
        14           C   tau(  14) = (   0.4773528   0.4492431   0.3530608  )
        15           C   tau(  15) = (   0.3324095   0.4183699   0.7965155  )
        16           C   tau(  16) = (   0.2327605   0.1291655   0.5338486  )
        17           O   tau(  17) = (   0.0911652   0.1041203   0.1126825  )
        18           O   tau(  18) = (   0.7638915   0.3933246   0.3307721  )
        19           O   tau(  19) = (   0.6189481   0.4742884   0.7742268  )
        20           O   tau(  20) = (  -0.0537781   0.1850840   0.5561372  )
        21           N   tau(  21) = (  -0.1759533   0.0827174   0.7824346  )
        22           N   tau(  22) = (   0.7411233   0.3719217   0.5479294  )
        23           N   tau(  23) = (   0.8860667   0.4956913   0.1044747  )
        24           N   tau(  24) = (  -0.0310100   0.2064869   0.3389800  )
        25           H   tau(  25) = (   0.0097097   0.2327621   0.7972349  )
        26           H   tau(  26) = (   0.5554603   0.5219664   0.5331292  )
        27           H   tau(  27) = (   0.7004037   0.3456465   0.0896745  )
        28           H   tau(  28) = (   0.1546530   0.0564422   0.3537802  )
        29           H   tau(  29) = (   0.3124722   0.4163169   0.0708726  )
        30           H   tau(  30) = (   0.5425845   0.1271125   0.3725820  )
        31           H   tau(  31) = (   0.3976411   0.1620918   0.8160367  )
        32           H   tau(  32) = (   0.1675289   0.4512961   0.5143273  )
        33           H   tau(  33) = (   0.1532596   0.3980620   0.0081912  )
        34           H   tau(  34) = (   0.7017971   0.1088577   0.4352635  )
        35           H   tau(  35) = (   0.5568538   0.1803467   0.8787181  )
        36           H   tau(  36) = (   0.0083162   0.4695510   0.4516459  )
        37           H   tau(  37) = (   0.1912267   0.3391728   0.1654455  )
        38           H   tau(  38) = (   0.6638300   0.0499685   0.2780092  )
        39           H   tau(  39) = (   0.5188866   0.2392359   0.7214639  )
        40           H   tau(  40) = (   0.0462834   0.5284402   0.6089002  )
        41           H   tau(  41) = (   0.4584982   0.2286418   0.0974379  )
        42           H   tau(  42) = (   0.3965584   0.5178462   0.3460168  )
        43           H   tau(  43) = (   0.2516151   0.3497668   0.7894715  )
        44           H   tau(  44) = (   0.3135549   0.0605625   0.5408926  )
        45           H   tau(  45) = (   0.4136137   0.0700019   0.0470702  )
        46           H   tau(  46) = (   0.4414429   0.3592062   0.3963845  )
        47           H   tau(  47) = (   0.2964996   0.5084068   0.8398391  )
        48           H   tau(  48) = (   0.2686704   0.2192024   0.4905249  )
        49           H   tau(  49) = (   0.3440785   0.1387125   0.1888744  )
        50           H   tau(  50) = (   0.5109782   0.4279168   0.2545803  )
        51           H   tau(  51) = (   0.3660349   0.4396962   0.6980350  )
        52           H   tau(  52) = (   0.1991351   0.1504918   0.6323291  )
        53           H   tau(  53) = (  -0.1257420   0.1065567   0.7003758  )
        54           H   tau(  54) = (   0.6909120   0.3957611   0.6299883  )
        55           H   tau(  55) = (   0.8358553   0.4718519   0.1865336  )
        56           H   tau(  56) = (   0.0192014   0.1826476   0.2569211  )
        57           H   tau(  57) = (  -0.2524662   0.0185447   0.7775376  )
        58           H   tau(  58) = (   0.8176362   0.3077490   0.5528265  )
        59           H   tau(  59) = (   0.9625795   0.5598640   0.1093718  )
        60           H   tau(  60) = (  -0.1075228   0.2706596   0.3340829  )

     number of k points=     8
                       cart. coord. in units 2pi/alat
        k(    1) = (   0.0000000   0.0000000   0.0000000), wk =   0.1666667
        k(    2) = (   0.0000000   0.0000000  -0.5637555), wk =   0.1666667
        k(    3) = (   0.0000000   0.5762938   0.0000000), wk =   0.3333333
        k(    4) = (   0.0000000   0.5762938  -0.5637555), wk =   0.3333333
        k(    5) = (  -0.5000000   0.0000000  -0.1634252), wk =   0.1666667
        k(    6) = (  -0.5000000   0.0000000  -0.7271806), wk =   0.1666667
        k(    7) = (  -0.5000000   0.5762938  -0.1634252), wk =   0.3333333
        k(    8) = (  -0.5000000   0.5762938  -0.7271806), wk =   0.3333333

     Dense  grid:   519295 G-vectors     FFT dimensions: ( 125,  75, 120)

     Estimated max dynamical RAM per process >     256.33MB

     Estimated total allocated dynamical RAM >    2050.67MB

     Check: negative/imaginary core charge=   -0.000002    0.000000

     Initial potential from superposition of free atoms

     starting charge  143.99896, renormalised to  144.00000
     Starting wfc are  132 randomized atomic wfcs
     Checking if some PAW data can be deallocated... 

     total cpu time spent up to now is       15.5 secs

     per-process dynamical memory:   204.9 Mb

     Self-consistent Calculation

     iteration #  1     ecut=   100.00 Ry     beta=0.50
     Davidson diagonalization with overlap
     ethr =  1.00E-02,  avg # of iterations =  4.8

     total cpu time spent up to now is       45.7 secs

     total energy              =    -616.41419025 Ry
     Harris-Foulkes estimate   =    -620.14615357 Ry
     estimated scf accuracy    <       6.89608841 Ry

     iteration #  2     ecut=   100.00 Ry     beta=0.50
     Davidson diagonalization with overlap
     ethr =  4.79E-03,  avg # of iterations =  2.0

     total cpu time spent up to now is       61.8 secs

     total energy              =    -617.11541561 Ry
     Harris-Foulkes estimate   =    -617.36884469 Ry
     estimated scf accuracy    <       0.57377723 Ry

     iteration #  3     ecut=   100.00 Ry     beta=0.50
     Davidson diagonalization with overlap
     ethr =  3.98E-04,  avg # of iterations =  5.0

     total cpu time spent up to now is       93.6 secs

     total energy              =    -617.76862775 Ry
     Harris-Foulkes estimate   =    -618.07162309 Ry
     estimated scf accuracy    <       0.92789441 Ry

     iteration #  4     ecut=   100.00 Ry     beta=0.50
     Davidson diagonalization with overlap
     ethr =  3.98E-04,  avg # of iterations =  1.1

     total cpu time spent up to now is      108.1 secs

     total energy              =    -617.51790490 Ry
     Harris-Foulkes estimate   =    -617.79701021 Ry
     estimated scf accuracy    <       0.38291362 Ry

     iteration #  5     ecut=   100.00 Ry     beta=0.50
     Davidson diagonalization with overlap
     ethr =  2.66E-04,  avg # of iterations =  4.5

     total cpu time spent up to now is      139.0 secs

     total energy              =    -617.77031303 Ry
     Harris-Foulkes estimate   =    -618.24184877 Ry
     estimated scf accuracy    <       1.43603305 Ry

     iteration #  6     ecut=   100.00 Ry     beta=0.50
     Davidson diagonalization with overlap
     ethr =  2.66E-04,  avg # of iterations =  2.0

     total cpu time spent up to now is      154.2 secs

     total energy              =    -617.63653700 Ry
     Harris-Foulkes estimate   =    -617.80923414 Ry
     estimated scf accuracy    <       0.57680493 Ry

     iteration #  7     ecut=   100.00 Ry     beta=0.50
     Davidson diagonalization with overlap
     ethr =  2.66E-04,  avg # of iterations =  3.8

     total cpu time spent up to now is      174.5 secs

     total energy              =    -617.78000930 Ry
     Harris-Foulkes estimate   =    -617.78627196 Ry
     estimated scf accuracy    <       0.01317561 Ry

     iteration #  8     ecut=   100.00 Ry     beta=0.50
     Davidson diagonalization with overlap
     ethr =  9.15E-06,  avg # of iterations =  7.5

     total cpu time spent up to now is      205.5 secs

     total energy              =    -617.78701521 Ry
     Harris-Foulkes estimate   =    -617.78712032 Ry
     estimated scf accuracy    <       0.00036191 Ry

     iteration #  9     ecut=   100.00 Ry     beta=0.50
     Davidson diagonalization with overlap
     ethr =  2.51E-07,  avg # of iterations =  2.6

     total cpu time spent up to now is      222.0 secs

     total energy              =    -617.78707898 Ry
     Harris-Foulkes estimate   =    -617.78707054 Ry
     estimated scf accuracy    <       0.00003928 Ry

     iteration # 10     ecut=   100.00 Ry     beta=0.50
     Davidson diagonalization with overlap
     ethr =  2.73E-08,  avg # of iterations =  4.0

     total cpu time spent up to now is      250.0 secs

     total energy              =    -617.78706491 Ry
     Harris-Foulkes estimate   =    -617.78714665 Ry
     estimated scf accuracy    <       0.00020689 Ry

     iteration # 11     ecut=   100.00 Ry     beta=0.50
     Davidson diagonalization with overlap
     ethr =  2.73E-08,  avg # of iterations =  5.1

     total cpu time spent up to now is      272.9 secs

     total energy              =    -617.78708782 Ry
     Harris-Foulkes estimate   =    -617.78708663 Ry
     estimated scf accuracy    <       0.00001461 Ry

     iteration # 12     ecut=   100.00 Ry     beta=0.50
     Davidson diagonalization with overlap
     ethr =  1.01E-08,  avg # of iterations =  1.8

     total cpu time spent up to now is      287.8 secs

     total energy              =    -617.78708282 Ry
     Harris-Foulkes estimate   =    -617.78708828 Ry
     estimated scf accuracy    <       0.00001649 Ry

     iteration # 13     ecut=   100.00 Ry     beta=0.50
     Davidson diagonalization with overlap
     ethr =  1.01E-08,  avg # of iterations =  1.0

     total cpu time spent up to now is      302.3 secs

     total energy              =    -617.78708144 Ry
     Harris-Foulkes estimate   =    -617.78708331 Ry
     estimated scf accuracy    <       0.00000677 Ry

     iteration # 14     ecut=   100.00 Ry     beta=0.50
     Davidson diagonalization with overlap
     ethr =  4.70E-09,  avg # of iterations =  3.0

     total cpu time spent up to now is      321.8 secs

     total energy              =    -617.78708281 Ry
     Harris-Foulkes estimate   =    -617.78708290 Ry
     estimated scf accuracy    <       0.00000048 Ry

     iteration # 15     ecut=   100.00 Ry     beta=0.50
     Davidson diagonalization with overlap
     ethr =  3.32E-10,  avg # of iterations =  3.9

     total cpu time spent up to now is      341.4 secs

     total energy              =    -617.78708277 Ry
     Harris-Foulkes estimate   =    -617.78708292 Ry
     estimated scf accuracy    <       0.00000024 Ry

     iteration # 16     ecut=   100.00 Ry     beta=0.50
     Davidson diagonalization with overlap
     ethr =  1.66E-10,  avg # of iterations =  4.0

     total cpu time spent up to now is      366.0 secs

     total energy              =    -617.78708288 Ry
     Harris-Foulkes estimate   =    -617.78708294 Ry
     estimated scf accuracy    <       0.00000018 Ry

     iteration # 17     ecut=   100.00 Ry     beta=0.50
     Davidson diagonalization with overlap
     ethr =  1.27E-10,  avg # of iterations =  1.0

     total cpu time spent up to now is      380.5 secs

     total energy              =    -617.78708284 Ry
     Harris-Foulkes estimate   =    -617.78708288 Ry
     estimated scf accuracy    <       0.00000008 Ry

     iteration # 18     ecut=   100.00 Ry     beta=0.50
     Davidson diagonalization with overlap
     ethr =  5.34E-11,  avg # of iterations =  3.2

     total cpu time spent up to now is      403.6 secs

     total energy              =    -617.78708288 Ry
     Harris-Foulkes estimate   =    -617.78708289 Ry
     estimated scf accuracy    <       0.00000003 Ry

     iteration # 19     ecut=   100.00 Ry     beta=0.50
     Davidson diagonalization with overlap
     ethr =  1.82E-11,  avg # of iterations =  1.0

     total cpu time spent up to now is      418.1 secs

     total energy              =    -617.78708288 Ry
     Harris-Foulkes estimate   =    -617.78708288 Ry
     estimated scf accuracy    <       0.00000001 Ry

     iteration # 20     ecut=   100.00 Ry     beta=0.50
     Davidson diagonalization with overlap
     ethr =  9.56E-12,  avg # of iterations =  3.0

     total cpu time spent up to now is      438.7 secs

     End of self-consistent calculation

          k = 0.0000 0.0000 0.0000 ( 64857 PWs)   bands (ev):

   -20.9334 -20.8582 -20.8099 -20.7449 -17.5387 -17.3684 -17.2848 -17.1695
   -14.8124 -14.7681 -14.7239 -14.7146 -11.8847 -11.8739 -11.8553 -11.8358
   -10.9465 -10.8018 -10.5295 -10.5017  -9.2924  -9.1582  -8.6257  -8.5562
    -7.9788  -7.7987  -7.7657  -7.3675  -7.2844  -7.1236  -6.9153  -6.8507
    -6.0210  -5.9678  -5.8766  -5.8198  -5.7685  -5.6938  -5.6557  -5.6254
    -5.5806  -5.5167  -5.1719  -4.7187  -4.5537  -4.5330  -4.4307  -4.4143
    -4.1938  -4.1221  -4.1040  -4.0023  -3.7319  -3.7010  -3.5609  -3.3862
    -3.2310  -3.1859  -3.1368  -3.1050  -3.0982  -2.9572  -2.9369  -2.9360
    -1.6630  -1.5178  -1.4771  -1.4580  -1.3754  -1.2335  -1.0085  -0.9600
     3.8906   4.1314   4.3138   4.4013   4.5643   5.2505   5.5609   5.6364
     5.7509   6.1232   6.2568   6.4277   6.8079   6.8821

          k = 0.0000 0.0000-0.5638 ( 64882 PWs)   bands (ev):

   -20.8967 -20.8967 -20.7780 -20.7780 -17.4146 -17.4146 -17.2682 -17.2682
   -14.7931 -14.7931 -14.7163 -14.7163 -11.8804 -11.8804 -11.8452 -11.8452
   -10.8745 -10.8745 -10.5062 -10.5062  -8.9625  -8.9625  -8.8402  -8.8402
    -7.9768  -7.9768  -7.6487  -7.6487  -7.1906  -7.1906  -6.9223  -6.9223
    -5.8793  -5.8793  -5.8461  -5.8461  -5.6890  -5.6890  -5.5724  -5.5724
    -5.4702  -5.4702  -5.0170  -5.0170  -4.4996  -4.4996  -4.4572  -4.4572
    -4.1674  -4.1674  -4.0457  -4.0457  -3.6382  -3.6382  -3.5899  -3.5899
    -3.2025  -3.2025  -3.1447  -3.1447  -3.0533  -3.0533  -2.9150  -2.9150
    -1.6244  -1.6244  -1.5510  -1.5510  -1.2117  -1.2117  -0.9688  -0.9688
     4.0822   4.0822   4.4760   4.4760   4.5021   4.5021   5.6195   5.6195
     6.1240   6.1240   6.3912   6.3912   6.8867   6.8867

          k = 0.0000 0.5763 0.0000 ( 64926 PWs)   bands (ev):

   -20.9176 -20.8828 -20.7862 -20.7565 -17.5075 -17.4317 -17.2335 -17.1853
   -14.7884 -14.7676 -14.7344 -14.7285 -11.9197 -11.9193 -11.8973 -11.8966
   -10.8480 -10.7622 -10.5270 -10.5227  -9.2403  -9.1768  -8.5930  -8.5553
    -8.0221  -7.9434  -7.6514  -7.4925  -7.2667  -7.2390  -6.7939  -6.7577
    -5.9897  -5.9492  -5.8296  -5.7812  -5.7082  -5.6952  -5.5933  -5.5575
    -5.5572  -5.4708  -5.0720  -4.8466  -4.5375  -4.5151  -4.4490  -4.4076
    -4.0538  -4.0007  -3.9900  -3.9618  -3.8171  -3.7582  -3.4999  -3.4657
    -3.3073  -3.2873  -3.1882  -3.1785  -3.1074  -3.0798  -3.0591  -2.9974
    -1.6419  -1.5758  -1.4442  -1.3942  -1.3570  -1.3208  -0.9788  -0.9447
     3.9772   4.1638   4.3935   4.4134   4.6480   5.4521   5.5258   5.7725
     5.8135   5.9154   6.1125   6.3592   6.4983   6.6504

          k = 0.0000 0.5763-0.5638 ( 65004 PWs)   bands (ev):

   -20.8930 -20.8930 -20.7801 -20.7801 -17.4120 -17.4120 -17.2691 -17.2691
   -14.7785 -14.7785 -14.7309 -14.7309 -11.9198 -11.9198 -11.8967 -11.8967
   -10.7984 -10.7984 -10.5222 -10.5222  -8.9412  -8.9412  -8.8425  -8.8425
    -7.9336  -7.9336  -7.7660  -7.7660  -7.2390  -7.2390  -6.8446  -6.8446
    -5.8531  -5.8531  -5.7340  -5.7340  -5.5990  -5.5990  -5.5426  -5.5426
    -5.4206  -5.4206  -5.1382  -5.1382  -4.5040  -4.5039  -4.4601  -4.4601
    -4.0239  -4.0239  -3.9591  -3.9591  -3.7154  -3.7154  -3.5740  -3.5740
    -3.2818  -3.2818  -3.1932  -3.1932  -3.1153  -3.1153  -3.0366  -3.0366
    -1.7024  -1.7024  -1.4239  -1.4238  -1.2786  -1.2786  -0.9353  -0.9353
     4.0813   4.0813   4.4166   4.4166   4.8932   4.8932   5.7393   5.7393
     5.7661   5.7661   6.3456   6.3456   6.5466   6.5466

          k =-0.5000 0.0000-0.1634 ( 64866 PWs)   bands (ev):

   -20.9333 -20.8582 -20.8099 -20.7449 -17.5388 -17.3683 -17.2849 -17.1694
   -14.7795 -14.7612 -14.7493 -14.7309 -11.8798 -11.8663 -11.8631 -11.8435
   -10.8545 -10.8408 -10.6066 -10.4758  -9.2505  -9.1851  -8.6149  -8.5860
    -8.0282  -7.7934  -7.7505  -7.3929  -7.3320  -7.1747  -6.8286  -6.6681
    -6.0916  -5.9280  -5.8908  -5.7768  -5.7657  -5.7224  -5.6869  -5.6065
    -5.6026  -5.5525  -5.1134  -4.7666  -4.6103  -4.5183  -4.4978  -4.3607
    -4.2725  -4.1597  -4.0362  -3.9127  -3.8408  -3.5831  -3.5724  -3.4097
    -3.1945  -3.1265  -3.1167  -3.1102  -3.0718  -3.0511  -3.0356  -2.8767
    -1.6633  -1.5142  -1.4886  -1.4577  -1.3752  -1.2434  -0.9960  -0.9341
     3.9951   4.2127   4.3420   4.4151   4.4830   4.8987   5.3201   5.6208
     6.1077   6.1566   6.2287   6.6714   6.8065   6.8919

          k =-0.5000 0.0000-0.7272 ( 64910 PWs)   bands (ev):

   -20.8966 -20.8966 -20.7780 -20.7780 -17.4148 -17.4148 -17.2681 -17.2681
   -14.7691 -14.7691 -14.7413 -14.7413 -11.8739 -11.8739 -11.8522 -11.8522
   -10.8469 -10.8469 -10.5318 -10.5318  -8.9828  -8.9828  -8.8274  -8.8274
    -7.9517  -7.9517  -7.6885  -7.6885  -7.2557  -7.2557  -6.7989  -6.7989
    -5.9265  -5.9265  -5.7560  -5.7560  -5.7092  -5.7092  -5.6381  -5.6381
    -5.3894  -5.3894  -5.0965  -5.0965  -4.5424  -4.5424  -4.4583  -4.4583
    -4.2160  -4.2160  -3.9508  -3.9508  -3.7110  -3.7110  -3.5106  -3.5106
    -3.1662  -3.1661  -3.1038  -3.1038  -3.0768  -3.0768  -2.9734  -2.9734
    -1.6322  -1.6322  -1.5560  -1.5560  -1.2263  -1.2263  -0.9355  -0.9355
     4.0637   4.0637   4.4881   4.4881   4.6334   4.6334   5.2950   5.2950
     6.1204   6.1204   6.5319   6.5319   6.9024   6.9024

          k =-0.5000 0.5763-0.1634 ( 64942 PWs)   bands (ev):

   -20.9176 -20.8829 -20.7862 -20.7565 -17.5075 -17.4316 -17.2336 -17.1852
   -14.8009 -14.7829 -14.7230 -14.7107 -11.9243 -11.9216 -11.8956 -11.8930
   -10.8223 -10.8015 -10.5572 -10.4828  -9.2196  -9.1917  -8.5830  -8.5697
    -8.0277  -7.8996  -7.6828  -7.4813  -7.2505  -7.1902  -6.8772  -6.7803
    -6.0327  -5.9444  -5.8783  -5.8356  -5.6628  -5.6364  -5.5698  -5.5508
    -5.5392  -5.4670  -5.0357  -4.9041  -4.5035  -4.5033  -4.4141  -4.3920
    -4.0996  -4.0417  -3.9437  -3.8808  -3.8127  -3.7338  -3.5566  -3.5483
    -3.3649  -3.3500  -3.1219  -3.1086  -3.1057  -3.0902  -3.0694  -2.9921
    -1.6422  -1.5746  -1.4349  -1.3955  -1.3546  -1.3106  -0.9928  -0.9550
     4.0421   4.1429   4.4376   4.4400   4.6872   5.1132   5.5462   5.6379
     5.8387   5.9955   6.1525   6.5068   6.5902   6.5977

          k =-0.5000 0.5763-0.7272 ( 64934 PWs)   bands (ev):

   -20.8930 -20.8930 -20.7801 -20.7801 -17.4120 -17.4120 -17.2691 -17.2691
   -14.7919 -14.7919 -14.7168 -14.7168 -11.9233 -11.9233 -11.8947 -11.8947
   -10.8033 -10.8033 -10.5168 -10.5168  -8.9426  -8.9426  -8.8433  -8.8433
    -7.9089  -7.9089  -7.7809  -7.7809  -7.2030  -7.2030  -6.8971  -6.8971
    -5.9235  -5.9235  -5.7165  -5.7165  -5.6188  -5.6188  -5.4984  -5.4984
    -5.4001  -5.4001  -5.1108  -5.1108  -4.4786  -4.4786  -4.4557  -4.4557
    -4.0636  -4.0636  -3.9041  -3.9041  -3.7015  -3.7015  -3.6425  -3.6425
    -3.3585  -3.3585  -3.1383  -3.1383  -3.0843  -3.0843  -3.0482  -3.0482
    -1.7009  -1.7009  -1.4224  -1.4224  -1.2662  -1.2662  -0.9531  -0.9531
     4.0770   4.0770   4.4312   4.4312   4.9568   4.9568   5.5987   5.5988
     5.7709   5.7709   6.3333   6.3333   6.5914   6.5915

     highest occupied, lowest unoccupied level (ev):    -0.9341    3.8906

!    total energy              =    -617.78708288 Ry
     Harris-Foulkes estimate   =    -617.78708288 Ry
     estimated scf accuracy    <          8.7E-10 Ry

     total all-electron energy =     -2302.595324 Ry

     The total energy is the sum of the following terms:

     one-electron contribution =    -429.72283915 Ry
     hartree contribution      =     262.30016269 Ry
     xc contribution           =    -143.75235110 Ry
     ewald contribution        =    -128.84613779 Ry
     Dispersion Correction     =      -0.20797986 Ry
     one-center paw contrib.   =    -177.55793767 Ry

     convergence has been achieved in  20 iterations

     Forces acting on atoms (cartesian axes, Ry/au):

     atom    1 type  1   force =     0.00458709    0.00271237   -0.00002916
     atom    2 type  1   force =    -0.00458771    0.00270946    0.00002901
     atom    3 type  1   force =    -0.00458709   -0.00271237    0.00002916
     atom    4 type  1   force =     0.00458771   -0.00270946   -0.00002901
     atom    5 type  1   force =    -0.00169851   -0.00401036   -0.00200140
     atom    6 type  1   force =     0.00169833   -0.00400970    0.00200229
     atom    7 type  1   force =     0.00169851    0.00401036    0.00200140
     atom    8 type  1   force =    -0.00169833    0.00400970   -0.00200229
     atom    9 type  1   force =    -0.00001385    0.00756861    0.00162624
     atom   10 type  1   force =     0.00001428    0.00756816   -0.00162701
     atom   11 type  1   force =     0.00001385   -0.00756861   -0.00162624
     atom   12 type  1   force =    -0.00001428   -0.00756816    0.00162701
     atom   13 type  1   force =    -0.00372552    0.00100767    0.00026328
     atom   14 type  1   force =     0.00372546    0.00101647   -0.00026319
     atom   15 type  1   force =     0.00372552   -0.00100767   -0.00026328
     atom   16 type  1   force =    -0.00372546   -0.00101647    0.00026319
     atom   17 type  4   force =     0.00142567   -0.00158702   -0.00036781
     atom   18 type  4   force =    -0.00142628   -0.00158689    0.00036831
     atom   19 type  4   force =    -0.00142567    0.00158702    0.00036781
     atom   20 type  4   force =     0.00142628    0.00158689   -0.00036831
     atom   21 type  2   force =     0.00178126   -0.00195847    0.00106565
     atom   22 type  2   force =    -0.00178131   -0.00195827   -0.00106589
     atom   23 type  2   force =    -0.00178126    0.00195847   -0.00106565
     atom   24 type  2   force =     0.00178131    0.00195827    0.00106589
     atom   25 type  3   force =     0.00081953    0.00036651    0.00056579
     atom   26 type  3   force =    -0.00081946    0.00036657   -0.00056590
     atom   27 type  3   force =    -0.00081953   -0.00036651   -0.00056579
     atom   28 type  3   force =     0.00081946   -0.00036657    0.00056590
     atom   29 type  3   force =    -0.00211085   -0.00263890   -0.00054792
     atom   30 type  3   force =     0.00211058   -0.00263885    0.00054785
     atom   31 type  3   force =     0.00211085    0.00263890    0.00054792
     atom   32 type  3   force =    -0.00211058    0.00263885   -0.00054785
     atom   33 type  3   force =     0.00038098   -0.00092812    0.00086912
     atom   34 type  3   force =    -0.00038074   -0.00092795   -0.00086904
     atom   35 type  3   force =    -0.00038098    0.00092812   -0.00086912
     atom   36 type  3   force =     0.00038074    0.00092795    0.00086904
     atom   37 type  3   force =    -0.00008453    0.00052580    0.00005285
     atom   38 type  3   force =     0.00008458    0.00052578   -0.00005292
     atom   39 type  3   force =     0.00008453   -0.00052580   -0.00005285
     atom   40 type  3   force =    -0.00008458   -0.00052578    0.00005292
     atom   41 type  3   force =     0.00025088   -0.00096823   -0.00062280
     atom   42 type  3   force =    -0.00025100   -0.00096817    0.00062281
     atom   43 type  3   force =    -0.00025088    0.00096823    0.00062280
     atom   44 type  3   force =     0.00025100    0.00096817   -0.00062281
     atom   45 type  3   force =    -0.00063684   -0.00063060   -0.00024460
     atom   46 type  3   force =     0.00063696   -0.00063029    0.00024450
     atom   47 type  3   force =     0.00063684    0.00063060    0.00024460
     atom   48 type  3   force =    -0.00063696    0.00063029   -0.00024450
     atom   49 type  3   force =     0.00018079   -0.00015389   -0.00040969
     atom   50 type  3   force =    -0.00018078   -0.00015388    0.00040971
     atom   51 type  3   force =    -0.00018079    0.00015389    0.00040969
     atom   52 type  3   force =     0.00018078    0.00015388   -0.00040971
     atom   53 type  3   force =     0.00077609    0.00084465   -0.00091760
     atom   54 type  3   force =    -0.00077611    0.00084450    0.00091767
     atom   55 type  3   force =    -0.00077609   -0.00084465    0.00091760
     atom   56 type  3   force =     0.00077611   -0.00084450   -0.00091767
     atom   57 type  3   force =     0.00003496    0.00041539    0.00036420
     atom   58 type  3   force =    -0.00003494    0.00041531   -0.00036427
     atom   59 type  3   force =    -0.00003496   -0.00041539   -0.00036420
     atom   60 type  3   force =     0.00003494   -0.00041531    0.00036427

     Total force =     0.025213     Total SCF correction =     0.000056


     Computing stress (Cartesian axis) and pressure

          total   stress  (Ry/bohr**3)                   (kbar)     P=   -6.73
  -0.00007082   0.00000000  -0.00000863        -10.42      0.00     -1.27
   0.00000000  -0.00002557  -0.00000000          0.00     -3.76     -0.00
  -0.00000863  -0.00000000  -0.00004077         -1.27     -0.00     -6.00


     Writing output data file scf.save
 
     init_run     :     14.32s CPU     14.89s WALL (       1 calls)
     electrons    :    405.20s CPU    423.33s WALL (       1 calls)
     forces       :      7.56s CPU      7.65s WALL (       1 calls)
     stress       :     19.69s CPU     19.88s WALL (       1 calls)

     Called by init_run:
     wfcinit      :      8.04s CPU      8.45s WALL (       1 calls)
     potinit      :      2.20s CPU      2.26s WALL (       1 calls)

     Called by electrons:
     c_bands      :    351.68s CPU    366.40s WALL (      20 calls)
     sum_band     :     43.52s CPU     45.98s WALL (      20 calls)
     v_of_rho     :      1.46s CPU      1.62s WALL (      21 calls)
     newd         :      2.97s CPU      3.69s WALL (      21 calls)
     PAW_pot      :      5.12s CPU      5.14s WALL (      21 calls)
     mix_rho      :      0.34s CPU      0.37s WALL (      20 calls)

     Called by c_bands:
     init_us_2    :      3.29s CPU      3.31s WALL (     344 calls)
     cegterg      :    341.43s CPU    356.08s WALL (     160 calls)

     Called by sum_band:
     sum_band:bec :      0.03s CPU      0.03s WALL (     160 calls)
     addusdens    :      3.04s CPU      3.69s WALL (      20 calls)

     Called by *egterg:
     h_psi        :    218.44s CPU    228.78s WALL (     682 calls)
     s_psi        :     32.69s CPU     32.75s WALL (     682 calls)
     g_psi        :      1.38s CPU      1.38s WALL (     514 calls)
     cdiaghg      :     12.82s CPU     12.84s WALL (     674 calls)

     Called by h_psi:
     h_psi:pot    :    216.97s CPU    227.27s WALL (     682 calls)
     h_psi:calbec :     32.66s CPU     32.81s WALL (     682 calls)
     vloc_psi     :    151.68s CPU    161.79s WALL (     682 calls)
     add_vuspsi   :     32.63s CPU     32.68s WALL (     682 calls)

     General routines
     calbec       :     46.74s CPU     46.94s WALL (     882 calls)
     fft          :      0.91s CPU      1.19s WALL (     297 calls)
     fftw         :    163.15s CPU    174.43s WALL (   94424 calls)
 
     Parallel routines
     fft_scatter  :     38.08s CPU     45.23s WALL (   94721 calls)
 
     PWSCF        :  7m30.56s CPU     7m50.45s WALL

 
   This run was terminated on:   3: 4:24   4Nov2017            

=------------------------------------------------------------------------------=
   JOB DONE.
=------------------------------------------------------------------------------=
