
     Program PWSCF v.6.1 (svn rev. 13369) starts on  7Dec2017 at  5:38:18 

     This program is part of the open-source Quantum ESPRESSO suite
     for quantum simulation of materials; please cite
         "P. Giannozzi et al., J. Phys.:Condens. Matter 21 395502 (2009);
          URL http://www.quantum-espresso.org", 
     in publications or presentations arising from this work. More details at
     http://www.quantum-espresso.org/quote

     Parallel version (MPI), running on     8 processors
     R & G space division:  proc/nbgrp/npool/nimage =       8
     Waiting for input...
     Reading input from standard input

     Current dimensions of program PWSCF are:
     Max number of different atomic species (ntypx) = 10
     Max number of k-points (npk) =  40000
     Max angular momentum in pseudopotentials (lmaxx) =  3
               file C.pbe-n-kjpaw_psl.0.1.UPF: wavefunction(s)  2P renormalized
               file N.pbe-n-kjpaw_psl.0.1.UPF: wavefunction(s)  2P renormalized
               file H.pbe-kjpaw_psl.0.1.UPF: wavefunction(s)  1S renormalized
               file O.pbe-n-kjpaw_psl.0.1.UPF: wavefunction(s)  2P renormalized

     -------------------------------------
     Parameters for Dispersion Correction:
     -------------------------------------
       atom      VdW radius       C_6     

        C          2.744         60.710
        N          2.640         42.670
        H          1.892          4.857
        O          2.536         24.284

     Subspace diagonalization in iterative solution of the eigenvalue problem:
     a serial algorithm will be used

 
     Parallelization info
     --------------------
     sticks:   dense  smooth     PW     G-vecs:    dense   smooth      PW
     Min         780     780    204                80620    80620   10817
     Max         781     781    205                80624    80624   10822
     Sum        6241    6241   1639               644967   644967   86565
 


     bravais-lattice index     =            0
     lattice parameter (alat)  =      15.6469  a.u.
     unit-cell volume          =    4774.2808 (a.u.)^3
     number of atoms/cell      =           80
     number of atomic types    =            4
     number of electrons       =       256.00
     number of Kohn-Sham states=          153
     kinetic-energy cutoff     =     100.0000  Ry
     charge density cutoff     =     400.0000  Ry
     convergence threshold     =      1.0E-08
     mixing beta               =       0.5000
     number of iterations used =            8  plain     mixing
     Exchange-correlation      =  SLA  PW   PBX  PBC ( 1  4  3  4 0 0)

     celldm(1)=  15.646932  celldm(2)=   0.000000  celldm(3)=   0.000000
     celldm(4)=   0.000000  celldm(5)=   0.000000  celldm(6)=   0.000000

     crystal axes: (cart. coord. in units of alat)
               a(1) = (   1.000000   0.000000   0.000000 )  
               a(2) = (   0.000000   0.802415   0.000000 )  
               a(3) = (  -0.333539   0.000000   1.553177 )  

     reciprocal axes: (cart. coord. in units 2 pi/alat)
               b(1) = (  1.000000  0.000000  0.214747 )  
               b(2) = (  0.000000  1.246237  0.000000 )  
               b(3) = (  0.000000  0.000000  0.643841 )  


     PseudoPot. # 1 for  C read from file:
     /scratch/ahofstet/pseudo/C.pbe-n-kjpaw_psl.0.1.UPF
     MD5 check sum: 430fe95172b1e11ef3f8ed03bac87931
     Pseudo is Projector augmented-wave + core cor, Zval =  4.0
     Generated using "atomic" code by A. Dal Corso  v.5.0.99 svn rev. 10869
     Shape of augmentation charge: BESSEL
     Using radial grid of 1073 points,  4 beta functions with: 
                l(1) =   0
                l(2) =   0
                l(3) =   1
                l(4) =   1
     Q(r) pseudized with 0 coefficients 


     PseudoPot. # 2 for  N read from file:
     /scratch/ahofstet/pseudo/N.pbe-n-kjpaw_psl.0.1.UPF
     MD5 check sum: f73187c8b701007e77325f868c9291d7
     Pseudo is Projector augmented-wave + core cor, Zval =  5.0
     Generated using "atomic" code by A. Dal Corso  v.5.0.99 svn rev. 10869
     Shape of augmentation charge: PSQ
     Using radial grid of 1085 points,  4 beta functions with: 
                l(1) =   0
                l(2) =   0
                l(3) =   1
                l(4) =   1
     Q(r) pseudized with 0 coefficients 


     PseudoPot. # 3 for  H read from file:
     /scratch/ahofstet/pseudo/H.pbe-kjpaw_psl.0.1.UPF
     MD5 check sum: 94e484f906d9e9773b2f6e52662335b2
     Pseudo is Projector augmented-wave, Zval =  1.0
     Generated using "atomic" code by A. Dal Corso  v.5.0.99 svn rev. 10869
     Shape of augmentation charge: PSQ
     Using radial grid of  929 points,  2 beta functions with: 
                l(1) =   0
                l(2) =   0
     Q(r) pseudized with 0 coefficients 


     PseudoPot. # 4 for  O read from file:
     /scratch/ahofstet/pseudo/O.pbe-n-kjpaw_psl.0.1.UPF
     MD5 check sum: 3f94a2996a3169367d6eb21d9b593f20
     Pseudo is Projector augmented-wave + core cor, Zval =  6.0
     Generated using "atomic" code by A. Dal Corso  v.5.0.99 svn rev. 10869
     Shape of augmentation charge: BESSEL
     Using radial grid of 1095 points,  4 beta functions with: 
                l(1) =   0
                l(2) =   0
                l(3) =   1
                l(4) =   1
     Q(r) pseudized with 0 coefficients 


     atomic species   valence    mass     pseudopotential
        C              4.00    12.01070      C( 1.00)
        N              5.00    14.00670      N( 1.00)
        H              1.00     1.00794      H( 1.00)
        O              6.00    15.99940      O( 1.00)

      2 Sym. Ops. (no inversion) found ( 1 have fractional translation)



   Cartesian axes

     site n.     atom                  positions (alat units)
         1           O   tau(   1) = (   0.3169115   0.2510830   0.5395584  )
         2           O   tau(   2) = (   0.3495490   0.6522908   1.0136190  )
         3           O   tau(   3) = (   0.1112551   0.2755752   0.3003666  )
         4           O   tau(   4) = (   0.5552054   0.6767830   1.2528107  )
         5           O   tau(   5) = (   0.6846082   0.3328010   0.6836221  )
         6           O   tau(   6) = (  -0.0181477   0.7340088   0.8695553  )
         7           O   tau(   7) = (   0.7450592   0.3328663   0.9754851  )
         8           O   tau(   8) = (  -0.0785987   0.7340740   0.5776923  )
         9           H   tau(   9) = (   0.6876215   0.3341789   0.8621778  )
        10           H   tau(  10) = (  -0.0211610   0.7353866   0.6909996  )
        11           O   tau(  11) = (  -0.1791579   0.2258658   1.2763815  )
        12           O   tau(  12) = (   0.8456184   0.6270736   0.2767958  )
        13           H   tau(  13) = (  -0.2556785   0.2479855   1.1893099  )
        14           H   tau(  14) = (   0.9221390   0.6491932   0.3638674  )
        15           O   tau(  15) = (   0.0317547   0.3271001   1.5244070  )
        16           O   tau(  16) = (   0.6347058   0.7283079   0.0287704  )
        17           H   tau(  17) = (   0.4025016   0.2494543   0.0541688  )
        18           H   tau(  18) = (   0.2639589   0.6506621   1.4990086  )
        19           O   tau(  19) = (   0.2237983   0.5300908   1.3166477  )
        20           O   tau(  20) = (   0.4426622   0.1288830   0.2365297  )
        21           H   tau(  21) = (   0.2869754   0.5759064   1.2270457  )
        22           H   tau(  22) = (   0.3794851   0.1746987   0.3261317  )
        23           O   tau(  23) = (   0.3867479   0.2476852   0.8416015  )
        24           O   tau(  24) = (   0.2797126   0.6488929   0.7115758  )
        25           H   tau(  25) = (   0.4011550   0.2452138   0.7202462  )
        26           H   tau(  26) = (   0.2653055   0.6464215   0.8329312  )
        27           C   tau(  27) = (   0.1708800   0.2736777   0.5769810  )
        28           C   tau(  28) = (   0.4955805   0.6748854   0.9761963  )
        29           C   tau(  29) = (   0.0467041   0.2870877   0.4478747  )
        30           C   tau(  30) = (   0.6197564   0.6882954   1.1053027  )
        31           C   tau(  31) = (   0.8870619   0.3063497   0.4848341  )
        32           C   tau(  32) = (  -0.2206014   0.7075574   1.0683433  )
        33           H   tau(  33) = (   0.7948897   0.3164951   0.3918506  )
        34           H   tau(  34) = (  -0.1284292   0.7177028   1.1613268  )
        35           C   tau(  35) = (   0.8337002   0.3162762   0.6504570  )
        36           C   tau(  36) = (  -0.1672397   0.7174839   0.9027203  )
        37           C   tau(  37) = (  -0.0476976   0.3078355   0.7793993  )
        38           C   tau(  38) = (   0.7141581   0.7090432   0.7737780  )
        39           C   tau(  39) = (  -0.0975705   0.3165036   0.9411902  )
        40           C   tau(  40) = (   0.7640310   0.7177114   0.6119871  )
        41           C   tau(  41) = (   0.0174397   0.3083581   1.0704932  )
        42           C   tau(  42) = (   0.6490208   0.7095659   0.4826842  )
        43           C   tau(  43) = (  -0.0404509   0.3242636   1.2446805  )
        44           C   tau(  44) = (   0.7069114   0.7254713   0.3084968  )
        45           H   tau(  45) = (  -0.0701348   0.4529677   1.2648506  )
        46           H   tau(  46) = (   0.7365953   0.0517600   0.2883267  )
        47           C   tau(  47) = (   0.0884652   0.2790583   1.3698678  )
        48           C   tau(  48) = (   0.5779953   0.6802660   0.1833096  )
        49           H   tau(  49) = (   0.1055976   0.1467293   1.3660542  )
        50           H   tau(  50) = (   0.5608629   0.5479370   0.1871231  )
        51           C   tau(  51) = (   0.2514306   0.3579548   1.3263033  )
        52           C   tau(  52) = (   0.4150299   0.7591625   0.2268740  )
        53           C   tau(  53) = (   0.3071391   0.2892325   1.1635631  )
        54           C   tau(  54) = (   0.3593214   0.6904402   0.3896143  )
        55           H   tau(  55) = (   0.4139998   0.3563779   1.1220073  )
        56           H   tau(  56) = (   0.2524608   0.7575856   0.4311701  )
        57           H   tau(  57) = (   0.3481471   0.1640201   1.1823144  )
        58           H   tau(  58) = (   0.3183135   0.5652279   0.3708630  )
        59           C   tau(  59) = (   0.1798911   0.2912338   1.0340757  )
        60           C   tau(  60) = (   0.4865694   0.6924415   0.5191017  )
        61           C   tau(  61) = (   0.2302025   0.2745161   0.8698249  )
        62           C   tau(  62) = (   0.4362580   0.6757238   0.6833525  )
        63           C   tau(  63) = (   0.1178332   0.2859981   0.7424692  )
        64           C   tau(  64) = (   0.5486273   0.6872058   0.8107082  )
        65           C   tau(  65) = (   0.0050492   0.2768722   0.1614515  )
        66           C   tau(  66) = (   0.6614113   0.6780800   1.3917258  )
        67           H   tau(  67) = (   0.9252992   0.1706080   0.1654482  )
        68           H   tau(  68) = (  -0.2588387   0.5718157   1.3877291  )
        69           H   tau(  69) = (   0.0854970   0.2711161   0.0563804  )
        70           H   tau(  70) = (   0.5809635   0.6723238   1.4967970  )
        71           H   tau(  71) = (   0.9326748   0.3879550   0.1604672  )
        72           H   tau(  72) = (  -0.2662143   0.7891627   1.3927102  )
        73           C   tau(  73) = (   0.3781837   0.3226187   1.4553090  )
        74           C   tau(  74) = (   0.2882768   0.7238265   0.0978684  )
        75           H   tau(  75) = (   0.4939702   0.3775159   1.4211293  )
        76           H   tau(  76) = (   0.1724903   0.7787237   0.1320480  )
        77           H   tau(  77) = (   0.3937926   0.1918581   1.4716945  )
        78           H   tau(  78) = (   0.2726679   0.5930659   0.0814828  )
        79           H   tau(  79) = (   0.3392016   0.3744902   1.5709389  )
        80           H   tau(  80) = (   0.3272589   0.7756980  -0.0177616  )

     number of k points=     8
                       cart. coord. in units 2pi/alat
        k(    1) = (   0.0000000   0.0000000   0.0000000), wk =   0.1111111
        k(    2) = (   0.0000000   0.0000000  -0.3219207), wk =   0.1111111
        k(    3) = (   0.0000000   0.4154124   0.0000000), wk =   0.2222222
        k(    4) = (   0.0000000   0.4154124  -0.3219207), wk =   0.2222222
        k(    5) = (   0.3333333   0.0000000   0.0715822), wk =   0.2222222
        k(    6) = (   0.3333333   0.0000000  -0.2503385), wk =   0.2222222
        k(    7) = (   0.3333333   0.4154124   0.0715822), wk =   0.4444444
        k(    8) = (   0.3333333   0.4154124  -0.2503385), wk =   0.4444444

     Dense  grid:   644967 G-vectors     FFT dimensions: ( 100,  80, 160)

     Estimated max dynamical RAM per process >     528.27MB

     Estimated total allocated dynamical RAM >    4226.14MB

     Check: negative/imaginary core charge=   -0.000002    0.000000

     Initial potential from superposition of free atoms

     starting charge  255.99834, renormalised to  256.00000
     Starting wfc are  224 randomized atomic wfcs
     Checking if some PAW data can be deallocated... 

     total cpu time spent up to now is       30.5 secs

     per-process dynamical memory:   377.5 Mb

     Self-consistent Calculation

     iteration #  1     ecut=   100.00 Ry     beta=0.50
     Davidson diagonalization with overlap
     ethr =  1.00E-02,  avg # of iterations =  3.8

     total cpu time spent up to now is      110.7 secs

     total energy              =   -1293.38190328 Ry
     Harris-Foulkes estimate   =   -1297.26400880 Ry
     estimated scf accuracy    <       7.45340019 Ry

     iteration #  2     ecut=   100.00 Ry     beta=0.50
     Davidson diagonalization with overlap
     ethr =  2.91E-03,  avg # of iterations =  3.0

     total cpu time spent up to now is      155.1 secs

     total energy              =   -1294.11525730 Ry
     Harris-Foulkes estimate   =   -1294.57645816 Ry
     estimated scf accuracy    <       1.01045481 Ry

     iteration #  3     ecut=   100.00 Ry     beta=0.50
     Davidson diagonalization with overlap
     ethr =  3.95E-04,  avg # of iterations =  7.4

     total cpu time spent up to now is      243.9 secs

     total energy              =   -1294.57164844 Ry
     Harris-Foulkes estimate   =   -1294.79827572 Ry
     estimated scf accuracy    <       0.54989354 Ry

     iteration #  4     ecut=   100.00 Ry     beta=0.50
     Davidson diagonalization with overlap
     ethr =  2.15E-04,  avg # of iterations =  2.6

     total cpu time spent up to now is      283.8 secs

     total energy              =   -1294.59477562 Ry
     Harris-Foulkes estimate   =   -1294.64874852 Ry
     estimated scf accuracy    <       0.11350024 Ry

     iteration #  5     ecut=   100.00 Ry     beta=0.50
     Davidson diagonalization with overlap
     ethr =  4.43E-05,  avg # of iterations =  7.0

     total cpu time spent up to now is      369.7 secs

     total energy              =   -1294.65427841 Ry
     Harris-Foulkes estimate   =   -1294.68341945 Ry
     estimated scf accuracy    <       0.09955279 Ry

     iteration #  6     ecut=   100.00 Ry     beta=0.50
     Davidson diagonalization with overlap
     ethr =  3.89E-05,  avg # of iterations =  1.0

     total cpu time spent up to now is      407.2 secs

     total energy              =   -1294.65065979 Ry
     Harris-Foulkes estimate   =   -1294.66291185 Ry
     estimated scf accuracy    <       0.02863557 Ry

     iteration #  7     ecut=   100.00 Ry     beta=0.50
     Davidson diagonalization with overlap
     ethr =  1.12E-05,  avg # of iterations =  7.0

     total cpu time spent up to now is      480.7 secs

     total energy              =   -1294.65932185 Ry
     Harris-Foulkes estimate   =   -1294.66011540 Ry
     estimated scf accuracy    <       0.00232700 Ry

     iteration #  8     ecut=   100.00 Ry     beta=0.50
     Davidson diagonalization with overlap
     ethr =  9.09E-07,  avg # of iterations =  2.1

     total cpu time spent up to now is      523.4 secs

     total energy              =   -1294.65946283 Ry
     Harris-Foulkes estimate   =   -1294.65967601 Ry
     estimated scf accuracy    <       0.00054909 Ry

     iteration #  9     ecut=   100.00 Ry     beta=0.50
     Davidson diagonalization with overlap
     ethr =  2.14E-07,  avg # of iterations =  4.0

     total cpu time spent up to now is      592.5 secs

     total energy              =   -1294.65967079 Ry
     Harris-Foulkes estimate   =   -1294.65976624 Ry
     estimated scf accuracy    <       0.00030639 Ry

     iteration # 10     ecut=   100.00 Ry     beta=0.50
     Davidson diagonalization with overlap
     ethr =  1.20E-07,  avg # of iterations =  1.6

     total cpu time spent up to now is      630.2 secs

     total energy              =   -1294.65965018 Ry
     Harris-Foulkes estimate   =   -1294.65969173 Ry
     estimated scf accuracy    <       0.00009931 Ry

     iteration # 11     ecut=   100.00 Ry     beta=0.50
     Davidson diagonalization with overlap
     ethr =  3.88E-08,  avg # of iterations =  3.8

     total cpu time spent up to now is      695.7 secs

     total energy              =   -1294.65969209 Ry
     Harris-Foulkes estimate   =   -1294.65969866 Ry
     estimated scf accuracy    <       0.00002901 Ry

     iteration # 12     ecut=   100.00 Ry     beta=0.50
     Davidson diagonalization with overlap
     ethr =  1.13E-08,  avg # of iterations =  1.9

     total cpu time spent up to now is      734.0 secs

     total energy              =   -1294.65969009 Ry
     Harris-Foulkes estimate   =   -1294.65969452 Ry
     estimated scf accuracy    <       0.00001381 Ry

     iteration # 13     ecut=   100.00 Ry     beta=0.50
     Davidson diagonalization with overlap
     ethr =  5.39E-09,  avg # of iterations =  3.9

     total cpu time spent up to now is      784.3 secs

     total energy              =   -1294.65969168 Ry
     Harris-Foulkes estimate   =   -1294.65969279 Ry
     estimated scf accuracy    <       0.00000256 Ry

     iteration # 14     ecut=   100.00 Ry     beta=0.50
     Davidson diagonalization with overlap
     ethr =  1.00E-09,  avg # of iterations =  4.2

     total cpu time spent up to now is      838.8 secs

     total energy              =   -1294.65969224 Ry
     Harris-Foulkes estimate   =   -1294.65969234 Ry
     estimated scf accuracy    <       0.00000025 Ry

     iteration # 15     ecut=   100.00 Ry     beta=0.50
     Davidson diagonalization with overlap
     ethr =  9.77E-11,  avg # of iterations =  4.2

     total cpu time spent up to now is      905.9 secs

     total energy              =   -1294.65969234 Ry
     Harris-Foulkes estimate   =   -1294.65969239 Ry
     estimated scf accuracy    <       0.00000013 Ry

     iteration # 16     ecut=   100.00 Ry     beta=0.50
     Davidson diagonalization with overlap
     ethr =  4.90E-11,  avg # of iterations =  1.4

     total cpu time spent up to now is      943.9 secs

     total energy              =   -1294.65969234 Ry
     Harris-Foulkes estimate   =   -1294.65969235 Ry
     estimated scf accuracy    <       0.00000003 Ry

     iteration # 17     ecut=   100.00 Ry     beta=0.50
     Davidson diagonalization with overlap
     ethr =  1.06E-11,  avg # of iterations =  4.0

     total cpu time spent up to now is     1018.3 secs

     total energy              =   -1294.65969236 Ry
     Harris-Foulkes estimate   =   -1294.65969236 Ry
     estimated scf accuracy    <       0.00000001 Ry

     iteration # 18     ecut=   100.00 Ry     beta=0.50
     Davidson diagonalization with overlap
     ethr =  5.41E-12,  avg # of iterations =  1.0

     total cpu time spent up to now is     1055.8 secs

     End of self-consistent calculation

          k = 0.0000 0.0000 0.0000 ( 80541 PWs)   bands (ev):

   -20.4355 -20.4228 -20.0625 -19.9845 -19.9293 -19.8698 -19.0478 -19.0175
   -18.7750 -18.7610 -18.6051 -18.5103 -18.2732 -18.2360 -17.8306 -17.6686
   -14.8627 -14.8015 -13.8317 -13.8249 -12.8308 -12.7905 -12.0037 -11.9736
   -11.7796 -11.7727 -11.2450 -11.1989 -10.9060 -10.8937 -10.2594 -10.1924
    -9.6804  -9.5976  -8.6605  -8.5965  -8.4958  -8.4839  -8.2630  -8.2474
    -7.9469  -7.9156  -7.0756  -6.9054  -6.4252  -6.3477  -6.3222  -6.2862
    -6.2165  -6.0947  -6.0435  -5.9821  -5.6771  -5.6534  -5.4637  -5.3907
    -5.2054  -5.2002  -5.1080  -4.7810  -4.7484  -4.6607  -4.4862  -4.4046
    -4.3031  -4.1874  -4.1641  -4.0661  -3.9284  -3.9017  -3.8532  -3.6541
    -3.6320  -3.5539  -3.5456  -3.5029  -3.2881  -3.2827  -3.2230  -3.1918
    -3.0840  -3.0089  -2.9454  -2.8474  -2.8227  -2.7427  -2.7224  -2.6847
    -2.5651  -2.4184  -2.2223  -2.1912  -2.1286  -2.0892  -1.9219  -1.9113
    -1.7152  -1.6796  -1.6539  -1.4577  -1.4336  -1.4235  -1.3439  -1.3121
    -1.0953  -1.0867  -0.9734  -0.7771  -0.7238  -0.4403  -0.3067  -0.1223
     0.3090   0.3757   0.3789   0.4281   0.5037   0.6173   0.6199   0.6479
     0.8389   0.8542   0.9463   1.0044   1.3111   1.4737   1.5403   1.7808
     3.1806   3.1853   5.2181   5.2380   5.5275   5.7837   6.8055   6.9311
     7.1008   7.2955   7.4635   7.4931   7.7246   8.1098   8.1110   8.1881
     8.3868   8.8353   8.8990   9.0575   9.1190   9.1664   9.3438   9.4775
     9.5599

          k = 0.0000 0.0000-0.3219 ( 80510 PWs)   bands (ev):

   -20.4350 -20.4233 -20.0626 -19.9846 -19.9293 -19.8697 -19.0485 -19.0171
   -18.7845 -18.7447 -18.6156 -18.5057 -18.2718 -18.2380 -17.8307 -17.6682
   -14.8647 -14.7982 -13.8396 -13.8232 -12.8112 -12.8039 -11.9890 -11.9625
   -11.7890 -11.7644 -11.2145 -11.2018 -10.9934 -10.9497 -10.2068 -10.1308
    -9.6688  -9.6065  -8.6293  -8.5865  -8.5458  -8.5148  -8.2622  -8.2477
    -7.9481  -7.8714  -7.1063  -6.9830  -6.4275  -6.3510  -6.3290  -6.3137
    -6.1935  -6.0540  -5.9965  -5.9570  -5.6742  -5.6669  -5.4050  -5.3894
    -5.2286  -5.2145  -5.0667  -4.8151  -4.6786  -4.5884  -4.5553  -4.4022
    -4.3894  -4.2078  -4.1919  -4.0560  -4.0353  -3.8924  -3.7958  -3.6663
    -3.6108  -3.6032  -3.5516  -3.5357  -3.3420  -3.2501  -3.1543  -3.1091
    -3.0792  -2.9892  -2.9851  -2.8866  -2.8277  -2.7166  -2.6436  -2.6292
    -2.5834  -2.4375  -2.2867  -2.2049  -2.1181  -2.0296  -1.9051  -1.8400
    -1.7791  -1.6825  -1.6789  -1.5927  -1.4330  -1.4236  -1.3165  -1.2876
    -1.1222  -1.0223  -0.9635  -0.7669  -0.7525  -0.4576  -0.2986  -0.1079
     0.3087   0.3477   0.3620   0.4409   0.5487   0.5636   0.6198   0.6662
     0.8495   0.8637   0.9559   1.0203   1.2819   1.4829   1.5397   1.7810
     3.1805   3.1808   5.2201   5.2341   5.5276   5.7891   6.8763   6.8880
     6.9905   7.3158   7.4427   7.7091   7.7608   7.8777   8.1297   8.2097
     8.3930   8.5129   8.9886   9.0817   9.1691   9.2126   9.2831   9.4736
     9.6142

          k = 0.0000 0.4154 0.0000 ( 80604 PWs)   bands (ev):

   -20.4315 -20.4252 -20.0439 -20.0048 -19.9142 -19.8844 -19.0403 -19.0252
   -18.7698 -18.7622 -18.5848 -18.5367 -18.2674 -18.2501 -17.7846 -17.7047
   -14.8484 -14.8178 -13.8318 -13.8284 -12.8226 -12.8024 -11.9963 -11.9812
   -11.7806 -11.7774 -11.2370 -11.2144 -10.8988 -10.8931 -10.2461 -10.2129
    -9.6595  -9.6182  -8.6468  -8.6146  -8.4930  -8.4872  -8.2621  -8.2544
    -7.9336  -7.9180  -7.0163  -6.9323  -6.4184  -6.3836  -6.3184  -6.2976
    -6.1596  -6.1076  -6.0327  -6.0020  -5.6783  -5.6620  -5.4498  -5.4110
    -5.2072  -5.2014  -4.9103  -4.8358  -4.7391  -4.6931  -4.4933  -4.4021
    -4.2957  -4.1470  -4.0802  -4.0660  -3.9228  -3.8674  -3.8371  -3.7287
    -3.6026  -3.6002  -3.4979  -3.4406  -3.2850  -3.2597  -3.2408  -3.1683
    -3.0700  -3.0192  -2.9248  -2.9204  -2.8424  -2.8263  -2.6548  -2.6023
    -2.5737  -2.4223  -2.2880  -2.2680  -2.1678  -2.1673  -1.9886  -1.9520
    -1.6706  -1.6457  -1.6277  -1.5272  -1.4207  -1.4135  -1.3803  -1.3455
    -1.0936  -1.0539  -0.8964  -0.7575  -0.7167  -0.4640  -0.4192  -0.2614
     0.2635   0.3418   0.3554   0.3737   0.5057   0.5422   0.6300   0.6415
     0.8452   0.8660   1.0422   1.0616   1.3680   1.4364   1.5786   1.7070
     3.1790   3.1820   5.2084   5.2206   5.5805   5.7154   7.0000   7.1559
     7.3233   7.4441   7.7080   7.7378   7.8929   8.0851   8.2067   8.3446
     8.5011   8.7303   8.7972   8.9818   9.0833   9.1377   9.3360   9.4018
     9.4841

          k = 0.0000 0.4154-0.3219 ( 80638 PWs)   bands (ev):

   -20.4313 -20.4254 -20.0440 -20.0050 -19.9141 -19.8843 -19.0407 -19.0250
   -18.7746 -18.7548 -18.5896 -18.5345 -18.2665 -18.2508 -17.7847 -17.7045
   -14.8494 -14.8161 -13.8365 -13.8283 -12.8118 -12.8082 -11.9833 -11.9699
   -11.7846 -11.7723 -11.2131 -11.2071 -10.9823 -10.9607 -10.1896 -10.1518
    -9.6521  -9.6211  -8.6207  -8.6002  -8.5398  -8.5251  -8.2602  -8.2531
    -7.9231  -7.8845  -7.0593  -6.9987  -6.4032  -6.3677  -6.3260  -6.3194
    -6.1633  -6.0958  -5.9860  -5.9645  -5.6760  -5.6711  -5.4251  -5.4122
    -5.2168  -5.2159  -4.9138  -4.7791  -4.6757  -4.6243  -4.5251  -4.4912
    -4.3207  -4.1686  -4.1287  -4.0264  -3.9810  -3.9216  -3.7893  -3.7346
    -3.6557  -3.6049  -3.5115  -3.4524  -3.3490  -3.2196  -3.1400  -3.0722
    -3.0289  -3.0183  -2.9741  -2.8983  -2.8716  -2.8664  -2.6636  -2.6259
    -2.5004  -2.4063  -2.3307  -2.2518  -2.1570  -2.1226  -1.9350  -1.9076
    -1.7507  -1.7072  -1.6740  -1.6095  -1.4170  -1.4136  -1.3443  -1.3139
    -1.1050  -1.0348  -0.8543  -0.7715  -0.7269  -0.4935  -0.3909  -0.2460
     0.2503   0.3144   0.3583   0.3845   0.5451   0.5513   0.6170   0.6300
     0.8342   0.8637   1.0415   1.0854   1.3520   1.4425   1.5785   1.7077
     3.1775   3.1781   5.2087   5.2185   5.5859   5.7210   6.9984   7.1475
     7.3282   7.3847   7.7300   7.7954   7.8681   8.0544   8.2241   8.3065
     8.5262   8.6641   8.8109   8.8719   9.1420   9.1846   9.2404   9.4058
     9.4746

          k = 0.3333 0.0000 0.0716 ( 80625 PWs)   bands (ev):

   -20.4330 -20.4233 -20.0527 -19.9750 -19.9412 -19.8818 -19.0485 -19.0178
   -18.7847 -18.7461 -18.6110 -18.5071 -18.2739 -18.2364 -17.8308 -17.6684
   -14.8364 -14.8033 -13.8347 -13.8266 -12.8275 -12.8046 -12.0006 -11.9658
   -11.7988 -11.7763 -11.2403 -11.2149 -10.9706 -10.9180 -10.2016 -10.1625
    -9.6637  -9.6165  -8.6447  -8.5936  -8.5342  -8.5254  -8.1935  -8.1709
    -7.9017  -7.8866  -7.1332  -6.9397  -6.4597  -6.3951  -6.3217  -6.3124
    -6.1973  -6.1111  -6.0349  -6.0066  -5.6722  -5.5480  -5.5003  -5.3564
    -5.2500  -5.1960  -5.0613  -4.8782  -4.7449  -4.6866  -4.4740  -4.4004
    -4.3445  -4.1643  -4.1177  -4.0085  -3.9311  -3.8605  -3.8335  -3.7588
    -3.6530  -3.6138  -3.4740  -3.3734  -3.3094  -3.2524  -3.2310  -3.1989
    -3.1354  -3.0217  -2.9907  -2.9405  -2.8401  -2.7932  -2.7156  -2.5740
    -2.5336  -2.3948  -2.1954  -2.1692  -2.0835  -2.0513  -1.9366  -1.8836
    -1.7726  -1.7403  -1.6672  -1.5034  -1.4450  -1.3858  -1.3622  -1.3461
    -1.0915  -1.0187  -0.9323  -0.7768  -0.6865  -0.4572  -0.3555  -0.1236
     0.2792   0.3298   0.3696   0.4215   0.4977   0.5506   0.6054   0.7102
     0.8632   0.8841   0.9635   1.0677   1.2778   1.4519   1.5139   1.8300
     3.0222   3.3397   5.1269   5.2306   5.5521   5.8800   6.7778   6.9563
     7.0400   7.3070   7.3495   7.5919   7.7664   8.0681   8.2575   8.2821
     8.3790   8.7094   8.8087   9.0988   9.1485   9.3278   9.3850   9.4824
     9.6287

          k = 0.3333 0.0000-0.2503 ( 80588 PWs)   bands (ev):

   -20.4331 -20.4232 -20.0528 -19.9750 -19.9414 -19.8817 -19.0494 -19.0175
   -18.7778 -18.7524 -18.6098 -18.5082 -18.2722 -18.2387 -17.8306 -17.6682
   -14.8364 -14.8020 -13.8421 -13.8281 -12.8123 -12.7892 -12.0033 -11.9731
   -11.8355 -11.7910 -11.2146 -11.2006 -10.9491 -10.9228 -10.2252 -10.1934
    -9.6320  -9.5994  -8.6537  -8.6123  -8.5131  -8.5007  -8.1915  -8.1679
    -7.9432  -7.8988  -7.0964  -6.9824  -6.4496  -6.3880  -6.3822  -6.2868
    -6.2174  -6.0815  -6.0069  -5.9287  -5.6886  -5.6331  -5.4672  -5.4144
    -5.2141  -5.1865  -5.0148  -4.9257  -4.6536  -4.6068  -4.5679  -4.4557
    -4.3515  -4.1725  -4.0882  -4.0111  -3.9715  -3.9108  -3.8530  -3.7374
    -3.6430  -3.6332  -3.4860  -3.3976  -3.3560  -3.2546  -3.2011  -3.1103
    -3.0524  -3.0236  -2.9636  -2.9391  -2.8726  -2.7748  -2.6810  -2.5979
    -2.5162  -2.4462  -2.2797  -2.1841  -2.1370  -2.0171  -1.9127  -1.8385
    -1.7417  -1.6977  -1.6224  -1.5683  -1.4850  -1.3939  -1.3421  -1.3043
    -1.1095  -1.0482  -0.9344  -0.7827  -0.6930  -0.4335  -0.3808  -0.1169
     0.2706   0.3228   0.3675   0.4227   0.5215   0.5960   0.6045   0.6674
     0.8696   0.8770   0.9741   1.0520   1.2791   1.4531   1.5137   1.8286
     3.0216   3.3413   5.1325   5.2314   5.5401   5.8841   6.8559   6.9004
     6.9773   7.3267   7.3628   7.5062   7.8832   8.1410   8.2233   8.3356
     8.4387   8.5259   8.8592   9.0035   9.0909   9.2530   9.3497   9.5311
     9.6183

          k = 0.3333 0.4154 0.0716 ( 80648 PWs)   bands (ev):

   -20.4299 -20.4251 -20.0338 -19.9947 -19.9266 -19.8966 -19.0408 -19.0254
   -18.7745 -18.7551 -18.5871 -18.5347 -18.2685 -18.2512 -17.7843 -17.7043
   -14.8290 -14.8124 -13.8342 -13.8301 -12.8235 -12.8121 -11.9921 -11.9746
   -11.7964 -11.7850 -11.2371 -11.2241 -10.9559 -10.9297 -10.1929 -10.1734
    -9.6519  -9.6283  -8.6344  -8.6077  -8.5377  -8.5312  -8.1882  -8.1767
    -7.8952  -7.8874  -7.0719  -6.9764  -6.4572  -6.4296  -6.3039  -6.2897
    -6.1655  -6.1193  -6.0290  -6.0140  -5.6641  -5.6034  -5.4686  -5.3980
    -5.2399  -5.2131  -4.9092  -4.8241  -4.7263  -4.6890  -4.4579  -4.3945
    -4.2824  -4.1548  -4.0970  -4.0744  -3.9135  -3.8325  -3.8228  -3.7446
    -3.6261  -3.6071  -3.4538  -3.4081  -3.3113  -3.2599  -3.2493  -3.2174
    -3.1046  -3.0581  -3.0081  -2.9561  -2.8718  -2.8292  -2.6665  -2.5951
    -2.5081  -2.3873  -2.3422  -2.2391  -2.1281  -2.0681  -1.9789  -1.9335
    -1.7169  -1.6777  -1.6222  -1.5286  -1.4365  -1.3848  -1.3604  -1.3074
    -1.1322  -1.0682  -0.8320  -0.7740  -0.6747  -0.4868  -0.3944  -0.2578
     0.2535   0.3032   0.3307   0.3741   0.5361   0.5688   0.5915   0.6308
     0.8623   0.8886   1.0246   1.0824   1.3415   1.4184   1.5399   1.7115
     3.0959   3.2529   5.1914   5.2315   5.5691   5.7532   7.0197   7.1939
     7.2715   7.4699   7.5926   7.7727   7.9564   8.1614   8.3130   8.3897
     8.5116   8.6476   8.7326   8.9448   9.1351   9.2271   9.3132   9.4201
     9.4817

          k = 0.3333 0.4154-0.2503 ( 80627 PWs)   bands (ev):

   -20.4299 -20.4250 -20.0338 -19.9947 -19.9267 -19.8966 -19.0412 -19.0252
   -18.7706 -18.7575 -18.5873 -18.5360 -18.2674 -18.2519 -17.7844 -17.7043
   -14.8289 -14.8117 -13.8396 -13.8326 -12.8087 -12.7972 -11.9967 -11.9816
   -11.8257 -11.8035 -11.2148 -11.2076 -10.9415 -10.9282 -10.2186 -10.2028
    -9.6228  -9.6065  -8.6458  -8.6251  -8.5138  -8.5072  -8.1876  -8.1753
    -7.9282  -7.9056  -7.0531  -6.9969  -6.4323  -6.4080  -6.3357  -6.2964
    -6.2015  -6.1257  -5.9921  -5.9531  -5.7065  -5.6731  -5.4410  -5.4033
    -5.2101  -5.1878  -4.8871  -4.8233  -4.6400  -4.6190  -4.5705  -4.4735
    -4.2798  -4.1521  -4.0789  -4.0603  -3.9378  -3.8562  -3.8210  -3.7530
    -3.6607  -3.6563  -3.4611  -3.4005  -3.3566  -3.2646  -3.1993  -3.1185
    -3.0811  -3.0398  -3.0187  -2.9603  -2.8784  -2.8507  -2.6689  -2.5748
    -2.4684  -2.4067  -2.3144  -2.2682  -2.1517  -2.0764  -1.9711  -1.9157
    -1.7451  -1.6933  -1.6182  -1.5570  -1.4261  -1.3895  -1.3416  -1.2806
    -1.1169  -1.0567  -0.8466  -0.7824  -0.6853  -0.5063  -0.3886  -0.2470
     0.2534   0.2984   0.3331   0.3667   0.5405   0.5549   0.6248   0.6440
     0.8500   0.8720   1.0360   1.0667   1.3463   1.4192   1.5407   1.7104
     3.0952   3.2534   5.1927   5.2315   5.5648   5.7549   7.0252   7.1819
     7.3396   7.4007   7.5776   7.7610   8.0037   8.1089   8.3233   8.4166
     8.4979   8.7229   8.7999   8.9504   9.0646   9.1621   9.2202   9.3588
     9.5493

     highest occupied, lowest unoccupied level (ev):     1.8300    3.0216

!    total energy              =   -1294.65969236 Ry
     Harris-Foulkes estimate   =   -1294.65969236 Ry
     estimated scf accuracy    <          6.6E-09 Ry

     total all-electron energy =     -4884.661078 Ry

     The total energy is the sum of the following terms:

     one-electron contribution =    -716.82714853 Ry
     hartree contribution      =     465.00805002 Ry
     xc contribution           =    -274.18521981 Ry
     ewald contribution        =    -403.20672166 Ry
     Dispersion Correction     =      -0.39367995 Ry
     one-center paw contrib.   =    -365.05497242 Ry

     convergence has been achieved in  18 iterations

     Forces acting on atoms (cartesian axes, Ry/au):

     atom    1 type  4   force =     0.00057694   -0.00046978    0.00014326
     atom    2 type  4   force =    -0.00057694   -0.00046978   -0.00014326
     atom    3 type  4   force =    -0.00104542    0.00041035    0.00074656
     atom    4 type  4   force =     0.00104542    0.00041035   -0.00074656
     atom    5 type  4   force =    -0.00108797   -0.00261901   -0.00137269
     atom    6 type  4   force =     0.00108797   -0.00261901    0.00137269
     atom    7 type  4   force =    -0.00448404   -0.00132940    0.00382103
     atom    8 type  4   force =     0.00448404   -0.00132940   -0.00382103
     atom    9 type  3   force =     0.00027422    0.00037193    0.00045565
     atom   10 type  3   force =    -0.00027422    0.00037193   -0.00045565
     atom   11 type  4   force =    -0.00097509    0.00020819    0.00156859
     atom   12 type  4   force =     0.00097509    0.00020819   -0.00156859
     atom   13 type  3   force =    -0.00139928    0.00022110   -0.00041760
     atom   14 type  3   force =     0.00139928    0.00022110    0.00041760
     atom   15 type  4   force =    -0.00103179   -0.00071019    0.00102741
     atom   16 type  4   force =     0.00103179   -0.00071019   -0.00102741
     atom   17 type  3   force =    -0.00080401    0.00002560   -0.00001075
     atom   18 type  3   force =     0.00080401    0.00002560    0.00001075
     atom   19 type  4   force =    -0.00176753    0.00363492   -0.00120355
     atom   20 type  4   force =     0.00176753    0.00363492    0.00120355
     atom   21 type  3   force =    -0.00037176   -0.00020477    0.00032419
     atom   22 type  3   force =     0.00037176   -0.00020477   -0.00032419
     atom   23 type  4   force =     0.00186242    0.00489320    0.00130419
     atom   24 type  4   force =    -0.00186242    0.00489320   -0.00130419
     atom   25 type  3   force =    -0.00001497    0.00034471    0.00041111
     atom   26 type  3   force =     0.00001497    0.00034471   -0.00041111
     atom   27 type  1   force =     0.00018335   -0.00000399    0.00093206
     atom   28 type  1   force =    -0.00018335   -0.00000399   -0.00093206
     atom   29 type  1   force =     0.00091177   -0.00059201   -0.00097546
     atom   30 type  1   force =    -0.00091177   -0.00059201    0.00097546
     atom   31 type  1   force =    -0.00168330    0.00167634    0.00008905
     atom   32 type  1   force =     0.00168330    0.00167634   -0.00008905
     atom   33 type  3   force =    -0.00034028    0.00005104   -0.00130371
     atom   34 type  3   force =     0.00034028    0.00005104    0.00130371
     atom   35 type  1   force =    -0.00074322    0.00134755   -0.00103257
     atom   36 type  1   force =     0.00074322    0.00134755    0.00103257
     atom   37 type  1   force =     0.00146901   -0.00042343    0.00044521
     atom   38 type  1   force =    -0.00146901   -0.00042343   -0.00044521
     atom   39 type  1   force =     0.00346217   -0.00104190   -0.00014855
     atom   40 type  1   force =    -0.00346217   -0.00104190    0.00014855
     atom   41 type  1   force =    -0.00067897    0.00078466    0.00047853
     atom   42 type  1   force =     0.00067897    0.00078466   -0.00047853
     atom   43 type  1   force =     0.00159555    0.00049612   -0.00042258
     atom   44 type  1   force =    -0.00159555    0.00049612    0.00042258
     atom   45 type  3   force =     0.00024449   -0.00002666   -0.00044723
     atom   46 type  3   force =    -0.00024449   -0.00002666    0.00044723
     atom   47 type  1   force =    -0.00084565    0.00047829   -0.00034990
     atom   48 type  1   force =     0.00084565    0.00047829    0.00034990
     atom   49 type  3   force =     0.00098046   -0.00048742   -0.00059063
     atom   50 type  3   force =    -0.00098046   -0.00048742    0.00059063
     atom   51 type  1   force =     0.00148155   -0.00401444    0.00021118
     atom   52 type  1   force =    -0.00148155   -0.00401444   -0.00021118
     atom   53 type  1   force =    -0.00104015    0.00083616    0.00036557
     atom   54 type  1   force =     0.00104015    0.00083616   -0.00036557
     atom   55 type  3   force =     0.00054677   -0.00071178   -0.00060364
     atom   56 type  3   force =    -0.00054677   -0.00071178    0.00060364
     atom   57 type  3   force =     0.00048776   -0.00198670    0.00018225
     atom   58 type  3   force =    -0.00048776   -0.00198670   -0.00018225
     atom   59 type  1   force =     0.00176100    0.00029548   -0.00040118
     atom   60 type  1   force =    -0.00176100    0.00029548    0.00040118
     atom   61 type  1   force =    -0.00057895   -0.00176382   -0.00060587
     atom   62 type  1   force =     0.00057895   -0.00176382    0.00060587
     atom   63 type  1   force =     0.00019284   -0.00021812    0.00012579
     atom   64 type  1   force =    -0.00019284   -0.00021812   -0.00012579
     atom   65 type  1   force =     0.00033671   -0.00052522    0.00027914
     atom   66 type  1   force =    -0.00033671   -0.00052522   -0.00027914
     atom   67 type  3   force =     0.00029828    0.00009213   -0.00017071
     atom   68 type  3   force =    -0.00029828    0.00009213    0.00017071
     atom   69 type  3   force =    -0.00059485    0.00051291    0.00090788
     atom   70 type  3   force =     0.00059485    0.00051291   -0.00090788
     atom   71 type  3   force =     0.00049951    0.00025482    0.00083573
     atom   72 type  3   force =    -0.00049951    0.00025482   -0.00083573
     atom   73 type  1   force =    -0.00233531    0.00145332    0.00045458
     atom   74 type  1   force =     0.00233531    0.00145332   -0.00045458
     atom   75 type  3   force =     0.00055942   -0.00064503   -0.00097762
     atom   76 type  3   force =    -0.00055942   -0.00064503    0.00097762
     atom   77 type  3   force =    -0.00045148   -0.00060269    0.00033264
     atom   78 type  3   force =     0.00045148   -0.00060269   -0.00033264
     atom   79 type  3   force =     0.00071317   -0.00001247   -0.00021489
     atom   80 type  3   force =    -0.00071317   -0.00001247    0.00021489

     Total force =     0.019441     Total SCF correction =     0.000172


     Computing stress (Cartesian axis) and pressure

          total   stress  (Ry/bohr**3)                   (kbar)     P=   -6.60
  -0.00000418   0.00000000  -0.00000592         -0.62      0.00     -0.87
   0.00000000  -0.00002553   0.00000000          0.00     -3.76      0.00
  -0.00000592   0.00000000  -0.00010489         -0.87      0.00    -15.43


     Writing output data file scf.save
 
     init_run     :     28.77s CPU     29.85s WALL (       1 calls)
     electrons    :    983.57s CPU   1025.36s WALL (       1 calls)
     forces       :     15.30s CPU     15.45s WALL (       1 calls)
     stress       :     54.73s CPU     54.97s WALL (       1 calls)

     Called by init_run:
     wfcinit      :     20.73s CPU     21.72s WALL (       1 calls)
     potinit      :      2.84s CPU      2.86s WALL (       1 calls)

     Called by electrons:
     c_bands      :    885.15s CPU    921.00s WALL (      18 calls)
     sum_band     :     87.62s CPU     92.58s WALL (      18 calls)
     v_of_rho     :      1.59s CPU      1.71s WALL (      19 calls)
     newd         :      3.89s CPU      4.73s WALL (      19 calls)
     PAW_pot      :      4.71s CPU      4.71s WALL (      19 calls)
     mix_rho      :      0.40s CPU      0.43s WALL (      18 calls)

     Called by c_bands:
     init_us_2    :      5.32s CPU      5.34s WALL (     312 calls)
     cegterg      :    861.43s CPU    897.22s WALL (     144 calls)

     Called by sum_band:
     sum_band:bec :      0.06s CPU      0.06s WALL (     144 calls)
     addusdens    :      4.03s CPU      4.84s WALL (      18 calls)

     Called by *egterg:
     h_psi        :    444.08s CPU    471.85s WALL (     663 calls)
     s_psi        :     98.56s CPU     98.55s WALL (     663 calls)
     g_psi        :      2.52s CPU      2.52s WALL (     511 calls)
     cdiaghg      :     58.17s CPU     58.17s WALL (     655 calls)

     Called by h_psi:
     h_psi:pot    :    440.88s CPU    468.60s WALL (     663 calls)
     h_psi:calbec :    104.48s CPU    104.76s WALL (     663 calls)
     vloc_psi     :    238.20s CPU    265.64s WALL (     663 calls)
     add_vuspsi   :     98.20s CPU     98.19s WALL (     663 calls)

     General routines
     calbec       :    154.94s CPU    155.37s WALL (     847 calls)
     fft          :      2.54s CPU      2.76s WALL (     271 calls)
     fftw         :    256.52s CPU    286.41s WALL (  149106 calls)
 
     Parallel routines
     fft_scatter  :     82.02s CPU    103.27s WALL (  149377 calls)
 
     PWSCF        : 18m 9.69s CPU    19m30.03s WALL

 
   This run was terminated on:   5:57:48   7Dec2017            

=------------------------------------------------------------------------------=
   JOB DONE.
=------------------------------------------------------------------------------=
