
     Program PWSCF v.6.1 (svn rev. 13369) starts on  4Nov2017 at  7:50:10 

     This program is part of the open-source Quantum ESPRESSO suite
     for quantum simulation of materials; please cite
         "P. Giannozzi et al., J. Phys.:Condens. Matter 21 395502 (2009);
          URL http://www.quantum-espresso.org", 
     in publications or presentations arising from this work. More details at
     http://www.quantum-espresso.org/quote

     Parallel version (MPI), running on     8 processors
     R & G space division:  proc/nbgrp/npool/nimage =       8
     Waiting for input...
     Reading input from standard input

     Current dimensions of program PWSCF are:
     Max number of different atomic species (ntypx) = 10
     Max number of k-points (npk) =  40000
     Max angular momentum in pseudopotentials (lmaxx) =  3
               file C.pbe-n-kjpaw_psl.0.1.UPF: wavefunction(s)  2P renormalized
               file N.pbe-n-kjpaw_psl.0.1.UPF: wavefunction(s)  2P renormalized
               file H.pbe-kjpaw_psl.0.1.UPF: wavefunction(s)  1S renormalized
               file O.pbe-n-kjpaw_psl.0.1.UPF: wavefunction(s)  2P renormalized

     -------------------------------------
     Parameters for Dispersion Correction:
     -------------------------------------
       atom      VdW radius       C_6     

        C          2.744         60.710
        N          2.640         42.670
        H          1.892          4.857
        O          2.536         24.284

     Subspace diagonalization in iterative solution of the eigenvalue problem:
     a serial algorithm will be used

 
     Parallelization info
     --------------------
     sticks:   dense  smooth     PW     G-vecs:    dense   smooth      PW
     Min         739     739    194                81051    81051   10876
     Max         741     741    195                81055    81055   10881
     Sum        5917    5917   1557               648415   648415   87023
 


     bravais-lattice index     =            0
     lattice parameter (alat)  =      14.1780  a.u.
     unit-cell volume          =    4798.6652 (a.u.)^3
     number of atoms/cell      =           80
     number of atomic types    =            4
     number of electrons       =       256.00
     number of Kohn-Sham states=          153
     kinetic-energy cutoff     =     100.0000  Ry
     charge density cutoff     =     400.0000  Ry
     convergence threshold     =      1.0E-08
     mixing beta               =       0.5000
     number of iterations used =            8  plain     mixing
     Exchange-correlation      =  SLA  PW   PBX  PBC ( 1  4  3  4 0 0)

     celldm(1)=  14.178048  celldm(2)=   0.000000  celldm(3)=   0.000000
     celldm(4)=   0.000000  celldm(5)=   0.000000  celldm(6)=   0.000000

     crystal axes: (cart. coord. in units of alat)
               a(1) = (   1.000000   0.000000   0.000000 )  
               a(2) = (   0.000000   0.924534   0.000000 )  
               a(3) = (  -0.275782   0.000000   1.821161 )  

     reciprocal axes: (cart. coord. in units 2 pi/alat)
               b(1) = (  1.000000  0.000000  0.151432 )  
               b(2) = (  0.000000  1.081626  0.000000 )  
               b(3) = (  0.000000  0.000000  0.549100 )  


     PseudoPot. # 1 for  C read from file:
     /scratch/ahofstet/pseudo/C.pbe-n-kjpaw_psl.0.1.UPF
     MD5 check sum: 430fe95172b1e11ef3f8ed03bac87931
     Pseudo is Projector augmented-wave + core cor, Zval =  4.0
     Generated using "atomic" code by A. Dal Corso  v.5.0.99 svn rev. 10869
     Shape of augmentation charge: BESSEL
     Using radial grid of 1073 points,  4 beta functions with: 
                l(1) =   0
                l(2) =   0
                l(3) =   1
                l(4) =   1
     Q(r) pseudized with 0 coefficients 


     PseudoPot. # 2 for  N read from file:
     /scratch/ahofstet/pseudo/N.pbe-n-kjpaw_psl.0.1.UPF
     MD5 check sum: f73187c8b701007e77325f868c9291d7
     Pseudo is Projector augmented-wave + core cor, Zval =  5.0
     Generated using "atomic" code by A. Dal Corso  v.5.0.99 svn rev. 10869
     Shape of augmentation charge: PSQ
     Using radial grid of 1085 points,  4 beta functions with: 
                l(1) =   0
                l(2) =   0
                l(3) =   1
                l(4) =   1
     Q(r) pseudized with 0 coefficients 


     PseudoPot. # 3 for  H read from file:
     /scratch/ahofstet/pseudo/H.pbe-kjpaw_psl.0.1.UPF
     MD5 check sum: 94e484f906d9e9773b2f6e52662335b2
     Pseudo is Projector augmented-wave, Zval =  1.0
     Generated using "atomic" code by A. Dal Corso  v.5.0.99 svn rev. 10869
     Shape of augmentation charge: PSQ
     Using radial grid of  929 points,  2 beta functions with: 
                l(1) =   0
                l(2) =   0
     Q(r) pseudized with 0 coefficients 


     PseudoPot. # 4 for  O read from file:
     /scratch/ahofstet/pseudo/O.pbe-n-kjpaw_psl.0.1.UPF
     MD5 check sum: 3f94a2996a3169367d6eb21d9b593f20
     Pseudo is Projector augmented-wave + core cor, Zval =  6.0
     Generated using "atomic" code by A. Dal Corso  v.5.0.99 svn rev. 10869
     Shape of augmentation charge: BESSEL
     Using radial grid of 1095 points,  4 beta functions with: 
                l(1) =   0
                l(2) =   0
                l(3) =   1
                l(4) =   1
     Q(r) pseudized with 0 coefficients 


     atomic species   valence    mass     pseudopotential
        C              4.00    12.01070      C( 1.00)
        N              5.00    14.00670      N( 1.00)
        H              1.00     1.00794      H( 1.00)
        O              6.00    15.99940      O( 1.00)

      2 Sym. Ops., with inversion, found



   Cartesian axes

     site n.     atom                  positions (alat units)
         1           O   tau(   1) = (   0.2242881   0.7014931   0.8677863  )
         2           O   tau(   2) = (   0.1378141   0.2392218   0.0428883  )
         3           O   tau(   3) = (   0.4999296   0.2230407   0.9533744  )
         4           O   tau(   4) = (   0.5864036   0.6853120   1.7782725  )
         5           O   tau(   5) = (   0.1039495   0.8283743   0.5806965  )
         6           O   tau(   6) = (   0.2581836   0.3661050   0.3299511  )
         7           O   tau(   7) = (   0.6202682   0.0961595   1.2404642  )
         8           O   tau(   8) = (   0.4660341   0.5584289   1.4912097  )
         9           O   tau(   9) = (   0.0009238   0.1602174   0.7068315  )
        10           O   tau(  10) = (   0.3611856   0.6224765   0.2038051  )
        11           O   tau(  11) = (   0.7232939   0.7643164   1.1143292  )
        12           O   tau(  12) = (   0.3630321   0.3020573   1.6173557  )
        13           O   tau(  13) = (   0.2188500   0.8565109   1.1647863  )
        14           O   tau(  14) = (  -0.1325574   0.3942429   1.5670543  )
        15           O   tau(  15) = (   0.5053677   0.0680229   0.6563745  )
        16           O   tau(  16) = (   0.8567751   0.5302909   0.2541065  )
        17           O   tau(  17) = (   0.0440991   0.1631098   1.0728237  )
        18           O   tau(  18) = (   0.0422210   0.6253650   1.6590035  )
        19           O   tau(  19) = (   0.6801186   0.7614241   0.7483371  )
        20           O   tau(  20) = (   0.6819967   0.2991688   0.1621572  )
        21           N   tau(  21) = (   0.1350781   0.8644022   0.8773500  )
        22           N   tau(  22) = (   0.2270361   0.4021182   0.0333102  )
        23           N   tau(  23) = (   0.5891396   0.0601317   0.9438108  )
        24           N   tau(  24) = (   0.4971816   0.5224156   1.7878505  )
        25           C   tau(  25) = (   0.1012720   0.5565897   0.9056606  )
        26           C   tau(  26) = (   0.2608425   0.0943066   0.0050964  )
        27           C   tau(  27) = (   0.6229457   0.3679441   0.9155002  )
        28           C   tau(  28) = (   0.4633752   0.8302273   1.8160644  )
        29           H   tau(  29) = (   0.0457907   0.5719508   1.0401910  )
        30           H   tau(  30) = (   0.0405616   0.1096114   1.6917336  )
        31           H   tau(  31) = (   0.6784270   0.3525830   0.7809698  )
        32           H   tau(  32) = (   0.6836561   0.8149225   0.1294272  )
        33           H   tau(  33) = (   0.1804005   0.4342437   0.8976008  )
        34           H   tau(  34) = (   0.1817046   0.8964919   0.0131863  )
        35           H   tau(  35) = (   0.5438171   0.4902901   0.9235600  )
        36           H   tau(  36) = (   0.5425131   0.0280419   1.8079745  )
        37           H   tau(  37) = (  -0.0065488   0.5542993   0.8067401  )
        38           H   tau(  38) = (   0.3686388   0.0920551   0.1040373  )
        39           H   tau(  39) = (   0.7307664   0.3702346   1.0144207  )
        40           H   tau(  40) = (   0.3555789   0.8324787   1.7171235  )
        41           C   tau(  41) = (   0.0717119   0.0148947   0.7183037  )
        42           C   tau(  42) = (   0.2904265   0.4771628   0.1923475  )
        43           C   tau(  43) = (   0.6525057   0.9096391   1.1028571  )
        44           C   tau(  44) = (   0.4337912   0.4473710   1.6288133  )
        45           C   tau(  45) = (   0.0453161   0.8944108   0.4091755  )
        46           C   tau(  46) = (   0.3168392   0.4321565   0.5014559  )
        47           C   tau(  47) = (   0.6789015   0.0301230   1.4119853  )
        48           C   tau(  48) = (   0.4073785   0.4923773   1.3197049  )
        49           H   tau(  49) = (   0.9013498   0.9175656   0.4112497  )
        50           H   tau(  50) = (   0.4608013   0.4553072   0.4993675  )
        51           H   tau(  51) = (  -0.1771321   0.0069682   1.4099110  )
        52           H   tau(  52) = (   0.2634164   0.4692266   1.3217933  )
        53           H   tau(  53) = (   0.0794230   0.7893495   0.3143037  )
        54           H   tau(  54) = (   0.2827354   0.3270919   0.5963433  )
        55           H   tau(  55) = (   0.6447946   0.1351843   1.5068570  )
        56           H   tau(  56) = (   0.4414823   0.5974419   1.2248174  )
        57           H   tau(  57) = (   0.1143200   0.0939409   0.3756013  )
        58           H   tau(  58) = (   0.2478383   0.5562170   0.5350307  )
        59           H   tau(  59) = (   0.6098976   0.8305929   1.4455595  )
        60           H   tau(  60) = (   0.4763794   0.3683169   1.2861301  )
        61           C   tau(  61) = (   0.1253348   0.0259417   1.0441489  )
        62           C   tau(  62) = (  -0.0390218   0.4881940   1.6876795  )
        63           C   tau(  63) = (   0.5988829   0.8985921   0.7770119  )
        64           C   tau(  64) = (   0.7632395   0.4363399   0.1334813  )
        65           C   tau(  65) = (   0.2193330   0.0086702   1.3418966  )
        66           C   tau(  66) = (  -0.1330480   0.4709659   1.3899602  )
        67           C   tau(  67) = (   0.5048847   0.9158637   0.4792641  )
        68           C   tau(  68) = (   0.8572657   0.4535680   0.4312006  )
        69           H   tau(  69) = (   0.2942289   0.8388052   1.4235822  )
        70           H   tau(  70) = (  -0.2079479   0.3765866   1.3082469  )
        71           H   tau(  71) = (   0.4299888   0.0857286   0.3975786  )
        72           H   tau(  72) = (   0.9321656   0.5479473   0.5129139  )
        73           H   tau(  73) = (   0.0832069   0.0209157   1.3926633  )
        74           H   tau(  74) = (   0.0030715   0.4832173   1.3391846  )
        75           H   tau(  75) = (   0.6410107   0.9036181   0.4284975  )
        76           H   tau(  76) = (   0.7211462   0.4413165   0.4819762  )
        77           H   tau(  77) = (   0.2839239   0.1392167   1.3404379  )
        78           H   tau(  78) = (  -0.1976339   0.6015098   1.3914331  )
        79           H   tau(  79) = (   0.4402938   0.7853172   0.4807228  )
        80           H   tau(  80) = (   0.9218516   0.3230240   0.4297277  )

     number of k points=    10
                       cart. coord. in units 2pi/alat
        k(    1) = (   0.0000000   0.0000000   0.0000000), wk =   0.1111111
        k(    2) = (   0.0000000   0.0000000  -0.2745502), wk =   0.1111111
        k(    3) = (   0.0000000   0.3605421   0.0000000), wk =   0.2222222
        k(    4) = (   0.0000000   0.3605421  -0.2745502), wk =   0.2222222
        k(    5) = (   0.3333333   0.0000000   0.0504774), wk =   0.2222222
        k(    6) = (   0.3333333   0.0000000  -0.2240728), wk =   0.2222222
        k(    7) = (   0.3333333   0.3605421   0.0504774), wk =   0.2222222
        k(    8) = (   0.3333333   0.3605421  -0.2240728), wk =   0.2222222
        k(    9) = (  -0.3333333   0.3605421  -0.0504774), wk =   0.2222222
        k(   10) = (  -0.3333333   0.3605421   0.2240728), wk =   0.2222222

     Dense  grid:   648415 G-vectors     FFT dimensions: (  96,  90, 180)

     Estimated max dynamical RAM per process >     577.07MB

     Estimated total allocated dynamical RAM >    4616.53MB

     Check: negative/imaginary core charge=   -0.000002    0.000000

     Initial potential from superposition of free atoms

     starting charge  255.99877, renormalised to  256.00000
     Starting wfc are  212 randomized atomic wfcs
     Checking if some PAW data can be deallocated... 

     total cpu time spent up to now is       35.7 secs

     per-process dynamical memory:   418.4 Mb

     Self-consistent Calculation

     iteration #  1     ecut=   100.00 Ry     beta=0.50
     Davidson diagonalization with overlap
     ethr =  1.00E-02,  avg # of iterations =  3.7

     total cpu time spent up to now is      136.7 secs

     total energy              =   -1355.72091572 Ry
     Harris-Foulkes estimate   =   -1359.67591789 Ry
     estimated scf accuracy    <       7.63414436 Ry

     iteration #  2     ecut=   100.00 Ry     beta=0.50
     Davidson diagonalization with overlap
     ethr =  2.98E-03,  avg # of iterations =  3.0

     total cpu time spent up to now is      195.8 secs

     total energy              =   -1356.57109003 Ry
     Harris-Foulkes estimate   =   -1357.36577105 Ry
     estimated scf accuracy    <       1.65436254 Ry

     iteration #  3     ecut=   100.00 Ry     beta=0.50
     Davidson diagonalization with overlap
     ethr =  6.46E-04,  avg # of iterations =  6.9

     total cpu time spent up to now is      290.1 secs

     total energy              =   -1357.13233875 Ry
     Harris-Foulkes estimate   =   -1357.37620105 Ry
     estimated scf accuracy    <       0.61280658 Ry

     iteration #  4     ecut=   100.00 Ry     beta=0.50
     Davidson diagonalization with overlap
     ethr =  2.39E-04,  avg # of iterations =  2.1

     total cpu time spent up to now is      343.6 secs

     total energy              =   -1357.17742908 Ry
     Harris-Foulkes estimate   =   -1357.21250982 Ry
     estimated scf accuracy    <       0.08273703 Ry

     iteration #  5     ecut=   100.00 Ry     beta=0.50
     Davidson diagonalization with overlap
     ethr =  3.23E-05,  avg # of iterations =  6.5

     total cpu time spent up to now is      447.4 secs

     total energy              =   -1357.21552930 Ry
     Harris-Foulkes estimate   =   -1357.23398317 Ry
     estimated scf accuracy    <       0.05079466 Ry

     iteration #  6     ecut=   100.00 Ry     beta=0.50
     Davidson diagonalization with overlap
     ethr =  1.98E-05,  avg # of iterations =  1.2

     total cpu time spent up to now is      497.6 secs

     total energy              =   -1357.20838857 Ry
     Harris-Foulkes estimate   =   -1357.21778656 Ry
     estimated scf accuracy    <       0.01630943 Ry

     iteration #  7     ecut=   100.00 Ry     beta=0.50
     Davidson diagonalization with overlap
     ethr =  6.37E-06,  avg # of iterations =  4.6

     total cpu time spent up to now is      593.6 secs

     total energy              =   -1357.21869009 Ry
     Harris-Foulkes estimate   =   -1357.22089469 Ry
     estimated scf accuracy    <       0.00762566 Ry

     iteration #  8     ecut=   100.00 Ry     beta=0.50
     Davidson diagonalization with overlap
     ethr =  2.98E-06,  avg # of iterations =  1.0

     total cpu time spent up to now is      643.5 secs

     total energy              =   -1357.21673704 Ry
     Harris-Foulkes estimate   =   -1357.21888182 Ry
     estimated scf accuracy    <       0.00356504 Ry

     iteration #  9     ecut=   100.00 Ry     beta=0.50
     Davidson diagonalization with overlap
     ethr =  1.39E-06,  avg # of iterations =  4.0

     total cpu time spent up to now is      728.7 secs

     total energy              =   -1357.21847315 Ry
     Harris-Foulkes estimate   =   -1357.21887012 Ry
     estimated scf accuracy    <       0.00116113 Ry

     iteration # 10     ecut=   100.00 Ry     beta=0.50
     Davidson diagonalization with overlap
     ethr =  4.54E-07,  avg # of iterations =  1.0

     total cpu time spent up to now is      778.6 secs

     total energy              =   -1357.21823884 Ry
     Harris-Foulkes estimate   =   -1357.21851269 Ry
     estimated scf accuracy    <       0.00042730 Ry

     iteration # 11     ecut=   100.00 Ry     beta=0.50
     Davidson diagonalization with overlap
     ethr =  1.67E-07,  avg # of iterations =  4.0

     total cpu time spent up to now is      868.4 secs

     total energy              =   -1357.21849190 Ry
     Harris-Foulkes estimate   =   -1357.21859826 Ry
     estimated scf accuracy    <       0.00027455 Ry

     iteration # 12     ecut=   100.00 Ry     beta=0.50
     Davidson diagonalization with overlap
     ethr =  1.07E-07,  avg # of iterations =  2.0

     total cpu time spent up to now is      919.7 secs

     total energy              =   -1357.21847082 Ry
     Harris-Foulkes estimate   =   -1357.21850364 Ry
     estimated scf accuracy    <       0.00007920 Ry

     iteration # 13     ecut=   100.00 Ry     beta=0.50
     Davidson diagonalization with overlap
     ethr =  3.09E-08,  avg # of iterations =  3.1

     total cpu time spent up to now is      995.7 secs

     total energy              =   -1357.21851374 Ry
     Harris-Foulkes estimate   =   -1357.21851480 Ry
     estimated scf accuracy    <       0.00000566 Ry

     iteration # 14     ecut=   100.00 Ry     beta=0.50
     Davidson diagonalization with overlap
     ethr =  2.21E-09,  avg # of iterations =  1.4

     total cpu time spent up to now is     1046.0 secs

     total energy              =   -1357.21851239 Ry
     Harris-Foulkes estimate   =   -1357.21851392 Ry
     estimated scf accuracy    <       0.00000362 Ry

     iteration # 15     ecut=   100.00 Ry     beta=0.50
     Davidson diagonalization with overlap
     ethr =  1.41E-09,  avg # of iterations =  3.0

     total cpu time spent up to now is     1116.4 secs

     total energy              =   -1357.21851318 Ry
     Harris-Foulkes estimate   =   -1357.21851320 Ry
     estimated scf accuracy    <       0.00000004 Ry

     iteration # 16     ecut=   100.00 Ry     beta=0.50
     Davidson diagonalization with overlap
     ethr =  1.47E-11,  avg # of iterations =  4.0

     total cpu time spent up to now is     1215.1 secs

     total energy              =   -1357.21851320 Ry
     Harris-Foulkes estimate   =   -1357.21851321 Ry
     estimated scf accuracy    <       0.00000002 Ry

     iteration # 17     ecut=   100.00 Ry     beta=0.50
     Davidson diagonalization with overlap
     ethr =  6.04E-12,  avg # of iterations =  3.1

     total cpu time spent up to now is     1294.2 secs

     total energy              =   -1357.21851320 Ry
     Harris-Foulkes estimate   =   -1357.21851320 Ry
     estimated scf accuracy    <       0.00000001 Ry

     iteration # 18     ecut=   100.00 Ry     beta=0.50
     Davidson diagonalization with overlap
     ethr =  4.12E-12,  avg # of iterations =  2.0

     total cpu time spent up to now is     1347.1 secs

     End of self-consistent calculation

          k = 0.0000 0.0000 0.0000 ( 81105 PWs)   bands (ev):

   -22.2604 -22.2485 -22.1812 -22.1795 -21.4222 -21.3955 -21.3515 -21.3507
   -20.6595 -20.6497 -20.6495 -20.6472 -19.3060 -19.3016 -19.2822 -19.2690
   -19.0121 -19.0113 -18.9933 -18.9815 -15.6309 -15.6058 -15.5997 -15.5970
   -12.4523 -12.3475 -12.2998 -12.2637 -11.3328 -11.2287 -11.2025 -11.0518
   -10.6376 -10.5490 -10.5297 -10.5249  -9.2738  -9.2244  -9.1533  -9.0981
    -7.5011  -7.4543  -7.3632  -7.2734  -7.2114  -7.2007  -7.0770  -7.0578
    -6.9649  -6.7955  -6.7727  -6.6666  -6.5279  -6.5076  -5.9105  -5.8583
    -5.6469  -5.6159  -5.4022  -5.2732  -5.2049  -5.1977  -5.1115  -5.0655
    -5.0032  -4.9366  -4.9015  -4.8571  -4.7793  -4.6767  -4.6529  -4.3254
    -4.3233  -4.2003  -4.1498  -4.0835  -4.0359  -3.9576  -3.9088  -3.8941
    -3.8740  -3.8680  -3.6789  -3.6079  -3.5028  -3.4925  -3.3840  -3.3310
    -3.1471  -3.1068  -2.9426  -2.8459  -2.7868  -2.6945  -2.6663  -2.4391
    -2.3891  -2.3218  -2.1669  -2.1543  -2.1374  -2.0047  -1.9841  -1.9588
    -1.0632  -1.0458  -1.0353  -0.9497  -0.9297  -0.9290  -0.8249  -0.8114
    -0.8051  -0.7973  -0.7854  -0.7789  -0.6544  -0.6409  -0.5677  -0.5400
    -0.1128  -0.1010  -0.0332  -0.0304   0.4169   0.4453   0.4468   0.4740
     5.0883   5.1335   5.4897   5.5108   6.2207   6.3993   6.6530   6.7203
     6.7830   6.8904   7.0984   7.1474   7.2242   7.2480   7.2705   7.4923
     7.6395   7.7098   7.7934   8.0353   8.0642   8.1286   8.2958   8.3058
     8.6603

          k = 0.0000 0.0000-0.2746 ( 81070 PWs)   bands (ev):

   -22.2549 -22.2543 -22.1806 -22.1799 -21.4097 -21.4090 -21.3510 -21.3503
   -20.6549 -20.6544 -20.6485 -20.6479 -19.3044 -19.3032 -19.2763 -19.2752
   -19.0121 -19.0114 -18.9876 -18.9869 -15.6194 -15.6194 -15.5974 -15.5974
   -12.3812 -12.3810 -12.3073 -12.3073 -11.2690 -11.2686 -11.1265 -11.1263
   -10.6082 -10.6079 -10.5268 -10.5265  -9.2373  -9.2368  -9.1219  -9.1216
    -7.5041  -7.5041  -7.3114  -7.3112  -7.2110  -7.2109  -7.0658  -7.0654
    -6.8465  -6.8465  -6.7322  -6.7321  -6.5428  -6.5424  -5.8562  -5.8556
    -5.6510  -5.6509  -5.3483  -5.3481  -5.2235  -5.2234  -5.0470  -5.0468
    -4.9498  -4.9498  -4.8893  -4.8893  -4.7645  -4.7645  -4.4367  -4.4365
    -4.2602  -4.2601  -4.1109  -4.1106  -4.0690  -4.0688  -3.9782  -3.9777
    -3.7173  -3.7172  -3.6591  -3.6590  -3.5642  -3.5640  -3.3074  -3.3070
    -3.1264  -3.1262  -2.8686  -2.8683  -2.7604  -2.7603  -2.6103  -2.6101
    -2.3195  -2.3194  -2.1542  -2.1541  -2.0713  -2.0711  -1.9653  -1.9652
    -1.0965  -1.0965  -0.9789  -0.9788  -0.9107  -0.9105  -0.8258  -0.8254
    -0.8053  -0.8050  -0.7405  -0.7404  -0.6831  -0.6825  -0.5497  -0.5495
    -0.1080  -0.1079  -0.0213  -0.0212   0.4235   0.4237   0.4635   0.4638
     5.1100   5.1101   5.5015   5.5021   6.3379   6.3379   6.6527   6.6530
     6.8308   6.8310   7.1115   7.1115   7.2407   7.2410   7.4274   7.4278
     7.7557   7.7558   7.7933   7.7934   8.2106   8.2109   8.3113   8.3117
     8.5180

          k = 0.0000 0.3605 0.0000 ( 81044 PWs)   bands (ev):

   -22.2557 -22.2496 -22.1803 -22.1794 -21.4156 -21.4023 -21.3512 -21.3504
   -20.6582 -20.6534 -20.6525 -20.6514 -19.3069 -19.3049 -19.2779 -19.2718
   -19.0134 -19.0127 -18.9893 -18.9837 -15.6114 -15.6016 -15.5971 -15.5930
   -12.4163 -12.3440 -12.3225 -12.2845 -11.3134 -11.2646 -11.1795 -11.1090
   -10.6368 -10.5923 -10.5394 -10.5391  -9.2653  -9.2414  -9.1397  -9.1120
    -7.4740  -7.4031  -7.3715  -7.2673  -7.1760  -7.1192  -7.0600  -7.0445
    -6.8755  -6.8128  -6.8003  -6.6962  -6.4200  -6.4035  -5.8515  -5.8265
    -5.6133  -5.5914  -5.3123  -5.3021  -5.1490  -5.1236  -5.1137  -5.0780
    -5.0568  -5.0561  -4.9345  -4.9231  -4.7428  -4.7281  -4.6627  -4.4704
    -4.2761  -4.2610  -4.2200  -4.1597  -4.1111  -4.0092  -3.9945  -3.9378
    -3.8980  -3.8339  -3.6691  -3.6612  -3.5737  -3.5484  -3.4123  -3.3545
    -3.2531  -3.2150  -2.9066  -2.8821  -2.7625  -2.6795  -2.6107  -2.4947
    -2.3297  -2.2281  -2.2141  -2.1733  -2.1341  -2.0297  -1.9794  -1.9749
    -0.9969  -0.9936  -0.9679  -0.9422  -0.9042  -0.8945  -0.8612  -0.7947
    -0.7624  -0.7571  -0.6821  -0.6611  -0.6409  -0.6199  -0.5974  -0.5428
    -0.0670  -0.0646   0.0242   0.0275   0.4125   0.4183   0.4419   0.4566
     5.0661   5.0900   5.4745   5.4849   6.3447   6.5395   6.5429   6.5851
     6.8079   6.8985   7.0378   7.1641   7.2114   7.2489   7.3779   7.4798
     7.7587   7.7947   7.8511   7.9807   8.0393   8.1520   8.1947   8.3671
     8.5678

          k = 0.0000 0.3605-0.2746 ( 81052 PWs)   bands (ev):

   -22.2530 -22.2523 -22.1802 -22.1795 -21.4092 -21.4086 -21.3512 -21.3505
   -20.6558 -20.6553 -20.6525 -20.6519 -19.3050 -19.3039 -19.2771 -19.2760
   -19.0121 -19.0114 -18.9879 -18.9872 -15.6064 -15.6063 -15.5952 -15.5952
   -12.3801 -12.3799 -12.3065 -12.3065 -11.2757 -11.2753 -11.1454 -11.1453
   -10.6287 -10.6284 -10.5441 -10.5438  -9.2387  -9.2382  -9.1244  -9.1240
    -7.4482  -7.4481  -7.3380  -7.3377  -7.1321  -7.1318  -7.0460  -7.0456
    -6.8369  -6.8369  -6.7636  -6.7635  -6.4255  -6.4251  -5.8132  -5.8125
    -5.5989  -5.5988  -5.3213  -5.3211  -5.1633  -5.1630  -5.0970  -5.0968
    -5.0194  -5.0192  -4.9253  -4.9252  -4.7537  -4.7537  -4.5695  -4.5693
    -4.2379  -4.2376  -4.1555  -4.1554  -4.1067  -4.1061  -4.0030  -4.0027
    -3.7886  -3.7883  -3.7054  -3.7052  -3.6002  -3.6000  -3.3720  -3.3715
    -3.2155  -3.2152  -2.8756  -2.8752  -2.6785  -2.6783  -2.6339  -2.6338
    -2.2767  -2.2765  -2.1633  -2.1632  -2.1006  -2.1005  -1.9699  -1.9696
    -1.0242  -1.0240  -0.9372  -0.9369  -0.8965  -0.8963  -0.8253  -0.8251
    -0.7429  -0.7427  -0.6937  -0.6934  -0.6266  -0.6260  -0.5645  -0.5640
    -0.0685  -0.0684   0.0268   0.0269   0.4182   0.4186   0.4467   0.4469
     5.0779   5.0780   5.4812   5.4818   6.4516   6.4517   6.5698   6.5701
     6.8745   6.8745   7.0865   7.0867   7.2159   7.2163   7.4223   7.4226
     7.8198   7.8201   7.9184   7.9187   8.0759   8.0765   8.3004   8.3008
     8.5775

          k = 0.3333 0.0000 0.0505 ( 80970 PWs)   bands (ev):

   -22.2449 -22.2368 -22.1959 -22.1930 -21.4053 -21.3856 -21.3680 -21.3619
   -20.6589 -20.6545 -20.6473 -20.6455 -19.2974 -19.2962 -19.2864 -19.2778
   -19.0070 -19.0044 -18.9969 -18.9886 -15.6243 -15.6113 -15.5997 -15.5980
   -12.4100 -12.3358 -12.3246 -12.3036 -11.2663 -11.2195 -11.2013 -11.1212
   -10.6165 -10.5677 -10.5385 -10.5309  -9.2371  -9.2039  -9.1661  -9.1487
    -7.5151  -7.4888  -7.3164  -7.2850  -7.1963  -7.1910  -7.0726  -7.0660
    -6.9406  -6.8539  -6.7170  -6.6456  -6.4305  -6.3972  -6.0004  -5.9931
    -5.5744  -5.5592  -5.4311  -5.2789  -5.1972  -5.1603  -5.0906  -5.0441
    -5.0267  -4.9659  -4.9564  -4.9132  -4.7088  -4.6607  -4.5494  -4.4510
    -4.3743  -4.2760  -4.1937  -4.0867  -4.0725  -4.0110  -3.9971  -3.9250
    -3.7909  -3.7349  -3.7020  -3.6216  -3.4648  -3.4408  -3.3104  -3.3089
    -3.2017  -3.1577  -2.9831  -2.9580  -2.7968  -2.7479  -2.5529  -2.4724
    -2.3643  -2.3413  -2.1836  -2.1470  -2.0772  -2.0012  -1.9789  -1.9645
    -1.0476  -1.0099  -0.9787  -0.9715  -0.9426  -0.9362  -0.9012  -0.8507
    -0.7818  -0.7698  -0.7588  -0.7277  -0.7176  -0.6903  -0.5395  -0.5281
    -0.1027  -0.0871  -0.0272  -0.0175   0.4292   0.4486   0.4504   0.4660
     5.1763   5.2145   5.4098   5.4363   6.3402   6.4666   6.7138   6.7313
     6.9528   7.0457   7.1314   7.1487   7.1533   7.2798   7.3696   7.5058
     7.6112   7.7665   7.9796   8.0237   8.0689   8.1130   8.1815   8.2571
     8.5702

          k = 0.3333 0.0000-0.2241 ( 80979 PWs)   bands (ev):

   -22.2447 -22.2371 -22.1951 -22.1937 -21.4031 -21.3890 -21.3690 -21.3597
   -20.6579 -20.6546 -20.6506 -20.6430 -19.3006 -19.2929 -19.2857 -19.2786
   -19.0083 -19.0031 -18.9951 -18.9904 -15.6240 -15.6087 -15.6022 -15.5984
   -12.4151 -12.3710 -12.3111 -12.2709 -11.2915 -11.2239 -11.1920 -11.1046
   -10.6059 -10.5745 -10.5647 -10.5156  -9.2360  -9.1926  -9.1857  -9.1283
    -7.5913  -7.4072  -7.3795  -7.2341  -7.2032  -7.1975  -7.0717  -7.0664
    -6.9734  -6.7392  -6.7240  -6.6958  -6.4423  -6.3871  -6.0050  -5.9952
    -5.6317  -5.4801  -5.4390  -5.3191  -5.2890  -5.0973  -5.0610  -5.0544
    -4.9899  -4.9836  -4.9213  -4.8981  -4.7244  -4.6747  -4.5671  -4.4191
    -4.3446  -4.3140  -4.2100  -4.0952  -4.0882  -4.0186  -3.9605  -3.9017
    -3.8240  -3.7676  -3.6427  -3.6070  -3.5100  -3.5096  -3.3222  -3.2545
    -3.2205  -3.1106  -2.9619  -2.8316  -2.8245  -2.7750  -2.6763  -2.5274
    -2.3203  -2.2553  -2.1737  -2.1708  -2.0562  -2.0540  -1.9778  -1.9434
    -1.0586  -1.0446  -1.0015  -0.9532  -0.9362  -0.9168  -0.8895  -0.8424
    -0.8080  -0.7716  -0.7711  -0.7263  -0.6840  -0.6744  -0.5686  -0.5297
    -0.1000  -0.0786  -0.0307  -0.0117   0.4305   0.4473   0.4492   0.4647
     5.1948   5.1961   5.4096   5.4403   6.3298   6.5335   6.6313   6.7945
     6.9420   7.0195   7.0827   7.1609   7.1833   7.2012   7.3559   7.5921
     7.7182   7.7603   7.9091   7.9733   7.9942   8.1598   8.1604   8.4318
     8.4646

          k = 0.3333 0.3605 0.0505 ( 81046 PWs)   bands (ev):

   -22.2411 -22.2370 -22.1947 -22.1930 -21.4002 -21.3904 -21.3665 -21.3633
   -20.6610 -20.6592 -20.6489 -20.6469 -19.2987 -19.2975 -19.2843 -19.2801
   -19.0072 -19.0054 -18.9945 -18.9904 -15.6087 -15.6036 -15.5965 -15.5940
   -12.3867 -12.3431 -12.3277 -12.3140 -11.2655 -11.2437 -11.1944 -11.1562
   -10.6227 -10.5951 -10.5568 -10.5513  -9.2320  -9.2156  -9.1637  -9.1549
    -7.4700  -7.4434  -7.3239  -7.2792  -7.1623  -7.1241  -7.0652  -7.0328
    -6.8780  -6.8337  -6.7391  -6.6899  -6.3087  -6.2932  -5.9558  -5.9250
    -5.5587  -5.5375  -5.3566  -5.2920  -5.2349  -5.1950  -5.0705  -5.0590
    -5.0409  -5.0070  -4.9571  -4.8991  -4.7933  -4.7203  -4.6286  -4.4802
    -4.3181  -4.2724  -4.2337  -4.1815  -4.1132  -4.0854  -4.0411  -3.9942
    -3.7965  -3.7659  -3.7053  -3.6680  -3.5851  -3.5282  -3.4301  -3.3499
    -3.2499  -3.2243  -2.9388  -2.8960  -2.7511  -2.6625  -2.5938  -2.5197
    -2.3186  -2.2989  -2.1963  -2.1665  -2.1035  -2.0456  -1.9977  -1.9685
    -1.0328  -1.0209  -1.0047  -0.9725  -0.8512  -0.8257  -0.7975  -0.7766
    -0.7670  -0.7490  -0.6951  -0.6648  -0.6566  -0.6417  -0.5690  -0.5420
    -0.0529  -0.0366   0.0198   0.0242   0.4180   0.4236   0.4428   0.4509
     5.1527   5.1743   5.3951   5.4125   6.4123   6.4881   6.6208   6.6861
     6.9348   6.9593   7.0873   7.1387   7.1988   7.3775   7.4769   7.6023
     7.6825   7.7380   7.8888   7.9828   8.0597   8.1280   8.2499   8.3014
     8.5036

          k = 0.3333 0.3605-0.2241 ( 81041 PWs)   bands (ev):

   -22.2410 -22.2372 -22.1944 -22.1933 -21.3992 -21.3921 -21.3668 -21.3623
   -20.6608 -20.6593 -20.6499 -20.6460 -19.3009 -19.2978 -19.2824 -19.2794
   -19.0085 -19.0062 -18.9926 -18.9905 -15.6082 -15.6034 -15.5974 -15.5939
   -12.3905 -12.3507 -12.3336 -12.2959 -11.2738 -11.2267 -11.2045 -11.1467
   -10.6314 -10.6172 -10.5579 -10.5350  -9.2272  -9.2064  -9.1730  -9.1450
    -7.5281  -7.4111  -7.3483  -7.2889  -7.1260  -7.0900  -7.0599  -7.0331
    -6.9053  -6.7955  -6.7468  -6.7124  -6.3156  -6.2911  -5.9550  -5.9263
    -5.5735  -5.4937  -5.3854  -5.3055  -5.2717  -5.1598  -5.0803  -5.0593
    -5.0203  -5.0171  -4.9337  -4.9097  -4.8059  -4.7096  -4.6345  -4.4957
    -4.2845  -4.2390  -4.2342  -4.1701  -4.1249  -4.0539  -4.0341  -3.9336
    -3.9000  -3.8368  -3.7482  -3.6662  -3.5820  -3.5266  -3.4185  -3.3457
    -3.2533  -3.1691  -2.9084  -2.8481  -2.7567  -2.6434  -2.6375  -2.5929
    -2.3372  -2.2432  -2.1986  -2.1523  -2.1088  -2.0625  -1.9877  -1.9683
    -1.0825  -1.0387  -0.9634  -0.9489  -0.8633  -0.8440  -0.8000  -0.7748
    -0.7500  -0.7423  -0.6946  -0.6749  -0.6421  -0.6355  -0.5709  -0.5519
    -0.0505  -0.0356   0.0185   0.0272   0.4131   0.4167   0.4466   0.4556
     5.1584   5.1683   5.3949   5.4161   6.3752   6.5092   6.6480   6.6844
     6.9369   6.9621   7.0928   7.1742   7.1870   7.3105   7.4617   7.5820
     7.7071   7.7885   7.9118   7.9990   8.0816   8.1486   8.1982   8.2773
     8.4393

          k =-0.3333 0.3605-0.0505 ( 81046 PWs)   bands (ev):

   -22.2411 -22.2370 -22.1946 -22.1931 -21.4002 -21.3904 -21.3665 -21.3633
   -20.6614 -20.6588 -20.6486 -20.6473 -19.2986 -19.2977 -19.2842 -19.2802
   -19.0070 -19.0056 -18.9945 -18.9904 -15.6088 -15.6036 -15.5965 -15.5941
   -12.3868 -12.3430 -12.3277 -12.3140 -11.2656 -11.2437 -11.1944 -11.1562
   -10.6227 -10.5952 -10.5566 -10.5515  -9.2319  -9.2157  -9.1637  -9.1549
    -7.4701  -7.4432  -7.3241  -7.2792  -7.1621  -7.1243  -7.0655  -7.0324
    -6.8778  -6.8338  -6.7392  -6.6898  -6.3084  -6.2934  -5.9554  -5.9254
    -5.5585  -5.5377  -5.3568  -5.2919  -5.2347  -5.1950  -5.0707  -5.0590
    -5.0407  -5.0070  -4.9572  -4.8990  -4.7933  -4.7202  -4.6285  -4.4804
    -4.3180  -4.2722  -4.2342  -4.1814  -4.1128  -4.0854  -4.0416  -3.9941
    -3.7965  -3.7658  -3.7053  -3.6680  -3.5853  -3.5280  -3.4299  -3.3503
    -3.2497  -3.2243  -2.9390  -2.8958  -2.7511  -2.6626  -2.5939  -2.5195
    -2.3185  -2.2989  -2.1964  -2.1664  -2.1035  -2.0456  -1.9979  -1.9682
    -1.0328  -1.0209  -1.0046  -0.9728  -0.8509  -0.8257  -0.7974  -0.7764
    -0.7671  -0.7491  -0.6953  -0.6645  -0.6564  -0.6421  -0.5689  -0.5420
    -0.0528  -0.0366   0.0198   0.0242   0.4181   0.4235   0.4426   0.4510
     5.1526   5.1744   5.3954   5.4122   6.4123   6.4884   6.6207   6.6858
     6.9348   6.9594   7.0871   7.1387   7.1990   7.3774   7.4770   7.6022
     7.6823   7.7383   7.8892   7.9824   8.0597   8.1278   8.2497   8.3016
     8.5036

          k =-0.3333 0.3605 0.2241 ( 81041 PWs)   bands (ev):

   -22.2410 -22.2371 -22.1943 -22.1934 -21.3992 -21.3920 -21.3669 -21.3622
   -20.6612 -20.6589 -20.6497 -20.6462 -19.3009 -19.2979 -19.2822 -19.2795
   -19.0084 -19.0063 -18.9924 -18.9906 -15.6082 -15.6034 -15.5974 -15.5939
   -12.3905 -12.3507 -12.3337 -12.2959 -11.2738 -11.2268 -11.2045 -11.1467
   -10.6313 -10.6174 -10.5578 -10.5350  -9.2272  -9.2064  -9.1730  -9.1450
    -7.5281  -7.4110  -7.3482  -7.2890  -7.1261  -7.0900  -7.0602  -7.0327
    -6.9053  -6.7954  -6.7469  -6.7122  -6.3155  -6.2912  -5.9545  -5.9268
    -5.5734  -5.4938  -5.3856  -5.3053  -5.2716  -5.1601  -5.0804  -5.0590
    -5.0204  -5.0172  -4.9336  -4.9098  -4.8059  -4.7096  -4.6343  -4.4958
    -4.2843  -4.2391  -4.2347  -4.1697  -4.1248  -4.0542  -4.0338  -3.9337
    -3.8998  -3.8369  -3.7482  -3.6664  -3.5820  -3.5265  -3.4183  -3.3460
    -3.2532  -3.1692  -2.9085  -2.8480  -2.7567  -2.6435  -2.6374  -2.5929
    -2.3372  -2.2432  -2.1987  -2.1522  -2.1088  -2.0626  -1.9878  -1.9680
    -1.0824  -1.0389  -0.9634  -0.9489  -0.8631  -0.8438  -0.8000  -0.7746
    -0.7500  -0.7424  -0.6950  -0.6751  -0.6422  -0.6352  -0.5709  -0.5518
    -0.0505  -0.0356   0.0184   0.0272   0.4130   0.4168   0.4465   0.4556
     5.1581   5.1685   5.3951   5.4159   6.3752   6.5093   6.6481   6.6841
     6.9369   6.9622   7.0925   7.1744   7.1870   7.3105   7.4613   7.5823
     7.7073   7.7886   7.9113   7.9992   8.0815   8.1486   8.1981   8.2776
     8.4387

     highest occupied, lowest unoccupied level (ev):     0.4740    5.0661

!    total energy              =   -1357.21851320 Ry
     Harris-Foulkes estimate   =   -1357.21851320 Ry
     estimated scf accuracy    <          1.5E-09 Ry

     total all-electron energy =     -5014.633438 Ry

     The total energy is the sum of the following terms:

     one-electron contribution =    -782.60214148 Ry
     hartree contribution      =     493.44956795 Ry
     xc contribution           =    -278.44166884 Ry
     ewald contribution        =    -432.83346371 Ry
     Dispersion Correction     =      -0.36027158 Ry
     one-center paw contrib.   =    -356.43053554 Ry

     convergence has been achieved in  18 iterations

     Forces acting on atoms (cartesian axes, Ry/au):

     atom    1 type  4   force =     0.00007578   -0.00307733   -0.00004853
     atom    2 type  4   force =    -0.00005168   -0.00309512    0.00006567
     atom    3 type  4   force =    -0.00007578    0.00307733    0.00004853
     atom    4 type  4   force =     0.00005168    0.00309512   -0.00006567
     atom    5 type  4   force =    -0.00221644   -0.00101815    0.00326385
     atom    6 type  4   force =     0.00227708   -0.00097816   -0.00323496
     atom    7 type  4   force =     0.00221644    0.00101815   -0.00326385
     atom    8 type  4   force =    -0.00227708    0.00097816    0.00323496
     atom    9 type  4   force =    -0.00031314   -0.00084951   -0.00114798
     atom   10 type  4   force =     0.00052905   -0.00049496    0.00118806
     atom   11 type  4   force =     0.00031314    0.00084951    0.00114798
     atom   12 type  4   force =    -0.00052905    0.00049496   -0.00118806
     atom   13 type  4   force =    -0.00118903   -0.00060568    0.00134075
     atom   14 type  4   force =     0.00117613   -0.00059523   -0.00140410
     atom   15 type  4   force =     0.00118903    0.00060568   -0.00134075
     atom   16 type  4   force =    -0.00117613    0.00059523    0.00140410
     atom   17 type  4   force =     0.00089470   -0.00250681    0.00135257
     atom   18 type  4   force =    -0.00095150   -0.00260397   -0.00135195
     atom   19 type  4   force =    -0.00089470    0.00250681   -0.00135257
     atom   20 type  4   force =     0.00095150    0.00260397    0.00135195
     atom   21 type  2   force =    -0.00188402    0.00097849    0.00020957
     atom   22 type  2   force =     0.00192753    0.00105268   -0.00019283
     atom   23 type  2   force =     0.00188402   -0.00097849   -0.00020957
     atom   24 type  2   force =    -0.00192753   -0.00105268    0.00019283
     atom   25 type  1   force =     0.00084559    0.00211017   -0.00008013
     atom   26 type  1   force =    -0.00096999    0.00202347    0.00006758
     atom   27 type  1   force =    -0.00084559   -0.00211017    0.00008013
     atom   28 type  1   force =     0.00096999   -0.00202347   -0.00006758
     atom   29 type  3   force =    -0.00047733    0.00013406    0.00001707
     atom   30 type  3   force =     0.00049835    0.00014472   -0.00005575
     atom   31 type  3   force =     0.00047733   -0.00013406   -0.00001707
     atom   32 type  3   force =    -0.00049835   -0.00014472    0.00005575
     atom   33 type  3   force =     0.00093106    0.00113379   -0.00046186
     atom   34 type  3   force =    -0.00087651    0.00119745    0.00045409
     atom   35 type  3   force =    -0.00093106   -0.00113379    0.00046186
     atom   36 type  3   force =     0.00087651   -0.00119745   -0.00045409
     atom   37 type  3   force =     0.00005020    0.00014327    0.00068317
     atom   38 type  3   force =    -0.00002413    0.00014283   -0.00066737
     atom   39 type  3   force =    -0.00005020   -0.00014327   -0.00068317
     atom   40 type  3   force =     0.00002413   -0.00014283    0.00066737
     atom   41 type  1   force =     0.00007755    0.00092519   -0.00089938
     atom   42 type  1   force =    -0.00037588    0.00051597    0.00078693
     atom   43 type  1   force =    -0.00007755   -0.00092519    0.00089938
     atom   44 type  1   force =     0.00037588   -0.00051597   -0.00078693
     atom   45 type  1   force =     0.00173809   -0.00023590    0.00000634
     atom   46 type  1   force =    -0.00180876   -0.00038630    0.00011842
     atom   47 type  1   force =    -0.00173809    0.00023590   -0.00000634
     atom   48 type  1   force =     0.00180876    0.00038630   -0.00011842
     atom   49 type  3   force =    -0.00141062    0.00030428   -0.00044946
     atom   50 type  3   force =     0.00145377    0.00031101    0.00045018
     atom   51 type  3   force =     0.00141062   -0.00030428    0.00044946
     atom   52 type  3   force =    -0.00145377   -0.00031101   -0.00045018
     atom   53 type  3   force =    -0.00006465   -0.00007661   -0.00038365
     atom   54 type  3   force =     0.00009882    0.00001025    0.00032642
     atom   55 type  3   force =     0.00006465    0.00007661    0.00038365
     atom   56 type  3   force =    -0.00009882   -0.00001025   -0.00032642
     atom   57 type  3   force =     0.00047493    0.00092403   -0.00035337
     atom   58 type  3   force =    -0.00049301    0.00096302    0.00036510
     atom   59 type  3   force =    -0.00047493   -0.00092403    0.00035337
     atom   60 type  3   force =     0.00049301   -0.00096302   -0.00036510
     atom   61 type  1   force =    -0.00116420    0.00225165   -0.00028205
     atom   62 type  1   force =     0.00123311    0.00234321    0.00030994
     atom   63 type  1   force =     0.00116420   -0.00225165    0.00028205
     atom   64 type  1   force =    -0.00123311   -0.00234321   -0.00030994
     atom   65 type  1   force =     0.00165392   -0.00073411   -0.00155949
     atom   66 type  1   force =    -0.00168447   -0.00080529    0.00145332
     atom   67 type  1   force =    -0.00165392    0.00073411    0.00155949
     atom   68 type  1   force =     0.00168447    0.00080529   -0.00145332
     atom   69 type  3   force =     0.00043103   -0.00013148    0.00081027
     atom   70 type  3   force =    -0.00041748   -0.00011502   -0.00077998
     atom   71 type  3   force =    -0.00043103    0.00013148   -0.00081027
     atom   72 type  3   force =     0.00041748    0.00011502    0.00077998
     atom   73 type  3   force =    -0.00164957    0.00015588    0.00007546
     atom   74 type  3   force =     0.00167759    0.00015624   -0.00007158
     atom   75 type  3   force =     0.00164957   -0.00015588   -0.00007546
     atom   76 type  3   force =    -0.00167759   -0.00015624    0.00007158
     atom   77 type  3   force =    -0.00003412    0.00022757    0.00082449
     atom   78 type  3   force =     0.00001355    0.00026616   -0.00080889
     atom   79 type  3   force =     0.00003412   -0.00022757   -0.00082449
     atom   80 type  3   force =    -0.00001355   -0.00026616    0.00080889

     Total force =     0.017790     Total SCF correction =     0.000074


     Computing stress (Cartesian axis) and pressure

          total   stress  (Ry/bohr**3)                   (kbar)     P=   -2.50
  -0.00001304   0.00000001   0.00000479         -1.92      0.00      0.71
   0.00000001  -0.00002143   0.00000009          0.00     -3.15      0.01
   0.00000479   0.00000009  -0.00001646          0.71      0.01     -2.42


     Writing output data file scf.save
 
     init_run     :     33.41s CPU     34.99s WALL (       1 calls)
     electrons    :   1256.84s CPU   1311.61s WALL (       1 calls)
     forces       :     16.88s CPU     17.01s WALL (       1 calls)
     stress       :     61.71s CPU     61.91s WALL (       1 calls)

     Called by init_run:
     wfcinit      :     25.69s CPU     27.01s WALL (       1 calls)
     potinit      :      2.80s CPU      2.89s WALL (       1 calls)

     Called by electrons:
     c_bands      :   1123.35s CPU   1170.93s WALL (      18 calls)
     sum_band     :    121.56s CPU    127.67s WALL (      18 calls)
     v_of_rho     :      1.81s CPU      2.01s WALL (      19 calls)
     newd         :      3.78s CPU      4.57s WALL (      19 calls)
     PAW_pot      :      5.82s CPU      5.83s WALL (      19 calls)
     mix_rho      :      0.37s CPU      0.41s WALL (      18 calls)

     Called by c_bands:
     init_us_2    :      6.85s CPU      6.88s WALL (     390 calls)
     cegterg      :   1098.26s CPU   1145.74s WALL (     180 calls)

     Called by sum_band:
     sum_band:bec :      0.08s CPU      0.08s WALL (     180 calls)
     addusdens    :      3.76s CPU      4.52s WALL (      18 calls)

     Called by *egterg:
     h_psi        :    631.11s CPU    668.16s WALL (     756 calls)
     s_psi        :    118.31s CPU    118.35s WALL (     756 calls)
     g_psi        :      3.23s CPU      3.23s WALL (     566 calls)
     cdiaghg      :     61.83s CPU     61.94s WALL (     746 calls)

     Called by h_psi:
     h_psi:pot    :    626.72s CPU    663.70s WALL (     756 calls)
     h_psi:calbec :    117.94s CPU    118.26s WALL (     756 calls)
     vloc_psi     :    390.07s CPU    426.67s WALL (     756 calls)
     add_vuspsi   :    118.71s CPU    118.76s WALL (     756 calls)

     General routines
     calbec       :    170.12s CPU    170.56s WALL (     986 calls)
     fft          :      1.04s CPU      1.43s WALL (     271 calls)
     fftw         :    420.64s CPU    459.60s WALL (  183826 calls)
 
     Parallel routines
     fft_scatter  :     85.55s CPU    113.37s WALL (  184097 calls)
 
     PWSCF        : 22m57.67s CPU    24m37.48s WALL

 
   This run was terminated on:   8:14:48   4Nov2017            

=------------------------------------------------------------------------------=
   JOB DONE.
=------------------------------------------------------------------------------=
