
     Program PWSCF v.6.1 (svn rev. 13369) starts on  5Dec2017 at  0:11:32 

     This program is part of the open-source Quantum ESPRESSO suite
     for quantum simulation of materials; please cite
         "P. Giannozzi et al., J. Phys.:Condens. Matter 21 395502 (2009);
          URL http://www.quantum-espresso.org", 
     in publications or presentations arising from this work. More details at
     http://www.quantum-espresso.org/quote

     Parallel version (MPI), running on     8 processors
     R & G space division:  proc/nbgrp/npool/nimage =       8
     Waiting for input...
     Reading input from standard input

     Current dimensions of program PWSCF are:
     Max number of different atomic species (ntypx) = 10
     Max number of k-points (npk) =  40000
     Max angular momentum in pseudopotentials (lmaxx) =  3
               file C.pbe-n-kjpaw_psl.0.1.UPF: wavefunction(s)  2P renormalized
               file N.pbe-n-kjpaw_psl.0.1.UPF: wavefunction(s)  2P renormalized
               file H.pbe-kjpaw_psl.0.1.UPF: wavefunction(s)  1S renormalized
               file O.pbe-n-kjpaw_psl.0.1.UPF: wavefunction(s)  2P renormalized

     -------------------------------------
     Parameters for Dispersion Correction:
     -------------------------------------
       atom      VdW radius       C_6     

        C          2.744         60.710
        N          2.640         42.670
        H          1.892          4.857
        O          2.536         24.284

     Subspace diagonalization in iterative solution of the eigenvalue problem:
     a serial algorithm will be used

 
     Parallelization info
     --------------------
     sticks:   dense  smooth     PW     G-vecs:    dense   smooth      PW
     Min         692     692    183                53094    53094    7284
     Max         693     693    184                53096    53096    7287
     Sum        5543    5543   1469               424763   424763   58279
 


     bravais-lattice index     =            0
     lattice parameter (alat)  =      12.0956  a.u.
     unit-cell volume          =    3144.1614 (a.u.)^3
     number of atoms/cell      =           46
     number of atomic types    =            4
     number of electrons       =       188.00
     number of Kohn-Sham states=          112
     kinetic-energy cutoff     =     100.0000  Ry
     charge density cutoff     =     400.0000  Ry
     convergence threshold     =      1.0E-08
     mixing beta               =       0.5000
     number of iterations used =            8  plain     mixing
     Exchange-correlation      =  SLA  PW   PBX  PBC ( 1  4  3  4 0 0)

     celldm(1)=  12.095570  celldm(2)=   0.000000  celldm(3)=   0.000000
     celldm(4)=   0.000000  celldm(5)=   0.000000  celldm(6)=   0.000000

     crystal axes: (cart. coord. in units of alat)
               a(1) = (   1.000000   0.000000   0.000000 )  
               a(2) = (   0.098290   1.190177   0.000000 )  
               a(3) = (   0.060674   0.511244   1.492843 )  

     reciprocal axes: (cart. coord. in units 2 pi/alat)
               b(1) = (  1.000000 -0.082584 -0.012361 )  
               b(2) = (  0.000000  0.840211 -0.287742 )  
               b(3) = (  0.000000  0.000000  0.669863 )  


     PseudoPot. # 1 for  C read from file:
     /scratch/ahofstet/pseudo/C.pbe-n-kjpaw_psl.0.1.UPF
     MD5 check sum: 430fe95172b1e11ef3f8ed03bac87931
     Pseudo is Projector augmented-wave + core cor, Zval =  4.0
     Generated using "atomic" code by A. Dal Corso  v.5.0.99 svn rev. 10869
     Shape of augmentation charge: BESSEL
     Using radial grid of 1073 points,  4 beta functions with: 
                l(1) =   0
                l(2) =   0
                l(3) =   1
                l(4) =   1
     Q(r) pseudized with 0 coefficients 


     PseudoPot. # 2 for  N read from file:
     /scratch/ahofstet/pseudo/N.pbe-n-kjpaw_psl.0.1.UPF
     MD5 check sum: f73187c8b701007e77325f868c9291d7
     Pseudo is Projector augmented-wave + core cor, Zval =  5.0
     Generated using "atomic" code by A. Dal Corso  v.5.0.99 svn rev. 10869
     Shape of augmentation charge: PSQ
     Using radial grid of 1085 points,  4 beta functions with: 
                l(1) =   0
                l(2) =   0
                l(3) =   1
                l(4) =   1
     Q(r) pseudized with 0 coefficients 


     PseudoPot. # 3 for  H read from file:
     /scratch/ahofstet/pseudo/H.pbe-kjpaw_psl.0.1.UPF
     MD5 check sum: 94e484f906d9e9773b2f6e52662335b2
     Pseudo is Projector augmented-wave, Zval =  1.0
     Generated using "atomic" code by A. Dal Corso  v.5.0.99 svn rev. 10869
     Shape of augmentation charge: PSQ
     Using radial grid of  929 points,  2 beta functions with: 
                l(1) =   0
                l(2) =   0
     Q(r) pseudized with 0 coefficients 


     PseudoPot. # 4 for  O read from file:
     /scratch/ahofstet/pseudo/O.pbe-n-kjpaw_psl.0.1.UPF
     MD5 check sum: 3f94a2996a3169367d6eb21d9b593f20
     Pseudo is Projector augmented-wave + core cor, Zval =  6.0
     Generated using "atomic" code by A. Dal Corso  v.5.0.99 svn rev. 10869
     Shape of augmentation charge: BESSEL
     Using radial grid of 1095 points,  4 beta functions with: 
                l(1) =   0
                l(2) =   0
                l(3) =   1
                l(4) =   1
     Q(r) pseudized with 0 coefficients 


     atomic species   valence    mass     pseudopotential
        C              4.00    12.01070      C( 1.00)
        N              5.00    14.00670      N( 1.00)
        H              1.00     1.00794      H( 1.00)
        O              6.00    15.99940      O( 1.00)

      2 Sym. Ops., with inversion, found



   Cartesian axes

     site n.     atom                  positions (alat units)
         1           N   tau(   1) = (   1.0065242   1.1741586   0.6627266  )
         2           N   tau(   2) = (   0.1524395   0.5272626   0.8301167  )
         3           N   tau(   3) = (   0.1707670   1.1610473   0.8016863  )
         4           N   tau(   4) = (   0.9881968   0.5403740   0.6911570  )
         5           H   tau(   5) = (   0.1426157   1.1535606   0.9586374  )
         6           H   tau(   6) = (   1.0163480   0.5478607   0.5342059  )
         7           N   tau(   7) = (   0.3102435   1.1876229   0.4975811  )
         8           N   tau(   8) = (   0.8487203   0.5137983   0.9952622  )
         9           N   tau(   9) = (   0.5488732   1.1581196   0.7825430  )
        10           N   tau(  10) = (   0.6100906   0.5433017   0.7103003  )
        11           H   tau(  11) = (   0.5676952   1.1384176   0.9389780  )
        12           H   tau(  12) = (   0.5912685   0.5630037   0.5538653  )
        13           H   tau(  13) = (   0.6820800   1.1665860   0.6908109  )
        14           H   tau(  14) = (   0.4768837   0.5348352   0.8020324  )
        15           N   tau(  15) = (   0.4676794   1.1991331   0.3479388  )
        16           N   tau(  16) = (   0.6912843   0.5022882   1.1449045  )
        17           H   tau(  17) = (   0.3491935   0.1414924   0.2607100  )
        18           H   tau(  18) = (   0.8097703   1.5599288   1.2321333  )
        19           H   tau(  19) = (   0.4586853   1.0700512   0.2538477  )
        20           H   tau(  20) = (   0.7002784   0.6313701   1.2389956  )
        21           C   tau(  21) = (   0.3578382   1.1682846   0.7044328  )
        22           C   tau(  22) = (   0.8011255   0.5331367   0.7884105  )
        23           C   tau(  23) = (   0.0960221   1.1885647   0.4793579  )
        24           C   tau(  24) = (   1.0629417   0.5128566   1.0134854  )
        25           H   tau(  25) = (   1.0157369   1.2020967   0.3306524  )
        26           H   tau(  26) = (   0.1432268   0.4993246   1.1621909  )
        27           N   tau(  27) = (   0.3624882   1.3202807   1.3843701  )
        28           N   tau(  28) = (   0.7964755   0.3811406   0.1084732  )
        29           N   tau(  29) = (   0.3655262   0.9347191   1.3622924  )
        30           N   tau(  30) = (   0.7934375   0.7667022   0.1305509  )
        31           N   tau(  31) = (   0.2915509   0.5967930   0.2094524  )
        32           N   tau(  32) = (   0.8674128   1.1046282   1.2833909  )
        33           O   tau(  33) = (   0.2899798   1.4714727   1.4820847  )
        34           O   tau(  34) = (   0.8689840   0.2299486   0.0107586  )
        35           O   tau(  35) = (   0.4348796   1.3336770   1.2042708  )
        36           O   tau(  36) = (   0.7240842   0.3677443   0.2885725  )
        37           O   tau(  37) = (   0.3015883   0.9385041   1.1789690  )
        38           O   tau(  38) = (   0.8573754   0.7629172   0.3138743  )
        39           O   tau(  39) = (   0.4381755   0.7754272   1.4460446  )
        40           O   tau(  40) = (   0.7207882   0.9259941   0.0467987  )
        41           O   tau(  41) = (   0.1983439   0.4446139   0.2893847  )
        42           O   tau(  42) = (   0.9606199   1.2568074   1.2034586  )
        43           O   tau(  43) = (   0.3757949   0.7354411   0.3164643  )
        44           O   tau(  44) = (   0.7831689   0.9659802   1.1763790  )
        45           C   tau(  45) = (   0.2992107   0.6103305  -0.0103994  )
        46           C   tau(  46) = (   0.8597531   1.0910907   1.5032427  )

     number of k points=    10
                       cart. coord. in units 2pi/alat
        k(    1) = (   0.0000000   0.0000000   0.0000000), wk =   0.1111111
        k(    2) = (   0.0000000   0.0000000  -0.3349313), wk =   0.1111111
        k(    3) = (   0.0000000   0.2800704  -0.0959139), wk =   0.2222222
        k(    4) = (   0.0000000   0.2800704  -0.4308452), wk =   0.2222222
        k(    5) = (   0.3333333  -0.0275280  -0.0041205), wk =   0.2222222
        k(    6) = (   0.3333333  -0.0275280  -0.3390518), wk =   0.2222222
        k(    7) = (   0.3333333   0.2525424  -0.1000343), wk =   0.2222222
        k(    8) = (   0.3333333   0.2525424  -0.4349657), wk =   0.2222222
        k(    9) = (   0.3333333  -0.3075984   0.0917934), wk =   0.2222222
        k(   10) = (   0.3333333  -0.3075984  -0.2431379), wk =   0.2222222

     Dense  grid:   424763 G-vectors     FFT dimensions: (  80,  96, 125)

     Estimated max dynamical RAM per process >     284.21MB

     Estimated total allocated dynamical RAM >    2273.71MB

     Check: negative/imaginary core charge=   -0.000002    0.000000

     Initial potential from superposition of free atoms

     starting charge  187.99950, renormalised to  188.00000
     Starting wfc are  148 randomized atomic wfcs
     Checking if some PAW data can be deallocated... 

     total cpu time spent up to now is       16.1 secs

     per-process dynamical memory:   270.0 Mb

     Self-consistent Calculation

     iteration #  1     ecut=   100.00 Ry     beta=0.50
     Davidson diagonalization with overlap
     ethr =  1.00E-02,  avg # of iterations =  3.3

     total cpu time spent up to now is       47.8 secs

     total energy              =   -1073.68035053 Ry
     Harris-Foulkes estimate   =   -1076.39173369 Ry
     estimated scf accuracy    <       4.81117692 Ry

     iteration #  2     ecut=   100.00 Ry     beta=0.50
     Davidson diagonalization with overlap
     ethr =  2.56E-03,  avg # of iterations =  4.9

     total cpu time spent up to now is       76.3 secs

     total energy              =   -1074.43958481 Ry
     Harris-Foulkes estimate   =   -1075.60215272 Ry
     estimated scf accuracy    <       2.62711373 Ry

     iteration #  3     ecut=   100.00 Ry     beta=0.50
     Davidson diagonalization with overlap
     ethr =  1.40E-03,  avg # of iterations =  5.6

     total cpu time spent up to now is      100.8 secs

     total energy              =   -1074.98890613 Ry
     Harris-Foulkes estimate   =   -1075.08919319 Ry
     estimated scf accuracy    <       0.27811409 Ry

     iteration #  4     ecut=   100.00 Ry     beta=0.50
     Davidson diagonalization with overlap
     ethr =  1.48E-04,  avg # of iterations =  8.2

     total cpu time spent up to now is      129.6 secs

     total energy              =   -1075.04037085 Ry
     Harris-Foulkes estimate   =   -1075.05295130 Ry
     estimated scf accuracy    <       0.03930643 Ry

     iteration #  5     ecut=   100.00 Ry     beta=0.50
     Davidson diagonalization with overlap
     ethr =  2.09E-05,  avg # of iterations =  9.9

     total cpu time spent up to now is      159.9 secs

     total energy              =   -1075.04546126 Ry
     Harris-Foulkes estimate   =   -1075.04945372 Ry
     estimated scf accuracy    <       0.01002228 Ry

     iteration #  6     ecut=   100.00 Ry     beta=0.50
     Davidson diagonalization with overlap
     ethr =  5.33E-06,  avg # of iterations =  7.3

     total cpu time spent up to now is      186.6 secs

     total energy              =   -1075.04753472 Ry
     Harris-Foulkes estimate   =   -1075.04901183 Ry
     estimated scf accuracy    <       0.00452650 Ry

     iteration #  7     ecut=   100.00 Ry     beta=0.50
     Davidson diagonalization with overlap
     ethr =  2.41E-06,  avg # of iterations =  3.5

     total cpu time spent up to now is      207.7 secs

     total energy              =   -1075.04831505 Ry
     Harris-Foulkes estimate   =   -1075.04836429 Ry
     estimated scf accuracy    <       0.00018425 Ry

     iteration #  8     ecut=   100.00 Ry     beta=0.50
     Davidson diagonalization with overlap
     ethr =  9.80E-08,  avg # of iterations =  3.6

     total cpu time spent up to now is      237.8 secs

     total energy              =   -1075.04838104 Ry
     Harris-Foulkes estimate   =   -1075.04839820 Ry
     estimated scf accuracy    <       0.00004977 Ry

     iteration #  9     ecut=   100.00 Ry     beta=0.50
     Davidson diagonalization with overlap
     ethr =  2.65E-08,  avg # of iterations =  3.0

     total cpu time spent up to now is      260.0 secs

     total energy              =   -1075.04838769 Ry
     Harris-Foulkes estimate   =   -1075.04839864 Ry
     estimated scf accuracy    <       0.00003622 Ry

     iteration # 10     ecut=   100.00 Ry     beta=0.50
     Davidson diagonalization with overlap
     ethr =  1.93E-08,  avg # of iterations =  2.0

     total cpu time spent up to now is      279.8 secs

     total energy              =   -1075.04839372 Ry
     Harris-Foulkes estimate   =   -1075.04839383 Ry
     estimated scf accuracy    <       0.00000128 Ry

     iteration # 11     ecut=   100.00 Ry     beta=0.50
     Davidson diagonalization with overlap
     ethr =  6.81E-10,  avg # of iterations =  4.0

     total cpu time spent up to now is      310.2 secs

     total energy              =   -1075.04839418 Ry
     Harris-Foulkes estimate   =   -1075.04839425 Ry
     estimated scf accuracy    <       0.00000029 Ry

     iteration # 12     ecut=   100.00 Ry     beta=0.50
     Davidson diagonalization with overlap
     ethr =  1.55E-10,  avg # of iterations =  2.0

     total cpu time spent up to now is      330.9 secs

     total energy              =   -1075.04839422 Ry
     Harris-Foulkes estimate   =   -1075.04839424 Ry
     estimated scf accuracy    <       0.00000007 Ry

     iteration # 13     ecut=   100.00 Ry     beta=0.50
     Davidson diagonalization with overlap
     ethr =  3.49E-11,  avg # of iterations =  3.0

     total cpu time spent up to now is      355.3 secs

     total energy              =   -1075.04839423 Ry
     Harris-Foulkes estimate   =   -1075.04839424 Ry
     estimated scf accuracy    <       0.00000003 Ry

     iteration # 14     ecut=   100.00 Ry     beta=0.50
     Davidson diagonalization with overlap
     ethr =  1.50E-11,  avg # of iterations =  2.0

     total cpu time spent up to now is      375.2 secs

     End of self-consistent calculation

          k = 0.0000 0.0000 0.0000 ( 53097 PWs)   bands (ev):

   -24.1484 -23.9990 -23.5815 -23.4915 -23.4574 -23.3974 -20.6360 -20.6089
   -19.2938 -19.2748 -19.1944 -19.1701 -18.9494 -18.9149 -17.8095 -17.8032
   -16.3625 -16.3511 -15.1526 -14.9913 -13.8286 -13.8027 -13.3241 -13.3162
   -11.3678 -11.3188 -11.2291 -11.2008  -9.4894  -9.4615  -8.8433  -8.8396
    -7.5808  -7.5587  -7.3052  -7.2242  -7.1153  -7.0852  -6.9405  -6.6611
    -6.5787  -6.3495  -6.3113  -6.0801  -6.0374  -5.9188  -5.9152  -5.8651
    -5.6722  -5.5108  -5.5059  -5.4765  -5.3761  -5.3434  -5.2822  -5.2051
    -5.1923  -5.0773  -4.6514  -4.6462  -4.2700  -3.9519  -3.9334  -3.9031
    -1.5272  -1.4368  -1.3803  -1.2481  -1.1097  -1.0780  -0.8856  -0.7919
    -0.7061  -0.5609  -0.5214  -0.5032  -0.4286  -0.3660  -0.2315  -0.1790
    -0.0066   0.0249   0.0390   0.0548   0.1407   0.3298   0.3480   0.4148
     0.8509   0.8662   1.0239   1.3876   1.3943   1.5226   3.4542   3.5256
     3.7417   3.7479   6.0364   6.3244   6.3506   6.5341   6.8469   6.9810
     7.6025   8.2935   8.5950   9.0022   9.3341   9.4733   9.5686   9.8117

          k = 0.0000 0.0000-0.3349 ( 53094 PWs)   bands (ev):

   -24.1484 -23.9990 -23.5816 -23.4915 -23.4574 -23.3974 -20.6361 -20.6092
   -19.2936 -19.2750 -19.1929 -19.1695 -18.9494 -18.9147 -17.8108 -17.8049
   -16.3634 -16.3536 -15.1450 -14.9923 -13.8265 -13.8026 -13.3252 -13.3186
   -11.3685 -11.3179 -11.2294 -11.2035  -9.4628  -9.4603  -8.8807  -8.8422
    -7.6354  -7.5600  -7.2676  -7.2459  -7.1672  -7.0226  -6.9195  -6.6631
    -6.5603  -6.3369  -6.2688  -6.0220  -5.9903  -5.9163  -5.8764  -5.8220
    -5.6723  -5.6145  -5.5041  -5.4582  -5.4511  -5.4269  -5.2689  -5.2672
    -5.2346  -5.0906  -4.6523  -4.5881  -4.1909  -3.9941  -3.9196  -3.9038
    -1.5527  -1.4315  -1.3563  -1.2669  -1.1194  -1.0621  -0.9416  -0.7527
    -0.7246  -0.5563  -0.5115  -0.4892  -0.3742  -0.3501  -0.2485  -0.1661
    -0.0067   0.0106   0.0346   0.0471   0.1154   0.3214   0.3378   0.4392
     0.8582   0.8624   1.0266   1.3616   1.4120   1.5306   3.4473   3.5224
     3.7245   3.7506   6.0528   6.3001   6.3610   6.5435   6.8435   6.9855
     7.8728   8.1204   8.4093   9.0812   9.3884   9.5068   9.5659   9.6813

          k = 0.0000 0.2801-0.0959 ( 53107 PWs)   bands (ev):

   -24.1474 -23.9987 -23.5813 -23.4910 -23.4595 -23.3978 -20.6337 -20.6120
   -19.2941 -19.2763 -19.1896 -19.1697 -18.9490 -18.9185 -17.8082 -17.8026
   -16.3605 -16.3539 -15.1458 -14.9910 -13.8238 -13.8043 -13.3233 -13.3205
   -11.3726 -11.3162 -11.2465 -11.2048  -9.4736  -9.4616  -8.8518  -8.8451
    -7.6242  -7.5523  -7.3907  -7.3299  -7.1452  -7.0006  -6.9151  -6.6348
    -6.5526  -6.2104  -6.0933  -6.0616  -5.9805  -5.9406  -5.9096  -5.8351
    -5.6709  -5.5973  -5.4891  -5.4753  -5.4388  -5.4075  -5.3531  -5.2833
    -5.1923  -5.1056  -4.6418  -4.6143  -4.2489  -3.9970  -3.9143  -3.8993
    -1.5327  -1.4724  -1.3349  -1.2148  -1.1106  -1.0673  -0.8434  -0.7548
    -0.6637  -0.6242  -0.5509  -0.4854  -0.3980  -0.3840  -0.2258  -0.1697
    -0.0441  -0.0185   0.0234   0.0536   0.1100   0.3084   0.3504   0.4505
     0.8574   0.8689   0.9906   1.3528   1.3798   1.5021   3.4397   3.5072
     3.7221   3.7720   6.0431   6.2848   6.3637   6.5313   6.8516   6.9189
     8.0094   8.3313   8.8755   9.0011   9.1494   9.3120   9.5601   9.7183

          k = 0.0000 0.2801-0.4308 ( 53085 PWs)   bands (ev):

   -24.1474 -23.9987 -23.5814 -23.4910 -23.4595 -23.3978 -20.6339 -20.6119
   -19.2967 -19.2751 -19.1884 -19.1692 -18.9490 -18.9186 -17.8081 -17.8029
   -16.3606 -16.3547 -15.1439 -14.9907 -13.8276 -13.8045 -13.3265 -13.3171
   -11.3678 -11.3158 -11.2482 -11.2029  -9.4784  -9.4554  -8.8522  -8.8360
    -7.5891  -7.5527  -7.3761  -7.3262  -7.1673  -7.0862  -6.9747  -6.6404
    -6.5795  -6.2316  -6.0972  -5.9961  -5.9729  -5.8724  -5.8562  -5.7944
    -5.6769  -5.5577  -5.5332  -5.4840  -5.4329  -5.3672  -5.3330  -5.2934
    -5.2612  -5.1255  -4.6579  -4.6081  -4.1850  -4.0635  -3.9130  -3.9063
    -1.5837  -1.4382  -1.3430  -1.2102  -1.1218  -1.0702  -0.8605  -0.7337
    -0.6579  -0.6236  -0.5372  -0.4735  -0.4079  -0.3771  -0.2405  -0.1658
    -0.0510  -0.0140   0.0117   0.0393   0.1189   0.3138   0.3565   0.4664
     0.8511   0.8677   1.0042   1.3501   1.3760   1.4977   3.4480   3.5012
     3.7332   3.7641   5.9997   6.3116   6.3788   6.5307   6.8430   6.9208
     8.1870   8.3172   8.6726   8.9896   9.3236   9.3640   9.5391   9.6423

          k = 0.3333-0.0275-0.0041 ( 53065 PWs)   bands (ev):

   -24.1118 -24.0371 -23.5601 -23.5152 -23.4416 -23.4117 -20.6306 -20.6048
   -19.2934 -19.2755 -19.1920 -19.1722 -18.9401 -18.9227 -17.8182 -17.8131
   -16.4013 -16.3762 -15.1126 -15.0319 -13.8232 -13.7967 -13.2426 -13.2252
   -11.3514 -11.3251 -11.2221 -11.2080  -9.5061  -9.4757  -8.8201  -8.8034
    -7.7213  -7.7042  -7.3157  -7.2893  -6.9968  -6.9093  -6.8147  -6.6866
    -6.6489  -6.3777  -6.3306  -6.1741  -6.1281  -5.9945  -5.8867  -5.8185
    -5.6504  -5.5866  -5.5307  -5.4771  -5.3647  -5.3223  -5.2661  -5.2365
    -5.1598  -5.1131  -4.6940  -4.6696  -4.2413  -4.0059  -3.9468  -3.9269
    -1.6834  -1.4087  -1.3862  -1.3051  -0.9569  -0.8687  -0.8062  -0.7505
    -0.7481  -0.6396  -0.5215  -0.5065  -0.4349  -0.4018  -0.1827  -0.1441
     0.0320   0.0814   0.1277   0.1690   0.1835   0.3094   0.3348   0.4153
     0.8701   0.8824   1.0779   1.2948   1.3844   1.6061   3.4873   3.5420
     3.7312   3.7754   6.0629   6.2136   6.2559   6.3715   6.8780   7.0035
     7.7750   8.5254   8.7220   9.0191   9.1352   9.2466   9.3847   9.6801

          k = 0.3333-0.0275-0.3391 ( 53076 PWs)   bands (ev):

   -24.1118 -24.0371 -23.5602 -23.5152 -23.4416 -23.4117 -20.6308 -20.6050
   -19.2926 -19.2756 -19.1909 -19.1714 -18.9403 -18.9228 -17.8196 -17.8137
   -16.4024 -16.3778 -15.1099 -15.0336 -13.8171 -13.7938 -13.2424 -13.2268
   -11.3565 -11.3307 -11.2223 -11.2090  -9.4879  -9.4693  -8.8358  -8.8169
    -7.7328  -7.7033  -7.3948  -7.2906  -6.9493  -6.8726  -6.8124  -6.6874
    -6.6392  -6.3820  -6.2634  -6.1539  -5.9972  -5.9165  -5.8751  -5.8059
    -5.7634  -5.6684  -5.5505  -5.5264  -5.3954  -5.3671  -5.2895  -5.2229
    -5.1818  -5.1521  -4.6744  -4.6364  -4.2278  -3.9788  -3.9505  -3.9288
    -1.6787  -1.4203  -1.3395  -1.2834  -0.9787  -0.8596  -0.8009  -0.7849
    -0.7642  -0.6461  -0.5550  -0.4847  -0.3944  -0.3524  -0.1927  -0.1574
     0.0440   0.0722   0.1131   0.1599   0.1617   0.2930   0.3326   0.4140
     0.8786   0.9025   1.0821   1.3184   1.3576   1.6010   3.4865   3.5420
     3.7146   3.7725   6.0754   6.2095   6.2597   6.3647   6.8803   7.0100
     7.9712   8.5546   8.6937   8.9205   9.1021   9.1273   9.2710   9.5049

          k = 0.3333 0.2525-0.1000 ( 53123 PWs)   bands (ev):

   -24.1111 -24.0365 -23.5597 -23.5151 -23.4426 -23.4130 -20.6288 -20.6074
   -19.2923 -19.2778 -19.1889 -19.1704 -18.9419 -18.9243 -17.8163 -17.8130
   -16.3945 -16.3834 -15.1082 -15.0302 -13.8184 -13.7985 -13.2414 -13.2274
   -11.3537 -11.3270 -11.2343 -11.2188  -9.4932  -9.4742  -8.8241  -8.8089
    -7.7409  -7.7040  -7.4519  -7.3442  -6.9481  -6.8567  -6.8186  -6.7102
    -6.6396  -6.3218  -6.1181  -6.0874  -5.9843  -5.9568  -5.8882  -5.8279
    -5.6703  -5.6474  -5.5701  -5.5103  -5.4447  -5.3461  -5.3247  -5.2760
    -5.2443  -5.1041  -4.6851  -4.6356  -4.1954  -4.0476  -3.9491  -3.9209
    -1.6125  -1.5214  -1.3358  -1.2854  -0.9084  -0.8254  -0.7912  -0.7687
    -0.7056  -0.6737  -0.5632  -0.4810  -0.4234  -0.3824  -0.1738  -0.1148
    -0.0246   0.0097   0.0548   0.1343   0.1779   0.3130   0.3262   0.4214
     0.8843   0.9095   1.0484   1.2919   1.4203   1.5430   3.4565   3.5062
     3.7417   3.8064   6.0380   6.1834   6.2699   6.4067   6.8717   6.9827
     8.0633   8.6668   8.8791   8.9624   9.1314   9.1411   9.3925   9.5692

          k = 0.3333 0.2525-0.4350 ( 53097 PWs)   bands (ev):

   -24.1111 -24.0365 -23.5598 -23.5151 -23.4425 -23.4130 -20.6289 -20.6073
   -19.2949 -19.2762 -19.1883 -19.1697 -18.9420 -18.9245 -17.8163 -17.8124
   -16.3952 -16.3838 -15.1087 -15.0297 -13.8180 -13.7994 -13.2399 -13.2286
   -11.3547 -11.3265 -11.2344 -11.2156  -9.4915  -9.4752  -8.8140  -8.8135
    -7.7165  -7.6804  -7.4663  -7.3489  -7.0060  -6.9239  -6.8033  -6.7343
    -6.6722  -6.3250  -6.1138  -6.0500  -5.9907  -5.8790  -5.8241  -5.7807
    -5.7244  -5.6206  -5.5643  -5.5311  -5.4308  -5.3591  -5.3203  -5.2525
    -5.2156  -5.1746  -4.6802  -4.6645  -4.2298  -4.0222  -3.9403  -3.9229
    -1.6149  -1.5285  -1.3315  -1.2839  -0.9343  -0.8228  -0.7946  -0.7830
    -0.7362  -0.6513  -0.5513  -0.4998  -0.4046  -0.3701  -0.1698  -0.1000
    -0.0248   0.0067   0.0411   0.1336   0.1935   0.3154   0.3190   0.4301
     0.8872   0.9012   1.0521   1.2724   1.4352   1.5399   3.4678   3.5056
     3.7491   3.8020   5.9998   6.1889   6.3030   6.3745   6.8709   6.9986
     8.1869   8.6203   8.9061   9.0496   9.1127   9.2107   9.2872   9.5382

          k = 0.3333-0.3076 0.0918 ( 53114 PWs)   bands (ev):

   -24.1109 -24.0367 -23.5600 -23.5147 -23.4436 -23.4121 -20.6286 -20.6076
   -19.2931 -19.2771 -19.1876 -19.1714 -18.9396 -18.9267 -17.8168 -17.8124
   -16.3974 -16.3807 -15.1077 -15.0308 -13.8180 -13.7973 -13.2416 -13.2284
   -11.3568 -11.3256 -11.2408 -11.2122  -9.4893  -9.4762  -8.8201  -8.8100
    -7.7486  -7.6958  -7.4494  -7.3465  -6.9616  -6.9070  -6.7896  -6.6709
    -6.6168  -6.3593  -6.1276  -6.1118  -6.0326  -5.9261  -5.8128  -5.7918
    -5.6767  -5.6248  -5.6030  -5.5727  -5.4269  -5.3478  -5.3114  -5.3018
    -5.1871  -5.1403  -4.6780  -4.6420  -4.2163  -4.0326  -3.9385  -3.9248
    -1.6526  -1.4973  -1.3507  -1.2508  -0.9033  -0.8494  -0.8069  -0.7643
    -0.7103  -0.6287  -0.5727  -0.4768  -0.4260  -0.3888  -0.1886  -0.1373
    -0.0183   0.0188   0.0842   0.1614   0.1932   0.2988   0.3097   0.4196
     0.8778   0.9002   1.0547   1.2869   1.4068   1.5553   3.4577   3.5097
     3.7540   3.7859   6.0629   6.1705   6.2340   6.4182   6.9065   6.9519
     8.1642   8.6305   8.7253   9.0876   9.1566   9.1921   9.4360   9.5220

          k = 0.3333-0.3076-0.2431 ( 53105 PWs)   bands (ev):

   -24.1109 -24.0367 -23.5600 -23.5147 -23.4436 -23.4121 -20.6288 -20.6075
   -19.2954 -19.2760 -19.1873 -19.1705 -18.9397 -18.9267 -17.8167 -17.8120
   -16.3977 -16.3812 -15.1065 -15.0324 -13.8189 -13.7987 -13.2407 -13.2279
   -11.3537 -11.3264 -11.2403 -11.2086  -9.4979  -9.4706  -8.8214  -8.8054
    -7.7103  -7.6964  -7.4727  -7.3583  -6.9932  -6.9443  -6.7985  -6.6868
    -6.6561  -6.3677  -6.0908  -5.9933  -5.9557  -5.8887  -5.8639  -5.8147
    -5.6880  -5.6455  -5.6073  -5.5964  -5.4331  -5.3234  -5.2843  -5.2538
    -5.2164  -5.1649  -4.6884  -4.6551  -4.2200  -4.0437  -3.9437  -3.9220
    -1.6683  -1.4515  -1.3596  -1.2522  -0.9602  -0.8307  -0.8165  -0.7627
    -0.7158  -0.6507  -0.5749  -0.4855  -0.4060  -0.3536  -0.1890  -0.1202
    -0.0081   0.0375   0.0609   0.1389   0.2009   0.3050   0.3094   0.4281
     0.8634   0.8958   1.0691   1.2820   1.4021   1.5455   3.4578   3.5221
     3.7543   3.7839   6.0088   6.1669   6.3280   6.3737   6.9072   6.9558
     8.2256   8.7171   8.8722   8.9481   9.1085   9.1933   9.3362   9.4149

     highest occupied, lowest unoccupied level (ev):     1.6061    3.4397

!    total energy              =   -1075.04839424 Ry
     Harris-Foulkes estimate   =   -1075.04839424 Ry
     estimated scf accuracy    <          3.1E-09 Ry

     total all-electron energy =     -4028.576478 Ry

     The total energy is the sum of the following terms:

     one-electron contribution =    -618.46947338 Ry
     hartree contribution      =     387.18099881 Ry
     xc contribution           =    -208.56590655 Ry
     ewald contribution        =    -348.38732438 Ry
     Dispersion Correction     =      -0.21390811 Ry
     one-center paw contrib.   =    -286.59278064 Ry

     convergence has been achieved in  14 iterations

     Forces acting on atoms (cartesian axes, Ry/au):

     atom    1 type  2   force =     0.00854838    0.00196981   -0.01079336
     atom    2 type  2   force =    -0.00854838   -0.00196981    0.01079336
     atom    3 type  2   force =     0.00875023    0.00061196   -0.00011540
     atom    4 type  2   force =    -0.00875023   -0.00061196    0.00011540
     atom    5 type  3   force =    -0.00035235    0.00035397    0.00083652
     atom    6 type  3   force =     0.00035235   -0.00035397   -0.00083652
     atom    7 type  2   force =     0.00818542   -0.00112291   -0.00313342
     atom    8 type  2   force =    -0.00818542    0.00112291    0.00313342
     atom    9 type  2   force =     0.00809984   -0.00081901    0.00059248
     atom   10 type  2   force =    -0.00809984    0.00081901   -0.00059248
     atom   11 type  3   force =    -0.00062579    0.00037274    0.00036280
     atom   12 type  3   force =     0.00062579   -0.00037274   -0.00036280
     atom   13 type  3   force =    -0.01651915   -0.00094091    0.00665202
     atom   14 type  3   force =     0.01651915    0.00094091   -0.00665202
     atom   15 type  2   force =    -0.00086547   -0.00257503    0.00183053
     atom   16 type  2   force =     0.00086547    0.00257503   -0.00183053
     atom   17 type  3   force =     0.00017365    0.00047239   -0.00047209
     atom   18 type  3   force =    -0.00017365   -0.00047239    0.00047209
     atom   19 type  3   force =     0.00087867    0.00171760    0.00009167
     atom   20 type  3   force =    -0.00087867   -0.00171760   -0.00009167
     atom   21 type  1   force =    -0.00817659    0.00028896    0.00229404
     atom   22 type  1   force =     0.00817659   -0.00028896   -0.00229404
     atom   23 type  1   force =    -0.00846434   -0.00003697    0.00268491
     atom   24 type  1   force =     0.00846434    0.00003697   -0.00268491
     atom   25 type  3   force =    -0.00064628   -0.00001495    0.00008702
     atom   26 type  3   force =     0.00064628    0.00001495   -0.00008702
     atom   27 type  2   force =     0.00089180    0.00143756   -0.00148131
     atom   28 type  2   force =    -0.00089180   -0.00143756    0.00148131
     atom   29 type  2   force =    -0.00105526    0.00062119   -0.00023261
     atom   30 type  2   force =     0.00105526   -0.00062119    0.00023261
     atom   31 type  2   force =    -0.00006935   -0.00074326    0.00062402
     atom   32 type  2   force =     0.00006935    0.00074326   -0.00062402
     atom   33 type  4   force =     0.00130208    0.00164495   -0.00035433
     atom   34 type  4   force =    -0.00130208   -0.00164495    0.00035433
     atom   35 type  4   force =    -0.00110053    0.00001819    0.00000941
     atom   36 type  4   force =     0.00110053   -0.00001819   -0.00000941
     atom   37 type  4   force =     0.00056630   -0.00123817   -0.00124006
     atom   38 type  4   force =    -0.00056630    0.00123817    0.00124006
     atom   39 type  4   force =    -0.00196736   -0.00282071    0.00134193
     atom   40 type  4   force =     0.00196736    0.00282071   -0.00134193
     atom   41 type  4   force =     0.00268052   -0.00154973    0.00250237
     atom   42 type  4   force =    -0.00268052    0.00154973   -0.00250237
     atom   43 type  4   force =    -0.00300783    0.00216038    0.00179639
     atom   44 type  4   force =     0.00300783   -0.00216038   -0.00179639
     atom   45 type  1   force =     0.00038636   -0.00185460   -0.00046513
     atom   46 type  1   force =    -0.00038636    0.00185460    0.00046513

     Total force =     0.044002     Total SCF correction =     0.000110


     Computing stress (Cartesian axis) and pressure

          total   stress  (Ry/bohr**3)                   (kbar)     P=   -0.60
  -0.00005432   0.00000053   0.00001363         -7.99      0.08      2.00
   0.00000053   0.00002194  -0.00000779          0.08      3.23     -1.15
   0.00001363  -0.00000779   0.00002019          2.00     -1.15      2.97


     Writing output data file scf.save
 
     init_run     :     15.21s CPU     15.46s WALL (       1 calls)
     electrons    :    348.68s CPU    359.18s WALL (       1 calls)
     forces       :      7.93s CPU      7.98s WALL (       1 calls)
     stress       :     29.41s CPU     29.44s WALL (       1 calls)

     Called by init_run:
     wfcinit      :      8.83s CPU      9.03s WALL (       1 calls)
     potinit      :      2.26s CPU      2.28s WALL (       1 calls)

     Called by electrons:
     c_bands      :    304.01s CPU    313.05s WALL (      14 calls)
     sum_band     :     38.46s CPU     39.75s WALL (      14 calls)
     v_of_rho     :      0.95s CPU      1.05s WALL (      15 calls)
     newd         :      1.88s CPU      1.92s WALL (      15 calls)
     PAW_pot      :      3.08s CPU      3.08s WALL (      15 calls)
     mix_rho      :      0.21s CPU      0.23s WALL (      14 calls)

     Called by c_bands:
     init_us_2    :      3.06s CPU      3.07s WALL (     310 calls)
     cegterg      :    292.50s CPU    301.50s WALL (     140 calls)

     Called by sum_band:
     sum_band:bec :      0.03s CPU      0.03s WALL (     140 calls)
     addusdens    :      1.97s CPU      2.00s WALL (      14 calls)

     Called by *egterg:
     h_psi        :    188.26s CPU    192.83s WALL (     773 calls)
     s_psi        :     23.04s CPU     23.04s WALL (     773 calls)
     g_psi        :      1.44s CPU      1.44s WALL (     623 calls)
     cdiaghg      :     24.63s CPU     24.63s WALL (     763 calls)

     Called by h_psi:
     h_psi:pot    :    186.61s CPU    191.15s WALL (     773 calls)
     h_psi:calbec :     21.25s CPU     21.37s WALL (     773 calls)
     vloc_psi     :    142.41s CPU    146.82s WALL (     773 calls)
     add_vuspsi   :     22.95s CPU     22.95s WALL (     773 calls)

     General routines
     calbec       :     32.57s CPU     32.74s WALL (     963 calls)
     fft          :      0.94s CPU      1.11s WALL (     219 calls)
     fftw         :    153.65s CPU    158.86s WALL (  100926 calls)
 
     Parallel routines
     fft_scatter  :     39.76s CPU     43.16s WALL (  101145 calls)
 
     PWSCF        :  6m45.98s CPU     6m57.78s WALL

 
   This run was terminated on:   0:18:30   5Dec2017            

=------------------------------------------------------------------------------=
   JOB DONE.
=------------------------------------------------------------------------------=
