
     Program PWSCF v.6.1 (svn rev. 13369) starts on  4Nov2017 at  5:40:38 

     This program is part of the open-source Quantum ESPRESSO suite
     for quantum simulation of materials; please cite
         "P. Giannozzi et al., J. Phys.:Condens. Matter 21 395502 (2009);
          URL http://www.quantum-espresso.org", 
     in publications or presentations arising from this work. More details at
     http://www.quantum-espresso.org/quote

     Parallel version (MPI), running on     8 processors
     R & G space division:  proc/nbgrp/npool/nimage =       8
     Waiting for input...
     Reading input from standard input

     Current dimensions of program PWSCF are:
     Max number of different atomic species (ntypx) = 10
     Max number of k-points (npk) =  40000
     Max angular momentum in pseudopotentials (lmaxx) =  3
               file C.pbe-n-kjpaw_psl.0.1.UPF: wavefunction(s)  2P renormalized
               file N.pbe-n-kjpaw_psl.0.1.UPF: wavefunction(s)  2P renormalized
               file H.pbe-kjpaw_psl.0.1.UPF: wavefunction(s)  1S renormalized
               file O.pbe-n-kjpaw_psl.0.1.UPF: wavefunction(s)  2P renormalized

     -------------------------------------
     Parameters for Dispersion Correction:
     -------------------------------------
       atom      VdW radius       C_6     

        C          2.744         60.710
        N          2.640         42.670
        H          1.892          4.857
        O          2.536         24.284

     Subspace diagonalization in iterative solution of the eigenvalue problem:
     a serial algorithm will be used

 
     Parallelization info
     --------------------
     sticks:   dense  smooth     PW     G-vecs:    dense   smooth      PW
     Min         587     587    157                40507    40507    5635
     Max         588     588    158                40513    40513    5638
     Sum        4701    4701   1263               324083   324083   45095
 


     bravais-lattice index     =            0
     lattice parameter (alat)  =      14.5131  a.u.
     unit-cell volume          =    2399.0885 (a.u.)^3
     number of atoms/cell      =           36
     number of atomic types    =            4
     number of electrons       =       104.00
     number of Kohn-Sham states=           62
     kinetic-energy cutoff     =     100.0000  Ry
     charge density cutoff     =     400.0000  Ry
     convergence threshold     =      1.0E-08
     mixing beta               =       0.5000
     number of iterations used =            8  plain     mixing
     Exchange-correlation      =  SLA  PW   PBX  PBC ( 1  4  3  4 0 0)

     celldm(1)=  14.513097  celldm(2)=   0.000000  celldm(3)=   0.000000
     celldm(4)=   0.000000  celldm(5)=   0.000000  celldm(6)=   0.000000

     crystal axes: (cart. coord. in units of alat)
               a(1) = (   1.000000   0.000000   0.000000 )  
               a(2) = (   0.000000   0.700391   0.000000 )  
               a(3) = (  -0.603094   0.000000   1.120536 )  

     reciprocal axes: (cart. coord. in units 2 pi/alat)
               b(1) = (  1.000000  0.000000  0.538219 )  
               b(2) = (  0.000000  1.427775  0.000000 )  
               b(3) = (  0.000000  0.000000  0.892430 )  


     PseudoPot. # 1 for  C read from file:
     /scratch/ahofstet/pseudo/C.pbe-n-kjpaw_psl.0.1.UPF
     MD5 check sum: 430fe95172b1e11ef3f8ed03bac87931
     Pseudo is Projector augmented-wave + core cor, Zval =  4.0
     Generated using "atomic" code by A. Dal Corso  v.5.0.99 svn rev. 10869
     Shape of augmentation charge: BESSEL
     Using radial grid of 1073 points,  4 beta functions with: 
                l(1) =   0
                l(2) =   0
                l(3) =   1
                l(4) =   1
     Q(r) pseudized with 0 coefficients 


     PseudoPot. # 2 for  N read from file:
     /scratch/ahofstet/pseudo/N.pbe-n-kjpaw_psl.0.1.UPF
     MD5 check sum: f73187c8b701007e77325f868c9291d7
     Pseudo is Projector augmented-wave + core cor, Zval =  5.0
     Generated using "atomic" code by A. Dal Corso  v.5.0.99 svn rev. 10869
     Shape of augmentation charge: PSQ
     Using radial grid of 1085 points,  4 beta functions with: 
                l(1) =   0
                l(2) =   0
                l(3) =   1
                l(4) =   1
     Q(r) pseudized with 0 coefficients 


     PseudoPot. # 3 for  H read from file:
     /scratch/ahofstet/pseudo/H.pbe-kjpaw_psl.0.1.UPF
     MD5 check sum: 94e484f906d9e9773b2f6e52662335b2
     Pseudo is Projector augmented-wave, Zval =  1.0
     Generated using "atomic" code by A. Dal Corso  v.5.0.99 svn rev. 10869
     Shape of augmentation charge: PSQ
     Using radial grid of  929 points,  2 beta functions with: 
                l(1) =   0
                l(2) =   0
     Q(r) pseudized with 0 coefficients 


     PseudoPot. # 4 for  O read from file:
     /scratch/ahofstet/pseudo/O.pbe-n-kjpaw_psl.0.1.UPF
     MD5 check sum: 3f94a2996a3169367d6eb21d9b593f20
     Pseudo is Projector augmented-wave + core cor, Zval =  6.0
     Generated using "atomic" code by A. Dal Corso  v.5.0.99 svn rev. 10869
     Shape of augmentation charge: BESSEL
     Using radial grid of 1095 points,  4 beta functions with: 
                l(1) =   0
                l(2) =   0
                l(3) =   1
                l(4) =   1
     Q(r) pseudized with 0 coefficients 


     atomic species   valence    mass     pseudopotential
        C              4.00    12.01070      C( 1.00)
        N              5.00    14.00670      N( 1.00)
        H              1.00     1.00794      H( 1.00)
        O              6.00    15.99940      O( 1.00)

      4 Sym. Ops., with inversion, found ( 2 have fractional translation)



   Cartesian axes

     site n.     atom                  positions (alat units)
         1           N   tau(   1) = (   0.1675155   0.2329989   0.1007754  )
         2           N   tau(   2) = (   0.5309374   0.5831942   0.4594924  )
         3           N   tau(   3) = (   0.2293904   0.4673917   1.0197602  )
         4           N   tau(   4) = (  -0.1340315   0.1171964   0.6610432  )
         5           H   tau(   5) = (  -0.3872626   0.1882918   1.1006660  )
         6           H   tau(   6) = (   0.4826216   0.5384871   0.5801375  )
         7           H   tau(   7) = (   0.7841686   0.5120988   0.0198697  )
         8           H   tau(   8) = (  -0.0857156   0.1619035   0.5403981  )
         9           C   tau(   9) = (   0.0439605   0.1542735   0.2002808  )
        10           C   tau(  10) = (   0.6544925   0.5044688   0.3599871  )
        11           C   tau(  11) = (   0.3529455   0.5461171   0.9202549  )
        12           C   tau(  12) = (  -0.2575865   0.1959218   0.7605486  )
        13           H   tau(  13) = (  -0.0293186   0.0403869   0.1602490  )
        14           H   tau(  14) = (   0.7277716   0.3905822   0.4000188  )
        15           H   tau(  15) = (   0.4262246   0.6600038   0.9602866  )
        16           H   tau(  16) = (  -0.3308656   0.3098085   0.7205168  )
        17           N   tau(  17) = (   0.0190219   0.2411935   0.3492572  )
        18           N   tau(  18) = (   0.6794311   0.5913889   0.2110107  )
        19           N   tau(  19) = (   0.3778840   0.4591971   0.7712785  )
        20           N   tau(  20) = (  -0.2825251   0.1090018   0.9095250  )
        21           C   tau(  21) = (   0.1308660   0.3810109   0.3427891  )
        22           C   tau(  22) = (   0.5675870   0.0308156   0.2174787  )
        23           C   tau(  23) = (   0.2660400   0.3193797   0.7777465  )
        24           C   tau(  24) = (  -0.1706810   0.6695750   0.9030569  )
        25           H   tau(  25) = (   0.1396699   0.4751027   0.4474574  )
        26           H   tau(  26) = (   0.5587831   0.1249074   0.1128104  )
        27           H   tau(  27) = (   0.2572360   0.2252879   0.6730782  )
        28           H   tau(  28) = (  -0.1618771   0.5754832   1.0077252  )
        29           C   tau(  29) = (   0.2236520   0.3777697   0.1890207  )
        30           C   tau(  30) = (   0.4748010   0.0275744   0.3712471  )
        31           C   tau(  31) = (   0.1732540   0.3226209   0.9315150  )
        32           C   tau(  32) = (  -0.0778951   0.6728162   0.7492885  )
        33           H   tau(  33) = (   0.3241639   0.4636892   0.1400045  )
        34           H   tau(  34) = (   0.3742891   0.1134939   0.4202633  )
        35           H   tau(  35) = (   0.0727421   0.2367014   0.9805311  )
        36           H   tau(  36) = (   0.0226169   0.5868967   0.7002723  )

     number of k points=    12
                       cart. coord. in units 2pi/alat
        k(    1) = (   0.0000000   0.0000000   0.0000000), wk =   0.0833333
        k(    2) = (   0.0000000   0.0000000  -0.4462152), wk =   0.0833333
        k(    3) = (   0.0000000   0.3569437   0.0000000), wk =   0.1666667
        k(    4) = (   0.0000000   0.3569437  -0.4462152), wk =   0.1666667
        k(    5) = (   0.0000000  -0.7138873   0.0000000), wk =   0.0833333
        k(    6) = (   0.0000000  -0.7138873  -0.4462152), wk =   0.0833333
        k(    7) = (   0.3333333   0.0000000   0.1794065), wk =   0.1666667
        k(    8) = (   0.3333333   0.0000000  -0.2668087), wk =   0.1666667
        k(    9) = (   0.3333333   0.3569437   0.1794065), wk =   0.3333333
        k(   10) = (   0.3333333   0.3569437  -0.2668087), wk =   0.3333333
        k(   11) = (   0.3333333  -0.7138873   0.1794065), wk =   0.1666667
        k(   12) = (   0.3333333  -0.7138873  -0.2668087), wk =   0.1666667

     Dense  grid:   324083 G-vectors     FFT dimensions: (  96,  72, 120)

     Estimated max dynamical RAM per process >     142.70MB

     Estimated total allocated dynamical RAM >    1141.60MB

     Check: negative/imaginary core charge=   -0.000002    0.000000

     Initial potential from superposition of free atoms

     starting charge  103.99929, renormalised to  104.00000
     Starting wfc are   96 randomized atomic wfcs
     Checking if some PAW data can be deallocated... 

     total cpu time spent up to now is       10.0 secs

     per-process dynamical memory:   151.9 Mb

     Self-consistent Calculation

     iteration #  1     ecut=   100.00 Ry     beta=0.50
     Davidson diagonalization with overlap
     ethr =  1.00E-02,  avg # of iterations =  3.8

     total cpu time spent up to now is       27.1 secs

     total energy              =    -465.53034409 Ry
     Harris-Foulkes estimate   =    -467.34166212 Ry
     estimated scf accuracy    <       3.46691234 Ry

     iteration #  2     ecut=   100.00 Ry     beta=0.50
     Davidson diagonalization with overlap
     ethr =  3.33E-03,  avg # of iterations =  2.1

     total cpu time spent up to now is       37.0 secs

     total energy              =    -465.70854070 Ry
     Harris-Foulkes estimate   =    -465.90959832 Ry
     estimated scf accuracy    <       0.41530294 Ry

     iteration #  3     ecut=   100.00 Ry     beta=0.50
     Davidson diagonalization with overlap
     ethr =  3.99E-04,  avg # of iterations =  4.6

     total cpu time spent up to now is       55.9 secs

     total energy              =    -466.05478291 Ry
     Harris-Foulkes estimate   =    -466.19447346 Ry
     estimated scf accuracy    <       0.37046487 Ry

     iteration #  4     ecut=   100.00 Ry     beta=0.50
     Davidson diagonalization with overlap
     ethr =  3.56E-04,  avg # of iterations =  1.3

     total cpu time spent up to now is       65.0 secs

     total energy              =    -465.98925917 Ry
     Harris-Foulkes estimate   =    -466.07086456 Ry
     estimated scf accuracy    <       0.12174110 Ry

     iteration #  5     ecut=   100.00 Ry     beta=0.50
     Davidson diagonalization with overlap
     ethr =  1.17E-04,  avg # of iterations =  4.4

     total cpu time spent up to now is       83.0 secs

     total energy              =    -466.07027066 Ry
     Harris-Foulkes estimate   =    -466.13369091 Ry
     estimated scf accuracy    <       0.16781559 Ry

     iteration #  6     ecut=   100.00 Ry     beta=0.50
     Davidson diagonalization with overlap
     ethr =  1.17E-04,  avg # of iterations =  1.0

     total cpu time spent up to now is       92.1 secs

     total energy              =    -466.04452728 Ry
     Harris-Foulkes estimate   =    -466.07580591 Ry
     estimated scf accuracy    <       0.05972000 Ry

     iteration #  7     ecut=   100.00 Ry     beta=0.50
     Davidson diagonalization with overlap
     ethr =  5.74E-05,  avg # of iterations =  3.1

     total cpu time spent up to now is      106.8 secs

     total energy              =    -466.07493825 Ry
     Harris-Foulkes estimate   =    -466.07833836 Ry
     estimated scf accuracy    <       0.00719230 Ry

     iteration #  8     ecut=   100.00 Ry     beta=0.50
     Davidson diagonalization with overlap
     ethr =  6.92E-06,  avg # of iterations =  3.2

     total cpu time spent up to now is      116.9 secs

     total energy              =    -466.07492812 Ry
     Harris-Foulkes estimate   =    -466.07558726 Ry
     estimated scf accuracy    <       0.00141621 Ry

     iteration #  9     ecut=   100.00 Ry     beta=0.50
     Davidson diagonalization with overlap
     ethr =  1.36E-06,  avg # of iterations =  4.5

     total cpu time spent up to now is      134.2 secs

     total energy              =    -466.07626925 Ry
     Harris-Foulkes estimate   =    -466.07644645 Ry
     estimated scf accuracy    <       0.00046212 Ry

     iteration # 10     ecut=   100.00 Ry     beta=0.50
     Davidson diagonalization with overlap
     ethr =  4.44E-07,  avg # of iterations =  1.0

     total cpu time spent up to now is      143.3 secs

     total energy              =    -466.07622168 Ry
     Harris-Foulkes estimate   =    -466.07628702 Ry
     estimated scf accuracy    <       0.00015683 Ry

     iteration # 11     ecut=   100.00 Ry     beta=0.50
     Davidson diagonalization with overlap
     ethr =  1.51E-07,  avg # of iterations =  3.5

     total cpu time spent up to now is      157.6 secs

     total energy              =    -466.07628903 Ry
     Harris-Foulkes estimate   =    -466.07628917 Ry
     estimated scf accuracy    <       0.00000177 Ry

     iteration # 12     ecut=   100.00 Ry     beta=0.50
     Davidson diagonalization with overlap
     ethr =  1.70E-09,  avg # of iterations =  4.1

     total cpu time spent up to now is      174.2 secs

     total energy              =    -466.07628963 Ry
     Harris-Foulkes estimate   =    -466.07629030 Ry
     estimated scf accuracy    <       0.00000198 Ry

     iteration # 13     ecut=   100.00 Ry     beta=0.50
     Davidson diagonalization with overlap
     ethr =  1.70E-09,  avg # of iterations =  1.0

     total cpu time spent up to now is      183.3 secs

     total energy              =    -466.07628940 Ry
     Harris-Foulkes estimate   =    -466.07628971 Ry
     estimated scf accuracy    <       0.00000074 Ry

     iteration # 14     ecut=   100.00 Ry     beta=0.50
     Davidson diagonalization with overlap
     ethr =  7.12E-10,  avg # of iterations =  3.0

     total cpu time spent up to now is      197.2 secs

     total energy              =    -466.07628966 Ry
     Harris-Foulkes estimate   =    -466.07628968 Ry
     estimated scf accuracy    <       0.00000006 Ry

     iteration # 15     ecut=   100.00 Ry     beta=0.50
     Davidson diagonalization with overlap
     ethr =  5.46E-11,  avg # of iterations =  3.0

     total cpu time spent up to now is      208.1 secs

     total energy              =    -466.07628966 Ry
     Harris-Foulkes estimate   =    -466.07628967 Ry
     estimated scf accuracy    <       0.00000001 Ry

     iteration # 16     ecut=   100.00 Ry     beta=0.50
     Davidson diagonalization with overlap
     ethr =  1.10E-11,  avg # of iterations =  3.2

     total cpu time spent up to now is      224.3 secs

     End of self-consistent calculation

          k = 0.0000 0.0000 0.0000 ( 40515 PWs)   bands (ev):

   -19.2604 -19.1786 -19.1323 -19.1262 -15.6366 -15.6252 -15.2933 -15.2620
   -12.2453 -12.1482 -12.1478 -12.1364  -9.1652  -9.0982  -8.7130  -8.5833
    -8.4018  -8.3724  -8.3686  -8.2019  -8.0101  -7.6169  -7.3816  -7.3563
    -5.0699  -5.0339  -4.9129  -4.6873  -4.6831  -4.5562  -4.3333  -4.2569
    -4.2483  -4.1696  -4.1609  -4.0274  -3.9745  -3.8635  -3.6940  -3.5579
    -1.2295  -1.1155  -1.0282  -0.9326  -0.9053  -0.7635  -0.5161  -0.3751
    -0.0853   0.0817   0.4771   0.5902   5.5611   5.5709   5.6176   5.9767
     6.0466   6.1272   6.2811   6.3658   6.4208   7.3276

          k = 0.0000 0.0000-0.4462 ( 40474 PWs)   bands (ev):

   -19.2031 -19.2031 -19.1482 -19.1482 -15.4654 -15.4654 -15.4520 -15.4520
   -12.1975 -12.1975 -12.1389 -12.1389  -8.8794  -8.8794  -8.7297  -8.7297
    -8.4610  -8.4610  -8.3004  -8.3004  -7.8519  -7.8519  -7.5343  -7.5343
    -4.9678  -4.9678  -4.6624  -4.6624  -4.5937  -4.5937  -4.3768  -4.3768
    -4.2463  -4.2463  -4.0657  -4.0657  -3.8474  -3.8474  -3.6764  -3.6764
    -1.0043  -1.0043  -0.9322  -0.9322  -0.8341  -0.8341  -0.7586  -0.7586
    -0.0375  -0.0375   0.5768   0.5768   5.6361   5.6361   5.8038   5.8038
     6.0058   6.0058   6.3864   6.3864   6.7643   6.7643

          k = 0.0000 0.3569 0.0000 ( 40484 PWs)   bands (ev):

   -19.2462 -19.1886 -19.1287 -19.1241 -15.6303 -15.6220 -15.2900 -15.2676
   -12.2459 -12.2139 -12.1938 -12.1501  -9.1544  -9.1025  -8.6715  -8.5752
    -8.4471  -8.4277  -8.3064  -8.1840  -7.8912  -7.5808  -7.3950  -7.3476
    -5.0028  -4.9892  -4.8787  -4.7118  -4.7116  -4.5357  -4.3188  -4.2908
    -4.2225  -4.2165  -4.1653  -4.0829  -3.9851  -3.8997  -3.7075  -3.7046
    -1.2721  -1.1916  -1.0406  -0.9783  -0.8795  -0.7961  -0.4910  -0.3938
     0.1755   0.3133   0.5669   0.6686   5.4155   5.5506   5.6335   5.8565
     6.0821   6.1434   6.2007   6.4192   6.5894   7.1770

          k = 0.0000 0.3569-0.4462 ( 40514 PWs)   bands (ev):

   -19.1937 -19.1937 -19.1525 -19.1525 -15.4621 -15.4621 -15.4516 -15.4516
   -12.2382 -12.2382 -12.1582 -12.1582  -8.8646  -8.8646  -8.7754  -8.7754
    -8.4468  -8.4468  -8.3041  -8.3041  -7.7516  -7.7516  -7.5035  -7.5035
    -4.8738  -4.8738  -4.6499  -4.6499  -4.5867  -4.5867  -4.4415  -4.4415
    -4.2629  -4.2629  -4.0968  -4.0968  -3.9483  -3.9483  -3.7301  -3.7301
    -1.0181  -1.0181  -0.9454  -0.9454  -0.8312  -0.8312  -0.7686  -0.7686
     0.2031   0.2031   0.6612   0.6612   5.5587   5.5587   5.7327   5.7327
     5.9849   5.9849   6.3423   6.3423   6.8943   6.8943

          k = 0.0000-0.7139 0.0000 ( 40528 PWs)   bands (ev):

   -19.2151 -19.2151 -19.1236 -19.1236 -15.6214 -15.6214 -15.2800 -15.2800
   -12.2553 -12.2553 -12.2082 -12.2082  -9.1267  -9.1267  -8.5761  -8.5761
    -8.5101  -8.5101  -8.2114  -8.2114  -7.6330  -7.6330  -7.3919  -7.3919
    -5.0121  -5.0121  -4.7059  -4.7059  -4.5860  -4.5860  -4.3965  -4.3965
    -4.2201  -4.2201  -4.1817  -4.1817  -3.8775  -3.8775  -3.8177  -3.8177
    -1.2940  -1.2940  -1.0293  -1.0293  -0.8473  -0.8473  -0.4409  -0.4409
     0.5479   0.5479   0.6460   0.6460   5.3516   5.3516   5.6328   5.6328
     6.1667   6.1667   6.3158   6.3158   7.0494   7.0495

          k = 0.0000-0.7139-0.4462 ( 40516 PWs)   bands (ev):

   -19.1803 -19.1803 -19.1607 -19.1607 -15.4583 -15.4583 -15.4518 -15.4518
   -12.2759 -12.2759 -12.1794 -12.1794  -8.8395  -8.8395  -8.8305  -8.8305
    -8.4227  -8.4227  -8.3148  -8.3148  -7.6399  -7.6399  -7.4873  -7.4873
    -4.7376  -4.7376  -4.6833  -4.6833  -4.5201  -4.5201  -4.4869  -4.4869
    -4.3727  -4.3727  -4.1329  -4.1329  -4.0425  -4.0425  -3.7587  -3.7587
    -1.0285  -1.0285  -0.9619  -0.9619  -0.8343  -0.8343  -0.7749  -0.7749
     0.4851   0.4851   0.7071   0.7071   5.4657   5.4657   5.5436   5.5436
     6.1139   6.1139   6.3019   6.3019   7.0627   7.0627

          k = 0.3333 0.0000 0.1794 ( 40535 PWs)   bands (ev):

   -19.2418 -19.1976 -19.1474 -19.1112 -15.6525 -15.6080 -15.2956 -15.2596
   -12.2395 -12.1664 -12.1538 -12.1182  -9.2055  -9.0433  -8.7031  -8.6053
    -8.3922  -8.3756  -8.3409  -8.2351  -7.9558  -7.7437  -7.4073  -7.3202
    -5.0964  -4.7876  -4.7536  -4.7471  -4.6112  -4.4958  -4.3650  -4.3558
    -4.3349  -4.1586  -4.1422  -4.1231  -3.9286  -3.8785  -3.7552  -3.6794
    -1.2352  -1.1406  -0.9868  -0.9260  -0.8860  -0.7805  -0.4945  -0.3935
     0.0266   0.0644   0.4115   0.5160   5.4957   5.5118   5.7414   6.0047
     6.0405   6.0937   6.3845   6.5145   6.5980   7.3202

          k = 0.3333 0.0000-0.2668 ( 40500 PWs)   bands (ev):

   -19.2062 -19.1821 -19.1694 -19.1451 -15.4834 -15.4780 -15.4395 -15.4334
   -12.2092 -12.2027 -12.1326 -12.1263  -8.8742  -8.8320  -8.7940  -8.7406
    -8.4586  -8.4472  -8.3114  -8.2959  -7.8514  -7.7582  -7.6684  -7.5329
    -4.8561  -4.8086  -4.6891  -4.6240  -4.5690  -4.5154  -4.4274  -4.3908
    -4.2999  -4.2975  -4.1200  -4.0372  -3.9301  -3.8465  -3.7528  -3.6718
    -1.0631  -1.0539  -0.9136  -0.8961  -0.8459  -0.8145  -0.7504  -0.7465
    -0.0012   0.1844   0.3247   0.5168   5.4912   5.4979   5.8716   5.8931
     6.0707   6.2672   6.3587   6.4489   6.7636   7.0337

          k = 0.3333 0.3569 0.1794 ( 40532 PWs)   bands (ev):

   -19.2326 -19.2015 -19.1396 -19.1141 -15.6418 -15.6101 -15.2916 -15.2661
   -12.2712 -12.2067 -12.1660 -12.1596  -9.1853  -9.0681  -8.6728  -8.5873
    -8.4461  -8.4313  -8.2906  -8.1985  -7.8242  -7.6569  -7.3894  -7.3396
    -5.0351  -4.9204  -4.8265  -4.7566  -4.6341  -4.5654  -4.3798  -4.3211
    -4.2561  -4.1877  -4.1576  -4.0899  -3.9669  -3.8556  -3.8067  -3.6620
    -1.2865  -1.1907  -1.0180  -0.9461  -0.8989  -0.8179  -0.4769  -0.4069
     0.2441   0.2833   0.5450   0.6315   5.3904   5.5233   5.5851   5.8533
     6.0064   6.1680   6.3534   6.6193   6.7305   7.0230

          k = 0.3333 0.3569-0.2668 ( 40501 PWs)   bands (ev):

   -19.1975 -19.1803 -19.1659 -19.1487 -15.4759 -15.4711 -15.4429 -15.4377
   -12.2460 -12.2073 -12.1913 -12.1500  -8.8712  -8.8319  -8.8160  -8.7685
    -8.4298  -8.4163  -8.3325  -8.3108  -7.7570  -7.6666  -7.5962  -7.4959
    -4.8865  -4.8120  -4.7439  -4.6725  -4.6175  -4.5304  -4.4403  -4.3881
    -4.3349  -4.2027  -4.1127  -4.0741  -3.9931  -3.8679  -3.7635  -3.7163
    -1.0609  -1.0402  -0.9520  -0.8976  -0.8704  -0.8270  -0.7676  -0.7556
     0.2322   0.3830   0.4682   0.6245   5.4497   5.4728   5.6970   5.7229
     6.0792   6.2474   6.3686   6.4613   6.8497   6.9927

          k = 0.3333-0.7139 0.1794 ( 40518 PWs)   bands (ev):

   -19.2142 -19.2142 -19.1244 -19.1244 -15.6215 -15.6215 -15.2802 -15.2802
   -12.2770 -12.2770 -12.1862 -12.1862  -9.1294  -9.1294  -8.5869  -8.5869
    -8.5086  -8.5086  -8.2064  -8.2064  -7.6113  -7.6113  -7.3800  -7.3800
    -4.9888  -4.9888  -4.8549  -4.8549  -4.6767  -4.6767  -4.3012  -4.3012
    -4.2401  -4.2401  -4.1052  -4.1052  -3.9507  -3.9507  -3.6896  -3.6896
    -1.2942  -1.2942  -1.0070  -1.0070  -0.8797  -0.8797  -0.4409  -0.4409
     0.4970   0.4970   0.6964   0.6964   5.3230   5.3230   5.5741   5.5741
     6.1688   6.1688   6.5396   6.5396   6.9083   6.9083

          k = 0.3333-0.7139-0.2668 ( 40532 PWs)   bands (ev):

   -19.1830 -19.1830 -19.1579 -19.1579 -15.4633 -15.4633 -15.4472 -15.4472
   -12.2596 -12.2596 -12.1983 -12.1983  -8.8641  -8.8641  -8.8047  -8.8047
    -8.3924  -8.3924  -8.3362  -8.3362  -7.6141  -7.6141  -7.4941  -7.4941
    -4.8862  -4.8862  -4.7627  -4.7627  -4.6431  -4.6431  -4.4031  -4.4031
    -4.2392  -4.2392  -4.0963  -4.0963  -3.9426  -3.9426  -3.7579  -3.7579
    -1.0373  -1.0373  -0.9788  -0.9788  -0.8262  -0.8262  -0.7893  -0.7893
     0.5286   0.5286   0.6665   0.6665   5.4283   5.4283   5.4664   5.4664
     6.2619   6.2619   6.3961   6.3961   6.8895   6.8895

     highest occupied, lowest unoccupied level (ev):     0.7071    5.3230

!    total energy              =    -466.07628967 Ry
     Harris-Foulkes estimate   =    -466.07628967 Ry
     estimated scf accuracy    <          5.8E-09 Ry

     total all-electron energy =     -1809.635846 Ry

     The total energy is the sum of the following terms:

     one-electron contribution =    -247.05923904 Ry
     hartree contribution      =     160.74470426 Ry
     xc contribution           =    -104.47848521 Ry
     ewald contribution        =    -129.08452055 Ry
     Dispersion Correction     =      -0.14737370 Ry
     one-center paw contrib.   =    -146.05137544 Ry

     convergence has been achieved in  16 iterations

     Forces acting on atoms (cartesian axes, Ry/au):

     atom    1 type  2   force =    -0.00957136   -0.00534414    0.00138344
     atom    2 type  2   force =     0.00957136   -0.00534414   -0.00138344
     atom    3 type  2   force =     0.00957136    0.00534414   -0.00138344
     atom    4 type  2   force =    -0.00957136    0.00534414    0.00138344
     atom    5 type  3   force =     0.00098766   -0.00092224   -0.00242459
     atom    6 type  3   force =    -0.00098766   -0.00092224    0.00242459
     atom    7 type  3   force =    -0.00098766    0.00092224    0.00242459
     atom    8 type  3   force =     0.00098766    0.00092224   -0.00242459
     atom    9 type  1   force =     0.00458129    0.01348655    0.00318213
     atom   10 type  1   force =    -0.00458129    0.01348655   -0.00318213
     atom   11 type  1   force =    -0.00458129   -0.01348655   -0.00318213
     atom   12 type  1   force =     0.00458129   -0.01348655    0.00318213
     atom   13 type  3   force =     0.00258784   -0.00361551    0.00203529
     atom   14 type  3   force =    -0.00258784   -0.00361551   -0.00203529
     atom   15 type  3   force =    -0.00258784    0.00361551   -0.00203529
     atom   16 type  3   force =     0.00258784    0.00361551    0.00203529
     atom   17 type  2   force =    -0.00312000   -0.00716527   -0.00629447
     atom   18 type  2   force =     0.00312000   -0.00716527    0.00629447
     atom   19 type  2   force =     0.00312000    0.00716527    0.00629447
     atom   20 type  2   force =    -0.00312000    0.00716527   -0.00629447
     atom   21 type  1   force =     0.00528633    0.00057319   -0.00536196
     atom   22 type  1   force =    -0.00528633    0.00057319    0.00536196
     atom   23 type  1   force =    -0.00528633   -0.00057319    0.00536196
     atom   24 type  1   force =     0.00528633   -0.00057319   -0.00536196
     atom   25 type  3   force =    -0.00018781    0.00068017    0.00184874
     atom   26 type  3   force =     0.00018781    0.00068017   -0.00184874
     atom   27 type  3   force =     0.00018781   -0.00068017   -0.00184874
     atom   28 type  3   force =    -0.00018781   -0.00068017    0.00184874
     atom   29 type  1   force =    -0.00070604   -0.00073571    0.00836481
     atom   30 type  1   force =     0.00070604   -0.00073571   -0.00836481
     atom   31 type  1   force =     0.00070604    0.00073571   -0.00836481
     atom   32 type  1   force =    -0.00070604    0.00073571    0.00836481
     atom   33 type  3   force =     0.00141631    0.00103852   -0.00119655
     atom   34 type  3   force =    -0.00141631    0.00103852    0.00119655
     atom   35 type  3   force =    -0.00141631   -0.00103852    0.00119655
     atom   36 type  3   force =     0.00141631   -0.00103852   -0.00119655

     Total force =     0.049147     Total SCF correction =     0.000169


     Computing stress (Cartesian axis) and pressure

          total   stress  (Ry/bohr**3)                   (kbar)     P=   -9.00
  -0.00006318   0.00000000   0.00002548         -9.29      0.00      3.75
   0.00000000  -0.00004095   0.00000000          0.00     -6.02      0.00
   0.00002548   0.00000000  -0.00007945          3.75      0.00    -11.69


     Writing output data file scf.save
 
     init_run     :      9.12s CPU      9.37s WALL (       1 calls)
     electrons    :    207.50s CPU    214.48s WALL (       1 calls)
     forces       :      4.48s CPU      4.51s WALL (       1 calls)
     stress       :     10.39s CPU     10.41s WALL (       1 calls)

     Called by init_run:
     wfcinit      :      5.22s CPU      5.40s WALL (       1 calls)
     potinit      :      1.38s CPU      1.41s WALL (       1 calls)

     Called by electrons:
     c_bands      :    179.63s CPU    185.46s WALL (      16 calls)
     sum_band     :     23.33s CPU     24.22s WALL (      16 calls)
     v_of_rho     :      0.83s CPU      0.91s WALL (      17 calls)
     newd         :      1.37s CPU      1.40s WALL (      17 calls)
     PAW_pot      :      2.07s CPU      2.07s WALL (      17 calls)
     mix_rho      :      0.16s CPU      0.18s WALL (      16 calls)

     Called by c_bands:
     init_us_2    :      1.89s CPU      1.90s WALL (     420 calls)
     cegterg      :    173.48s CPU    179.31s WALL (     192 calls)

     Called by sum_band:
     sum_band:bec :      0.01s CPU      0.01s WALL (     192 calls)
     addusdens    :      1.39s CPU      1.40s WALL (      16 calls)

     Called by *egterg:
     h_psi        :    120.67s CPU    126.49s WALL (     764 calls)
     s_psi        :     14.11s CPU     14.11s WALL (     764 calls)
     g_psi        :      0.77s CPU      0.76s WALL (     560 calls)
     cdiaghg      :      6.60s CPU      6.59s WALL (     752 calls)

     Called by h_psi:
     h_psi:pot    :    119.92s CPU    125.73s WALL (     764 calls)
     h_psi:calbec :     13.72s CPU     13.77s WALL (     764 calls)
     vloc_psi     :     92.21s CPU     97.94s WALL (     764 calls)
     add_vuspsi   :     14.00s CPU     14.01s WALL (     764 calls)

     General routines
     calbec       :     19.57s CPU     19.65s WALL (    1016 calls)
     fft          :      0.51s CPU      0.65s WALL (     245 calls)
     fftw         :     98.51s CPU    104.85s WALL (   83828 calls)
 
     Parallel routines
     fft_scatter  :     25.60s CPU     28.92s WALL (   84073 calls)
 
     PWSCF        :  3m54.40s CPU     4m 2.57s WALL

 
   This run was terminated on:   5:44:40   4Nov2017            

=------------------------------------------------------------------------------=
   JOB DONE.
=------------------------------------------------------------------------------=
