
     Program PWSCF v.6.1 (svn rev. 13369) starts on 20Dec2017 at 22:24:13 

     This program is part of the open-source Quantum ESPRESSO suite
     for quantum simulation of materials; please cite
         "P. Giannozzi et al., J. Phys.:Condens. Matter 21 395502 (2009);
          URL http://www.quantum-espresso.org", 
     in publications or presentations arising from this work. More details at
     http://www.quantum-espresso.org/quote

     Parallel version (MPI), running on     8 processors
     R & G space division:  proc/nbgrp/npool/nimage =       8
     Waiting for input...
     Reading input from standard input

     Current dimensions of program PWSCF are:
     Max number of different atomic species (ntypx) = 10
     Max number of k-points (npk) =  40000
     Max angular momentum in pseudopotentials (lmaxx) =  3
               file C.pbe-n-kjpaw_psl.0.1.UPF: wavefunction(s)  2P renormalized
               file N.pbe-n-kjpaw_psl.0.1.UPF: wavefunction(s)  2P renormalized
               file H.pbe-kjpaw_psl.0.1.UPF: wavefunction(s)  1S renormalized
               file O.pbe-n-kjpaw_psl.0.1.UPF: wavefunction(s)  2P renormalized

     -------------------------------------
     Parameters for Dispersion Correction:
     -------------------------------------
       atom      VdW radius       C_6     

        C          2.744         60.710
        N          2.640         42.670
        H          1.892          4.857
        O          2.536         24.284

     Subspace diagonalization in iterative solution of the eigenvalue problem:
     a serial algorithm will be used

 
     Parallelization info
     --------------------
     sticks:   dense  smooth     PW     G-vecs:    dense   smooth      PW
     Min         537     537    144                35184    35184    4916
     Max         538     538    145                35187    35187    4919
     Sum        4297    4297   1153               281479   281479   39331
 


     bravais-lattice index     =            0
     lattice parameter (alat)  =      14.0104  a.u.
     unit-cell volume          =    2083.2237 (a.u.)^3
     number of atoms/cell      =           36
     number of atomic types    =            4
     number of electrons       =       104.00
     number of Kohn-Sham states=           62
     kinetic-energy cutoff     =     100.0000  Ry
     charge density cutoff     =     400.0000  Ry
     convergence threshold     =      1.0E-08
     mixing beta               =       0.5000
     number of iterations used =            8  plain     mixing
     Exchange-correlation      =  SLA  PW   PBX  PBC ( 1  4  3  4 0 0)

     celldm(1)=  14.010430  celldm(2)=   0.000000  celldm(3)=   0.000000
     celldm(4)=   0.000000  celldm(5)=   0.000000  celldm(6)=   0.000000

     crystal axes: (cart. coord. in units of alat)
               a(1) = (   1.000000   0.000000   0.000000 )  
               a(2) = (   0.000000   0.686674   0.000000 )  
               a(3) = (  -0.682644   0.000000   1.103141 )  

     reciprocal axes: (cart. coord. in units 2 pi/alat)
               b(1) = (  1.000000  0.000000  0.618819 )  
               b(2) = (  0.000000  1.456295  0.000000 )  
               b(3) = (  0.000000  0.000000  0.906502 )  


     PseudoPot. # 1 for  C read from file:
     /scratch/ahofstet/pseudo/C.pbe-n-kjpaw_psl.0.1.UPF
     MD5 check sum: 430fe95172b1e11ef3f8ed03bac87931
     Pseudo is Projector augmented-wave + core cor, Zval =  4.0
     Generated using "atomic" code by A. Dal Corso  v.5.0.99 svn rev. 10869
     Shape of augmentation charge: BESSEL
     Using radial grid of 1073 points,  4 beta functions with: 
                l(1) =   0
                l(2) =   0
                l(3) =   1
                l(4) =   1
     Q(r) pseudized with 0 coefficients 


     PseudoPot. # 2 for  N read from file:
     /scratch/ahofstet/pseudo/N.pbe-n-kjpaw_psl.0.1.UPF
     MD5 check sum: f73187c8b701007e77325f868c9291d7
     Pseudo is Projector augmented-wave + core cor, Zval =  5.0
     Generated using "atomic" code by A. Dal Corso  v.5.0.99 svn rev. 10869
     Shape of augmentation charge: PSQ
     Using radial grid of 1085 points,  4 beta functions with: 
                l(1) =   0
                l(2) =   0
                l(3) =   1
                l(4) =   1
     Q(r) pseudized with 0 coefficients 


     PseudoPot. # 3 for  H read from file:
     /scratch/ahofstet/pseudo/H.pbe-kjpaw_psl.0.1.UPF
     MD5 check sum: 94e484f906d9e9773b2f6e52662335b2
     Pseudo is Projector augmented-wave, Zval =  1.0
     Generated using "atomic" code by A. Dal Corso  v.5.0.99 svn rev. 10869
     Shape of augmentation charge: PSQ
     Using radial grid of  929 points,  2 beta functions with: 
                l(1) =   0
                l(2) =   0
     Q(r) pseudized with 0 coefficients 


     PseudoPot. # 4 for  O read from file:
     /scratch/ahofstet/pseudo/O.pbe-n-kjpaw_psl.0.1.UPF
     MD5 check sum: 3f94a2996a3169367d6eb21d9b593f20
     Pseudo is Projector augmented-wave + core cor, Zval =  6.0
     Generated using "atomic" code by A. Dal Corso  v.5.0.99 svn rev. 10869
     Shape of augmentation charge: BESSEL
     Using radial grid of 1095 points,  4 beta functions with: 
                l(1) =   0
                l(2) =   0
                l(3) =   1
                l(4) =   1
     Q(r) pseudized with 0 coefficients 


     atomic species   valence    mass     pseudopotential
        C              4.00    12.01070      C( 1.00)
        N              5.00    14.00670      N( 1.00)
        H              1.00     1.00794      H( 1.00)
        O              6.00    15.99940      O( 1.00)

      4 Sym. Ops., with inversion, found ( 2 have fractional translation)



   Cartesian axes

     site n.     atom                  positions (alat units)
         1           N   tau(   1) = (   0.1652152   0.2360000   0.0899913  )
         2           N   tau(   2) = (   0.4934626   0.5793369   0.4615792  )
         3           N   tau(   3) = (   0.1521404   0.4506739   1.0131497  )
         4           N   tau(   4) = (  -0.1761070   0.1073370   0.6415618  )
         5           H   tau(   5) = (  -0.4587437   0.1859859   1.0728971  )
         6           H   tau(   6) = (   0.4347771   0.5293228   0.5818145  )
         7           H   tau(   7) = (   0.7760993   0.5006880   0.0302440  )
         8           H   tau(   8) = (  -0.1174215   0.1573511   0.5213266  )
         9           C   tau(   9) = (   0.0326251   0.1537326   0.1864623  )
        10           C   tau(  10) = (   0.6260527   0.4970695   0.3651082  )
        11           C   tau(  11) = (   0.2847305   0.5329413   0.9166787  )
        12           C   tau(  12) = (  -0.3086970   0.1896043   0.7380329  )
        13           H   tau(  13) = (  -0.0392339   0.0345602   0.1427638  )
        14           H   tau(  14) = (   0.6979117   0.3778971   0.4088067  )
        15           H   tau(  15) = (   0.3565895   0.6521137   0.9603772  )
        16           H   tau(  16) = (  -0.3805561   0.3087768   0.6943344  )
        17           N   tau(  17) = (  -0.0045896   0.2466260   0.3368338  )
        18           N   tau(  18) = (   0.6632674   0.5899629   0.2147367  )
        19           N   tau(  19) = (   0.3219452   0.4400478   0.7663072  )
        20           N   tau(  20) = (  -0.3459117   0.0967109   0.8884043  )
        21           C   tau(  21) = (   0.1076670   0.3939517   0.3337025  )
        22           C   tau(  22) = (   0.5510108   0.0506148   0.2178680  )
        23           C   tau(  23) = (   0.2096886   0.2927221   0.7694385  )
        24           C   tau(  24) = (  -0.2336552   0.6360591   0.8852730  )
        25           H   tau(  25) = (   0.1075655   0.4949627   0.4388372  )
        26           H   tau(  26) = (   0.5511123   0.1516257   0.1127333  )
        27           H   tau(  27) = (   0.2097901   0.1917112   0.6643038  )
        28           H   tau(  28) = (  -0.2337567   0.5350481   0.9904077  )
        29           C   tau(  29) = (   0.2134660   0.3892915   0.1808450  )
        30           C   tau(  30) = (   0.4452118   0.0459546   0.3707255  )
        31           C   tau(  31) = (   0.1038896   0.2973823   0.9222960  )
        32           C   tau(  32) = (  -0.1278562   0.6407193   0.7324156  )
        33           H   tau(  33) = (   0.3174264   0.4808287   0.1350860  )
        34           H   tau(  34) = (   0.3412514   0.1374918   0.4164846  )
        35           H   tau(  35) = (  -0.0000708   0.2058451   0.9680551  )
        36           H   tau(  36) = (  -0.0238958   0.5491821   0.6866565  )

     number of k points=    12
                       cart. coord. in units 2pi/alat
        k(    1) = (   0.0000000   0.0000000   0.0000000), wk =   0.0833333
        k(    2) = (   0.0000000   0.0000000  -0.4532512), wk =   0.0833333
        k(    3) = (   0.0000000   0.3640739   0.0000000), wk =   0.1666667
        k(    4) = (   0.0000000   0.3640739  -0.4532512), wk =   0.1666667
        k(    5) = (   0.0000000  -0.7281477   0.0000000), wk =   0.0833333
        k(    6) = (   0.0000000  -0.7281477  -0.4532512), wk =   0.0833333
        k(    7) = (   0.3333333   0.0000000   0.2062729), wk =   0.1666667
        k(    8) = (   0.3333333   0.0000000  -0.2469783), wk =   0.1666667
        k(    9) = (   0.3333333   0.3640739   0.2062729), wk =   0.3333333
        k(   10) = (   0.3333333   0.3640739  -0.2469783), wk =   0.3333333
        k(   11) = (   0.3333333  -0.7281477   0.2062729), wk =   0.1666667
        k(   12) = (   0.3333333  -0.7281477  -0.2469783), wk =   0.1666667

     Dense  grid:   281479 G-vectors     FFT dimensions: (  90,  64, 120)

     Estimated max dynamical RAM per process >     123.93MB

     Estimated total allocated dynamical RAM >     991.46MB

     Check: negative/imaginary core charge=   -0.000002    0.000000

     Initial potential from superposition of free atoms

     starting charge  103.99929, renormalised to  104.00000
     Starting wfc are   96 randomized atomic wfcs
     Checking if some PAW data can be deallocated... 

     total cpu time spent up to now is        8.9 secs

     per-process dynamical memory:   137.2 Mb

     Self-consistent Calculation

     iteration #  1     ecut=   100.00 Ry     beta=0.50
     Davidson diagonalization with overlap
     ethr =  1.00E-02,  avg # of iterations =  3.9

     total cpu time spent up to now is       24.0 secs

     total energy              =    -465.56824837 Ry
     Harris-Foulkes estimate   =    -467.29144403 Ry
     estimated scf accuracy    <       3.35373715 Ry

     iteration #  2     ecut=   100.00 Ry     beta=0.50
     Davidson diagonalization with overlap
     ethr =  3.22E-03,  avg # of iterations =  2.0

     total cpu time spent up to now is       32.6 secs

     total energy              =    -465.73786514 Ry
     Harris-Foulkes estimate   =    -465.92647715 Ry
     estimated scf accuracy    <       0.39972882 Ry

     iteration #  3     ecut=   100.00 Ry     beta=0.50
     Davidson diagonalization with overlap
     ethr =  3.84E-04,  avg # of iterations =  4.5

     total cpu time spent up to now is       49.1 secs

     total energy              =    -466.05830276 Ry
     Harris-Foulkes estimate   =    -466.18404452 Ry
     estimated scf accuracy    <       0.33167257 Ry

     iteration #  4     ecut=   100.00 Ry     beta=0.50
     Davidson diagonalization with overlap
     ethr =  3.19E-04,  avg # of iterations =  1.2

     total cpu time spent up to now is       57.0 secs

     total energy              =    -466.00328286 Ry
     Harris-Foulkes estimate   =    -466.07338045 Ry
     estimated scf accuracy    <       0.10592965 Ry

     iteration #  5     ecut=   100.00 Ry     beta=0.50
     Davidson diagonalization with overlap
     ethr =  1.02E-04,  avg # of iterations =  4.3

     total cpu time spent up to now is       72.6 secs

     total energy              =    -466.07236180 Ry
     Harris-Foulkes estimate   =    -466.12607802 Ry
     estimated scf accuracy    <       0.13975489 Ry

     iteration #  6     ecut=   100.00 Ry     beta=0.50
     Davidson diagonalization with overlap
     ethr =  1.02E-04,  avg # of iterations =  1.0

     total cpu time spent up to now is       80.5 secs

     total energy              =    -466.05210923 Ry
     Harris-Foulkes estimate   =    -466.07727362 Ry
     estimated scf accuracy    <       0.04751059 Ry

     iteration #  7     ecut=   100.00 Ry     beta=0.50
     Davidson diagonalization with overlap
     ethr =  4.57E-05,  avg # of iterations =  3.0

     total cpu time spent up to now is       93.8 secs

     total energy              =    -466.07689655 Ry
     Harris-Foulkes estimate   =    -466.08006108 Ry
     estimated scf accuracy    <       0.00643345 Ry

     iteration #  8     ecut=   100.00 Ry     beta=0.50
     Davidson diagonalization with overlap
     ethr =  6.19E-06,  avg # of iterations =  3.7

     total cpu time spent up to now is      102.3 secs

     total energy              =    -466.07695025 Ry
     Harris-Foulkes estimate   =    -466.07744651 Ry
     estimated scf accuracy    <       0.00109881 Ry

     iteration #  9     ecut=   100.00 Ry     beta=0.50
     Davidson diagonalization with overlap
     ethr =  1.06E-06,  avg # of iterations =  4.4

     total cpu time spent up to now is      117.3 secs

     total energy              =    -466.07813292 Ry
     Harris-Foulkes estimate   =    -466.07831626 Ry
     estimated scf accuracy    <       0.00045421 Ry

     iteration # 10     ecut=   100.00 Ry     beta=0.50
     Davidson diagonalization with overlap
     ethr =  4.37E-07,  avg # of iterations =  1.1

     total cpu time spent up to now is      124.8 secs

     total energy              =    -466.07809727 Ry
     Harris-Foulkes estimate   =    -466.07815145 Ry
     estimated scf accuracy    <       0.00013936 Ry

     iteration # 11     ecut=   100.00 Ry     beta=0.50
     Davidson diagonalization with overlap
     ethr =  1.34E-07,  avg # of iterations =  3.9

     total cpu time spent up to now is      136.8 secs

     total energy              =    -466.07815940 Ry
     Harris-Foulkes estimate   =    -466.07815930 Ry
     estimated scf accuracy    <       0.00000104 Ry

     iteration # 12     ecut=   100.00 Ry     beta=0.50
     Davidson diagonalization with overlap
     ethr =  9.99E-10,  avg # of iterations =  4.0

     total cpu time spent up to now is      151.7 secs

     total energy              =    -466.07816024 Ry
     Harris-Foulkes estimate   =    -466.07816078 Ry
     estimated scf accuracy    <       0.00000190 Ry

     iteration # 13     ecut=   100.00 Ry     beta=0.50
     Davidson diagonalization with overlap
     ethr =  9.99E-10,  avg # of iterations =  1.0

     total cpu time spent up to now is      159.3 secs

     total energy              =    -466.07815989 Ry
     Harris-Foulkes estimate   =    -466.07816030 Ry
     estimated scf accuracy    <       0.00000087 Ry

     iteration # 14     ecut=   100.00 Ry     beta=0.50
     Davidson diagonalization with overlap
     ethr =  8.41E-10,  avg # of iterations =  3.0

     total cpu time spent up to now is      171.0 secs

     total energy              =    -466.07816016 Ry
     Harris-Foulkes estimate   =    -466.07816019 Ry
     estimated scf accuracy    <       0.00000009 Ry

     iteration # 15     ecut=   100.00 Ry     beta=0.50
     Davidson diagonalization with overlap
     ethr =  8.80E-11,  avg # of iterations =  1.8

     total cpu time spent up to now is      179.0 secs

     total energy              =    -466.07816016 Ry
     Harris-Foulkes estimate   =    -466.07816017 Ry
     estimated scf accuracy    <       0.00000002 Ry

     iteration # 16     ecut=   100.00 Ry     beta=0.50
     Davidson diagonalization with overlap
     ethr =  2.06E-11,  avg # of iterations =  3.1

     total cpu time spent up to now is      192.3 secs

     End of self-consistent calculation

          k = 0.0000 0.0000 0.0000 ( 35159 PWs)   bands (ev):

   -18.3692 -18.2013 -18.1894 -18.1731 -14.7163 -14.7080 -14.3307 -14.2882
   -11.3028 -11.1848 -11.1729 -11.1412  -8.2554  -8.1675  -7.8252  -7.6690
    -7.5274  -7.4745  -7.3939  -7.2385  -7.1788  -6.6899  -6.4106  -6.3763
    -4.3654  -4.2784  -4.0664  -3.7758  -3.7245  -3.6685  -3.4043  -3.3305
    -3.2612  -3.1575  -3.1378  -3.0582  -2.8967  -2.8653  -2.6426  -2.4204
    -0.2889  -0.1422  -0.0140   0.0053   0.0227   0.2153   0.4489   0.5957
     0.6446   0.9846   1.3515   1.6316   6.4549   6.5188   6.5344   6.9978
     7.1087   7.2662   7.2758   7.3135   7.8100   8.5925

          k = 0.0000 0.0000-0.4533 ( 35192 PWs)   bands (ev):

   -18.2911 -18.2911 -18.1790 -18.1790 -14.5321 -14.5321 -14.4997 -14.4997
   -11.2403 -11.2403 -11.1586 -11.1586  -7.9772  -7.9772  -7.7580  -7.7580
    -7.5516  -7.5516  -7.3372  -7.3372  -7.0450  -7.0450  -6.5889  -6.5889
    -4.2169  -4.2169  -3.7882  -3.7882  -3.6564  -3.6564  -3.4019  -3.4019
    -3.3634  -3.3634  -2.9650  -2.9650  -2.8103  -2.8103  -2.5982  -2.5982
    -0.0952  -0.0952   0.0197   0.0197   0.1771   0.1771   0.2092   0.2092
     0.7411   0.7411   1.5808   1.5808   6.6275   6.6275   6.7575   6.7575
     6.9533   6.9533   7.3854   7.3854   8.2092   8.2092

          k = 0.0000 0.3641 0.0000 ( 35179 PWs)   bands (ev):

   -18.3417 -18.2298 -18.1714 -18.1670 -14.7047 -14.6982 -14.3272 -14.2966
   -11.3288 -11.3190 -11.2582 -11.1664  -8.2426  -8.1633  -7.7644  -7.6712
    -7.4928  -7.4917  -7.4004  -7.1777  -7.0713  -6.6180  -6.4092  -6.3533
    -4.1770  -4.1512  -4.1241  -3.8586  -3.8256  -3.6669  -3.3645  -3.3480
    -3.2600  -3.1886  -3.1392  -3.0963  -2.9028  -2.9027  -2.6701  -2.6651
    -0.3376  -0.2503  -0.0646  -0.0511   0.0608   0.1690   0.4670   0.5715
     1.0245   1.3127   1.5086   1.7592   6.3393   6.3893   6.6324   6.8693
     7.0827   7.1388   7.2849   7.3896   8.0128   8.4001

          k = 0.0000 0.3641-0.4533 ( 35152 PWs)   bands (ev):

   -18.2736 -18.2736 -18.1847 -18.1847 -14.5250 -14.5250 -14.4984 -14.4984
   -11.3370 -11.3370 -11.1906 -11.1906  -7.9533  -7.9533  -7.8539  -7.8539
    -7.5262  -7.5262  -7.3186  -7.3186  -6.8824  -6.8824  -6.5132  -6.5132
    -4.1100  -4.1100  -3.7647  -3.7647  -3.6752  -3.6752  -3.5162  -3.5162
    -3.2926  -3.2926  -3.0460  -3.0460  -2.9640  -2.9640  -2.6777  -2.6777
    -0.0940  -0.0940  -0.0057  -0.0057   0.1581   0.1581   0.2067   0.2067
     1.0841   1.0841   1.7218   1.7218   6.5262   6.5262   6.6826   6.6826
     6.9622   6.9622   7.3193   7.3193   8.2067   8.2067

          k = 0.0000-0.7281 0.0000 ( 35170 PWs)   bands (ev):

   -18.2820 -18.2820 -18.1613 -18.1613 -14.6905 -14.6905 -14.3146 -14.3146
   -11.4021 -11.4021 -11.2635 -11.2635  -8.2003  -8.2003  -7.6418  -7.6418
    -7.6185  -7.6185  -7.2193  -7.2193  -6.6657  -6.6657  -6.4060  -6.4060
    -4.1841  -4.1841  -3.9061  -3.9061  -3.6935  -3.6935  -3.5021  -3.5021
    -3.2572  -3.2572  -3.0387  -3.0387  -2.9182  -2.9182  -2.7863  -2.7863
    -0.3848  -0.3848  -0.0942  -0.0942   0.1001   0.1001   0.5150   0.5150
     1.5285   1.5285   1.7656   1.7656   6.2142   6.2142   6.5898   6.5898
     7.1710   7.1710   7.3948   7.3948   8.2201   8.2201

          k = 0.0000-0.7281-0.4533 ( 35220 PWs)   bands (ev):

   -18.2513 -18.2513 -18.1951 -18.1951 -14.5171 -14.5171 -14.4980 -14.4980
   -11.4191 -11.4191 -11.2322 -11.2322  -7.9558  -7.9558  -7.9184  -7.9184
    -7.4724  -7.4724  -7.3233  -7.3233  -6.7103  -6.7103  -6.4591  -6.4591
    -3.9589  -3.9589  -3.8243  -3.8243  -3.6307  -3.6307  -3.5332  -3.5332
    -3.3955  -3.3955  -3.1932  -3.1932  -2.9551  -2.9551  -2.7775  -2.7775
    -0.0658  -0.0658  -0.0653  -0.0653   0.1367   0.1367   0.2059   0.2059
     1.4658   1.4658   1.8267   1.8267   6.3365   6.3365   6.5185   6.5185
     7.1067   7.1067   7.3222   7.3222   8.2467   8.2467

          k = 0.3333 0.0000 0.2063 ( 35195 PWs)   bands (ev):

   -18.3332 -18.2388 -18.2282 -18.1343 -14.7531 -14.6674 -14.3352 -14.2833
   -11.3031 -11.1947 -11.1840 -11.1207  -8.3133  -8.0834  -7.8051  -7.7076
    -7.4995  -7.4673  -7.3706  -7.2872  -7.1535  -6.8707  -6.4384  -6.2965
    -4.3023  -3.9895  -3.9676  -3.8003  -3.6863  -3.5977  -3.4868  -3.4195
    -3.3971  -3.1636  -3.0924  -3.0224  -2.9384  -2.8944  -2.6863  -2.5860
    -0.2849  -0.2037  -0.0149   0.0268   0.1423   0.1857   0.4642   0.5683
     0.7729   0.8618   1.3754   1.5321   6.4527   6.4712   6.6445   6.9669
     7.0675   7.1428   7.4400   7.5548   7.9365   8.5545

          k = 0.3333 0.0000-0.2470 ( 35241 PWs)   bands (ev):

   -18.3030 -18.2579 -18.2129 -18.1669 -14.5602 -14.5464 -14.4862 -14.4703
   -11.2538 -11.2506 -11.1457 -11.1446  -7.9675  -7.9050  -7.8508  -7.7643
    -7.5754  -7.5305  -7.3714  -7.2991  -7.0312  -6.9627  -6.7637  -6.5787
    -4.1626  -3.9720  -3.8035  -3.7725  -3.6694  -3.5832  -3.4706  -3.4037
    -3.3169  -3.2835  -3.0605  -2.9881  -2.8902  -2.8200  -2.7374  -2.5842
    -0.1502  -0.1459   0.0324   0.0597   0.0969   0.1927   0.2180   0.2400
     0.7351   1.1028   1.1768   1.5492   6.4294   6.4331   6.8001   6.8713
     7.0807   7.2716   7.4648   7.4947   8.2100   8.3896

          k = 0.3333 0.3641 0.2063 ( 35169 PWs)   bands (ev):

   -18.3148 -18.2534 -18.2017 -18.1408 -14.7314 -14.6702 -14.3300 -14.2936
   -11.3862 -11.2925 -11.2018 -11.1909  -8.2844  -8.1125  -7.7734  -7.6903
    -7.5056  -7.4720  -7.3995  -7.2021  -6.9825  -6.7055  -6.4112  -6.3296
    -4.1847  -4.1182  -3.9707  -3.9429  -3.7601  -3.6427  -3.4440  -3.4167
    -3.3002  -3.2123  -3.0716  -3.0280  -2.9983  -2.8984  -2.7767  -2.5847
    -0.3737  -0.2431  -0.1014   0.0126   0.0922   0.1546   0.4809   0.5553
     1.1072   1.1852   1.5793   1.7100   6.3580   6.4798   6.4949   6.8536
     6.9604   7.1991   7.3945   7.5926   8.0501   8.2585

          k = 0.3333 0.3641-0.2470 ( 35170 PWs)   bands (ev):

   -18.2849 -18.2527 -18.2056 -18.1731 -14.5455 -14.5330 -14.4916 -14.4781
   -11.3489 -11.2936 -11.2395 -11.1769  -7.9676  -7.9208  -7.8913  -7.8369
    -7.4930  -7.4680  -7.3754  -7.3323  -6.8991  -6.7823  -6.6342  -6.4949
    -4.1396  -3.9813  -3.9507  -3.7840  -3.7462  -3.6046  -3.4716  -3.4184
    -3.3505  -3.1976  -3.1054  -3.0859  -2.9449  -2.8502  -2.7462  -2.6713
    -0.1357  -0.1310  -0.0143   0.0435   0.0913   0.1428   0.2039   0.2240
     1.0852   1.3897   1.4047   1.7141   6.3977   6.4497   6.5920   6.6852
     7.0585   7.3213   7.3750   7.5003   8.1717   8.2598

          k = 0.3333-0.7281 0.2063 ( 35146 PWs)   bands (ev):

   -18.2787 -18.2787 -18.1646 -18.1646 -14.6912 -14.6912 -14.3146 -14.3146
   -11.4230 -11.4230 -11.2414 -11.2414  -8.2005  -8.2005  -7.6534  -7.6534
    -7.6187  -7.6187  -7.2227  -7.2227  -6.6156  -6.6156  -6.4032  -6.4032
    -4.1465  -4.1465  -4.0590  -4.0590  -3.7848  -3.7848  -3.3604  -3.3604
    -3.3097  -3.3097  -3.0481  -3.0481  -2.9664  -2.9664  -2.6400  -2.6400
    -0.3917  -0.3917  -0.0895  -0.0895   0.0957   0.0957   0.5173   0.5173
     1.4848   1.4848   1.8157   1.8157   6.2226   6.2226   6.5269   6.5269
     7.1712   7.1712   7.5751   7.5751   8.1252   8.1253

          k = 0.3333-0.7281-0.2470 ( 35188 PWs)   bands (ev):

   -18.2561 -18.2561 -18.1899 -18.1899 -14.5184 -14.5184 -14.4984 -14.4984
   -11.4007 -11.4007 -11.2551 -11.2551  -7.9747  -7.9747  -7.9005  -7.9005
    -7.4315  -7.4315  -7.3397  -7.3397  -6.6725  -6.6725  -6.4640  -6.4640
    -4.1519  -4.1519  -3.9173  -3.9173  -3.7402  -3.7402  -3.4707  -3.4707
    -3.2658  -3.2658  -3.0561  -3.0561  -2.9625  -2.9625  -2.7081  -2.7081
    -0.1059  -0.1059  -0.0633  -0.0633   0.1315   0.1315   0.1834   0.1834
     1.5188   1.5188   1.7844   1.7844   6.3236   6.3236   6.4135   6.4135
     7.2874   7.2874   7.4460   7.4460   8.0554   8.0554

     highest occupied, lowest unoccupied level (ev):     1.8267    6.2142

!    total energy              =    -466.07816016 Ry
     Harris-Foulkes estimate   =    -466.07816017 Ry
     estimated scf accuracy    <          6.4E-09 Ry

     total all-electron energy =     -1809.637717 Ry

     The total energy is the sum of the following terms:

     one-electron contribution =    -197.45536077 Ry
     hartree contribution      =     139.68302755 Ry
     xc contribution           =    -104.66543793 Ry
     ewald contribution        =    -157.39129141 Ry
     Dispersion Correction     =      -0.19425003 Ry
     one-center paw contrib.   =    -146.05484758 Ry

     convergence has been achieved in  16 iterations

     Forces acting on atoms (cartesian axes, Ry/au):

     atom    1 type  2   force =    -0.01429054   -0.00789356    0.00147314
     atom    2 type  2   force =     0.01429054   -0.00789356   -0.00147314
     atom    3 type  2   force =     0.01429054    0.00789356   -0.00147314
     atom    4 type  2   force =    -0.01429054    0.00789356    0.00147314
     atom    5 type  3   force =     0.00089578   -0.00045196   -0.00256650
     atom    6 type  3   force =    -0.00089578   -0.00045196    0.00256650
     atom    7 type  3   force =    -0.00089578    0.00045196    0.00256650
     atom    8 type  3   force =     0.00089578    0.00045196   -0.00256650
     atom    9 type  1   force =     0.00769084    0.01995381    0.00455934
     atom   10 type  1   force =    -0.00769084    0.01995381   -0.00455934
     atom   11 type  1   force =    -0.00769084   -0.01995381   -0.00455934
     atom   12 type  1   force =     0.00769084   -0.01995381    0.00455934
     atom   13 type  3   force =     0.00348620   -0.00504312    0.00354434
     atom   14 type  3   force =    -0.00348620   -0.00504312   -0.00354434
     atom   15 type  3   force =    -0.00348620    0.00504312   -0.00354434
     atom   16 type  3   force =     0.00348620    0.00504312    0.00354434
     atom   17 type  2   force =    -0.00301451   -0.00941702   -0.00967264
     atom   18 type  2   force =     0.00301451   -0.00941702    0.00967264
     atom   19 type  2   force =     0.00301451    0.00941702    0.00967264
     atom   20 type  2   force =    -0.00301451    0.00941702   -0.00967264
     atom   21 type  1   force =     0.00567520    0.00092230   -0.00718352
     atom   22 type  1   force =    -0.00567520    0.00092230    0.00718352
     atom   23 type  1   force =    -0.00567520   -0.00092230    0.00718352
     atom   24 type  1   force =     0.00567520   -0.00092230   -0.00718352
     atom   25 type  3   force =    -0.00028307    0.00070454    0.00255465
     atom   26 type  3   force =     0.00028307    0.00070454   -0.00255465
     atom   27 type  3   force =     0.00028307   -0.00070454   -0.00255465
     atom   28 type  3   force =    -0.00028307   -0.00070454    0.00255465
     atom   29 type  1   force =    -0.00224981   -0.00067606    0.00914465
     atom   30 type  1   force =     0.00224981   -0.00067606   -0.00914465
     atom   31 type  1   force =     0.00224981    0.00067606   -0.00914465
     atom   32 type  1   force =    -0.00224981    0.00067606    0.00914465
     atom   33 type  3   force =     0.00201546    0.00062287   -0.00154296
     atom   34 type  3   force =    -0.00201546    0.00062287    0.00154296
     atom   35 type  3   force =    -0.00201546   -0.00062287    0.00154296
     atom   36 type  3   force =     0.00201546   -0.00062287   -0.00154296

     Total force =     0.068807     Total SCF correction =     0.000204


     Computing stress (Cartesian axis) and pressure

          total   stress  (Ry/bohr**3)                   (kbar)     P=    0.71
   0.00000208   0.00000000   0.00002387          0.31      0.00      3.51
   0.00000000   0.00001753   0.00000000          0.00      2.58      0.00
   0.00002387   0.00000000  -0.00000513          3.51      0.00     -0.75


     Writing output data file scf.save
 
     init_run     :      8.03s CPU      8.28s WALL (       1 calls)
     electrons    :    179.24s CPU    183.48s WALL (       1 calls)
     forces       :      4.10s CPU      4.12s WALL (       1 calls)
     stress       :      9.68s CPU      9.70s WALL (       1 calls)

     Called by init_run:
     wfcinit      :      4.39s CPU      4.60s WALL (       1 calls)
     potinit      :      1.31s CPU      1.32s WALL (       1 calls)

     Called by electrons:
     c_bands      :    155.38s CPU    158.99s WALL (      16 calls)
     sum_band     :     19.37s CPU     19.88s WALL (      16 calls)
     v_of_rho     :      0.73s CPU      0.80s WALL (      17 calls)
     newd         :      1.26s CPU      1.28s WALL (      17 calls)
     PAW_pot      :      2.16s CPU      2.16s WALL (      17 calls)
     mix_rho      :      0.16s CPU      0.17s WALL (      16 calls)

     Called by c_bands:
     init_us_2    :      1.62s CPU      1.62s WALL (     420 calls)
     cegterg      :    149.67s CPU    153.22s WALL (     192 calls)

     Called by sum_band:
     sum_band:bec :      0.01s CPU      0.01s WALL (     192 calls)
     addusdens    :      1.28s CPU      1.30s WALL (      16 calls)

     Called by *egterg:
     h_psi        :     98.72s CPU    102.30s WALL (     756 calls)
     s_psi        :     12.03s CPU     12.03s WALL (     756 calls)
     g_psi        :      0.65s CPU      0.65s WALL (     552 calls)
     cdiaghg      :      6.45s CPU      6.45s WALL (     744 calls)

     Called by h_psi:
     h_psi:pot    :     98.08s CPU    101.65s WALL (     756 calls)
     h_psi:calbec :     12.46s CPU     12.50s WALL (     756 calls)
     vloc_psi     :     73.71s CPU     77.22s WALL (     756 calls)
     add_vuspsi   :     11.91s CPU     11.92s WALL (     756 calls)

     General routines
     calbec       :     19.17s CPU     19.24s WALL (    1008 calls)
     fft          :      0.75s CPU      0.87s WALL (     245 calls)
     fftw         :     78.77s CPU     82.38s WALL (   83912 calls)
 
     Parallel routines
     fft_scatter  :     29.36s CPU     31.33s WALL (   84157 calls)
 
     PWSCF        :  3m23.60s CPU     3m28.96s WALL

 
   This run was terminated on:  22:27:42  20Dec2017            

=------------------------------------------------------------------------------=
   JOB DONE.
=------------------------------------------------------------------------------=
