
     Program PWSCF v.6.1 (svn rev. 13369) starts on  4Nov2017 at  5:33:49 

     This program is part of the open-source Quantum ESPRESSO suite
     for quantum simulation of materials; please cite
         "P. Giannozzi et al., J. Phys.:Condens. Matter 21 395502 (2009);
          URL http://www.quantum-espresso.org", 
     in publications or presentations arising from this work. More details at
     http://www.quantum-espresso.org/quote

     Parallel version (MPI), running on     8 processors
     R & G space division:  proc/nbgrp/npool/nimage =       8
     Waiting for input...
     Reading input from standard input

     Current dimensions of program PWSCF are:
     Max number of different atomic species (ntypx) = 10
     Max number of k-points (npk) =  40000
     Max angular momentum in pseudopotentials (lmaxx) =  3
               file C.pbe-n-kjpaw_psl.0.1.UPF: wavefunction(s)  2P renormalized
               file N.pbe-n-kjpaw_psl.0.1.UPF: wavefunction(s)  2P renormalized
               file H.pbe-kjpaw_psl.0.1.UPF: wavefunction(s)  1S renormalized
               file O.pbe-n-kjpaw_psl.0.1.UPF: wavefunction(s)  2P renormalized

     -------------------------------------
     Parameters for Dispersion Correction:
     -------------------------------------
       atom      VdW radius       C_6     

        C          2.744         60.710
        N          2.640         42.670
        H          1.892          4.857
        O          2.536         24.284

     Subspace diagonalization in iterative solution of the eigenvalue problem:
     a serial algorithm will be used

 
     Parallelization info
     --------------------
     sticks:   dense  smooth     PW     G-vecs:    dense   smooth      PW
     Min         987     987    263                77952    77952   10761
     Max         988     988    264                77953    77953   10765
     Sum        7897    7897   2105               623617   623617   86101
 


     bravais-lattice index     =            0
     lattice parameter (alat)  =      22.3120  a.u.
     unit-cell volume          =    4614.9243 (a.u.)^3
     number of atoms/cell      =           96
     number of atomic types    =            4
     number of electrons       =       312.00
     number of Kohn-Sham states=          187
     kinetic-energy cutoff     =     100.0000  Ry
     charge density cutoff     =     400.0000  Ry
     convergence threshold     =      1.0E-08
     mixing beta               =       0.5000
     number of iterations used =            8  plain     mixing
     Exchange-correlation      =  SLA  PW   PBX  PBC ( 1  4  3  4 0 0)

     celldm(1)=  22.311996  celldm(2)=   0.000000  celldm(3)=   0.000000
     celldm(4)=   0.000000  celldm(5)=   0.000000  celldm(6)=   0.000000

     crystal axes: (cart. coord. in units of alat)
               a(1) = (   1.000000   0.000000   0.000000 )  
               a(2) = (   0.000000   0.497569   0.000000 )  
               a(3) = (  -0.443613   0.000000   0.835018 )  

     reciprocal axes: (cart. coord. in units 2 pi/alat)
               b(1) = (  1.000000  0.000000  0.531262 )  
               b(2) = (  0.000000  2.009771  0.000000 )  
               b(3) = (  0.000000  0.000000  1.197579 )  


     PseudoPot. # 1 for  C read from file:
     /scratch/ahofstet/pseudo/C.pbe-n-kjpaw_psl.0.1.UPF
     MD5 check sum: 430fe95172b1e11ef3f8ed03bac87931
     Pseudo is Projector augmented-wave + core cor, Zval =  4.0
     Generated using "atomic" code by A. Dal Corso  v.5.0.99 svn rev. 10869
     Shape of augmentation charge: BESSEL
     Using radial grid of 1073 points,  4 beta functions with: 
                l(1) =   0
                l(2) =   0
                l(3) =   1
                l(4) =   1
     Q(r) pseudized with 0 coefficients 


     PseudoPot. # 2 for  N read from file:
     /scratch/ahofstet/pseudo/N.pbe-n-kjpaw_psl.0.1.UPF
     MD5 check sum: f73187c8b701007e77325f868c9291d7
     Pseudo is Projector augmented-wave + core cor, Zval =  5.0
     Generated using "atomic" code by A. Dal Corso  v.5.0.99 svn rev. 10869
     Shape of augmentation charge: PSQ
     Using radial grid of 1085 points,  4 beta functions with: 
                l(1) =   0
                l(2) =   0
                l(3) =   1
                l(4) =   1
     Q(r) pseudized with 0 coefficients 


     PseudoPot. # 3 for  H read from file:
     /scratch/ahofstet/pseudo/H.pbe-kjpaw_psl.0.1.UPF
     MD5 check sum: 94e484f906d9e9773b2f6e52662335b2
     Pseudo is Projector augmented-wave, Zval =  1.0
     Generated using "atomic" code by A. Dal Corso  v.5.0.99 svn rev. 10869
     Shape of augmentation charge: PSQ
     Using radial grid of  929 points,  2 beta functions with: 
                l(1) =   0
                l(2) =   0
     Q(r) pseudized with 0 coefficients 


     PseudoPot. # 4 for  O read from file:
     /scratch/ahofstet/pseudo/O.pbe-n-kjpaw_psl.0.1.UPF
     MD5 check sum: 3f94a2996a3169367d6eb21d9b593f20
     Pseudo is Projector augmented-wave + core cor, Zval =  6.0
     Generated using "atomic" code by A. Dal Corso  v.5.0.99 svn rev. 10869
     Shape of augmentation charge: BESSEL
     Using radial grid of 1095 points,  4 beta functions with: 
                l(1) =   0
                l(2) =   0
                l(3) =   1
                l(4) =   1
     Q(r) pseudized with 0 coefficients 


     atomic species   valence    mass     pseudopotential
        C              4.00    12.01070      C( 1.00)
        N              5.00    14.00670      N( 1.00)
        H              1.00     1.00794      H( 1.00)
        O              6.00    15.99940      O( 1.00)

      2 Sym. Ops., with inversion, found
          (note:  2 additional sym.ops. were found but ignored
           their fractional translations are incommensurate with FFT grid)


   Cartesian axes

     site n.     atom                  positions (alat units)
         1           O   tau(   1) = (  -0.1278982   0.1502942   0.3772512  )
         2           O   tau(   2) = (   0.9060917   0.3990788   0.0402578  )
         3           O   tau(   3) = (   0.6842852   0.3472751   0.4577667  )
         4           O   tau(   4) = (  -0.3497048   0.0984905   0.7947601  )
         5           H   tau(   5) = (  -0.1228031   0.1450265   0.2863914  )
         6           H   tau(   6) = (   0.9009966   0.3938111   0.1311175  )
         7           H   tau(   7) = (   0.6791901   0.3525428   0.5486265  )
         8           H   tau(   8) = (  -0.3446097   0.1037582   0.7039003  )
         9           O   tau(   9) = (   0.6646556   0.1012849   0.5841266  )
        10           O   tau(  10) = (  -0.3300752   0.3500696   0.6684001  )
        11           O   tau(  11) = (  -0.1082687   0.3962843   0.2508912  )
        12           O   tau(  12) = (   0.8864621   0.1474997   0.1666177  )
        13           O   tau(  13) = (   0.6921816   0.0912613   0.3557647  )
        14           O   tau(  14) = (   0.0860119   0.3400460   0.0617443  )
        15           O   tau(  15) = (  -0.1357947   0.4063079   0.4792532  )
        16           O   tau(  16) = (   0.4703751   0.1575233   0.7732736  )
        17           O   tau(  17) = (  -0.1567215   0.1616968   0.6033572  )
        18           O   tau(  18) = (   0.4913019   0.4104814   0.6491696  )
        19           O   tau(  19) = (   0.7131084   0.3358725   0.2316607  )
        20           O   tau(  20) = (   0.0650851   0.0870878   0.1858482  )
        21           C   tau(  21) = (   0.7724050   0.1217514   0.4149544  )
        22           C   tau(  22) = (   0.0057885   0.3705360   0.0025546  )
        23           C   tau(  23) = (  -0.2160181   0.3758179   0.4200635  )
        24           C   tau(  24) = (   0.5505985   0.1270333   0.8324633  )
        25           C   tau(  25) = (  -0.2398404   0.1287961   0.5457235  )
        26           C   tau(  26) = (   0.5744208   0.3775807   0.7068033  )
        27           C   tau(  27) = (   0.7962273   0.3687732   0.2892943  )
        28           C   tau(  28) = (  -0.0180339   0.1199885   0.1282146  )
        29           O   tau(  29) = (   0.0551186   0.2399285   0.7236949  )
        30           O   tau(  30) = (   0.2794618   0.4887131   0.5288319  )
        31           O   tau(  31) = (   0.5012684   0.2576407   0.1113230  )
        32           O   tau(  32) = (   0.2769251   0.0088561   0.3061860  )
        33           O   tau(  33) = (   0.0817412   0.3966738   0.6261314  )
        34           O   tau(  34) = (   0.2528392   0.1478892   0.6263954  )
        35           O   tau(  35) = (   0.4746458   0.1008954   0.2088865  )
        36           O   tau(  36) = (   0.3035477   0.3496800   0.2086224  )
        37           H   tau(  37) = (   0.2401216   0.3862185   0.6490867  )
        38           H   tau(  38) = (   0.0944588   0.1374339   0.6034401  )
        39           H   tau(  39) = (   0.3162653   0.1113507   0.1859312  )
        40           H   tau(  40) = (   0.4619281   0.3601353   0.2315777  )
        41           N   tau(  41) = (  -0.1498931   0.2905354   0.7942688  )
        42           N   tau(  42) = (   0.4844735   0.0417507   0.4582580  )
        43           N   tau(  43) = (   0.7062800   0.2070339   0.0407491  )
        44           N   tau(  44) = (   0.0719134   0.4558185   0.3767599  )
        45           H   tau(  45) = (   0.3435840   0.2557436   0.0217374  )
        46           H   tau(  46) = (   0.4346094   0.0069590   0.3957716  )
        47           H   tau(  47) = (   0.2128029   0.2418257   0.8132805  )
        48           H   tau(  48) = (   0.1217775   0.4906103   0.4392463  )
        49           H   tau(  49) = (  -0.1683065   0.2276679   0.7351318  )
        50           H   tau(  50) = (   0.5028869   0.4764525   0.5173950  )
        51           H   tau(  51) = (   0.7246934   0.2699013   0.0998861  )
        52           H   tau(  52) = (   0.0535001   0.0211167   0.3176229  )
        53           H   tau(  53) = (  -0.2262203   0.3177715   0.8294384  )
        54           H   tau(  54) = (   0.5608007   0.0689868   0.4230884  )
        55           H   tau(  55) = (   0.7826072   0.1797978   0.0055795  )
        56           H   tau(  56) = (  -0.0044137   0.4285824   0.4119295  )
        57           C   tau(  57) = (   0.0220585   0.3344257   0.6950766  )
        58           C   tau(  58) = (   0.3125219   0.0856411   0.5574502  )
        59           C   tau(  59) = (   0.5343284   0.1631435   0.1399413  )
        60           C   tau(  60) = (   0.2438651   0.4119282   0.2775676  )
        61           C   tau(  61) = (  -0.0893428   0.3829519   0.7361400  )
        62           C   tau(  62) = (   0.4239232   0.1341673   0.5163868  )
        63           C   tau(  63) = (   0.6457297   0.1146174   0.0988778  )
        64           C   tau(  64) = (   0.1324637   0.3634020   0.3186311  )
        65           H   tau(  65) = (  -0.1383316   0.4057857   0.6607839  )
        66           H   tau(  66) = (   0.4729120   0.1570011   0.5917429  )
        67           H   tau(  67) = (   0.6947186   0.0917835   0.1742340  )
        68           H   tau(  68) = (   0.0834749   0.3405682   0.2432750  )
        69           C   tau(  69) = (  -0.0781438   0.4846386   0.8138039  )
        70           C   tau(  70) = (   0.4127242   0.2358540   0.4387228  )
        71           C   tau(  71) = (   0.6345307   0.0129306   0.0212139  )
        72           C   tau(  72) = (   0.1436627   0.2617152   0.3962950  )
        73           H   tau(  73) = (   0.4055465   0.4598940   0.0584319  )
        74           H   tau(  74) = (   0.3726470   0.2111094   0.3590771  )
        75           H   tau(  75) = (   0.1508405   0.0376752   0.7765860  )
        76           H   tau(  76) = (   0.1837400   0.2864599   0.4759408  )
        77           H   tau(  77) = (  -0.1627786   0.0201019   0.8325345  )
        78           H   tau(  78) = (   0.4973590   0.2688866   0.4199923  )
        79           H   tau(  79) = (   0.7191656   0.4774673   0.0024834  )
        80           H   tau(  80) = (   0.0590279   0.2286827   0.4150256  )
        81           H   tau(  81) = (  -0.0289664   0.0547530   0.7740718  )
        82           H   tau(  82) = (   0.3635468   0.3035376   0.4784550  )
        83           H   tau(  83) = (   0.5853533   0.4428163   0.0609461  )
        84           H   tau(  84) = (   0.1928401   0.1940316   0.3565629  )
        85           O   tau(  85) = (   0.2927762   0.3375857   0.6916448  )
        86           O   tau(  86) = (   0.0418042   0.0888011   0.5608819  )
        87           O   tau(  87) = (   0.2636107   0.1599835   0.1433730  )
        88           O   tau(  88) = (   0.5145827   0.4087681   0.2741359  )
        89           H   tau(  89) = (   0.3705018   0.3716270   0.6826937  )
        90           H   tau(  90) = (  -0.0359214   0.1228424   0.5698331  )
        91           H   tau(  91) = (   0.1858852   0.1259422   0.1523241  )
        92           H   tau(  92) = (   0.5923083   0.3747269   0.2651848  )
        93           H   tau(  93) = (   0.2821327   0.2324024   0.6477388  )
        94           H   tau(  94) = (   0.0524477  -0.0163823   0.6047880  )
        95           H   tau(  95) = (   0.2742542   0.2651669   0.1872791  )
        96           H   tau(  96) = (   0.5039393   0.5139515   0.2302299  )

     number of k points=     8
                       cart. coord. in units 2pi/alat
        k(    1) = (   0.0000000   0.0000000   0.0000000), wk =   0.1666667
        k(    2) = (   0.0000000   0.0000000  -0.5987896), wk =   0.1666667
        k(    3) = (   0.0000000   0.6699235   0.0000000), wk =   0.3333333
        k(    4) = (   0.0000000   0.6699235  -0.5987896), wk =   0.3333333
        k(    5) = (  -0.5000000   0.0000000  -0.2656309), wk =   0.1666667
        k(    6) = (  -0.5000000   0.0000000  -0.8644205), wk =   0.1666667
        k(    7) = (  -0.5000000   0.6699235  -0.2656309), wk =   0.3333333
        k(    8) = (  -0.5000000   0.6699235  -0.8644205), wk =   0.3333333

     Dense  grid:   623617 G-vectors     FFT dimensions: ( 144,  72, 135)

     Estimated max dynamical RAM per process >     612.83MB

     Estimated total allocated dynamical RAM >    4902.67MB

     Check: negative/imaginary core charge=   -0.000003    0.000000

     Initial potential from superposition of free atoms

     starting charge  311.99868, renormalised to  312.00000
     Starting wfc are  252 randomized atomic wfcs
     Checking if some PAW data can be deallocated... 

     total cpu time spent up to now is       35.0 secs

     per-process dynamical memory:   425.2 Mb

     Self-consistent Calculation

     iteration #  1     ecut=   100.00 Ry     beta=0.50
     Davidson diagonalization with overlap
     ethr =  1.00E-02,  avg # of iterations =  4.1

     total cpu time spent up to now is      138.6 secs

     total energy              =   -1699.09022770 Ry
     Harris-Foulkes estimate   =   -1704.37449180 Ry
     estimated scf accuracy    <       9.55327715 Ry

     iteration #  2     ecut=   100.00 Ry     beta=0.50
     Davidson diagonalization with overlap
     ethr =  3.06E-03,  avg # of iterations =  3.4

     total cpu time spent up to now is      210.5 secs

     total energy              =   -1701.00630315 Ry
     Harris-Foulkes estimate   =   -1701.78636482 Ry
     estimated scf accuracy    <       1.68371647 Ry

     iteration #  3     ecut=   100.00 Ry     beta=0.50
     Davidson diagonalization with overlap
     ethr =  5.40E-04,  avg # of iterations =  6.8

     total cpu time spent up to now is      281.8 secs

     total energy              =   -1701.32705104 Ry
     Harris-Foulkes estimate   =   -1701.40508725 Ry
     estimated scf accuracy    <       0.24559786 Ry

     iteration #  4     ecut=   100.00 Ry     beta=0.50
     Davidson diagonalization with overlap
     ethr =  7.87E-05,  avg # of iterations =  9.1

     total cpu time spent up to now is      369.1 secs

     total energy              =   -1701.36941537 Ry
     Harris-Foulkes estimate   =   -1701.38945617 Ry
     estimated scf accuracy    <       0.05775187 Ry

     iteration #  5     ecut=   100.00 Ry     beta=0.50
     Davidson diagonalization with overlap
     ethr =  1.85E-05,  avg # of iterations =  3.1

     total cpu time spent up to now is      429.2 secs

     total energy              =   -1701.37818117 Ry
     Harris-Foulkes estimate   =   -1701.38033666 Ry
     estimated scf accuracy    <       0.00658454 Ry

     iteration #  6     ecut=   100.00 Ry     beta=0.50
     Davidson diagonalization with overlap
     ethr =  2.11E-06,  avg # of iterations =  8.8

     total cpu time spent up to now is      529.3 secs

     total energy              =   -1701.38012519 Ry
     Harris-Foulkes estimate   =   -1701.38029197 Ry
     estimated scf accuracy    <       0.00060030 Ry

     iteration #  7     ecut=   100.00 Ry     beta=0.50
     Davidson diagonalization with overlap
     ethr =  1.92E-07,  avg # of iterations =  3.0

     total cpu time spent up to now is      589.1 secs

     total energy              =   -1701.38021182 Ry
     Harris-Foulkes estimate   =   -1701.38024930 Ry
     estimated scf accuracy    <       0.00013654 Ry

     iteration #  8     ecut=   100.00 Ry     beta=0.50
     Davidson diagonalization with overlap
     ethr =  4.38E-08,  avg # of iterations =  3.2

     total cpu time spent up to now is      661.9 secs

     total energy              =   -1701.38025301 Ry
     Harris-Foulkes estimate   =   -1701.38026691 Ry
     estimated scf accuracy    <       0.00005097 Ry

     iteration #  9     ecut=   100.00 Ry     beta=0.50
     Davidson diagonalization with overlap
     ethr =  1.63E-08,  avg # of iterations =  2.9

     total cpu time spent up to now is      717.1 secs

     total energy              =   -1701.38025759 Ry
     Harris-Foulkes estimate   =   -1701.38025998 Ry
     estimated scf accuracy    <       0.00000645 Ry

     iteration # 10     ecut=   100.00 Ry     beta=0.50
     Davidson diagonalization with overlap
     ethr =  2.07E-09,  avg # of iterations =  4.0

     total cpu time spent up to now is      804.2 secs

     total energy              =   -1701.38026082 Ry
     Harris-Foulkes estimate   =   -1701.38026120 Ry
     estimated scf accuracy    <       0.00000159 Ry

     iteration # 11     ecut=   100.00 Ry     beta=0.50
     Davidson diagonalization with overlap
     ethr =  5.10E-10,  avg # of iterations =  2.0

     total cpu time spent up to now is      855.9 secs

     total energy              =   -1701.38026074 Ry
     Harris-Foulkes estimate   =   -1701.38026096 Ry
     estimated scf accuracy    <       0.00000057 Ry

     iteration # 12     ecut=   100.00 Ry     beta=0.50
     Davidson diagonalization with overlap
     ethr =  1.82E-10,  avg # of iterations =  4.0

     total cpu time spent up to now is      927.9 secs

     total energy              =   -1701.38026093 Ry
     Harris-Foulkes estimate   =   -1701.38026093 Ry
     estimated scf accuracy    <       0.00000005 Ry

     iteration # 13     ecut=   100.00 Ry     beta=0.50
     Davidson diagonalization with overlap
     ethr =  1.47E-11,  avg # of iterations =  3.0

     total cpu time spent up to now is      994.8 secs

     total energy              =   -1701.38026094 Ry
     Harris-Foulkes estimate   =   -1701.38026094 Ry
     estimated scf accuracy    <       0.00000001 Ry

     iteration # 14     ecut=   100.00 Ry     beta=0.50
     Davidson diagonalization with overlap
     ethr =  3.58E-12,  avg # of iterations =  3.5

     total cpu time spent up to now is     1060.9 secs

     End of self-consistent calculation

          k = 0.0000 0.0000 0.0000 ( 77975 PWs)   bands (ev):

   -20.0398 -19.8433 -19.6969 -19.5242 -19.4519 -19.3838 -19.2906 -19.2448
   -19.0686 -18.8870 -18.7049 -18.7007 -17.5875 -17.4936 -17.4801 -17.3573
   -17.2890 -17.2682 -17.2042 -17.1881 -17.0442 -17.0051 -16.9443 -16.8050
   -16.6272 -16.5956 -16.5251 -16.4597 -15.7410 -15.7410 -15.7175 -15.6577
   -10.8924 -10.8836 -10.7854 -10.7622  -9.1829  -9.1396  -8.4250  -8.3751
    -8.3379  -8.1710  -8.0801  -8.0596  -7.0566  -7.0290  -6.8808  -6.8321
    -6.7453  -6.7092  -5.9350  -5.9200  -5.8897  -5.8541  -5.6797  -5.6258
    -5.5577  -5.5234  -5.4830  -5.4089  -5.3775  -5.1295  -5.1023  -4.9827
    -4.7922  -4.6380  -4.5872  -4.5314  -4.4941  -4.4857  -4.2095  -4.0806
    -4.0392  -3.9851  -3.9013  -3.8448  -3.6905  -3.6542  -3.6529  -3.4527
    -3.3835  -3.3766  -3.2703  -3.1335  -3.0898  -2.9868  -2.9854  -2.9190
    -2.8361  -2.7028  -2.6561  -2.5962  -2.5222  -2.5205  -2.3871  -2.3067
    -2.0653  -2.0144  -2.0072  -1.9052  -1.8560  -1.7623  -1.6555  -1.5886
    -1.5672  -1.5660  -1.5379  -1.4270  -1.2812  -1.2426  -1.1465  -1.1073
    -1.0483  -1.0277  -0.9724  -0.8326  -0.7519  -0.6443  -0.4495  -0.3827
    -0.2273  -0.1958  -0.1944  -0.1396  -0.0528  -0.0338   0.1918   0.2141
     0.3841   0.4005   0.5165   0.5209   0.6369   0.6526   0.6613   0.7356
     0.7730   0.8018   0.8458   0.9090   0.9200   0.9266   1.0162   1.0661
     1.0841   1.1843   1.4843   1.5662   1.6789   1.7770   1.8109   1.8243
     1.8268   1.9402   2.0033   2.0144   5.4247   5.5164   5.6902   5.9033
     7.0017   7.0929   7.1907   7.2682   8.7925   8.9607   9.0391   9.1760
     9.2242   9.7024   9.9416  10.0818  10.1469  10.2200  10.2221  10.5930
    10.6649  10.8295  10.8594  11.1468  11.3333  11.4112  11.4266  11.6452
    11.7488  11.7777  11.7853

          k = 0.0000 0.0000-0.5988 ( 78002 PWs)   bands (ev):

   -19.9554 -19.9554 -19.6222 -19.6222 -19.4239 -19.4238 -19.2603 -19.2603
   -18.8915 -18.8915 -18.7649 -18.7649 -17.5502 -17.5502 -17.4395 -17.4395
   -17.2529 -17.2529 -17.2022 -17.2021 -17.0408 -17.0408 -16.8535 -16.8535
   -16.5770 -16.5769 -16.5209 -16.5209 -15.7424 -15.7424 -15.6862 -15.6862
   -10.8894 -10.8894 -10.7726 -10.7726  -8.8649  -8.8649  -8.7981  -8.7981
    -8.3588  -8.3587  -8.0534  -8.0534  -6.9758  -6.9758  -6.9199  -6.9199
    -6.0477  -6.0477  -5.9607  -5.9607  -5.9127  -5.9127  -5.8419  -5.8419
    -5.5579  -5.5579  -5.4474  -5.4474  -5.3761  -5.3761  -5.1800  -5.1800
    -4.6535  -4.6535  -4.6198  -4.6198  -4.5607  -4.5607  -4.1931  -4.1931
    -4.0083  -4.0083  -3.8279  -3.8279  -3.6304  -3.6304  -3.5620  -3.5620
    -3.3456  -3.3456  -3.2187  -3.2187  -3.0485  -3.0485  -2.8179  -2.8179
    -2.7748  -2.7748  -2.6682  -2.6682  -2.5520  -2.5520  -2.3770  -2.3770
    -2.0384  -2.0384  -1.8590  -1.8590  -1.8207  -1.8207  -1.6732  -1.6732
    -1.5254  -1.5254  -1.4216  -1.4216  -1.3796  -1.3796  -1.1476  -1.1475
    -1.0737  -1.0737  -0.9393  -0.9393  -0.7091  -0.7091  -0.5186  -0.5186
    -0.1870  -0.1870  -0.1239  -0.1239  -0.0149  -0.0149   0.4049   0.4049
     0.4348   0.4348   0.5696   0.5696   0.6000   0.6000   0.7600   0.7600
     0.7802   0.7802   0.8627   0.8627   1.0511   1.0511   1.0882   1.0882
     1.2444   1.2445   1.2824   1.2824   1.5595   1.5595   1.8260   1.8260
     1.8513   1.8513   1.9927   1.9927   5.4627   5.4627   5.7985   5.7985
     7.0537   7.0537   7.2300   7.2300   8.9074   8.9074   9.1344   9.1344
     9.2276   9.2276   9.9991   9.9991  10.4313  10.4313  10.6537  10.6537
    10.7363  10.7363  10.9953  10.9953  11.1488  11.1488  11.4059  11.4059
    11.6684  11.6685  11.8538

          k = 0.0000 0.6699 0.0000 ( 77964 PWs)   bands (ev):

   -19.9583 -19.7872 -19.7670 -19.6076 -19.3860 -19.3208 -19.3014 -19.2470
   -19.0274 -18.9375 -18.7063 -18.7032 -17.6181 -17.5961 -17.5311 -17.4691
   -17.4019 -17.3858 -17.3627 -17.3488 -16.8603 -16.7726 -16.7456 -16.7269
   -16.5954 -16.5402 -16.5083 -16.4818 -15.7434 -15.7433 -15.6882 -15.6592
   -10.9482 -10.9357 -10.8202 -10.8174  -9.1781  -9.1569  -8.3545  -8.3368
    -8.3329  -8.2263  -8.0558  -8.0294  -7.1268  -7.1176  -6.8642  -6.8390
    -6.7287  -6.7059  -5.9930  -5.9800  -5.8435  -5.7864  -5.6083  -5.5982
    -5.4951  -5.4626  -5.4143  -5.3050  -5.2192  -5.1820  -5.1117  -4.9870
    -4.7466  -4.6844  -4.5337  -4.5236  -4.2024  -4.0794  -4.0633  -4.0539
    -3.9912  -3.8766  -3.8451  -3.7740  -3.7528  -3.6707  -3.6028  -3.5427
    -3.4183  -3.3889  -3.2203  -3.1584  -3.1572  -3.0925  -2.9728  -2.9555
    -2.8790  -2.8621  -2.6961  -2.6854  -2.5812  -2.5169  -2.4484  -2.2777
    -2.2462  -2.0669  -1.9543  -1.9393  -1.9128  -1.8552  -1.8367  -1.7236
    -1.5916  -1.5846  -1.5241  -1.4880  -1.3808  -1.3407  -1.2273  -1.1641
    -1.1401  -1.1305  -0.9407  -0.8339  -0.7200  -0.6288  -0.4109  -0.3742
    -0.3126  -0.2261  -0.2104  -0.1400   0.0026   0.0866   0.2212   0.2258
     0.3320   0.3690   0.4811   0.5151   0.5639   0.5905   0.6789   0.7171
     0.7975   0.8162   0.8361   0.8826   0.9318   0.9755   0.9832   0.9873
     1.0919   1.1188   1.6040   1.6370   1.6495   1.7540   1.8139   1.8632
     1.8767   1.9303   1.9801   2.0322   5.4733   5.5415   5.7452   5.8741
     7.0455   7.1313   7.1577   7.2107   8.8100   9.0006   9.0892   9.1128
     9.3881  10.0258  10.1435  10.3554  10.3703  10.4210  10.5515  10.6033
    10.6625  10.6825  10.8954  11.0654  11.1649  11.2589  11.3699  11.3816
    11.5052  11.5604  11.5729

          k = 0.0000 0.6699-0.5988 ( 77874 PWs)   bands (ev):

   -19.8761 -19.8761 -19.7096 -19.7096 -19.3636 -19.3636 -19.2633 -19.2633
   -18.8649 -18.8649 -18.7969 -18.7969 -17.5740 -17.5740 -17.5528 -17.5528
   -17.4013 -17.4013 -17.3448 -17.3447 -16.8083 -16.8083 -16.7156 -16.7156
   -16.5592 -16.5592 -16.5170 -16.5169 -15.7370 -15.7370 -15.6798 -15.6797
   -10.9401 -10.9401 -10.8211 -10.8211  -8.8742  -8.8742  -8.8022  -8.8021
    -8.2650  -8.2650  -8.0935  -8.0935  -6.9957  -6.9957  -6.9554  -6.9554
    -6.0362  -6.0361  -5.9754  -5.9754  -5.9504  -5.9504  -5.7858  -5.7858
    -5.5235  -5.5235  -5.4278  -5.4278  -5.2382  -5.2382  -5.1473  -5.1473
    -4.6637  -4.6637  -4.6042  -4.6042  -4.1538  -4.1538  -4.0705  -4.0705
    -3.9143  -3.9143  -3.8349  -3.8348  -3.6846  -3.6846  -3.5670  -3.5670
    -3.3939  -3.3939  -3.1851  -3.1851  -3.1216  -3.1216  -2.9529  -2.9529
    -2.8006  -2.8006  -2.7621  -2.7621  -2.5053  -2.5053  -2.3774  -2.3774
    -2.1771  -2.1771  -1.9684  -1.9684  -1.8055  -1.8055  -1.7876  -1.7876
    -1.5516  -1.5516  -1.5177  -1.5177  -1.3944  -1.3943  -1.2654  -1.2654
    -1.1288  -1.1288  -0.9906  -0.9906  -0.6678  -0.6678  -0.4846  -0.4846
    -0.2029  -0.2029  -0.0976  -0.0976   0.0350   0.0350   0.3107   0.3107
     0.4595   0.4595   0.5367   0.5367   0.5917   0.5917   0.7204   0.7204
     0.8117   0.8117   0.8834   0.8834   0.9858   0.9858   1.0330   1.0330
     1.2589   1.2589   1.3019   1.3020   1.6602   1.6602   1.8227   1.8227
     1.8837   1.8837   1.9644   1.9644   5.5330   5.5330   5.7793   5.7794
     7.0837   7.0837   7.1831   7.1831   8.9083   8.9083   9.0876   9.0876
     9.6387   9.6387  10.2037  10.2038  10.3858  10.3858  10.6046  10.6047
    10.8240  10.8241  11.0295  11.0295  11.1837  11.1837  11.4444  11.4444
    11.5644  11.5644  11.7278

          k =-0.5000 0.0000-0.2656 ( 77964 PWs)   bands (ev):

   -20.0387 -19.8440 -19.6970 -19.5240 -19.4573 -19.3779 -19.2965 -19.2407
   -19.0689 -18.8856 -18.7033 -18.7021 -17.5980 -17.4861 -17.4711 -17.3554
   -17.2528 -17.2476 -17.2367 -17.2263 -17.0478 -16.9976 -16.9483 -16.8055
   -16.6351 -16.5833 -16.5035 -16.4820 -15.7700 -15.7030 -15.6918 -15.6893
   -10.8940 -10.8849 -10.7846 -10.7604  -9.1841  -9.1380  -8.4221  -8.3456
    -8.3234  -8.2565  -8.0880  -8.0226  -7.0502  -7.0434  -6.8953  -6.8136
    -6.7490  -6.7081  -5.9867  -5.9566  -5.8790  -5.8296  -5.6130  -5.6111
    -5.5571  -5.4469  -5.3635  -5.3465  -5.2892  -5.1874  -5.1074  -5.0525
    -4.9074  -4.7526  -4.6717  -4.5860  -4.5251  -4.4804  -4.2011  -4.1595
    -4.1583  -3.9869  -3.9240  -3.7019  -3.6555  -3.5451  -3.5372  -3.5300
    -3.3609  -3.3042  -3.2821  -3.1136  -3.0656  -2.9957  -2.9313  -2.9018
    -2.8206  -2.7906  -2.6869  -2.6077  -2.5470  -2.4878  -2.3039  -2.2928
    -2.0385  -2.0288  -1.9799  -1.9181  -1.8997  -1.7901  -1.6722  -1.6501
    -1.5678  -1.5670  -1.5257  -1.3644  -1.2513  -1.2151  -1.1807  -1.1521
    -1.0646  -1.0338  -1.0255  -0.8508  -0.6927  -0.6463  -0.4593  -0.3685
    -0.3485  -0.2136  -0.1919  -0.1055  -0.0921  -0.0076   0.1698   0.3028
     0.3430   0.3600   0.5163   0.5901   0.6416   0.6453   0.6677   0.7233
     0.7365   0.8253   0.8803   0.8986   0.9057   0.9808   1.0415   1.0435
     1.0674   1.2114   1.5682   1.6087   1.6559   1.6909   1.6979   1.8338
     1.8722   1.9712   1.9966   2.0188   5.4248   5.5157   5.7027   5.8930
     7.0138   7.0607   7.2084   7.2540   8.8016   9.0337   9.1707   9.2391
     9.3398   9.3515   9.5940   9.6987  10.5930  10.6029  10.6040  10.6343
    10.7918  10.8582  10.9119  11.0020  11.0379  11.0874  11.4110  11.6030
    11.6175  11.7658  11.7744

          k =-0.5000 0.0000-0.8644 ( 78036 PWs)   bands (ev):

   -19.9552 -19.9552 -19.6222 -19.6222 -19.4240 -19.4240 -19.2611 -19.2610
   -18.8917 -18.8917 -18.7639 -18.7639 -17.5495 -17.5494 -17.4347 -17.4347
   -17.2756 -17.2756 -17.1760 -17.1759 -17.0494 -17.0494 -16.8579 -16.8579
   -16.5641 -16.5641 -16.5310 -16.5310 -15.7457 -15.7456 -15.6818 -15.6817
   -10.8887 -10.8887 -10.7739 -10.7739  -8.8636  -8.8636  -8.8024  -8.8024
    -8.3442  -8.3442  -8.0657  -8.0657  -6.9812  -6.9812  -6.9208  -6.9208
    -6.0509  -6.0509  -6.0298  -6.0298  -5.8756  -5.8756  -5.8220  -5.8220
    -5.5009  -5.5009  -5.4421  -5.4421  -5.2846  -5.2846  -5.1799  -5.1799
    -4.8350  -4.8350  -4.6958  -4.6958  -4.5138  -4.5137  -4.2298  -4.2298
    -3.9277  -3.9276  -3.8864  -3.8864  -3.5635  -3.5635  -3.4691  -3.4691
    -3.3554  -3.3554  -3.2419  -3.2419  -2.9796  -2.9796  -2.9242  -2.9242
    -2.7604  -2.7604  -2.6857  -2.6857  -2.5104  -2.5104  -2.3578  -2.3578
    -2.0424  -2.0424  -1.8832  -1.8832  -1.7984  -1.7984  -1.7680  -1.7680
    -1.5393  -1.5393  -1.4802  -1.4802  -1.2621  -1.2621  -1.1303  -1.1303
    -1.0664  -1.0664  -0.9951  -0.9951  -0.6641  -0.6641  -0.5026  -0.5026
    -0.2105  -0.2105  -0.0800  -0.0800  -0.0029  -0.0029   0.2408   0.2408
     0.4344   0.4344   0.5904   0.5904   0.6346   0.6346   0.7008   0.7008
     0.8772   0.8772   0.9176   0.9176   0.9658   0.9658   1.1007   1.1007
     1.2796   1.2796   1.2975   1.2975   1.5544   1.5544   1.8221   1.8221
     1.8739   1.8740   1.9595   1.9596   5.4635   5.4635   5.8031   5.8031
     7.0345   7.0346   7.2376   7.2376   8.9062   8.9062   9.2102   9.2102
     9.2850   9.2850   9.7581   9.7581  10.4337  10.4337  10.7029  10.7029
    10.8031  10.8031  10.9690  10.9690  11.0904  11.0904  11.5709  11.5709
    11.6326  11.6326  11.7086

          k =-0.5000 0.6699-0.2656 ( 77892 PWs)   bands (ev):

   -19.9576 -19.7869 -19.7675 -19.6077 -19.3892 -19.3177 -19.3028 -19.2460
   -19.0292 -18.9366 -18.7045 -18.7041 -17.6100 -17.5611 -17.5447 -17.5029
   -17.4187 -17.3849 -17.3478 -17.3416 -16.8540 -16.7816 -16.7446 -16.7357
   -16.5948 -16.5337 -16.5015 -16.4900 -15.7554 -15.7220 -15.6773 -15.6759
   -10.9490 -10.9363 -10.8205 -10.8168  -9.1774  -9.1548  -8.3751  -8.3463
    -8.2966  -8.2128  -8.0953  -8.0172  -7.1269  -7.1267  -6.8626  -6.8377
    -6.7318  -6.7029  -6.0032  -6.0005  -5.8099  -5.8009  -5.6561  -5.6308
    -5.4065  -5.3664  -5.3247  -5.2582  -5.2256  -5.1689  -5.1087  -5.0382
    -4.8074  -4.7376  -4.6309  -4.5972  -4.2555  -4.0990  -4.0957  -4.0400
    -3.9789  -3.9195  -3.8623  -3.7779  -3.6435  -3.6297  -3.5095  -3.4962
    -3.3579  -3.3298  -3.2367  -3.1760  -3.1396  -3.1102  -3.0385  -3.0119
    -2.9054  -2.8300  -2.7798  -2.6526  -2.5218  -2.4917  -2.3965  -2.3807
    -2.1865  -2.0046  -1.9708  -1.9258  -1.9056  -1.8923  -1.8424  -1.7404
    -1.7281  -1.6131  -1.4953  -1.4458  -1.3772  -1.3472  -1.2209  -1.0923
    -1.0911  -1.0702  -1.0571  -0.9115  -0.6574  -0.6073  -0.4363  -0.3631
    -0.3379  -0.2434  -0.1894  -0.0819  -0.0061   0.0461   0.1333   0.2278
     0.3231   0.3728   0.5102   0.5135   0.5544   0.6014   0.6369   0.7563
     0.8095   0.8290   0.8321   0.8644   0.9272   0.9692   0.9791   1.0182
     1.1087   1.1462   1.6393   1.6515   1.7052   1.7568   1.7661   1.8064
     1.8644   1.9414   1.9673   2.0328   5.4766   5.5491   5.7476   5.8702
     7.0543   7.1107   7.1672   7.1962   8.8144   8.9996   9.0822   9.0887
     9.6444   9.7776  10.0861  10.1480  10.2446  10.4254  10.6363  10.6726
    10.8025  11.0003  11.0613  11.0646  11.1491  11.1573  11.2907  11.3677
    11.5303  11.5406  11.6248

          k =-0.5000 0.6699-0.8644 ( 77882 PWs)   bands (ev):

   -19.8759 -19.8759 -19.7096 -19.7096 -19.3637 -19.3637 -19.2638 -19.2638
   -18.8658 -18.8658 -18.7960 -18.7960 -17.5938 -17.5937 -17.5163 -17.5163
   -17.4014 -17.4014 -17.3630 -17.3630 -16.8007 -16.8007 -16.7259 -16.7259
   -16.5483 -16.5483 -16.5244 -16.5244 -15.7382 -15.7382 -15.6772 -15.6772
   -10.9445 -10.9445 -10.8165 -10.8165  -8.8734  -8.8734  -8.8034  -8.8034
    -8.2683  -8.2683  -8.0906  -8.0905  -7.0112  -7.0112  -6.9474  -6.9474
    -6.0467  -6.0466  -6.0253  -6.0253  -5.8867  -5.8867  -5.7919  -5.7919
    -5.4667  -5.4667  -5.3753  -5.3753  -5.2329  -5.2329  -5.1702  -5.1702
    -4.7479  -4.7479  -4.6774  -4.6773  -4.1826  -4.1826  -4.0907  -4.0907
    -3.9126  -3.9125  -3.7698  -3.7698  -3.6144  -3.6144  -3.5030  -3.5030
    -3.3957  -3.3957  -3.2225  -3.2225  -3.0400  -3.0400  -3.0017  -3.0017
    -2.9174  -2.9174  -2.7229  -2.7229  -2.5136  -2.5136  -2.3483  -2.3483
    -2.1699  -2.1699  -1.9431  -1.9431  -1.8450  -1.8450  -1.8007  -1.8007
    -1.5925  -1.5925  -1.4569  -1.4569  -1.3819  -1.3819  -1.2603  -1.2603
    -1.1191  -1.1191  -1.0503  -1.0503  -0.6518  -0.6518  -0.5059  -0.5059
    -0.2102  -0.2102  -0.0523  -0.0523   0.0333   0.0333   0.2935   0.2935
     0.4563   0.4563   0.5280   0.5280   0.6059   0.6059   0.6980   0.6980
     0.7843   0.7843   0.8957   0.8957   0.9937   0.9937   1.0613   1.0613
     1.2568   1.2569   1.3157   1.3157   1.7079   1.7079   1.8116   1.8116
     1.8867   1.8868   1.9186   1.9186   5.5320   5.5320   5.7818   5.7818
     7.0747   7.0747   7.1925   7.1925   8.9153   8.9153   9.0896   9.0896
     9.7158   9.7158  10.1504  10.1504  10.2672  10.2672  10.6404  10.6404
    10.9063  10.9063  10.9793  10.9793  11.1640  11.1640  11.4481  11.4481
    11.5528  11.5528  11.7212

     highest occupied, lowest unoccupied level (ev):     2.0328    5.4247

!    total energy              =   -1701.38026094 Ry
     Harris-Foulkes estimate   =   -1701.38026094 Ry
     estimated scf accuracy    <          1.8E-09 Ry

     total all-electron energy =     -6229.570291 Ry

     The total energy is the sum of the following terms:

     one-electron contribution =    -607.27231905 Ry
     hartree contribution      =     451.05401889 Ry
     xc contribution           =    -345.49194190 Ry
     ewald contribution        =    -766.64881191 Ry
     Dispersion Correction     =      -0.57099052 Ry
     one-center paw contrib.   =    -432.45021646 Ry

     convergence has been achieved in  14 iterations

     Forces acting on atoms (cartesian axes, Ry/au):

     atom    1 type  4   force =     0.00116337    0.00058102    0.00012136
     atom    2 type  4   force =    -0.00116419    0.00058025   -0.00012108
     atom    3 type  4   force =    -0.00116337   -0.00058102   -0.00012136
     atom    4 type  4   force =     0.00116419   -0.00058025    0.00012108
     atom    5 type  3   force =     0.00024555    0.00072671   -0.00240110
     atom    6 type  3   force =    -0.00024588    0.00072664    0.00240048
     atom    7 type  3   force =    -0.00024555   -0.00072671    0.00240110
     atom    8 type  3   force =     0.00024588   -0.00072664   -0.00240048
     atom    9 type  4   force =    -0.00123927   -0.00112979    0.00383503
     atom   10 type  4   force =     0.00123255   -0.00112793   -0.00383322
     atom   11 type  4   force =     0.00123927    0.00112979   -0.00383503
     atom   12 type  4   force =    -0.00123255    0.00112793    0.00383322
     atom   13 type  4   force =    -0.00287444   -0.00153498   -0.00129593
     atom   14 type  4   force =     0.00287701   -0.00153649    0.00129652
     atom   15 type  4   force =     0.00287444    0.00153498    0.00129593
     atom   16 type  4   force =    -0.00287701    0.00153649   -0.00129652
     atom   17 type  4   force =    -0.00107180   -0.00026570   -0.00227014
     atom   18 type  4   force =     0.00106528   -0.00026305    0.00226543
     atom   19 type  4   force =     0.00107180    0.00026570    0.00227014
     atom   20 type  4   force =    -0.00106528    0.00026305   -0.00226543
     atom   21 type  1   force =     0.00020478    0.00117576    0.00515714
     atom   22 type  1   force =    -0.00020264    0.00117561   -0.00515905
     atom   23 type  1   force =    -0.00020478   -0.00117576   -0.00515714
     atom   24 type  1   force =     0.00020264   -0.00117561    0.00515905
     atom   25 type  1   force =     0.00133278    0.00131715    0.00001915
     atom   26 type  1   force =    -0.00132959    0.00131548   -0.00002311
     atom   27 type  1   force =    -0.00133278   -0.00131715   -0.00001915
     atom   28 type  1   force =     0.00132959   -0.00131548    0.00002311
     atom   29 type  4   force =    -0.00115960    0.00069540    0.00157969
     atom   30 type  4   force =     0.00115764    0.00069318   -0.00158009
     atom   31 type  4   force =     0.00115960   -0.00069540   -0.00157969
     atom   32 type  4   force =    -0.00115764   -0.00069318    0.00158009
     atom   33 type  4   force =     0.00131968    0.00259244   -0.00265318
     atom   34 type  4   force =    -0.00132067    0.00259241    0.00265369
     atom   35 type  4   force =    -0.00131968   -0.00259244    0.00265318
     atom   36 type  4   force =     0.00132067   -0.00259241   -0.00265369
     atom   37 type  3   force =     0.00005006    0.00075910   -0.00137500
     atom   38 type  3   force =    -0.00005039    0.00075918    0.00137516
     atom   39 type  3   force =    -0.00005006   -0.00075910    0.00137500
     atom   40 type  3   force =     0.00005039   -0.00075918   -0.00137516
     atom   41 type  2   force =     0.00405418    0.00107852    0.00314710
     atom   42 type  2   force =    -0.00405415    0.00107892   -0.00314875
     atom   43 type  2   force =    -0.00405418   -0.00107852   -0.00314710
     atom   44 type  2   force =     0.00405415   -0.00107892    0.00314875
     atom   45 type  3   force =     0.00007096    0.00055276   -0.00115838
     atom   46 type  3   force =    -0.00007081    0.00055273    0.00115813
     atom   47 type  3   force =    -0.00007096   -0.00055276    0.00115838
     atom   48 type  3   force =     0.00007081   -0.00055273   -0.00115813
     atom   49 type  3   force =     0.00195546   -0.00223433   -0.00121843
     atom   50 type  3   force =    -0.00195544   -0.00223424    0.00121803
     atom   51 type  3   force =    -0.00195546    0.00223433    0.00121843
     atom   52 type  3   force =     0.00195544    0.00223424   -0.00121803
     atom   53 type  3   force =    -0.00035832   -0.00109800    0.00035467
     atom   54 type  3   force =     0.00035862   -0.00109796   -0.00035516
     atom   55 type  3   force =     0.00035832    0.00109800   -0.00035467
     atom   56 type  3   force =    -0.00035862    0.00109796    0.00035516
     atom   57 type  1   force =     0.00023391   -0.00100366    0.00146346
     atom   58 type  1   force =    -0.00023466   -0.00100273   -0.00146469
     atom   59 type  1   force =    -0.00023391    0.00100366   -0.00146346
     atom   60 type  1   force =     0.00023466    0.00100273    0.00146469
     atom   61 type  1   force =     0.00023320   -0.00034459   -0.00324493
     atom   62 type  1   force =    -0.00023073   -0.00034458    0.00324159
     atom   63 type  1   force =    -0.00023320    0.00034459    0.00324493
     atom   64 type  1   force =     0.00023073    0.00034458   -0.00324159
     atom   65 type  3   force =     0.00018399   -0.00058115    0.00007361
     atom   66 type  3   force =    -0.00018401   -0.00058120   -0.00007410
     atom   67 type  3   force =    -0.00018399    0.00058115   -0.00007361
     atom   68 type  3   force =     0.00018401    0.00058120    0.00007410
     atom   69 type  1   force =    -0.00378282    0.00078296    0.00207903
     atom   70 type  1   force =     0.00378209    0.00078310   -0.00207746
     atom   71 type  1   force =     0.00378282   -0.00078296   -0.00207903
     atom   72 type  1   force =    -0.00378209   -0.00078310    0.00207746
     atom   73 type  3   force =    -0.00005639    0.00100215    0.00011220
     atom   74 type  3   force =     0.00005644    0.00100216   -0.00011229
     atom   75 type  3   force =     0.00005639   -0.00100215   -0.00011220
     atom   76 type  3   force =    -0.00005644   -0.00100216    0.00011229
     atom   77 type  3   force =     0.00133512   -0.00107052   -0.00101153
     atom   78 type  3   force =    -0.00133518   -0.00107051    0.00101159
     atom   79 type  3   force =    -0.00133512    0.00107052    0.00101153
     atom   80 type  3   force =     0.00133518    0.00107051   -0.00101159
     atom   81 type  3   force =    -0.00103199    0.00106175   -0.00161573
     atom   82 type  3   force =     0.00103194    0.00106175    0.00161581
     atom   83 type  3   force =     0.00103199   -0.00106175    0.00161573
     atom   84 type  3   force =    -0.00103194   -0.00106175   -0.00161581
     atom   85 type  4   force =     0.00143293   -0.00231059   -0.00192860
     atom   86 type  4   force =    -0.00143536   -0.00230926    0.00193028
     atom   87 type  4   force =    -0.00143293    0.00231059    0.00192860
     atom   88 type  4   force =     0.00143536    0.00230926   -0.00193028
     atom   89 type  3   force =     0.00000088    0.00038827   -0.00035050
     atom   90 type  3   force =    -0.00000113    0.00038848    0.00035053
     atom   91 type  3   force =    -0.00000088   -0.00038827    0.00035050
     atom   92 type  3   force =     0.00000113   -0.00038848   -0.00035053
     atom   93 type  3   force =     0.00012939    0.00059570    0.00099051
     atom   94 type  3   force =    -0.00012955    0.00059561   -0.00099028
     atom   95 type  3   force =    -0.00012939   -0.00059570   -0.00099051
     atom   96 type  3   force =     0.00012955   -0.00059561    0.00099028

     Total force =     0.027929     Total SCF correction =     0.000091


     Computing stress (Cartesian axis) and pressure

          total   stress  (Ry/bohr**3)                   (kbar)     P=   48.07
   0.00034432  -0.00000000   0.00000148         50.65     -0.00      0.22
  -0.00000000   0.00030677   0.00000000         -0.00     45.13      0.00
   0.00000148   0.00000000   0.00032931          0.22      0.00     48.44


     Writing output data file scf.save
 
     init_run     :     32.91s CPU     34.19s WALL (       1 calls)
     electrons    :    985.51s CPU   1026.08s WALL (       1 calls)
     forces       :     18.02s CPU     18.17s WALL (       1 calls)
     stress       :     64.96s CPU     65.23s WALL (       1 calls)

     Called by init_run:
     wfcinit      :     25.05s CPU     26.22s WALL (       1 calls)
     potinit      :      2.87s CPU      2.90s WALL (       1 calls)

     Called by electrons:
     c_bands      :    884.94s CPU    918.91s WALL (      14 calls)
     sum_band     :     90.05s CPU     95.71s WALL (      14 calls)
     v_of_rho     :      1.31s CPU      1.46s WALL (      15 calls)
     newd         :      3.12s CPU      3.79s WALL (      15 calls)
     PAW_pot      :      5.47s CPU      5.48s WALL (      15 calls)
     mix_rho      :      0.25s CPU      0.29s WALL (      14 calls)

     Called by c_bands:
     init_us_2    :      4.62s CPU      4.65s WALL (     248 calls)
     cegterg      :    867.33s CPU    901.24s WALL (     112 calls)

     Called by sum_band:
     sum_band:bec :      0.07s CPU      0.07s WALL (     112 calls)
     addusdens    :      3.04s CPU      3.72s WALL (      14 calls)

     Called by *egterg:
     h_psi        :    457.72s CPU    484.19s WALL (     607 calls)
     s_psi        :     99.95s CPU     99.97s WALL (     607 calls)
     g_psi        :      2.22s CPU      2.22s WALL (     487 calls)
     cdiaghg      :     75.61s CPU     75.62s WALL (     599 calls)

     Called by h_psi:
     h_psi:pot    :    454.65s CPU    481.05s WALL (     607 calls)
     h_psi:calbec :     99.83s CPU    100.06s WALL (     607 calls)
     vloc_psi     :    254.73s CPU    280.88s WALL (     607 calls)
     add_vuspsi   :    100.08s CPU    100.10s WALL (     607 calls)

     General routines
     calbec       :    148.63s CPU    148.96s WALL (     759 calls)
     fft          :      0.93s CPU      1.19s WALL (     219 calls)
     fftw         :    276.42s CPU    305.28s WALL (  136494 calls)
 
     Parallel routines
     fft_scatter  :     69.15s CPU     90.16s WALL (  136713 calls)
 
     PWSCF        : 18m29.91s CPU    19m59.71s WALL

 
   This run was terminated on:   5:53:49   4Nov2017            

=------------------------------------------------------------------------------=
   JOB DONE.
=------------------------------------------------------------------------------=
