
     Program PWSCF v.6.1 (svn rev. 13369) starts on  5Dec2017 at  5:52:30 

     This program is part of the open-source Quantum ESPRESSO suite
     for quantum simulation of materials; please cite
         "P. Giannozzi et al., J. Phys.:Condens. Matter 21 395502 (2009);
          URL http://www.quantum-espresso.org", 
     in publications or presentations arising from this work. More details at
     http://www.quantum-espresso.org/quote

     Parallel version (MPI), running on     8 processors
     R & G space division:  proc/nbgrp/npool/nimage =       8
     Waiting for input...
     Reading input from standard input

     Current dimensions of program PWSCF are:
     Max number of different atomic species (ntypx) = 10
     Max number of k-points (npk) =  40000
     Max angular momentum in pseudopotentials (lmaxx) =  3
               file C.pbe-n-kjpaw_psl.0.1.UPF: wavefunction(s)  2P renormalized
               file N.pbe-n-kjpaw_psl.0.1.UPF: wavefunction(s)  2P renormalized
               file H.pbe-kjpaw_psl.0.1.UPF: wavefunction(s)  1S renormalized
               file O.pbe-n-kjpaw_psl.0.1.UPF: wavefunction(s)  2P renormalized

     -------------------------------------
     Parameters for Dispersion Correction:
     -------------------------------------
       atom      VdW radius       C_6     

        C          2.744         60.710
        N          2.640         42.670
        H          1.892          4.857
        O          2.536         24.284

     Subspace diagonalization in iterative solution of the eigenvalue problem:
     a serial algorithm will be used

 
     Parallelization info
     --------------------
     sticks:   dense  smooth     PW     G-vecs:    dense   smooth      PW
     Min         651     651    174                41064    41064    5661
     Max         652     652    175                41065    41065    5663
     Sum        5211    5211   1393               328517   328517   45293
 


     bravais-lattice index     =            0
     lattice parameter (alat)  =      13.2135  a.u.
     unit-cell volume          =    2431.9424 (a.u.)^3
     number of atoms/cell      =           40
     number of atomic types    =            4
     number of electrons       =       128.00
     number of Kohn-Sham states=           76
     kinetic-energy cutoff     =     100.0000  Ry
     charge density cutoff     =     400.0000  Ry
     convergence threshold     =      1.0E-08
     mixing beta               =       0.5000
     number of iterations used =            8  plain     mixing
     Exchange-correlation      =  SLA  PW   PBX  PBC ( 1  4  3  4 0 0)

     celldm(1)=  13.213532  celldm(2)=   0.000000  celldm(3)=   0.000000
     celldm(4)=   0.000000  celldm(5)=   0.000000  celldm(6)=   0.000000

     crystal axes: (cart. coord. in units of alat)
               a(1) = (   1.000000   0.000000   0.000000 )  
               a(2) = (  -0.406588   0.938400   0.000000 )  
               a(3) = (  -0.079894  -0.083427   1.123333 )  

     reciprocal axes: (cart. coord. in units 2 pi/alat)
               b(1) = (  1.000000  0.433278  0.103300 )  
               b(2) = (  0.000000  1.065644  0.079142 )  
               b(3) = (  0.000000  0.000000  0.890208 )  


     PseudoPot. # 1 for  C read from file:
     /scratch/ahofstet/pseudo/C.pbe-n-kjpaw_psl.0.1.UPF
     MD5 check sum: 430fe95172b1e11ef3f8ed03bac87931
     Pseudo is Projector augmented-wave + core cor, Zval =  4.0
     Generated using "atomic" code by A. Dal Corso  v.5.0.99 svn rev. 10869
     Shape of augmentation charge: BESSEL
     Using radial grid of 1073 points,  4 beta functions with: 
                l(1) =   0
                l(2) =   0
                l(3) =   1
                l(4) =   1
     Q(r) pseudized with 0 coefficients 


     PseudoPot. # 2 for  N read from file:
     /scratch/ahofstet/pseudo/N.pbe-n-kjpaw_psl.0.1.UPF
     MD5 check sum: f73187c8b701007e77325f868c9291d7
     Pseudo is Projector augmented-wave + core cor, Zval =  5.0
     Generated using "atomic" code by A. Dal Corso  v.5.0.99 svn rev. 10869
     Shape of augmentation charge: PSQ
     Using radial grid of 1085 points,  4 beta functions with: 
                l(1) =   0
                l(2) =   0
                l(3) =   1
                l(4) =   1
     Q(r) pseudized with 0 coefficients 


     PseudoPot. # 3 for  H read from file:
     /scratch/ahofstet/pseudo/H.pbe-kjpaw_psl.0.1.UPF
     MD5 check sum: 94e484f906d9e9773b2f6e52662335b2
     Pseudo is Projector augmented-wave, Zval =  1.0
     Generated using "atomic" code by A. Dal Corso  v.5.0.99 svn rev. 10869
     Shape of augmentation charge: PSQ
     Using radial grid of  929 points,  2 beta functions with: 
                l(1) =   0
                l(2) =   0
     Q(r) pseudized with 0 coefficients 


     PseudoPot. # 4 for  O read from file:
     /scratch/ahofstet/pseudo/O.pbe-n-kjpaw_psl.0.1.UPF
     MD5 check sum: 3f94a2996a3169367d6eb21d9b593f20
     Pseudo is Projector augmented-wave + core cor, Zval =  6.0
     Generated using "atomic" code by A. Dal Corso  v.5.0.99 svn rev. 10869
     Shape of augmentation charge: BESSEL
     Using radial grid of 1095 points,  4 beta functions with: 
                l(1) =   0
                l(2) =   0
                l(3) =   1
                l(4) =   1
     Q(r) pseudized with 0 coefficients 


     atomic species   valence    mass     pseudopotential
        C              4.00    12.01070      C( 1.00)
        N              5.00    14.00670      N( 1.00)
        H              1.00     1.00794      H( 1.00)
        O              6.00    15.99940      O( 1.00)

      2 Sym. Ops., with inversion, found



   Cartesian axes

     site n.     atom                  positions (alat units)
         1           O   tau(   1) = (   0.2983058   0.7628409   0.8670092  )
         2           O   tau(   2) = (   0.2152130   0.0921323   0.2563239  )
         3           O   tau(   3) = (   0.6491780   0.0575439   0.6667705  )
         4           O   tau(   4) = (  -0.1356591   0.7974293   0.4565626  )
         5           O   tau(   5) = (   0.5639254   0.4342758   0.0625423  )
         6           O   tau(   6) = (  -0.0504066   0.4206975   1.0607907  )
         7           N   tau(   7) = (   0.4817044   0.4512789   0.7453336  )
         8           N   tau(   8) = (   0.0318144   0.4036943   0.3779995  )
         9           N   tau(   9) = (   0.3037174   0.8307845   0.7001734  )
        10           N   tau(  10) = (   0.2098014   0.0241887   0.4231597  )
        11           C   tau(  11) = (   0.4630273   0.5351778   0.5727158  )
        12           C   tau(  12) = (   0.0504915   0.3197954   0.5506172  )
        13           C   tau(  13) = (   0.3785798   0.7206007   0.5473143  )
        14           C   tau(  14) = (   0.1349390   0.1343726   0.5760188  )
        15           C   tau(  15) = (   0.3655367   0.8004613   0.3623237  )
        16           C   tau(  16) = (   0.1479821   0.0545120   0.7610094  )
        17           H   tau(  17) = (   0.7068105   0.0021546   0.3494647  )
        18           H   tau(  18) = (  -0.1932917   0.8528186   0.7738683  )
        19           C   tau(  19) = (   0.4283063   0.7042479   0.2039880  )
        20           C   tau(  20) = (   0.0852125   0.1507254   0.9193451  )
        21           H   tau(  21) = (   0.4171414   0.7641599   0.0614842  )
        22           H   tau(  22) = (   0.0963774   0.0908133   1.0618488  )
        23           C   tau(  23) = (   0.5104270   0.5192629   0.2277458  )
        24           C   tau(  24) = (   0.0030918   0.3357103   0.8955873  )
        25           C   tau(  25) = (   0.5287599   0.4383943   0.4074839  )
        26           C   tau(  26) = (  -0.0152411   0.4165789   0.7158491  )
        27           H   tau(  27) = (   0.5928280   0.2976229   0.4263940  )
        28           H   tau(  28) = (  -0.0793092   0.5573504   0.6969390  )
        29           C   tau(  29) = (   0.6428896   0.2449676   0.0696616  )
        30           C   tau(  30) = (  -0.1293707   0.6100057   1.0536714  )
        31           H   tau(  31) = (   0.5958553   0.1216938   1.0452833  )
        32           H   tau(  32) = (  -0.0823365   0.7332795   0.0780498  )
        33           H   tau(  33) = (   0.5376140   0.1442873   0.1295903  )
        34           H   tau(  34) = (  -0.0240952   0.7106859   0.9937427  )
        35           H   tau(  35) = (   0.7748196   0.2433922   0.1553484  )
        36           H   tau(  36) = (  -0.2613008   0.6115811   0.9679847  )
        37           H   tau(  37) = (   0.4167744   0.5134624   0.8591435  )
        38           H   tau(  38) = (   0.0967445   0.3415108   0.2641896  )
        39           H   tau(  39) = (   0.5322917   0.3153746   0.7542319  )
        40           H   tau(  40) = (  -0.0187729   0.5395987   0.3691012  )

     number of k points=    14
                       cart. coord. in units 2pi/alat
        k(    1) = (   0.0000000   0.0000000   0.0000000), wk =   0.0740741
        k(    2) = (   0.0000000   0.0000000   0.2967360), wk =   0.1481481
        k(    3) = (   0.0000000   0.3552146   0.0263808), wk =   0.1481481
        k(    4) = (   0.0000000   0.3552146   0.3231167), wk =   0.1481481
        k(    5) = (   0.0000000   0.3552146  -0.2703552), wk =   0.1481481
        k(    6) = (   0.3333333   0.1444258   0.0344334), wk =   0.1481481
        k(    7) = (   0.3333333   0.1444258   0.3311694), wk =   0.1481481
        k(    8) = (   0.3333333   0.1444258  -0.2623026), wk =   0.1481481
        k(    9) = (   0.3333333   0.4996404   0.0608142), wk =   0.1481481
        k(   10) = (   0.3333333   0.4996404   0.3575501), wk =   0.1481481
        k(   11) = (   0.3333333   0.4996404  -0.2359218), wk =   0.1481481
        k(   12) = (   0.3333333  -0.2107887   0.0080526), wk =   0.1481481
        k(   13) = (   0.3333333  -0.2107887   0.3047886), wk =   0.1481481
        k(   14) = (   0.3333333  -0.2107887  -0.2886833), wk =   0.1481481

     Dense  grid:   328517 G-vectors     FFT dimensions: (  90,  90,  96)

     Estimated max dynamical RAM per process >     182.54MB

     Estimated total allocated dynamical RAM >    1460.29MB

     Check: negative/imaginary core charge=   -0.000002    0.000000

     Initial potential from superposition of free atoms

     starting charge  127.99923, renormalised to  128.00000
     Starting wfc are  112 randomized atomic wfcs
     Checking if some PAW data can be deallocated... 

     total cpu time spent up to now is       13.0 secs

     per-process dynamical memory:   184.2 Mb

     Self-consistent Calculation

     iteration #  1     ecut=   100.00 Ry     beta=0.50
     Davidson diagonalization with overlap
     ethr =  1.00E-02,  avg # of iterations =  3.6

     total cpu time spent up to now is       39.1 secs

     total energy              =    -638.85337673 Ry
     Harris-Foulkes estimate   =    -641.08657834 Ry
     estimated scf accuracy    <       4.18825932 Ry

     iteration #  2     ecut=   100.00 Ry     beta=0.50
     Davidson diagonalization with overlap
     ethr =  3.27E-03,  avg # of iterations =  3.0

     total cpu time spent up to now is       55.8 secs

     total energy              =    -639.26073224 Ry
     Harris-Foulkes estimate   =    -639.64846225 Ry
     estimated scf accuracy    <       0.79594520 Ry

     iteration #  3     ecut=   100.00 Ry     beta=0.50
     Davidson diagonalization with overlap
     ethr =  6.22E-04,  avg # of iterations =  7.3

     total cpu time spent up to now is       83.8 secs

     total energy              =    -639.62276075 Ry
     Harris-Foulkes estimate   =    -639.75855531 Ry
     estimated scf accuracy    <       0.34031614 Ry

     iteration #  4     ecut=   100.00 Ry     beta=0.50
     Davidson diagonalization with overlap
     ethr =  2.66E-04,  avg # of iterations =  1.6

     total cpu time spent up to now is       97.5 secs

     total energy              =    -639.63245451 Ry
     Harris-Foulkes estimate   =    -639.65973231 Ry
     estimated scf accuracy    <       0.05550708 Ry

     iteration #  5     ecut=   100.00 Ry     beta=0.50
     Davidson diagonalization with overlap
     ethr =  4.34E-05,  avg # of iterations =  5.6

     total cpu time spent up to now is      125.7 secs

     total energy              =    -639.66636069 Ry
     Harris-Foulkes estimate   =    -639.68397685 Ry
     estimated scf accuracy    <       0.05714153 Ry

     iteration #  6     ecut=   100.00 Ry     beta=0.50
     Davidson diagonalization with overlap
     ethr =  4.34E-05,  avg # of iterations =  2.0

     total cpu time spent up to now is      140.4 secs

     total energy              =    -639.66312156 Ry
     Harris-Foulkes estimate   =    -639.67117490 Ry
     estimated scf accuracy    <       0.01909785 Ry

     iteration #  7     ecut=   100.00 Ry     beta=0.50
     Davidson diagonalization with overlap
     ethr =  1.49E-05,  avg # of iterations =  4.3

     total cpu time spent up to now is      161.9 secs

     total energy              =    -639.66856898 Ry
     Harris-Foulkes estimate   =    -639.66904979 Ry
     estimated scf accuracy    <       0.00147211 Ry

     iteration #  8     ecut=   100.00 Ry     beta=0.50
     Davidson diagonalization with overlap
     ethr =  1.15E-06,  avg # of iterations =  5.1

     total cpu time spent up to now is      181.3 secs

     total energy              =    -639.66889411 Ry
     Harris-Foulkes estimate   =    -639.66906115 Ry
     estimated scf accuracy    <       0.00046884 Ry

     iteration #  9     ecut=   100.00 Ry     beta=0.50
     Davidson diagonalization with overlap
     ethr =  3.66E-07,  avg # of iterations =  2.9

     total cpu time spent up to now is      196.6 secs

     total energy              =    -639.66894068 Ry
     Harris-Foulkes estimate   =    -639.66896898 Ry
     estimated scf accuracy    <       0.00007439 Ry

     iteration # 10     ecut=   100.00 Ry     beta=0.50
     Davidson diagonalization with overlap
     ethr =  5.81E-08,  avg # of iterations =  4.0

     total cpu time spent up to now is      220.9 secs

     total energy              =    -639.66897689 Ry
     Harris-Foulkes estimate   =    -639.66898310 Ry
     estimated scf accuracy    <       0.00001426 Ry

     iteration # 11     ecut=   100.00 Ry     beta=0.50
     Davidson diagonalization with overlap
     ethr =  1.11E-08,  avg # of iterations =  2.1

     total cpu time spent up to now is      235.4 secs

     total energy              =    -639.66897850 Ry
     Harris-Foulkes estimate   =    -639.66897907 Ry
     estimated scf accuracy    <       0.00000186 Ry

     iteration # 12     ecut=   100.00 Ry     beta=0.50
     Davidson diagonalization with overlap
     ethr =  1.45E-09,  avg # of iterations =  4.0

     total cpu time spent up to now is      264.3 secs

     total energy              =    -639.66898031 Ry
     Harris-Foulkes estimate   =    -639.66898179 Ry
     estimated scf accuracy    <       0.00000410 Ry

     iteration # 13     ecut=   100.00 Ry     beta=0.50
     Davidson diagonalization with overlap
     ethr =  1.45E-09,  avg # of iterations =  1.0

     total cpu time spent up to now is      278.1 secs

     total energy              =    -639.66897961 Ry
     Harris-Foulkes estimate   =    -639.66898047 Ry
     estimated scf accuracy    <       0.00000134 Ry

     iteration # 14     ecut=   100.00 Ry     beta=0.50
     Davidson diagonalization with overlap
     ethr =  1.04E-09,  avg # of iterations =  4.0

     total cpu time spent up to now is      303.2 secs

     total energy              =    -639.66898065 Ry
     Harris-Foulkes estimate   =    -639.66898110 Ry
     estimated scf accuracy    <       0.00000164 Ry

     iteration # 15     ecut=   100.00 Ry     beta=0.50
     Davidson diagonalization with overlap
     ethr =  1.04E-09,  avg # of iterations =  1.0

     total cpu time spent up to now is      317.0 secs

     total energy              =    -639.66898036 Ry
     Harris-Foulkes estimate   =    -639.66898068 Ry
     estimated scf accuracy    <       0.00000077 Ry

     iteration # 16     ecut=   100.00 Ry     beta=0.50
     Davidson diagonalization with overlap
     ethr =  6.01E-10,  avg # of iterations =  4.0

     total cpu time spent up to now is      338.7 secs

     total energy              =    -639.66898063 Ry
     Harris-Foulkes estimate   =    -639.66898064 Ry
     estimated scf accuracy    <       0.00000002 Ry

     iteration # 17     ecut=   100.00 Ry     beta=0.50
     Davidson diagonalization with overlap
     ethr =  1.76E-11,  avg # of iterations =  4.0

     total cpu time spent up to now is      356.9 secs

     End of self-consistent calculation

          k = 0.0000 0.0000 0.0000 ( 41101 PWs)   bands (ev):

   -23.2578 -23.2383 -20.0079 -19.9650 -18.7454 -18.7315 -16.4870 -16.3640
   -14.3984 -14.3369 -12.9519 -12.9409 -11.4830 -11.4790 -11.0939 -11.0531
    -9.2615  -9.2538  -8.3096  -8.2748  -7.6506  -7.5924  -6.8873  -6.8021
    -6.4187  -6.3866  -6.1382  -6.1131  -6.0307  -5.7966  -5.7589  -5.5975
    -4.8710  -4.8466  -4.6757  -4.3213  -4.2510  -4.0828  -3.5230  -3.5180
    -3.1831  -3.1442  -3.0019  -2.9834  -2.9225  -2.5222  -1.9845  -1.9822
    -1.6375  -1.3745  -0.9481  -0.9302  -0.7652  -0.5437  -0.3283  -0.2712
    -0.1191  -0.1041   0.4358   0.4587   1.0544   1.1044   1.6769   1.7992
     3.9816   4.0501   5.8433   5.9255   6.5909   6.7938   7.3309   7.7114
     7.8823   8.4654   9.0128   9.0778

          k = 0.0000 0.0000 0.2967 ( 41054 PWs)   bands (ev):

   -23.2577 -23.2383 -20.0074 -19.9650 -18.7454 -18.7317 -16.4925 -16.3681
   -14.3889 -14.3334 -12.9610 -12.9386 -11.4557 -11.4507 -11.0495 -11.0234
    -9.3418  -9.3238  -8.4373  -8.3969  -7.7444  -7.6785  -6.7343  -6.6856
    -6.3324  -6.3135  -6.0960  -6.0567  -6.0004  -5.8081  -5.7409  -5.5993
    -4.8178  -4.7823  -4.6553  -4.2609  -4.2402  -4.1418  -3.5278  -3.5224
    -3.1937  -3.1548  -2.9826  -2.9564  -2.9281  -2.5138  -2.0680  -2.0259
    -1.6971  -1.4015  -1.0410  -1.0037  -0.7631  -0.5590  -0.2981  -0.2618
    -0.1853  -0.1416   0.4496   0.4736   1.0372   1.1262   1.6901   1.8482
     3.9361   4.0109   5.8707   5.9278   6.5668   6.6322   7.5869   7.7838
     8.0014   8.2616   8.8132   9.0290

          k = 0.0000 0.3552 0.0264 ( 41054 PWs)   bands (ev):

   -23.2571 -23.2381 -20.0075 -19.9651 -18.7499 -18.7376 -16.4844 -16.3705
   -14.3818 -14.3033 -12.9774 -12.9200 -11.5401 -11.5162 -10.9630 -10.9355
    -9.4361  -9.4132  -8.3668  -8.3055  -7.8228  -7.7420  -6.7458  -6.7126
    -6.2960  -6.2134  -6.1529  -6.1193  -5.9964  -5.6353  -5.4361  -5.4220
    -4.8399  -4.8226  -4.6717  -4.4743  -4.4109  -4.1638  -3.8243  -3.7927
    -3.2086  -3.1272  -3.0474  -2.9480  -2.9068  -2.5084  -1.7782  -1.7524
    -1.6316  -1.4686  -1.1010  -1.0258  -0.8017  -0.4087  -0.3108  -0.2104
    -0.2041  -0.1699   0.4923   0.5103   0.9829   1.2773   1.6862   1.8106
     3.9238   3.9728   5.7839   6.0994   6.4754   6.7058   7.5472   7.7474
     8.2867   8.5487   9.0234   9.1838

          k = 0.0000 0.3552 0.3231 ( 41042 PWs)   bands (ev):

   -23.2570 -23.2381 -20.0069 -19.9651 -18.7497 -18.7381 -16.4901 -16.3749
   -14.3740 -14.3036 -12.9639 -12.9101 -11.5104 -11.4926 -10.9597 -10.9389
    -9.4622  -9.4483  -8.4248  -8.3706  -7.9907  -7.8853  -6.6464  -6.6265
    -6.2615  -6.1986  -6.0620  -5.9790  -5.9505  -5.6378  -5.3678  -5.3519
    -4.8672  -4.8291  -4.6284  -4.4018  -4.3732  -4.2158  -3.7702  -3.7503
    -3.2639  -3.2423  -3.0973  -2.9452  -2.9307  -2.4719  -1.8244  -1.7910
    -1.7384  -1.4281  -1.1881  -1.1007  -0.7807  -0.4153  -0.2829  -0.2757
    -0.2004  -0.1680   0.5052   0.5222   0.9836   1.2640   1.7046   1.8505
     3.8897   3.9361   5.7929   6.1069   6.4080   6.5650   7.7238   7.9490
     8.1747   8.6809   8.8417   8.9565

          k = 0.0000 0.3552-0.2704 ( 41024 PWs)   bands (ev):

   -23.2570 -23.2381 -20.0069 -19.9651 -18.7498 -18.7379 -16.4904 -16.3751
   -14.3771 -14.3073 -12.9395 -12.9004 -11.5101 -11.4931 -11.0182 -10.9725
    -9.4227  -9.3935  -8.3944  -8.3839  -7.9983  -7.8802  -6.6546  -6.6273
    -6.2787  -6.2219  -6.0557  -5.9998  -5.9379  -5.6388  -5.4505  -5.4402
    -4.8135  -4.7833  -4.6073  -4.3041  -4.2668  -4.1992  -3.8068  -3.7853
    -3.2873  -3.2344  -3.1148  -3.0269  -2.9919  -2.4340  -1.8415  -1.7994
    -1.7614  -1.3831  -1.1478  -1.0717  -0.7575  -0.4349  -0.2894  -0.2534
    -0.2038  -0.1749   0.4957   0.5141   1.0239   1.2320   1.6966   1.8459
     3.8941   3.9315   5.8139   6.0960   6.4113   6.5639   7.6394   7.9608
     8.3189   8.6544   8.7246   8.9740

          k = 0.3333 0.1444 0.0344 ( 41097 PWs)   bands (ev):

   -23.2535 -23.2425 -20.0007 -19.9723 -18.7464 -18.7306 -16.4704 -16.3811
   -14.4112 -14.3247 -12.9862 -12.9071 -11.4923 -11.4662 -11.1244 -11.0284
    -9.2735  -9.2407  -8.3060  -8.2810  -7.6397  -7.6070  -6.8883  -6.8027
    -6.4187  -6.3951  -6.1598  -6.0777  -5.9147  -5.8009  -5.7621  -5.6572
    -4.9075  -4.8640  -4.5388  -4.3052  -4.2578  -4.1904  -3.5239  -3.5117
    -3.1856  -3.1580  -3.0440  -2.9664  -2.9443  -2.4266  -1.9919  -1.9741
    -1.6351  -1.4818  -0.9743  -0.9197  -0.7223  -0.5910  -0.3445  -0.2992
    -0.1085  -0.0806   0.4398   0.4556   0.9731   1.2556   1.6611   1.7311
     3.9765   4.0190   5.8890   5.9985   6.6029   6.7602   7.5939   7.6954
     7.9348   8.4826   8.9532   9.0508

          k = 0.3333 0.1444 0.3312 ( 41057 PWs)   bands (ev):

   -23.2535 -23.2425 -20.0003 -19.9722 -18.7466 -18.7306 -16.4757 -16.3854
   -14.4016 -14.3213 -12.9878 -12.9123 -11.4651 -11.4403 -11.0643 -11.0118
    -9.3660  -9.2939  -8.4447  -8.3994  -7.7414  -7.6866  -6.7566  -6.6715
    -6.3333  -6.3123  -6.0969  -6.0339  -5.9161  -5.7751  -5.7393  -5.6524
    -4.8305  -4.8196  -4.5578  -4.3590  -4.2259  -4.1259  -3.5358  -3.5085
    -3.1808  -3.1479  -3.0813  -2.9674  -2.9025  -2.4730  -2.0747  -2.0347
    -1.6873  -1.4319  -1.0716  -1.0143  -0.7495  -0.6039  -0.3465  -0.2728
    -0.1753  -0.0862   0.4547   0.4681   0.9972   1.2637   1.6760   1.7767
     3.9082   3.9965   5.9190   5.9622   6.4682   6.6396   7.6988   7.9380
     8.1313   8.4951   8.7789   9.0401

          k = 0.3333 0.1444-0.2623 ( 41098 PWs)   bands (ev):

   -23.2535 -23.2424 -20.0003 -19.9722 -18.7468 -18.7304 -16.4753 -16.3859
   -14.4017 -14.3215 -12.9833 -12.9167 -11.4672 -11.4374 -11.0631 -11.0140
    -9.3675  -9.2913  -8.4300  -8.4151  -7.7349  -7.6932  -6.7480  -6.6815
    -6.3309  -6.3153  -6.0876  -6.0459  -5.9081  -5.7825  -5.7531  -5.6483
    -4.8296  -4.7850  -4.5627  -4.3102  -4.2470  -4.1757  -3.5353  -3.5069
    -3.2022  -3.1401  -3.0752  -2.9462  -2.9070  -2.4234  -2.0816  -2.0572
    -1.7794  -1.3738  -1.0614  -1.0039  -0.7644  -0.6310  -0.3273  -0.3036
    -0.1574  -0.0924   0.4557   0.4687   1.0519   1.2705   1.6677   1.7627
     3.9016   4.0041   5.8913   5.9633   6.4494   6.6368   7.7437   7.8868
     8.1371   8.4343   8.8402   9.1511

          k = 0.3333 0.4996 0.0608 ( 41074 PWs)   bands (ev):

   -23.2528 -23.2423 -20.0005 -19.9722 -18.7513 -18.7362 -16.4716 -16.3838
   -14.3813 -14.3043 -12.9849 -12.9126 -11.5380 -11.5202 -10.9730 -10.9284
    -9.4519  -9.3959  -8.3545  -8.3182  -7.8005  -7.7656  -6.7403  -6.7168
    -6.2936  -6.2215  -6.1527  -6.1336  -5.8951  -5.7200  -5.4353  -5.4172
    -4.8769  -4.8146  -4.5577  -4.4561  -4.4089  -4.2220  -3.8095  -3.7941
    -3.1649  -3.1540  -3.0740  -2.9534  -2.9086  -2.4769  -1.7933  -1.7544
    -1.6210  -1.5561  -1.1009  -1.0377  -0.7160  -0.4841  -0.3289  -0.2469
    -0.1733  -0.1275   0.4906   0.5037   0.9511   1.2984   1.6746   1.7258
     3.8546   4.0396   5.8436   6.0985   6.5670   6.6404   7.5636   8.0910
     8.3333   8.6154   8.8857   9.0634

          k = 0.3333 0.4996 0.3576 ( 41077 PWs)   bands (ev):

   -23.2528 -23.2423 -20.0000 -19.9720 -18.7513 -18.7365 -16.4772 -16.3884
   -14.3729 -14.3053 -12.9652 -12.9089 -11.5090 -11.4961 -10.9593 -10.9414
    -9.4999  -9.4042  -8.4109  -8.3932  -7.9774  -7.9023  -6.6445  -6.6348
    -6.2716  -6.1838  -6.0460  -5.9610  -5.8858  -5.7129  -5.3672  -5.3447
    -4.8829  -4.8489  -4.5504  -4.4094  -4.3543  -4.2179  -3.7679  -3.7408
    -3.2667  -3.2173  -3.1355  -2.9652  -2.9346  -2.4840  -1.8690  -1.7858
    -1.7029  -1.4280  -1.2011  -1.1305  -0.7328  -0.4914  -0.3235  -0.2362
    -0.2190  -0.1278   0.5039   0.5178   1.0065   1.2806   1.6931   1.7500
     3.8059   4.0119   5.8658   6.0815   6.3704   6.5696   7.6828   8.1298
     8.5835   8.7387   8.8281   9.0277

          k = 0.3333 0.4996-0.2359 ( 41070 PWs)   bands (ev):

   -23.2528 -23.2423 -19.9999 -19.9721 -18.7516 -18.7362 -16.4771 -16.3890
   -14.3777 -14.3069 -12.9520 -12.8884 -11.5200 -11.4869 -11.0253 -10.9650
    -9.4386  -9.3732  -8.4003  -8.3838  -7.9724  -7.9134  -6.6526  -6.6385
    -6.3001  -6.1894  -6.0467  -5.9687  -5.8765  -5.7300  -5.4528  -5.4112
    -4.8248  -4.7923  -4.5334  -4.3506  -4.2496  -4.2100  -3.7983  -3.7760
    -3.2720  -3.2234  -3.1267  -3.0284  -3.0024  -2.4179  -1.8550  -1.7942
    -1.7769  -1.4512  -1.1441  -1.0888  -0.7021  -0.5128  -0.3148  -0.2668
    -0.2034  -0.1213   0.4949   0.5068   0.9729   1.3285   1.6959   1.7580
     3.8157   4.0052   5.8607   6.0393   6.3742   6.5643   7.8329   8.1656
     8.2170   8.7225   8.9699   9.0314

          k = 0.3333-0.2108 0.0081 ( 41060 PWs)   bands (ev):

   -23.2530 -23.2422 -20.0007 -19.9718 -18.7514 -18.7360 -16.4766 -16.3789
   -14.3636 -14.3221 -12.9589 -12.9383 -11.5416 -11.5165 -10.9696 -10.9337
    -9.4622  -9.3845  -8.3736  -8.2978  -7.8044  -7.7587  -6.7516  -6.7040
    -6.2843  -6.2364  -6.1602  -6.1365  -5.9207  -5.7283  -5.4383  -5.4127
    -4.8776  -4.8015  -4.5676  -4.4403  -4.4219  -4.1696  -3.8130  -3.7866
    -3.1957  -3.1331  -2.9918  -2.9501  -2.9354  -2.5171  -1.8179  -1.7628
    -1.6269  -1.5276  -1.0673  -1.0500  -0.7069  -0.4840  -0.2901  -0.2590
    -0.1777  -0.1585   0.4912   0.4980   1.0429   1.1286   1.6982   1.7209
     3.8529   4.0550   5.7729   6.1289   6.5644   6.6839   7.6678   8.0282
     8.1795   8.7633   8.8635   8.9526

          k = 0.3333-0.2108 0.3048 ( 41080 PWs)   bands (ev):

   -23.2529 -23.2422 -20.0002 -19.9716 -18.7515 -18.7362 -16.4825 -16.3837
   -14.3597 -14.3247 -12.9373 -12.9029 -11.5126 -11.4962 -11.0094 -10.9814
    -9.4405  -9.3710  -8.3943  -8.3878  -7.9744  -7.9099  -6.6563  -6.6323
    -6.3147  -6.1735  -6.0409  -5.9641  -5.9275  -5.7184  -5.4588  -5.4222
    -4.8218  -4.7990  -4.5660  -4.3173  -4.2582  -4.1431  -3.7903  -3.7856
    -3.2521  -3.2337  -3.0639  -3.0432  -2.9947  -2.5240  -1.8199  -1.7880
    -1.7011  -1.5121  -1.1359  -1.1172  -0.6873  -0.4558  -0.2744  -0.2477
    -0.2216  -0.1680   0.4948   0.5020   0.9942   1.1564   1.7315   1.7641
     3.8083   4.0238   5.8164   6.0984   6.3945   6.5892   7.8272   8.2225
     8.3362   8.4662   8.6845   8.8774

          k = 0.3333-0.2108-0.2887 ( 41086 PWs)   bands (ev):

   -23.2530 -23.2421 -20.0002 -19.9717 -18.7516 -18.7362 -16.4818 -16.3839
   -14.3561 -14.3218 -12.9502 -12.9239 -11.5179 -11.4900 -10.9518 -10.9467
    -9.4944  -9.4115  -8.4298  -8.3693  -7.9669  -7.9144  -6.6504  -6.6303
    -6.2956  -6.1557  -6.0461  -5.9709  -5.9109  -5.7210  -5.3718  -5.3509
    -4.8770  -4.8214  -4.5725  -4.3750  -4.3701  -4.2064  -3.7720  -3.7381
    -3.2719  -3.2305  -3.0110  -2.9702  -2.9342  -2.5028  -1.8499  -1.8100
    -1.7321  -1.4913  -1.1502  -1.1410  -0.7274  -0.4882  -0.2773  -0.2580
    -0.2027  -0.1709   0.5042   0.5122   1.0257   1.2031   1.7044   1.7685
     3.8044   4.0245   5.7996   6.0858   6.3532   6.6061   7.8992   8.0941
     8.2491   8.5575   8.8623   9.1380

     highest occupied, lowest unoccupied level (ev):     1.8505    3.8044

!    total energy              =    -639.66898063 Ry
     Harris-Foulkes estimate   =    -639.66898064 Ry
     estimated scf accuracy    <          3.1E-09 Ry

     total all-electron energy =     -2426.642890 Ry

     The total energy is the sum of the following terms:

     one-electron contribution =    -309.16104664 Ry
     hartree contribution      =     206.08479842 Ry
     xc contribution           =    -135.42107117 Ry
     ewald contribution        =    -217.62818647 Ry
     Dispersion Correction     =      -0.19711961 Ry
     one-center paw contrib.   =    -183.34635516 Ry

     convergence has been achieved in  17 iterations

     Forces acting on atoms (cartesian axes, Ry/au):

     atom    1 type  4   force =     0.00233980   -0.00446606    0.00041080
     atom    2 type  4   force =    -0.00233980    0.00446606   -0.00041080
     atom    3 type  4   force =    -0.00286148    0.00380571    0.00033157
     atom    4 type  4   force =     0.00286148   -0.00380571   -0.00033157
     atom    5 type  4   force =    -0.00021251    0.00369876   -0.00090694
     atom    6 type  4   force =     0.00021251   -0.00369876    0.00090694
     atom    7 type  2   force =     0.00154205    0.00151045   -0.00292525
     atom    8 type  2   force =    -0.00154205   -0.00151045    0.00292525
     atom    9 type  2   force =     0.00270017   -0.00435838   -0.00241009
     atom   10 type  2   force =    -0.00270017    0.00435838    0.00241009
     atom   11 type  1   force =    -0.00335840    0.00013185    0.00689373
     atom   12 type  1   force =     0.00335840   -0.00013185   -0.00689373
     atom   13 type  1   force =    -0.00165780    0.00220330    0.00189130
     atom   14 type  1   force =     0.00165780   -0.00220330   -0.00189130
     atom   15 type  1   force =    -0.00153336   -0.00100333   -0.00417944
     atom   16 type  1   force =     0.00153336    0.00100333    0.00417944
     atom   17 type  3   force =     0.00090860   -0.00028849   -0.00018009
     atom   18 type  3   force =    -0.00090860    0.00028849    0.00018009
     atom   19 type  1   force =     0.00314978   -0.00638279    0.00743621
     atom   20 type  1   force =    -0.00314978    0.00638279   -0.00743621
     atom   21 type  3   force =    -0.00114242    0.00328690   -0.00355299
     atom   22 type  3   force =     0.00114242   -0.00328690    0.00355299
     atom   23 type  1   force =    -0.00292655    0.00499368   -0.00501880
     atom   24 type  1   force =     0.00292655   -0.00499368    0.00501880
     atom   25 type  1   force =     0.00278934   -0.00441065   -0.00031850
     atom   26 type  1   force =    -0.00278934    0.00441065    0.00031850
     atom   27 type  3   force =    -0.00161264    0.00242871    0.00093273
     atom   28 type  3   force =     0.00161264   -0.00242871   -0.00093273
     atom   29 type  1   force =     0.00011671   -0.00267521    0.00094213
     atom   30 type  1   force =    -0.00011671    0.00267521   -0.00094213
     atom   31 type  3   force =     0.00024190    0.00011842   -0.00099581
     atom   32 type  3   force =    -0.00024190   -0.00011842    0.00099581
     atom   33 type  3   force =    -0.00056971    0.00191641   -0.00006360
     atom   34 type  3   force =     0.00056971   -0.00191641    0.00006360
     atom   35 type  3   force =    -0.00015111    0.00155800    0.00031953
     atom   36 type  3   force =     0.00015111   -0.00155800   -0.00031953
     atom   37 type  3   force =    -0.00064969   -0.00039774    0.00313406
     atom   38 type  3   force =     0.00064969    0.00039774   -0.00313406
     atom   39 type  3   force =     0.00118999   -0.00264057   -0.00084547
     atom   40 type  3   force =    -0.00118999    0.00264057    0.00084547

     Total force =     0.030373     Total SCF correction =     0.000096


     Computing stress (Cartesian axis) and pressure

          total   stress  (Ry/bohr**3)                   (kbar)     P=   -2.10
  -0.00002572   0.00000686   0.00001244         -3.78      1.01      1.83
   0.00000686  -0.00001918  -0.00003552          1.01     -2.82     -5.23
   0.00001244  -0.00003552   0.00000201          1.83     -5.23      0.30


     Writing output data file scf.save
 
     init_run     :     12.09s CPU     12.32s WALL (       1 calls)
     electrons    :    335.87s CPU    343.99s WALL (       1 calls)
     forces       :      5.64s CPU      5.68s WALL (       1 calls)
     stress       :     15.06s CPU     15.07s WALL (       1 calls)

     Called by init_run:
     wfcinit      :      7.73s CPU      7.91s WALL (       1 calls)
     potinit      :      1.57s CPU      1.58s WALL (       1 calls)

     Called by electrons:
     c_bands      :    294.93s CPU    302.29s WALL (      17 calls)
     sum_band     :     35.36s CPU     36.03s WALL (      17 calls)
     v_of_rho     :      0.88s CPU      0.93s WALL (      18 calls)
     newd         :      1.61s CPU      1.64s WALL (      18 calls)
     PAW_pot      :      2.80s CPU      2.80s WALL (      18 calls)
     mix_rho      :      0.20s CPU      0.20s WALL (      17 calls)

     Called by c_bands:
     init_us_2    :      2.49s CPU      2.50s WALL (     518 calls)
     cegterg      :    284.84s CPU    292.07s WALL (     238 calls)

     Called by sum_band:
     sum_band:bec :      0.03s CPU      0.03s WALL (     238 calls)
     addusdens    :      1.56s CPU      1.62s WALL (      17 calls)

     Called by *egterg:
     h_psi        :    182.07s CPU    186.81s WALL (    1084 calls)
     s_psi        :     22.56s CPU     22.56s WALL (    1084 calls)
     g_psi        :      1.08s CPU      1.08s WALL (     832 calls)
     cdiaghg      :     15.91s CPU     15.90s WALL (    1070 calls)

     Called by h_psi:
     h_psi:pot    :    181.03s CPU    185.75s WALL (    1084 calls)
     h_psi:calbec :     24.48s CPU     24.59s WALL (    1084 calls)
     vloc_psi     :    134.16s CPU    138.75s WALL (    1084 calls)
     add_vuspsi   :     22.40s CPU     22.41s WALL (    1084 calls)

     General routines
     calbec       :     37.60s CPU     37.77s WALL (    1392 calls)
     fft          :      0.97s CPU      1.06s WALL (     258 calls)
     fftw         :    144.85s CPU    149.80s WALL (  123446 calls)
 
     Parallel routines
     fft_scatter  :     43.85s CPU     46.18s WALL (  123704 calls)
 
     PWSCF        :  6m12.35s CPU     6m22.14s WALL

 
   This run was terminated on:   5:58:52   5Dec2017            

=------------------------------------------------------------------------------=
   JOB DONE.
=------------------------------------------------------------------------------=
