
     Program PWSCF v.6.1 (svn rev. 13369) starts on 10Dec2017 at  9:40:15 

     This program is part of the open-source Quantum ESPRESSO suite
     for quantum simulation of materials; please cite
         "P. Giannozzi et al., J. Phys.:Condens. Matter 21 395502 (2009);
          URL http://www.quantum-espresso.org", 
     in publications or presentations arising from this work. More details at
     http://www.quantum-espresso.org/quote

     Parallel version (MPI), running on     8 processors
     R & G space division:  proc/nbgrp/npool/nimage =       8
     Waiting for input...
     Reading input from standard input

     Current dimensions of program PWSCF are:
     Max number of different atomic species (ntypx) = 10
     Max number of k-points (npk) =  40000
     Max angular momentum in pseudopotentials (lmaxx) =  3
               file C.pbe-n-kjpaw_psl.0.1.UPF: wavefunction(s)  2P renormalized
               file N.pbe-n-kjpaw_psl.0.1.UPF: wavefunction(s)  2P renormalized
               file H.pbe-kjpaw_psl.0.1.UPF: wavefunction(s)  1S renormalized
               file O.pbe-n-kjpaw_psl.0.1.UPF: wavefunction(s)  2P renormalized

     -------------------------------------
     Parameters for Dispersion Correction:
     -------------------------------------
       atom      VdW radius       C_6     

        C          2.744         60.710
        N          2.640         42.670
        H          1.892          4.857
        O          2.536         24.284

     Subspace diagonalization in iterative solution of the eigenvalue problem:
     a serial algorithm will be used

 
     Parallelization info
     --------------------
     sticks:   dense  smooth     PW     G-vecs:    dense   smooth      PW
     Min         558     558    149                55752    55752    7755
     Max         560     560    150                55755    55755    7762
     Sum        4471    4471   1197               446027   446027   62077
 


     bravais-lattice index     =            0
     lattice parameter (alat)  =      10.2548  a.u.
     unit-cell volume          =    3300.4400 (a.u.)^3
     number of atoms/cell      =           52
     number of atomic types    =            4
     number of electrons       =       176.00
     number of Kohn-Sham states=          105
     kinetic-energy cutoff     =     100.0000  Ry
     charge density cutoff     =     400.0000  Ry
     convergence threshold     =      1.0E-08
     mixing beta               =       0.5000
     number of iterations used =            8  plain     mixing
     Exchange-correlation      =  SLA  PW   PBX  PBC ( 1  4  3  4 0 0)

     celldm(1)=  10.254788  celldm(2)=   0.000000  celldm(3)=   0.000000
     celldm(4)=   0.000000  celldm(5)=   0.000000  celldm(6)=   0.000000

     crystal axes: (cart. coord. in units of alat)
               a(1) = (   1.000000   0.000000   0.000000 )  
               a(2) = (   0.000000   1.334519   0.000000 )  
               a(3) = (   0.000000   0.000000   2.293333 )  

     reciprocal axes: (cart. coord. in units 2 pi/alat)
               b(1) = (  1.000000  0.000000  0.000000 )  
               b(2) = (  0.000000  0.749334  0.000000 )  
               b(3) = (  0.000000  0.000000  0.436047 )  


     PseudoPot. # 1 for  C read from file:
     /scratch/ahofstet/pseudo/C.pbe-n-kjpaw_psl.0.1.UPF
     MD5 check sum: 430fe95172b1e11ef3f8ed03bac87931
     Pseudo is Projector augmented-wave + core cor, Zval =  4.0
     Generated using "atomic" code by A. Dal Corso  v.5.0.99 svn rev. 10869
     Shape of augmentation charge: BESSEL
     Using radial grid of 1073 points,  4 beta functions with: 
                l(1) =   0
                l(2) =   0
                l(3) =   1
                l(4) =   1
     Q(r) pseudized with 0 coefficients 


     PseudoPot. # 2 for  N read from file:
     /scratch/ahofstet/pseudo/N.pbe-n-kjpaw_psl.0.1.UPF
     MD5 check sum: f73187c8b701007e77325f868c9291d7
     Pseudo is Projector augmented-wave + core cor, Zval =  5.0
     Generated using "atomic" code by A. Dal Corso  v.5.0.99 svn rev. 10869
     Shape of augmentation charge: PSQ
     Using radial grid of 1085 points,  4 beta functions with: 
                l(1) =   0
                l(2) =   0
                l(3) =   1
                l(4) =   1
     Q(r) pseudized with 0 coefficients 


     PseudoPot. # 3 for  H read from file:
     /scratch/ahofstet/pseudo/H.pbe-kjpaw_psl.0.1.UPF
     MD5 check sum: 94e484f906d9e9773b2f6e52662335b2
     Pseudo is Projector augmented-wave, Zval =  1.0
     Generated using "atomic" code by A. Dal Corso  v.5.0.99 svn rev. 10869
     Shape of augmentation charge: PSQ
     Using radial grid of  929 points,  2 beta functions with: 
                l(1) =   0
                l(2) =   0
     Q(r) pseudized with 0 coefficients 


     PseudoPot. # 4 for  O read from file:
     /scratch/ahofstet/pseudo/O.pbe-n-kjpaw_psl.0.1.UPF
     MD5 check sum: 3f94a2996a3169367d6eb21d9b593f20
     Pseudo is Projector augmented-wave + core cor, Zval =  6.0
     Generated using "atomic" code by A. Dal Corso  v.5.0.99 svn rev. 10869
     Shape of augmentation charge: BESSEL
     Using radial grid of 1095 points,  4 beta functions with: 
                l(1) =   0
                l(2) =   0
                l(3) =   1
                l(4) =   1
     Q(r) pseudized with 0 coefficients 


     atomic species   valence    mass     pseudopotential
        C              4.00    12.01070      C( 1.00)
        N              5.00    14.00670      N( 1.00)
        H              1.00     1.00794      H( 1.00)
        O              6.00    15.99940      O( 1.00)

      4 Sym. Ops. (no inversion) found ( 3 have fractional translation)



   Cartesian axes

     site n.     atom                  positions (alat units)
         1           C   tau(   1) = (   0.3467105   0.6007551   0.8425539  )
         2           C   tau(   2) = (   0.1532895   0.7337637   1.9892203  )
         3           C   tau(   3) = (   0.6532895   1.2680146   0.3041126  )
         4           C   tau(   4) = (   0.8467105   0.0665043   1.4507790  )
         5           C   tau(   5) = (   0.4718185   0.7895878   0.6809938  )
         6           C   tau(   6) = (   0.0281815   0.5449310   1.8276602  )
         7           C   tau(   7) = (   0.5281815   0.1223284   0.4656727  )
         8           C   tau(   8) = (   0.9718185   1.2121905   1.6123391  )
         9           H   tau(   9) = (   0.3332206   0.9314751   0.6381349  )
        10           H   tau(  10) = (   0.1667794   0.4030438   1.7848013  )
        11           H   tau(  11) = (   0.6667794   0.2642156   0.5085315  )
        12           H   tau(  12) = (   0.8332206   1.0703032   1.6551979  )
        13           H   tau(  13) = (   0.5311392   0.7053148   0.5068921  )
        14           H   tau(  14) = (   0.9688608   0.6292040   1.6535585  )
        15           H   tau(  15) = (   0.4688608   0.0380554   0.6397743  )
        16           H   tau(  16) = (   0.0311392   1.2964634   1.7864407  )
        17           C   tau(  17) = (   0.6854313   0.8911115   0.8366703  )
        18           C   tau(  18) = (   0.8145687   0.4434073   1.9833367  )
        19           C   tau(  19) = (   0.3145687   0.2238521   0.3099961  )
        20           C   tau(  20) = (   0.1854313   1.1106668   1.4566626  )
        21           H   tau(  21) = (   0.8659205   0.8378110   0.7605100  )
        22           H   tau(  22) = (   0.6340795   0.4967078   1.9071764  )
        23           H   tau(  23) = (   0.1340795   0.1705516   0.3861564  )
        24           H   tau(  24) = (   0.3659205   1.1639673   1.5328229  )
        25           H   tau(  25) = (   0.6853492   1.0922155   0.8554021  )
        26           H   tau(  26) = (   0.8146508   0.2423033   2.0020686  )
        27           H   tau(  27) = (   0.3146508   0.4249561   0.2912643  )
        28           H   tau(  28) = (   0.1853492   0.9095628   1.4379307  )
        29           C   tau(  29) = (   0.6521377   0.7782428   1.0886539  )
        30           C   tau(  30) = (   0.8478623   0.5562761   2.2353203  )
        31           C   tau(  31) = (   0.3478623   0.1109833   0.0580126  )
        32           C   tau(  32) = (   0.1521377   1.2235355   1.2046790  )
        33           N   tau(  33) = (   0.4584749   0.6073215   1.0690998  )
        34           N   tau(  34) = (   0.0415251   0.7271973   2.2157662  )
        35           N   tau(  35) = (   0.5415251   1.2745809   0.0775666  )
        36           N   tau(  36) = (   0.9584749   0.0599379   1.2242330  )
        37           O   tau(  37) = (   0.1735783   0.4640258   0.7875182  )
        38           O   tau(  38) = (   0.3264217   0.8704931   1.9341846  )
        39           O   tau(  39) = (   0.8264217   1.1312852   0.3591483  )
        40           O   tau(  40) = (   0.6735783   0.2032337   1.5058147  )
        41           O   tau(  41) = (   0.7641059   0.8159504   1.2792215  )
        42           O   tau(  42) = (   0.7358941   0.5185685   0.1325551  )
        43           O   tau(  43) = (   0.2358941   0.1486910   2.1607777  )
        44           O   tau(  44) = (   0.2641059   1.1858279   1.0141113  )
        45           O   tau(  45) = (   0.3702325   0.4734249   1.2623647  )
        46           O   tau(  46) = (   0.1297675   0.8610939   0.1156983  )
        47           O   tau(  47) = (   0.6297675   1.1406844   2.1776345  )
        48           O   tau(  48) = (   0.8702325   0.1938345   1.0309681  )
        49           H   tau(  49) = (   0.5151363   0.3769066   1.3341254  )
        50           H   tau(  50) = (  -0.0151363   0.9576122   0.1874589  )
        51           H   tau(  51) = (   0.4848637   1.0441660   2.1058739  )
        52           H   tau(  52) = (   1.0151363   0.2903528   0.9592075  )

     number of k points=    12
                       cart. coord. in units 2pi/alat
        k(    1) = (   0.0000000   0.0000000   0.0000000), wk =   0.0833333
        k(    2) = (   0.0000000   0.0000000  -0.2180233), wk =   0.0833333
        k(    3) = (   0.0000000   0.2497779   0.0000000), wk =   0.1666667
        k(    4) = (   0.0000000   0.2497779  -0.2180233), wk =   0.1666667
        k(    5) = (   0.2500000   0.0000000   0.0000000), wk =   0.1666667
        k(    6) = (   0.2500000   0.0000000  -0.2180233), wk =   0.1666667
        k(    7) = (   0.2500000   0.2497779   0.0000000), wk =   0.3333333
        k(    8) = (   0.2500000   0.2497779  -0.2180233), wk =   0.3333333
        k(    9) = (  -0.5000000   0.0000000   0.0000000), wk =   0.0833333
        k(   10) = (  -0.5000000   0.0000000  -0.2180233), wk =   0.0833333
        k(   11) = (  -0.5000000   0.2497779   0.0000000), wk =   0.1666667
        k(   12) = (  -0.5000000   0.2497779  -0.2180233), wk =   0.1666667

     Dense  grid:   446027 G-vectors     FFT dimensions: (  72,  90, 150)

     Estimated max dynamical RAM per process >     305.03MB

     Estimated total allocated dynamical RAM >    2440.27MB

     Check: negative/imaginary core charge=   -0.000002    0.000000

     Initial potential from superposition of free atoms

     starting charge  175.99910, renormalised to  176.00000
     Starting wfc are  148 randomized atomic wfcs
     Checking if some PAW data can be deallocated... 

     total cpu time spent up to now is       15.8 secs

     per-process dynamical memory:   294.0 Mb

     Self-consistent Calculation

     iteration #  1     ecut=   100.00 Ry     beta=0.50
     Davidson diagonalization with overlap
     ethr =  1.00E-02,  avg # of iterations =  3.4

     total cpu time spent up to now is       57.7 secs

     total energy              =    -930.38719434 Ry
     Harris-Foulkes estimate   =    -933.18428537 Ry
     estimated scf accuracy    <       5.20166483 Ry

     iteration #  2     ecut=   100.00 Ry     beta=0.50
     Davidson diagonalization with overlap
     ethr =  2.96E-03,  avg # of iterations =  3.0

     total cpu time spent up to now is       85.7 secs

     total energy              =    -931.10871024 Ry
     Harris-Foulkes estimate   =    -931.60502883 Ry
     estimated scf accuracy    <       1.02086407 Ry

     iteration #  3     ecut=   100.00 Ry     beta=0.50
     Davidson diagonalization with overlap
     ethr =  5.80E-04,  avg # of iterations =  5.9

     total cpu time spent up to now is      123.3 secs

     total energy              =    -931.42170203 Ry
     Harris-Foulkes estimate   =    -931.55089529 Ry
     estimated scf accuracy    <       0.32387383 Ry

     iteration #  4     ecut=   100.00 Ry     beta=0.50
     Davidson diagonalization with overlap
     ethr =  1.84E-04,  avg # of iterations =  2.0

     total cpu time spent up to now is      146.8 secs

     total energy              =    -931.44316320 Ry
     Harris-Foulkes estimate   =    -931.46074245 Ry
     estimated scf accuracy    <       0.04164753 Ry

     iteration #  5     ecut=   100.00 Ry     beta=0.50
     Davidson diagonalization with overlap
     ethr =  2.37E-05,  avg # of iterations =  5.5

     total cpu time spent up to now is      193.0 secs

     total energy              =    -931.46933952 Ry
     Harris-Foulkes estimate   =    -931.48980555 Ry
     estimated scf accuracy    <       0.06715714 Ry

     iteration #  6     ecut=   100.00 Ry     beta=0.50
     Davidson diagonalization with overlap
     ethr =  2.37E-05,  avg # of iterations =  1.0

     total cpu time spent up to now is      214.7 secs

     total energy              =    -931.45583634 Ry
     Harris-Foulkes estimate   =    -931.47107839 Ry
     estimated scf accuracy    <       0.02907556 Ry

     iteration #  7     ecut=   100.00 Ry     beta=0.50
     Davidson diagonalization with overlap
     ethr =  1.65E-05,  avg # of iterations =  4.2

     total cpu time spent up to now is      252.0 secs

     total energy              =    -931.46857138 Ry
     Harris-Foulkes estimate   =    -931.47068088 Ry
     estimated scf accuracy    <       0.00467646 Ry

     iteration #  8     ecut=   100.00 Ry     beta=0.50
     Davidson diagonalization with overlap
     ethr =  2.66E-06,  avg # of iterations =  2.1

     total cpu time spent up to now is      274.9 secs

     total energy              =    -931.46836908 Ry
     Harris-Foulkes estimate   =    -931.46885864 Ry
     estimated scf accuracy    <       0.00105696 Ry

     iteration #  9     ecut=   100.00 Ry     beta=0.50
     Davidson diagonalization with overlap
     ethr =  6.01E-07,  avg # of iterations =  4.2

     total cpu time spent up to now is      313.7 secs

     total energy              =    -931.46927450 Ry
     Harris-Foulkes estimate   =    -931.46945291 Ry
     estimated scf accuracy    <       0.00047388 Ry

     iteration # 10     ecut=   100.00 Ry     beta=0.50
     Davidson diagonalization with overlap
     ethr =  2.69E-07,  avg # of iterations =  1.0

     total cpu time spent up to now is      335.4 secs

     total energy              =    -931.46918873 Ry
     Harris-Foulkes estimate   =    -931.46928951 Ry
     estimated scf accuracy    <       0.00017003 Ry

     iteration # 11     ecut=   100.00 Ry     beta=0.50
     Davidson diagonalization with overlap
     ethr =  9.66E-08,  avg # of iterations =  4.0

     total cpu time spent up to now is      373.1 secs

     total energy              =    -931.46930732 Ry
     Harris-Foulkes estimate   =    -931.46933260 Ry
     estimated scf accuracy    <       0.00008675 Ry

     iteration # 12     ecut=   100.00 Ry     beta=0.50
     Davidson diagonalization with overlap
     ethr =  4.93E-08,  avg # of iterations =  1.0

     total cpu time spent up to now is      394.8 secs

     total energy              =    -931.46928696 Ry
     Harris-Foulkes estimate   =    -931.46930877 Ry
     estimated scf accuracy    <       0.00004396 Ry

     iteration # 13     ecut=   100.00 Ry     beta=0.50
     Davidson diagonalization with overlap
     ethr =  2.50E-08,  avg # of iterations =  3.0

     total cpu time spent up to now is      428.6 secs

     total energy              =    -931.46930475 Ry
     Harris-Foulkes estimate   =    -931.46930589 Ry
     estimated scf accuracy    <       0.00000285 Ry

     iteration # 14     ecut=   100.00 Ry     beta=0.50
     Davidson diagonalization with overlap
     ethr =  1.62E-09,  avg # of iterations =  1.1

     total cpu time spent up to now is      450.4 secs

     total energy              =    -931.46930451 Ry
     Harris-Foulkes estimate   =    -931.46930487 Ry
     estimated scf accuracy    <       0.00000099 Ry

     iteration # 15     ecut=   100.00 Ry     beta=0.50
     Davidson diagonalization with overlap
     ethr =  5.60E-10,  avg # of iterations =  3.7

     total cpu time spent up to now is      486.6 secs

     total energy              =    -931.46930505 Ry
     Harris-Foulkes estimate   =    -931.46930504 Ry
     estimated scf accuracy    <       0.00000004 Ry

     iteration # 16     ecut=   100.00 Ry     beta=0.50
     Davidson diagonalization with overlap
     ethr =  2.02E-11,  avg # of iterations =  2.3

     total cpu time spent up to now is      509.9 secs

     total energy              =    -931.46930503 Ry
     Harris-Foulkes estimate   =    -931.46930505 Ry
     estimated scf accuracy    <       0.00000006 Ry

     iteration # 17     ecut=   100.00 Ry     beta=0.50
     Davidson diagonalization with overlap
     ethr =  2.02E-11,  avg # of iterations =  2.6

     total cpu time spent up to now is      533.1 secs

     total energy              =    -931.46930503 Ry
     Harris-Foulkes estimate   =    -931.46930503 Ry
     estimated scf accuracy    <       0.00000001 Ry

     iteration # 18     ecut=   100.00 Ry     beta=0.50
     Davidson diagonalization with overlap
     ethr =  6.90E-12,  avg # of iterations =  3.5

     total cpu time spent up to now is      567.8 secs

     End of self-consistent calculation

          k = 0.0000 0.0000 0.0000 ( 55781 PWs)   bands (ev):

   -21.6731 -21.6689 -21.4716 -21.4715 -19.8161 -19.8061 -19.7112 -19.7067
   -19.4537 -19.4531 -19.3900 -19.3812 -16.2256 -16.2099 -16.1265 -16.1245
   -12.6309 -12.6039 -12.5367 -12.4630 -10.6587 -10.6139 -10.6118 -10.5999
    -9.0566  -9.0030  -8.9436  -8.8888  -8.4670  -8.3308  -8.2402  -8.2142
    -6.2801  -6.0895  -6.0107  -5.9686  -5.9613  -5.7124  -5.5969  -5.4926
    -5.1245  -4.7960  -4.7897  -4.7711  -4.6425  -4.5077  -4.4442  -4.1488
    -4.1254  -4.0815  -3.9845  -3.9314  -3.8555  -3.8352  -3.7092  -3.6138
    -3.4791  -3.4533  -3.3418  -3.3306  -3.2272  -2.9875  -2.9327  -2.8279
    -2.5926  -2.5481  -2.5189  -2.5175  -1.7607  -1.6395  -1.4935  -1.4557
    -1.4222  -1.3883  -1.2495  -1.2251  -0.5372  -0.4357  -0.3689  -0.3585
     0.0380   0.1916   0.4394   0.4911   0.5229   0.5917   0.5995   0.6572
     4.7029   4.8614   4.8693   4.9177   6.1794   6.1828   6.2678   6.4902
     6.6958   6.7032   7.0639   8.2841   8.3044   8.4767   8.7837   8.8600
     8.9121

          k = 0.0000 0.0000-0.2180 ( 55806 PWs)   bands (ev):

   -21.6710 -21.6710 -21.4715 -21.4715 -19.8111 -19.8111 -19.7090 -19.7090
   -19.4534 -19.4534 -19.3855 -19.3855 -16.2180 -16.2180 -16.1253 -16.1253
   -12.6226 -12.6226 -12.4946 -12.4946 -10.6374 -10.6374 -10.6055 -10.6055
    -9.0373  -9.0373  -8.9093  -8.9093  -8.3999  -8.3999  -8.2253  -8.2253
    -6.2112  -6.2112  -5.9855  -5.9855  -5.8341  -5.8341  -5.5216  -5.5216
    -5.0056  -5.0056  -4.7108  -4.7108  -4.6497  -4.6497  -4.2770  -4.2770
    -4.1104  -4.1104  -3.9335  -3.9335  -3.8578  -3.8578  -3.6307  -3.6307
    -3.4713  -3.4713  -3.3366  -3.3366  -3.0869  -3.0869  -2.9242  -2.9242
    -2.5527  -2.5527  -2.5173  -2.5173  -1.7029  -1.7029  -1.4765  -1.4765
    -1.3998  -1.3998  -1.2359  -1.2359  -0.4844  -0.4844  -0.3611  -0.3611
     0.1048   0.1048   0.4481   0.4481   0.5466   0.5466   0.6608   0.6608
     4.7496   4.7496   4.9292   4.9292   6.1557   6.1557   6.3913   6.3913
     6.6580   6.6580   7.5866   7.5866   8.4295   8.4295   8.8451   8.8451
     8.9896

          k = 0.0000 0.2498 0.0000 ( 55758 PWs)   bands (ev):

   -21.6612 -21.6590 -21.4849 -21.4846 -19.8120 -19.8070 -19.6934 -19.6908
   -19.5031 -19.5011 -19.3533 -19.3501 -16.2681 -16.2620 -16.0786 -16.0758
   -12.6064 -12.5780 -12.5617 -12.5056 -10.6490 -10.6299 -10.5967 -10.5952
    -9.0433  -8.9871  -8.9748  -8.9164  -8.4442  -8.3761  -8.2226  -8.2076
    -6.2344  -6.0950  -6.0399  -6.0145  -5.7903  -5.5716  -5.4646  -5.4030
    -5.2667  -5.1769  -4.8507  -4.7909  -4.5693  -4.3940  -4.3824  -4.2178
    -4.1590  -4.1183  -4.0425  -3.9534  -3.8789  -3.8323  -3.6456  -3.6199
    -3.4322  -3.4042  -3.3517  -3.2731  -3.1222  -2.9946  -2.9530  -2.9107
    -2.6331  -2.5931  -2.5639  -2.5449  -1.7467  -1.7063  -1.6349  -1.6011
    -1.3367  -1.3264  -1.1451  -1.1234  -0.5437  -0.5191  -0.4004  -0.4000
     0.2655   0.2775   0.4672   0.4780   0.5068   0.5612   0.6118   0.6193
     4.7354   4.8202   4.8790   4.9030   6.0530   6.1428   6.3609   6.4959
     6.8163   6.8548   7.4619   7.8538   8.1503   8.2797   8.3856   8.4855
     9.0746

          k = 0.0000 0.2498-0.2180 ( 55794 PWs)   bands (ev):

   -21.6601 -21.6601 -21.4847 -21.4847 -19.8095 -19.8095 -19.6921 -19.6921
   -19.5021 -19.5021 -19.3517 -19.3517 -16.2650 -16.2650 -16.0772 -16.0772
   -12.5981 -12.5981 -12.5277 -12.5277 -10.6363 -10.6363 -10.5996 -10.5996
    -9.0247  -9.0247  -8.9374  -8.9374  -8.3996  -8.3996  -8.2248  -8.2248
    -6.1703  -6.1703  -6.0202  -6.0202  -5.6960  -5.6960  -5.4212  -5.4212
    -5.2211  -5.2211  -4.8302  -4.8302  -4.4934  -4.4934  -4.3259  -4.3259
    -4.1233  -4.1233  -3.9596  -3.9596  -3.8490  -3.8490  -3.6297  -3.6297
    -3.4175  -3.4175  -3.3161  -3.3161  -3.0769  -3.0769  -2.9420  -2.9420
    -2.5868  -2.5868  -2.5655  -2.5655  -1.7198  -1.7198  -1.6169  -1.6169
    -1.3356  -1.3356  -1.1367  -1.1367  -0.5002  -0.5002  -0.4357  -0.4357
     0.2754   0.2754   0.4559   0.4559   0.5375   0.5375   0.6292   0.6292
     4.7729   4.7729   4.8942   4.8942   6.0865   6.0865   6.4327   6.4327
     6.8492   6.8492   7.6783   7.6783   8.0578   8.0578   8.6696   8.6696
     9.1177

          k = 0.2500 0.0000 0.0000 ( 55735 PWs)   bands (ev):

   -21.6433 -21.6397 -21.5006 -21.5000 -19.7943 -19.7874 -19.7204 -19.7164
   -19.4514 -19.4489 -19.4058 -19.3983 -16.2127 -16.1993 -16.1423 -16.1385
   -12.6219 -12.6029 -12.5176 -12.4646 -10.6556 -10.6161 -10.6015 -10.5996
    -9.0714  -9.0380  -8.9521  -8.9169  -8.4469  -8.3198  -8.2697  -8.2407
    -6.3090  -6.1911  -6.0387  -6.0351  -6.0079  -5.6883  -5.5784  -5.4539
    -5.1815  -4.9041  -4.8829  -4.7265  -4.6343  -4.5217  -4.4830  -4.2427
    -4.0689  -4.0559  -4.0441  -3.9215  -3.7078  -3.6201  -3.5995  -3.4630
    -3.4058  -3.3984  -3.3122  -3.2636  -3.1083  -2.9362  -2.9347  -2.8445
    -2.5998  -2.5383  -2.5271  -2.5093  -1.7109  -1.5973  -1.5258  -1.4948
    -1.4701  -1.4520  -1.2628  -1.2448  -0.4997  -0.4140  -0.3995  -0.3440
     0.0627   0.2349   0.3747   0.4888   0.5241   0.5696   0.6094   0.6270
     4.7113   4.8025   4.8489   4.9272   6.1523   6.2191   6.3805   6.4740
     6.8286   6.9876   7.1644   8.0895   8.2728   8.5119   8.5763   8.9198
     8.9464

          k = 0.2500 0.0000-0.2180 ( 55700 PWs)   bands (ev):

   -21.6415 -21.6415 -21.5003 -21.5003 -19.7908 -19.7908 -19.7184 -19.7184
   -19.4503 -19.4503 -19.4019 -19.4019 -16.2063 -16.2063 -16.1402 -16.1402
   -12.6147 -12.6147 -12.4889 -12.4889 -10.6338 -10.6338 -10.6030 -10.6030
    -9.0567  -9.0567  -8.9332  -8.9332  -8.3854  -8.3854  -8.2529  -8.2529
    -6.2236  -6.2236  -6.1141  -6.1141  -5.8263  -5.8263  -5.4879  -5.4879
    -5.0704  -5.0704  -4.7545  -4.7545  -4.6274  -4.6274  -4.3126  -4.3126
    -4.1424  -4.1424  -3.9603  -3.9603  -3.6497  -3.6497  -3.4954  -3.4954
    -3.4341  -3.4341  -3.2599  -3.2599  -3.0307  -3.0307  -2.9016  -2.9016
    -2.5508  -2.5508  -2.5289  -2.5289  -1.6545  -1.6545  -1.4969  -1.4969
    -1.4712  -1.4712  -1.2533  -1.2533  -0.4578  -0.4578  -0.3709  -0.3709
     0.1407   0.1407   0.4240   0.4240   0.5396   0.5396   0.6392   0.6392
     4.7546   4.7546   4.8908   4.8908   6.2059   6.2059   6.4027   6.4027
     6.8312   6.8312   7.6847   7.6847   8.4074   8.4074   8.6716   8.6716
     8.9821

          k = 0.2500 0.2498 0.0000 ( 55725 PWs)   bands (ev):

   -21.6343 -21.6324 -21.5092 -21.5090 -19.7965 -19.7930 -19.7109 -19.7090
   -19.4816 -19.4804 -19.3753 -19.3727 -16.2428 -16.2375 -16.1086 -16.1056
   -12.5947 -12.5742 -12.5396 -12.5001 -10.6506 -10.6283 -10.6046 -10.5970
    -9.0477  -9.0087  -8.9837  -8.9412  -8.4212  -8.3564  -8.2517  -8.2375
    -6.2749  -6.1787  -6.1007  -6.0718  -5.8799  -5.7004  -5.5968  -5.5068
    -5.1506  -5.0149  -4.7836  -4.7176  -4.5867  -4.4874  -4.4409  -4.2889
    -4.1570  -4.0641  -4.0080  -3.9524  -3.6756  -3.6448  -3.5200  -3.4737
    -3.4055  -3.3674  -3.3180  -3.3116  -3.0480  -2.9431  -2.9203  -2.8856
    -2.6207  -2.5937  -2.5798  -2.5117  -1.7051  -1.6527  -1.6246  -1.6122
    -1.3596  -1.3361  -1.2367  -1.2284  -0.5007  -0.4612  -0.3935  -0.3662
     0.1947   0.2238   0.3622   0.4101   0.5335   0.5648   0.6366   0.6523
     4.7368   4.7920   4.8555   4.8834   6.1177   6.2197   6.3563   6.4790
     7.0034   7.0719   7.6369   7.9813   8.0728   8.1763   8.4077   8.6104
     9.1186

          k = 0.2500 0.2498-0.2180 ( 55738 PWs)   bands (ev):

   -21.6334 -21.6334 -21.5091 -21.5091 -19.7947 -19.7947 -19.7100 -19.7100
   -19.4810 -19.4810 -19.3740 -19.3740 -16.2401 -16.2401 -16.1071 -16.1071
   -12.5855 -12.5855 -12.5189 -12.5189 -10.6345 -10.6345 -10.6059 -10.6059
    -9.0323  -9.0323  -8.9596  -8.9596  -8.3810  -8.3810  -8.2517  -8.2517
    -6.2000  -6.2000  -6.1280  -6.1280  -5.7851  -5.7851  -5.5464  -5.5464
    -5.0756  -5.0756  -4.7481  -4.7481  -4.5450  -4.5450  -4.3627  -4.3627
    -4.1343  -4.1343  -3.9665  -3.9665  -3.6579  -3.6579  -3.5042  -3.5042
    -3.3910  -3.3910  -3.2870  -3.2870  -2.9998  -2.9998  -2.9101  -2.9101
    -2.5948  -2.5948  -2.5546  -2.5546  -1.6671  -1.6671  -1.6225  -1.6225
    -1.3516  -1.3516  -1.2343  -1.2343  -0.4521  -0.4521  -0.4138  -0.4138
     0.2160   0.2160   0.3804   0.3804   0.5503   0.5503   0.6455   0.6455
     4.7715   4.7715   4.8639   4.8639   6.1548   6.1548   6.4255   6.4255
     7.0455   7.0455   7.7581   7.7581   8.1628   8.1628   8.5749   8.5749
     9.0890

          k =-0.5000 0.0000 0.0000 ( 55696 PWs)   bands (ev):

   -21.5715 -21.5715 -21.5695 -21.5695 -19.7500 -19.7500 -19.7479 -19.7479
   -19.4357 -19.4357 -19.4303 -19.4303 -16.1789 -16.1789 -16.1707 -16.1707
   -12.6073 -12.6073 -12.4823 -12.4823 -10.6373 -10.6373 -10.5935 -10.5935
    -9.0789  -9.0789  -8.9522  -8.9522  -8.3709  -8.3709  -8.2836  -8.2836
    -6.3326  -6.3326  -6.0963  -6.0963  -5.7847  -5.7847  -5.5221  -5.5221
    -5.0949  -5.0949  -4.8391  -4.8391  -4.6618  -4.6618  -4.3361  -4.3361
    -4.1332  -4.1332  -3.9417  -3.9417  -3.4917  -3.4917  -3.4458  -3.4458
    -3.2972  -3.2972  -3.2120  -3.2120  -2.9588  -2.9588  -2.8554  -2.8554
    -2.5731  -2.5731  -2.5189  -2.5189  -1.6547  -1.6547  -1.5598  -1.5598
    -1.3848  -1.3848  -1.3549  -1.3549  -0.4508  -0.4508  -0.3789  -0.3789
     0.2170   0.2170   0.3901   0.3901   0.5385   0.5385   0.5878   0.5878
     4.7408   4.7408   4.8625   4.8625   6.2296   6.2296   6.4766   6.4766
     7.2955   7.2955   7.6018   7.6018   7.9490   7.9490   8.5796   8.5796
     8.9712

          k =-0.5000 0.0000-0.2180 ( 55696 PWs)   bands (ev):

   -21.5712 -21.5712 -21.5698 -21.5698 -19.7495 -19.7495 -19.7485 -19.7485
   -19.4357 -19.4357 -19.4303 -19.4303 -16.1786 -16.1786 -16.1709 -16.1709
   -12.6065 -12.6065 -12.4832 -12.4832 -10.6286 -10.6286 -10.6022 -10.6022
    -9.0769  -9.0769  -8.9550  -8.9550  -8.3437  -8.3437  -8.3114  -8.3114
    -6.2442  -6.2442  -6.2225  -6.2225  -5.7172  -5.7172  -5.5616  -5.5616
    -5.0192  -5.0192  -4.9238  -4.9238  -4.6129  -4.6129  -4.3508  -4.3508
    -4.1355  -4.1355  -3.9866  -3.9866  -3.5096  -3.5096  -3.3542  -3.3542
    -3.3480  -3.3480  -3.2074  -3.2074  -2.9269  -2.9269  -2.8682  -2.8682
    -2.5910  -2.5910  -2.5160  -2.5160  -1.6290  -1.6290  -1.5835  -1.5835
    -1.3731  -1.3731  -1.3643  -1.3643  -0.4318  -0.4318  -0.4029  -0.4029
     0.2578   0.2578   0.3401   0.3401   0.5439   0.5439   0.5928   0.5928
     4.7677   4.7677   4.8361   4.8361   6.2678   6.2678   6.4424   6.4424
     7.2048   7.2048   7.6341   7.6341   8.1542   8.1542   8.4982   8.4982
     8.9825

          k =-0.5000 0.2498 0.0000 ( 55754 PWs)   bands (ev):

   -21.5707 -21.5707 -21.5695 -21.5695 -19.7552 -19.7552 -19.7531 -19.7531
   -19.4301 -19.4301 -19.4255 -19.4255 -16.1784 -16.1784 -16.1739 -16.1739
   -12.5759 -12.5759 -12.5066 -12.5066 -10.6415 -10.6415 -10.6039 -10.6039
    -9.0450  -9.0450  -8.9761  -8.9761  -8.3539  -8.3539  -8.2882  -8.2882
    -6.2947  -6.2947  -6.1413  -6.1413  -5.8234  -5.8234  -5.6869  -5.6869
    -4.8950  -4.8950  -4.7532  -4.7532  -4.5987  -4.5987  -4.4048  -4.4048
    -4.1331  -4.1331  -3.9739  -3.9739  -3.4645  -3.4645  -3.4173  -3.4173
    -3.3344  -3.3344  -3.2943  -3.2943  -2.9173  -2.9173  -2.8341  -2.8341
    -2.6075  -2.6075  -2.5302  -2.5302  -1.6736  -1.6736  -1.5795  -1.5795
    -1.3877  -1.3877  -1.3233  -1.3233  -0.4415  -0.4415  -0.3525  -0.3525
     0.1748   0.1748   0.2725   0.2725   0.6041   0.6041   0.6259   0.6259
     4.7576   4.7576   4.8360   4.8360   6.2609   6.2609   6.4107   6.4107
     7.4767   7.4767   7.6295   7.6295   8.1874   8.1874   8.4227   8.4227
     9.0193

          k =-0.5000 0.2498-0.2180 ( 55704 PWs)   bands (ev):

   -21.5705 -21.5705 -21.5698 -21.5698 -19.7544 -19.7544 -19.7539 -19.7539
   -19.4291 -19.4291 -19.4265 -19.4265 -16.1780 -16.1780 -16.1742 -16.1742
   -12.5723 -12.5723 -12.5104 -12.5104 -10.6287 -10.6287 -10.6163 -10.6163
    -9.0420  -9.0420  -8.9806  -8.9806  -8.3301  -8.3301  -8.3114  -8.3114
    -6.2308  -6.2308  -6.2243  -6.2243  -5.7817  -5.7817  -5.7140  -5.7140
    -4.8476  -4.8476  -4.7748  -4.7748  -4.5579  -4.5579  -4.4600  -4.4600
    -4.1236  -4.1236  -4.0275  -4.0275  -3.4504  -3.4504  -3.3773  -3.3773
    -3.3584  -3.3584  -3.2905  -3.2905  -2.8996  -2.8996  -2.8335  -2.8335
    -2.6049  -2.6049  -2.5480  -2.5480  -1.6356  -1.6356  -1.6178  -1.6178
    -1.3554  -1.3554  -1.3524  -1.3524  -0.4072  -0.4072  -0.3920  -0.3920
     0.2071   0.2071   0.2467   0.2467   0.6011   0.6011   0.6243   0.6243
     4.7818   4.7818   4.8160   4.8160   6.2888   6.2888   6.3795   6.3795
     7.4109   7.4109   7.6482   7.6482   8.3342   8.3342   8.4383   8.4383
     8.9424

     highest occupied, lowest unoccupied level (ev):     0.6608    4.7029

!    total energy              =    -931.46930503 Ry
     Harris-Foulkes estimate   =    -931.46930503 Ry
     estimated scf accuracy    <          3.1E-10 Ry

     total all-electron energy =     -3487.052754 Ry

     The total energy is the sum of the following terms:

     one-electron contribution =    -486.40476209 Ry
     hartree contribution      =     314.42957962 Ry
     xc contribution           =    -191.18935121 Ry
     ewald contribution        =    -314.34909933 Ry
     Dispersion Correction     =      -0.23331739 Ry
     one-center paw contrib.   =    -253.72235463 Ry

     convergence has been achieved in  18 iterations

     Forces acting on atoms (cartesian axes, Ry/au):

     atom    1 type  1   force =     0.00562065    0.00102900   -0.00233064
     atom    2 type  1   force =    -0.00562065   -0.00102900   -0.00233064
     atom    3 type  1   force =    -0.00562065    0.00102900    0.00233064
     atom    4 type  1   force =     0.00562065   -0.00102900    0.00233064
     atom    5 type  1   force =    -0.00314464   -0.00097189    0.00187152
     atom    6 type  1   force =     0.00314464    0.00097189    0.00187152
     atom    7 type  1   force =     0.00314464   -0.00097189   -0.00187152
     atom    8 type  1   force =    -0.00314464    0.00097189   -0.00187152
     atom    9 type  3   force =     0.00313318   -0.00079825   -0.00077920
     atom   10 type  3   force =    -0.00313318    0.00079825   -0.00077920
     atom   11 type  3   force =    -0.00313318   -0.00079825    0.00077920
     atom   12 type  3   force =     0.00313318    0.00079825    0.00077920
     atom   13 type  3   force =     0.00032514    0.00002272    0.00009390
     atom   14 type  3   force =    -0.00032514   -0.00002272    0.00009390
     atom   15 type  3   force =    -0.00032514    0.00002272   -0.00009390
     atom   16 type  3   force =     0.00032514   -0.00002272   -0.00009390
     atom   17 type  1   force =     0.00410814   -0.00320569   -0.00009499
     atom   18 type  1   force =    -0.00410814    0.00320569   -0.00009499
     atom   19 type  1   force =    -0.00410814   -0.00320569    0.00009499
     atom   20 type  1   force =     0.00410814    0.00320569    0.00009499
     atom   21 type  3   force =    -0.00444616   -0.00123798    0.00418342
     atom   22 type  3   force =     0.00444616    0.00123798    0.00418342
     atom   23 type  3   force =     0.00444616   -0.00123798   -0.00418342
     atom   24 type  3   force =    -0.00444616    0.00123798   -0.00418342
     atom   25 type  3   force =    -0.00040018   -0.00171552   -0.00122770
     atom   26 type  3   force =     0.00040018    0.00171552   -0.00122770
     atom   27 type  3   force =     0.00040018   -0.00171552    0.00122770
     atom   28 type  3   force =    -0.00040018    0.00171552    0.00122770
     atom   29 type  1   force =    -0.00174665    0.00027846   -0.00236437
     atom   30 type  1   force =     0.00174665   -0.00027846   -0.00236437
     atom   31 type  1   force =     0.00174665    0.00027846    0.00236437
     atom   32 type  1   force =    -0.00174665   -0.00027846    0.00236437
     atom   33 type  2   force =     0.00147397    0.00055733   -0.00167892
     atom   34 type  2   force =    -0.00147397   -0.00055733   -0.00167892
     atom   35 type  2   force =    -0.00147397    0.00055733    0.00167892
     atom   36 type  2   force =     0.00147397   -0.00055733    0.00167892
     atom   37 type  4   force =    -0.00343238    0.00480510   -0.00080563
     atom   38 type  4   force =     0.00343238   -0.00480510   -0.00080563
     atom   39 type  4   force =     0.00343238    0.00480510    0.00080563
     atom   40 type  4   force =    -0.00343238   -0.00480510    0.00080563
     atom   41 type  4   force =    -0.00004833   -0.00183798    0.00039396
     atom   42 type  4   force =     0.00004833    0.00183798    0.00039396
     atom   43 type  4   force =     0.00004833   -0.00183798   -0.00039396
     atom   44 type  4   force =    -0.00004833    0.00183798   -0.00039396
     atom   45 type  4   force =    -0.00062714    0.00095433   -0.00008640
     atom   46 type  4   force =     0.00062714   -0.00095433   -0.00008640
     atom   47 type  4   force =     0.00062714    0.00095433    0.00008640
     atom   48 type  4   force =    -0.00062714   -0.00095433    0.00008640
     atom   49 type  3   force =    -0.00113265    0.00042064   -0.00030797
     atom   50 type  3   force =     0.00113265   -0.00042064   -0.00030797
     atom   51 type  3   force =     0.00113265    0.00042064    0.00030797
     atom   52 type  3   force =    -0.00113265   -0.00042064    0.00030797

     Total force =     0.027576     Total SCF correction =     0.000041


     Computing stress (Cartesian axis) and pressure

          total   stress  (Ry/bohr**3)                   (kbar)     P=   -3.80
  -0.00003371   0.00000000   0.00000000         -4.96      0.00      0.00
   0.00000000  -0.00004139   0.00000000          0.00     -6.09      0.00
   0.00000000   0.00000000  -0.00000243          0.00      0.00     -0.36


     Writing output data file scf.save
 
     init_run     :     14.83s CPU     15.16s WALL (       1 calls)
     electrons    :    533.45s CPU    552.21s WALL (       1 calls)
     forces       :      6.22s CPU      6.30s WALL (       1 calls)
     stress       :     30.31s CPU     30.34s WALL (       1 calls)

     Called by init_run:
     wfcinit      :     11.35s CPU     11.62s WALL (       1 calls)
     potinit      :      1.26s CPU      1.28s WALL (       1 calls)

     Called by electrons:
     c_bands      :    464.94s CPU    482.34s WALL (      18 calls)
     sum_band     :     60.19s CPU     61.32s WALL (      18 calls)
     v_of_rho     :      1.23s CPU      1.34s WALL (      19 calls)
     newd         :      2.10s CPU      2.14s WALL (      19 calls)
     PAW_pot      :      4.48s CPU      4.48s WALL (      19 calls)
     mix_rho      :      0.32s CPU      0.34s WALL (      18 calls)

     Called by c_bands:
     init_us_2    :      4.97s CPU      4.98s WALL (     468 calls)
     cegterg      :    447.12s CPU    464.43s WALL (     216 calls)

     Called by sum_band:
     sum_band:bec :      0.05s CPU      0.05s WALL (     216 calls)
     addusdens    :      2.32s CPU      2.36s WALL (      18 calls)

     Called by *egterg:
     h_psi        :    301.56s CPU    312.12s WALL (     869 calls)
     s_psi        :     34.61s CPU     34.61s WALL (     869 calls)
     g_psi        :      2.36s CPU      2.36s WALL (     641 calls)
     cdiaghg      :     23.62s CPU     23.62s WALL (     857 calls)

     Called by h_psi:
     h_psi:pot    :    298.82s CPU    309.34s WALL (     869 calls)
     h_psi:calbec :     32.93s CPU     33.07s WALL (     869 calls)
     vloc_psi     :    231.30s CPU    241.66s WALL (     869 calls)
     add_vuspsi   :     34.59s CPU     34.61s WALL (     869 calls)

     General routines
     calbec       :     50.38s CPU     50.60s WALL (    1145 calls)
     fft          :      1.11s CPU      1.28s WALL (     271 calls)
     fftw         :    251.08s CPU    261.58s WALL (  151068 calls)
 
     Parallel routines
     fft_scatter  :     53.89s CPU     60.69s WALL (  151339 calls)
 
     PWSCF        :  9m50.19s CPU    10m10.74s WALL

 
   This run was terminated on:   9:50:26  10Dec2017            

=------------------------------------------------------------------------------=
   JOB DONE.
=------------------------------------------------------------------------------=
