
     Program PWSCF v.6.1 (svn rev. 13369) starts on 19Dec2017 at  6:35:56 

     This program is part of the open-source Quantum ESPRESSO suite
     for quantum simulation of materials; please cite
         "P. Giannozzi et al., J. Phys.:Condens. Matter 21 395502 (2009);
          URL http://www.quantum-espresso.org", 
     in publications or presentations arising from this work. More details at
     http://www.quantum-espresso.org/quote

     Parallel version (MPI), running on     8 processors
     R & G space division:  proc/nbgrp/npool/nimage =       8
     Waiting for input...
     Reading input from standard input

     Current dimensions of program PWSCF are:
     Max number of different atomic species (ntypx) = 10
     Max number of k-points (npk) =  40000
     Max angular momentum in pseudopotentials (lmaxx) =  3
               file C.pbe-n-kjpaw_psl.0.1.UPF: wavefunction(s)  2P renormalized
               file N.pbe-n-kjpaw_psl.0.1.UPF: wavefunction(s)  2P renormalized
               file H.pbe-kjpaw_psl.0.1.UPF: wavefunction(s)  1S renormalized
               file O.pbe-n-kjpaw_psl.0.1.UPF: wavefunction(s)  2P renormalized

     -------------------------------------
     Parameters for Dispersion Correction:
     -------------------------------------
       atom      VdW radius       C_6     

        C          2.744         60.710
        N          2.640         42.670
        H          1.892          4.857
        O          2.536         24.284

     Subspace diagonalization in iterative solution of the eigenvalue problem:
     a serial algorithm will be used

 
     Parallelization info
     --------------------
     sticks:   dense  smooth     PW     G-vecs:    dense   smooth      PW
     Min        1805    1805    486                74373    74373   10404
     Max        1807    1807    488                74374    74374   10405
     Sum       14445   14445   3897               594985   594985   83233
 


     bravais-lattice index     =            0
     lattice parameter (alat)  =      24.0634  a.u.
     unit-cell volume          =    4403.3136 (a.u.)^3
     number of atoms/cell      =           68
     number of atomic types    =            4
     number of electrons       =       280.00
     number of Kohn-Sham states=          168
     kinetic-energy cutoff     =     100.0000  Ry
     charge density cutoff     =     400.0000  Ry
     convergence threshold     =      1.0E-08
     mixing beta               =       0.5000
     number of iterations used =            8  plain     mixing
     Exchange-correlation      =  SLA  PW   PBX  PBC ( 1  4  3  4 0 0)

     celldm(1)=  24.063395  celldm(2)=   0.000000  celldm(3)=   0.000000
     celldm(4)=   0.000000  celldm(5)=   0.000000  celldm(6)=   0.000000

     crystal axes: (cart. coord. in units of alat)
               a(1) = (   1.000000   0.000000   0.000000 )  
               a(2) = (   0.000000   0.783505   0.000000 )  
               a(3) = (   0.000000   0.000000   0.403336 )  

     reciprocal axes: (cart. coord. in units 2 pi/alat)
               b(1) = (  1.000000  0.000000  0.000000 )  
               b(2) = (  0.000000  1.276316  0.000000 )  
               b(3) = (  0.000000  0.000000  2.479322 )  


     PseudoPot. # 1 for  C read from file:
     /scratch/ahofstet/pseudo/C.pbe-n-kjpaw_psl.0.1.UPF
     MD5 check sum: 430fe95172b1e11ef3f8ed03bac87931
     Pseudo is Projector augmented-wave + core cor, Zval =  4.0
     Generated using "atomic" code by A. Dal Corso  v.5.0.99 svn rev. 10869
     Shape of augmentation charge: BESSEL
     Using radial grid of 1073 points,  4 beta functions with: 
                l(1) =   0
                l(2) =   0
                l(3) =   1
                l(4) =   1
     Q(r) pseudized with 0 coefficients 


     PseudoPot. # 2 for  N read from file:
     /scratch/ahofstet/pseudo/N.pbe-n-kjpaw_psl.0.1.UPF
     MD5 check sum: f73187c8b701007e77325f868c9291d7
     Pseudo is Projector augmented-wave + core cor, Zval =  5.0
     Generated using "atomic" code by A. Dal Corso  v.5.0.99 svn rev. 10869
     Shape of augmentation charge: PSQ
     Using radial grid of 1085 points,  4 beta functions with: 
                l(1) =   0
                l(2) =   0
                l(3) =   1
                l(4) =   1
     Q(r) pseudized with 0 coefficients 


     PseudoPot. # 3 for  H read from file:
     /scratch/ahofstet/pseudo/H.pbe-kjpaw_psl.0.1.UPF
     MD5 check sum: 94e484f906d9e9773b2f6e52662335b2
     Pseudo is Projector augmented-wave, Zval =  1.0
     Generated using "atomic" code by A. Dal Corso  v.5.0.99 svn rev. 10869
     Shape of augmentation charge: PSQ
     Using radial grid of  929 points,  2 beta functions with: 
                l(1) =   0
                l(2) =   0
     Q(r) pseudized with 0 coefficients 


     PseudoPot. # 4 for  O read from file:
     /scratch/ahofstet/pseudo/O.pbe-n-kjpaw_psl.0.1.UPF
     MD5 check sum: 3f94a2996a3169367d6eb21d9b593f20
     Pseudo is Projector augmented-wave + core cor, Zval =  6.0
     Generated using "atomic" code by A. Dal Corso  v.5.0.99 svn rev. 10869
     Shape of augmentation charge: BESSEL
     Using radial grid of 1095 points,  4 beta functions with: 
                l(1) =   0
                l(2) =   0
                l(3) =   1
                l(4) =   1
     Q(r) pseudized with 0 coefficients 


     atomic species   valence    mass     pseudopotential
        C              4.00    12.01070      C( 1.00)
        N              5.00    14.00670      N( 1.00)
        H              1.00     1.00794      H( 1.00)
        O              6.00    15.99940      O( 1.00)

      2 Sym. Ops. (no inversion) found ( 1 have fractional translation)
          (note:  2 additional sym.ops. were found but ignored
           their fractional translations are incommensurate with FFT grid)


   Cartesian axes

     site n.     atom                  positions (alat units)
         1           N   tau(   1) = (   0.4059798   0.2088528   0.0371059  )
         2           N   tau(   2) = (   0.5940202   0.5746525   0.2387739  )
         3           N   tau(   3) = (   0.0940202   0.6006055   0.2387739  )
         4           N   tau(   4) = (   0.9059798   0.1828998   0.0371059  )
         5           C   tau(   5) = (   0.3615132   0.3029307   0.0724653  )
         6           C   tau(   6) = (   0.6384868   0.4805746   0.2741333  )
         7           C   tau(   7) = (   0.1384868   0.6946834   0.2741333  )
         8           C   tau(   8) = (   0.8615132   0.0888219   0.0724653  )
         9           N   tau(   9) = (   0.2764609   0.3287859   0.0199597  )
        10           N   tau(  10) = (   0.7235391   0.4547195   0.2216277  )
        11           N   tau(  11) = (   0.2235391   0.7205385   0.2216277  )
        12           N   tau(  12) = (   0.7764609   0.0629668   0.0199597  )
        13           C   tau(  13) = (   0.2646371   0.2526515   0.3496010  )
        14           C   tau(  14) = (   0.7353629   0.5308538   0.1479330  )
        15           C   tau(  15) = (   0.2353629   0.6444042   0.1479330  )
        16           C   tau(  16) = (   0.7646371   0.1391011   0.3496010  )
        17           C   tau(  17) = (   0.3467364   0.1767348   0.3560751  )
        18           C   tau(  18) = (   0.6532636   0.6067705   0.1544071  )
        19           C   tau(  19) = (   0.1532636   0.5684875   0.1544071  )
        20           C   tau(  20) = (   0.8467364   0.2150178   0.3560751  )
        21           N   tau(  21) = (   0.5035395   0.1616719   0.0581238  )
        22           N   tau(  22) = (   0.4964605   0.6218334   0.2597918  )
        23           N   tau(  23) = (  -0.0035395   0.5534246   0.2597918  )
        24           N   tau(  24) = (   1.0035395   0.2300807   0.0581238  )
        25           H   tau(  25) = (   0.5604615   0.2171199   0.0432562  )
        26           H   tau(  26) = (   0.4395385   0.5663854   0.2449242  )
        27           H   tau(  27) = (   0.9395385   0.6088725   0.2449242  )
        28           H   tau(  28) = (   0.0604615   0.1746328   0.0432562  )
        29           H   tau(  29) = (   0.5072350   0.1462338   0.1367843  )
        30           H   tau(  30) = (   0.4927650   0.6372715   0.3384523  )
        31           H   tau(  31) = (  -0.0072350   0.5379865   0.3384523  )
        32           H   tau(  32) = (   1.0072350   0.2455188   0.1367843  )
        33           N   tau(  33) = (   0.4000311   0.3598469   0.1608869  )
        34           N   tau(  34) = (   0.5999689   0.4236584   0.3625549  )
        35           N   tau(  35) = (   0.0999689   0.7515996   0.3625549  )
        36           N   tau(  36) = (   0.9000311   0.0319058   0.1608869  )
        37           O   tau(  37) = (   0.4787198   0.3242462   0.2065911  )
        38           O   tau(  38) = (   0.5212802   0.4592591   0.0049231  )
        39           O   tau(  39) = (   0.0212802   0.7159989   0.0049231  )
        40           O   tau(  40) = (   0.9787198   0.0675064   0.2065911  )
        41           O   tau(  41) = (   0.3551369   0.4432846   0.1844857  )
        42           O   tau(  42) = (   0.6448631   0.3402207   0.3861537  )
        43           O   tau(  43) = (   0.1448631   0.0515320   0.3861537  )
        44           O   tau(  44) = (   0.8551369   0.7319733   0.1844857  )
        45           N   tau(  45) = (   0.1859441   0.2573543   0.2714381  )
        46           N   tau(  46) = (   0.8140559   0.5261510   0.0697701  )
        47           N   tau(  47) = (   0.3140559   0.6491070   0.0697701  )
        48           N   tau(  48) = (   0.6859441   0.1343983   0.2714381  )
        49           O   tau(  49) = (   0.1232828   0.3327487   0.2718002  )
        50           O   tau(  50) = (   0.8767172   0.4507566   0.0701322  )
        51           O   tau(  51) = (   0.3767172   0.7245014   0.0701322  )
        52           O   tau(  52) = (   0.6232828   0.0590039   0.2718002  )
        53           O   tau(  53) = (   0.1825737   0.1838015   0.2063384  )
        54           O   tau(  54) = (   0.8174263   0.5997039   0.4080064  )
        55           O   tau(  55) = (   0.3174263   0.5755541   0.4080064  )
        56           O   tau(  56) = (   0.6825737   0.2079512   0.2063384  )
        57           N   tau(  57) = (   0.3737414   0.0973167   0.2945563  )
        58           N   tau(  58) = (   0.6262586   0.6861886   0.0928883  )
        59           N   tau(  59) = (   0.1262586   0.4890694   0.0928883  )
        60           N   tau(  60) = (   0.8737414   0.2944359   0.2945563  )
        61           H   tau(  61) = (   0.4358943   0.0532091   0.3197526  )
        62           H   tau(  62) = (   0.5641057   0.7302963   0.1180846  )
        63           H   tau(  63) = (   0.0641057   0.4449617   0.1180846  )
        64           H   tau(  64) = (   0.9358943   0.3385436   0.3197526  )
        65           H   tau(  65) = (   0.3165423   0.0600864   0.2511000  )
        66           H   tau(  66) = (   0.6834577   0.7234189   0.0494320  )
        67           H   tau(  67) = (   0.1834577   0.4518391   0.0494320  )
        68           H   tau(  68) = (   0.8165423   0.3316663   0.2511000  )

     number of k points=    12
                       cart. coord. in units 2pi/alat
        k(    1) = (   0.0000000   0.0000000   0.0000000), wk =   0.1250000
        k(    2) = (   0.0000000   0.0000000   0.6198306), wk =   0.2500000
        k(    3) = (   0.0000000   0.0000000  -1.2396612), wk =   0.1250000
        k(    4) = (   0.0000000  -0.6381578   0.0000000), wk =   0.1250000
        k(    5) = (   0.0000000  -0.6381578   0.6198306), wk =   0.2500000
        k(    6) = (   0.0000000  -0.6381578  -1.2396612), wk =   0.1250000
        k(    7) = (  -0.5000000   0.0000000   0.0000000), wk =   0.1250000
        k(    8) = (  -0.5000000   0.0000000   0.6198306), wk =   0.2500000
        k(    9) = (  -0.5000000   0.0000000  -1.2396612), wk =   0.1250000
        k(   10) = (  -0.5000000  -0.6381578   0.0000000), wk =   0.1250000
        k(   11) = (  -0.5000000  -0.6381578   0.6198306), wk =   0.2500000
        k(   12) = (  -0.5000000  -0.6381578  -1.2396612), wk =   0.1250000

     Dense  grid:   594985 G-vectors     FFT dimensions: ( 160, 125,  64)

     Estimated max dynamical RAM per process >     622.97MB

     Estimated total allocated dynamical RAM >    4983.74MB

     Check: negative/imaginary core charge=   -0.000002    0.000000

     Initial potential from superposition of free atoms

     starting charge  279.99915, renormalised to  280.00000
     Starting wfc are  224 randomized atomic wfcs
     Checking if some PAW data can be deallocated... 

     total cpu time spent up to now is       32.6 secs

     per-process dynamical memory:   497.3 Mb

     Self-consistent Calculation

     iteration #  1     ecut=   100.00 Ry     beta=0.50
     Davidson diagonalization with overlap
     ethr =  1.00E-02,  avg # of iterations =  3.0

     total cpu time spent up to now is      126.3 secs

     total energy              =   -1580.46963367 Ry
     Harris-Foulkes estimate   =   -1584.60612602 Ry
     estimated scf accuracy    <       7.32910728 Ry

     iteration #  2     ecut=   100.00 Ry     beta=0.50
     Davidson diagonalization with overlap
     ethr =  2.62E-03,  avg # of iterations =  3.1

     total cpu time spent up to now is      201.1 secs

     total energy              =   -1581.81841954 Ry
     Harris-Foulkes estimate   =   -1583.17809122 Ry
     estimated scf accuracy    <       3.01853958 Ry

     iteration #  3     ecut=   100.00 Ry     beta=0.50
     Davidson diagonalization with overlap
     ethr =  1.08E-03,  avg # of iterations =  3.2

     total cpu time spent up to now is      259.9 secs

     total energy              =   -1582.36620059 Ry
     Harris-Foulkes estimate   =   -1582.49765590 Ry
     estimated scf accuracy    <       0.32105795 Ry

     iteration #  4     ecut=   100.00 Ry     beta=0.50
     Davidson diagonalization with overlap
     ethr =  1.15E-04,  avg # of iterations =  7.2

     total cpu time spent up to now is      363.2 secs

     total energy              =   -1582.46245444 Ry
     Harris-Foulkes estimate   =   -1582.54242965 Ry
     estimated scf accuracy    <       0.22168188 Ry

     iteration #  5     ecut=   100.00 Ry     beta=0.50
     Davidson diagonalization with overlap
     ethr =  7.92E-05,  avg # of iterations =  2.0

     total cpu time spent up to now is      420.0 secs

     total energy              =   -1582.49286132 Ry
     Harris-Foulkes estimate   =   -1582.50379395 Ry
     estimated scf accuracy    <       0.03168327 Ry

     iteration #  6     ecut=   100.00 Ry     beta=0.50
     Davidson diagonalization with overlap
     ethr =  1.13E-05,  avg # of iterations =  7.3

     total cpu time spent up to now is      503.2 secs

     total energy              =   -1582.49969927 Ry
     Harris-Foulkes estimate   =   -1582.50185593 Ry
     estimated scf accuracy    <       0.00602740 Ry

     iteration #  7     ecut=   100.00 Ry     beta=0.50
     Davidson diagonalization with overlap
     c_bands:  1 eigenvalues not converged
     c_bands:  2 eigenvalues not converged
     ethr =  2.15E-06,  avg # of iterations =  7.4

     total cpu time spent up to now is      578.2 secs

     total energy              =   -1582.50091416 Ry
     Harris-Foulkes estimate   =   -1582.50125075 Ry
     estimated scf accuracy    <       0.00101377 Ry

     iteration #  8     ecut=   100.00 Ry     beta=0.50
     Davidson diagonalization with overlap
     ethr =  3.62E-07,  avg # of iterations =  3.9

     total cpu time spent up to now is      644.1 secs

     total energy              =   -1582.50109169 Ry
     Harris-Foulkes estimate   =   -1582.50116999 Ry
     estimated scf accuracy    <       0.00019765 Ry

     iteration #  9     ecut=   100.00 Ry     beta=0.50
     Davidson diagonalization with overlap
     ethr =  7.06E-08,  avg # of iterations =  3.0

     total cpu time spent up to now is      711.7 secs

     total energy              =   -1582.50113174 Ry
     Harris-Foulkes estimate   =   -1582.50117431 Ry
     estimated scf accuracy    <       0.00014012 Ry

     iteration # 10     ecut=   100.00 Ry     beta=0.50
     Davidson diagonalization with overlap
     ethr =  5.00E-08,  avg # of iterations =  2.0

     total cpu time spent up to now is      765.7 secs

     total energy              =   -1582.50115336 Ry
     Harris-Foulkes estimate   =   -1582.50115655 Ry
     estimated scf accuracy    <       0.00001105 Ry

     iteration # 11     ecut=   100.00 Ry     beta=0.50
     Davidson diagonalization with overlap
     ethr =  3.95E-09,  avg # of iterations =  3.0

     total cpu time spent up to now is      849.8 secs

     total energy              =   -1582.50115654 Ry
     Harris-Foulkes estimate   =   -1582.50115753 Ry
     estimated scf accuracy    <       0.00000272 Ry

     iteration # 12     ecut=   100.00 Ry     beta=0.50
     Davidson diagonalization with overlap
     ethr =  9.73E-10,  avg # of iterations =  2.0

     total cpu time spent up to now is      906.2 secs

     total energy              =   -1582.50115689 Ry
     Harris-Foulkes estimate   =   -1582.50115719 Ry
     estimated scf accuracy    <       0.00000090 Ry

     iteration # 13     ecut=   100.00 Ry     beta=0.50
     Davidson diagonalization with overlap
     ethr =  3.20E-10,  avg # of iterations =  3.0

     total cpu time spent up to now is      970.2 secs

     total energy              =   -1582.50115708 Ry
     Harris-Foulkes estimate   =   -1582.50115722 Ry
     estimated scf accuracy    <       0.00000041 Ry

     iteration # 14     ecut=   100.00 Ry     beta=0.50
     Davidson diagonalization with overlap
     ethr =  1.48E-10,  avg # of iterations =  2.0

     total cpu time spent up to now is     1023.9 secs

     total energy              =   -1582.50115714 Ry
     Harris-Foulkes estimate   =   -1582.50115715 Ry
     estimated scf accuracy    <       0.00000004 Ry

     iteration # 15     ecut=   100.00 Ry     beta=0.50
     Davidson diagonalization with overlap
     ethr =  1.46E-11,  avg # of iterations =  3.3

     total cpu time spent up to now is     1113.3 secs

     total energy              =   -1582.50115716 Ry
     Harris-Foulkes estimate   =   -1582.50115716 Ry
     estimated scf accuracy    <       0.00000001 Ry

     iteration # 16     ecut=   100.00 Ry     beta=0.50
     Davidson diagonalization with overlap
     ethr =  4.57E-12,  avg # of iterations =  2.2

     total cpu time spent up to now is     1169.6 secs

     End of self-consistent calculation

          k = 0.0000 0.0000 0.0000 ( 74375 PWs)   bands (ev):

   -23.0663 -23.0615 -22.9794 -22.9758 -22.6041 -22.6038 -22.6023 -22.6020
   -19.1854 -19.1850 -19.1728 -19.1663 -18.5571 -18.5555 -18.5452 -18.5409
   -18.1323 -18.1249 -18.1228 -18.1220 -16.5138 -16.4976 -16.4943 -16.4665
   -15.5946 -15.5815 -15.5729 -15.5706 -13.0199 -13.0082 -12.9681 -12.9491
   -12.7526 -12.7210 -12.6754 -12.5817 -11.5120 -11.4733 -11.4676 -11.4276
    -8.7633  -8.6984  -8.6944  -8.6123  -7.8863  -7.8481  -7.7694  -7.6688
    -7.0814  -6.9561  -6.9192  -6.8438  -6.3643  -6.2973  -6.1734  -6.1721
    -5.8234  -5.7922  -5.6982  -5.6969  -5.6880  -5.6487  -5.5736  -5.4689
    -5.4536  -5.4197  -5.3510  -5.3127  -5.2864  -5.1953  -5.1786  -5.1565
    -5.1158  -5.0213  -5.0092  -4.9613  -4.9065  -4.8053  -4.7864  -4.7399
    -4.7304  -4.6991  -4.5222  -4.4768  -4.4298  -4.3556  -4.3020  -4.2085
    -3.7320  -3.5394  -3.4352  -3.3716  -3.1278  -3.0492  -3.0213  -3.0185
    -1.0772  -1.0706  -1.0549  -1.0526  -0.4520  -0.3576  -0.2548  -0.2233
    -0.1146  -0.0328  -0.0118   0.0069   0.1022   0.1370   0.1544   0.1800
     0.3407   0.3444   0.3820   0.4105   0.4113   0.4961   0.5079   0.5576
     0.5792   0.6311   0.6716   0.6806   0.8376   0.8952   0.9208   1.0118
     1.2071   1.2349   1.2456   1.2661   1.4213   1.4384   1.4587   1.4972
     2.1361   2.1508   2.2906   2.3502   4.1228   4.1319   4.3241   4.4230
     5.0349   5.1504   5.1748   5.3272   7.3427   7.5261   7.5735   7.5862
     8.2219   8.3957   8.5465   8.5848   8.6190   8.6964   8.9483   9.1897
     9.4897   9.5162   9.5788  10.0778  10.0888  10.2478  10.3299  10.4537

          k = 0.0000 0.0000 0.6198 ( 74377 PWs)   bands (ev):

   -23.0503 -23.0469 -22.9885 -22.9861 -22.6026 -22.6025 -22.6014 -22.6014
   -19.1845 -19.1813 -19.1725 -19.1713 -18.5581 -18.5558 -18.5484 -18.5457
   -18.1336 -18.1265 -18.1256 -18.1245 -16.5113 -16.4902 -16.4889 -16.4774
   -15.6027 -15.6009 -15.5945 -15.5880 -13.0325 -12.9988 -12.9809 -12.9800
   -12.7252 -12.6727 -12.6595 -12.6089 -11.4743 -11.4607 -11.4414 -11.4366
    -8.7373  -8.7288  -8.7227  -8.6375  -7.8789  -7.8068  -7.7431  -7.7182
    -6.9798  -6.9641  -6.9195  -6.8948  -6.3543  -6.3301  -6.2128  -6.1919
    -5.9467  -5.9152  -5.8671  -5.8526  -5.7144  -5.6609  -5.5858  -5.4944
    -5.4357  -5.4261  -5.3850  -5.3570  -5.1567  -5.1406  -5.1395  -5.1120
    -5.0207  -4.9998  -4.9746  -4.9559  -4.8847  -4.8604  -4.8381  -4.7374
    -4.6662  -4.6188  -4.5576  -4.4663  -4.4244  -4.3596  -4.2988  -4.2634
    -3.6362  -3.5029  -3.4850  -3.4415  -2.9616  -2.9169  -2.8610  -2.8585
    -1.0542  -1.0276  -1.0229  -1.0110  -0.3935  -0.3623  -0.2649  -0.2145
    -0.0843  -0.0118   0.0148   0.0598   0.0972   0.1432   0.1460   0.1787
     0.3339   0.3500   0.3583   0.3806   0.4887   0.4908   0.5393   0.5480
     0.6036   0.6081   0.6179   0.7201   0.7918   0.9083   0.9151   0.9650
     1.2027   1.2132   1.2178   1.2478   1.4495   1.4576   1.4967   1.5227
     2.1555   2.1792   2.2231   2.3004   4.0017   4.0235   4.1784   4.1871
     5.1394   5.1795   5.1870   5.2955   7.3830   7.5253   7.5513   7.5941
     8.3396   8.4455   8.4768   8.4982   8.7712   8.8610   9.1968   9.3524
     9.4908   9.6421   9.6898  10.0763  10.2302  10.2566  10.2811  10.5207

          k = 0.0000 0.0000-1.2397 ( 74378 PWs)   bands (ev):

   -23.0153 -23.0153 -23.0150 -23.0150 -22.6010 -22.6010 -22.6009 -22.6009
   -19.1802 -19.1802 -19.1747 -19.1747 -18.5547 -18.5547 -18.5537 -18.5537
   -18.1320 -18.1320 -18.1271 -18.1271 -16.4984 -16.4984 -16.4829 -16.4829
   -15.6179 -15.6179 -15.6085 -15.6085 -13.0639 -13.0639 -12.9443 -12.9443
   -12.6698 -12.6698 -12.6412 -12.6412 -11.4544 -11.4544 -11.4198 -11.4198
    -8.7639  -8.7639  -8.6774  -8.6774  -7.8162  -7.8162  -7.7371  -7.7371
    -6.9939  -6.9939  -6.8838  -6.8838  -6.3594  -6.3594  -6.2031  -6.2031
    -6.0158  -6.0158  -5.9820  -5.9820  -5.6434  -5.6434  -5.5905  -5.5905
    -5.4450  -5.4450  -5.3849  -5.3849  -5.2016  -5.2016  -5.1067  -5.1067
    -4.9883  -4.9883  -4.9398  -4.9398  -4.8252  -4.8252  -4.7925  -4.7925
    -4.5646  -4.5646  -4.5574  -4.5574  -4.4000  -4.4000  -4.2720  -4.2720
    -3.5283  -3.5283  -3.5124  -3.5124  -2.7970  -2.7970  -2.6752  -2.6752
    -1.0044  -1.0044  -0.9738  -0.9738  -0.3255  -0.3255  -0.2824  -0.2824
    -0.0121  -0.0121   0.0219   0.0219   0.1760   0.1760   0.2200   0.2200
     0.2878   0.2878   0.3812   0.3812   0.4789   0.4789   0.4921   0.4921
     0.5943   0.5943   0.7518   0.7518   0.8331   0.8331   0.8912   0.8912
     1.2018   1.2018   1.2067   1.2067   1.4778   1.4778   1.5416   1.5416
     2.1448   2.1448   2.2153   2.2153   3.9591   3.9591   3.9945   3.9945
     5.1921   5.1921   5.2256   5.2256   7.4452   7.4452   7.5613   7.5613
     8.3835   8.3835   8.4595   8.4595   9.3496   9.3496   9.3862   9.3862
     9.6975   9.6975   9.8975   9.8975  10.1423  10.1423  10.2398  10.2398

          k = 0.0000-0.6382 0.0000 ( 74416 PWs)   bands (ev):

   -23.0639 -23.0639 -22.9776 -22.9776 -22.6038 -22.6038 -22.6024 -22.6024
   -19.1867 -19.1867 -19.1678 -19.1678 -18.5568 -18.5568 -18.5432 -18.5432
   -18.1268 -18.1268 -18.1235 -18.1235 -16.5014 -16.5014 -16.4854 -16.4854
   -15.5824 -15.5823 -15.5777 -15.5777 -13.0149 -13.0149 -12.9563 -12.9563
   -12.7382 -12.7382 -12.6261 -12.6261 -11.5036 -11.5036 -11.4393 -11.4393
    -8.7132  -8.7132  -8.6769  -8.6769  -7.8253  -7.8253  -7.7451  -7.7451
    -7.0650  -7.0650  -6.8712  -6.8712  -6.3131  -6.3131  -6.1564  -6.1564
    -5.7939  -5.7939  -5.6939  -5.6938  -5.6524  -5.6524  -5.5912  -5.5912
    -5.3763  -5.3763  -5.3259  -5.3259  -5.3217  -5.3217  -5.1369  -5.1369
    -5.0537  -5.0537  -4.9550  -4.9550  -4.9259  -4.9259  -4.7909  -4.7909
    -4.6514  -4.6514  -4.4577  -4.4577  -4.3647  -4.3647  -4.3146  -4.3146
    -3.6386  -3.6386  -3.4160  -3.4160  -3.0814  -3.0814  -3.0280  -3.0280
    -1.0727  -1.0727  -1.0646  -1.0645  -0.3203  -0.3203  -0.3031  -0.3031
    -0.0532  -0.0532   0.0465   0.0466   0.1114   0.1114   0.1632   0.1632
     0.2684   0.2684   0.3748   0.3748   0.4659   0.4659   0.5192   0.5192
     0.5935   0.5935   0.7193   0.7193   0.8530   0.8531   0.9677   0.9677
     1.2339   1.2339   1.2663   1.2663   1.4323   1.4323   1.4689   1.4690
     2.1431   2.1431   2.3215   2.3215   4.1256   4.1256   4.3760   4.3760
     5.1019   5.1019   5.2473   5.2473   7.3943   7.3943   7.6008   7.6008
     8.3306   8.3306   8.5320   8.5320   8.6134   8.6134   9.1578   9.1578
     9.4020   9.4020   9.8918   9.8918  10.1265  10.1265  10.3094  10.3094

          k = 0.0000-0.6382 0.6198 ( 74390 PWs)   bands (ev):

   -23.0486 -23.0486 -22.9873 -22.9873 -22.6026 -22.6026 -22.6015 -22.6015
   -19.1840 -19.1840 -19.1706 -19.1706 -18.5575 -18.5575 -18.5469 -18.5469
   -18.1295 -18.1295 -18.1249 -18.1249 -16.5074 -16.5074 -16.4772 -16.4772
   -15.6009 -15.6009 -15.5921 -15.5921 -13.0133 -13.0133 -12.9787 -12.9787
   -12.7159 -12.7159 -12.6206 -12.6206 -11.4713 -11.4713 -11.4362 -11.4362
    -8.7309  -8.7309  -8.6828  -8.6828  -7.8277  -7.8277  -7.7493  -7.7493
    -6.9747  -6.9747  -6.9027  -6.9027  -6.3519  -6.3519  -6.1739  -6.1739
    -5.9384  -5.9384  -5.8519  -5.8519  -5.6458  -5.6458  -5.5855  -5.5854
    -5.4518  -5.4518  -5.3383  -5.3383  -5.2526  -5.2526  -5.1005  -5.1005
    -4.9954  -4.9954  -4.9623  -4.9623  -4.8753  -4.8753  -4.7964  -4.7964
    -4.6191  -4.6191  -4.4736  -4.4736  -4.3686  -4.3686  -4.2925  -4.2925
    -3.6479  -3.6479  -3.4109  -3.4109  -2.9488  -2.9488  -2.8532  -2.8532
    -1.0669  -1.0669  -0.9802  -0.9802  -0.3859  -0.3859  -0.2317  -0.2317
    -0.0557  -0.0557   0.0349   0.0349   0.1269   0.1269   0.1703   0.1703
     0.2949   0.2949   0.3584   0.3584   0.5050   0.5050   0.5697   0.5697
     0.5858   0.5858   0.7077   0.7077   0.8225   0.8225   0.9450   0.9450
     1.2085   1.2085   1.2551   1.2551   1.4448   1.4448   1.5030   1.5030
     2.1329   2.1329   2.2971   2.2971   4.0165   4.0165   4.1833   4.1833
     5.1450   5.1450   5.2547   5.2547   7.4097   7.4097   7.6062   7.6062
     8.3859   8.3859   8.5175   8.5175   8.7943   8.7943   9.2176   9.2176
     9.6509   9.6509   9.9155   9.9155  10.1321  10.1321  10.4072  10.4072

          k = 0.0000-0.6382-1.2397 ( 74332 PWs)   bands (ev):

   -23.0154 -23.0154 -23.0149 -23.0149 -22.6015 -22.6015 -22.6004 -22.6004
   -19.1805 -19.1805 -19.1744 -19.1744 -18.5572 -18.5572 -18.5515 -18.5515
   -18.1319 -18.1319 -18.1267 -18.1267 -16.5125 -16.5125 -16.4695 -16.4695
   -15.6209 -15.6209 -15.6050 -15.6050 -13.0574 -13.0574 -12.9451 -12.9451
   -12.7096 -12.7096 -12.6078 -12.6078 -11.4648 -11.4648 -11.4085 -11.4085
    -8.7596  -8.7596  -8.6787  -8.6787  -7.8313  -7.8313  -7.7359  -7.7359
    -7.0123  -7.0123  -6.8385  -6.8385  -6.3678  -6.3678  -6.1996  -6.1996
    -6.0365  -6.0365  -5.9498  -5.9498  -5.6294  -5.6294  -5.5830  -5.5830
    -5.5279  -5.5279  -5.3396  -5.3396  -5.2585  -5.2585  -5.0867  -5.0867
    -4.9838  -4.9838  -4.9414  -4.9414  -4.8401  -4.8401  -4.7675  -4.7675
    -4.6304  -4.6304  -4.4649  -4.4649  -4.3517  -4.3517  -4.2994  -4.2994
    -3.6840  -3.6840  -3.3820  -3.3820  -2.8067  -2.8067  -2.6679  -2.6679
    -1.0309  -1.0309  -0.9177  -0.9177  -0.4195  -0.4195  -0.1996  -0.1996
    -0.0538  -0.0538   0.0383   0.0383   0.1157   0.1157   0.1929   0.1929
     0.3002   0.3002   0.3811   0.3811   0.4810   0.4810   0.5830   0.5830
     0.6062   0.6062   0.7619   0.7619   0.7961   0.7961   0.8965   0.8965
     1.1997   1.1997   1.2346   1.2346   1.4536   1.4536   1.5343   1.5343
     2.0843   2.0843   2.2830   2.2830   3.9519   3.9519   4.0009   4.0009
     5.1657   5.1657   5.2501   5.2501   7.4162   7.4162   7.5863   7.5863
     8.3506   8.3506   8.5097   8.5097   9.2139   9.2139   9.4423   9.4423
     9.7477   9.7477   9.8886   9.8886  10.0638  10.0638  10.4175  10.4175

          k =-0.5000 0.0000 0.0000 ( 74392 PWs)   bands (ev):

   -23.0640 -23.0640 -22.9776 -22.9776 -22.6039 -22.6039 -22.6021 -22.6021
   -19.1854 -19.1854 -19.1694 -19.1694 -18.5565 -18.5565 -18.5429 -18.5429
   -18.1292 -18.1292 -18.1218 -18.1218 -16.5100 -16.5100 -16.4761 -16.4761
   -15.5884 -15.5884 -15.5713 -15.5713 -12.9946 -12.9946 -12.9830 -12.9830
   -12.7374 -12.7374 -12.6238 -12.6238 -11.4854 -11.4854 -11.4540 -11.4540
    -8.7510  -8.7510  -8.6339  -8.6339  -7.8727  -7.8727  -7.7167  -7.7167
    -6.9869  -6.9869  -6.9113  -6.9113  -6.2950  -6.2950  -6.2278  -6.2278
    -5.8068  -5.8067  -5.7149  -5.7149  -5.6396  -5.6396  -5.4970  -5.4970
    -5.4470  -5.4470  -5.3477  -5.3477  -5.2419  -5.2419  -5.1734  -5.1734
    -5.0564  -5.0564  -4.9485  -4.9485  -4.8773  -4.8772  -4.7691  -4.7691
    -4.6493  -4.6493  -4.5732  -4.5732  -4.4273  -4.4272  -4.2423  -4.2423
    -3.5738  -3.5738  -3.4436  -3.4436  -3.0967  -3.0967  -3.0096  -3.0096
    -1.0738  -1.0738  -1.0488  -1.0488  -0.4131  -0.4131  -0.2227  -0.2227
    -0.0898  -0.0898   0.0273   0.0273   0.0941   0.0941   0.1526   0.1526
     0.3281   0.3281   0.4148   0.4148   0.4612   0.4612   0.5441   0.5441
     0.6165   0.6165   0.6540   0.6540   0.8581   0.8581   0.9707   0.9707
     1.2264   1.2264   1.2525   1.2525   1.4499   1.4499   1.4635   1.4636
     2.1475   2.1475   2.3128   2.3128   4.1255   4.1255   4.3718   4.3718
     5.0922   5.0922   5.2581   5.2581   7.4217   7.4218   7.5872   7.5872
     8.3109   8.3109   8.5639   8.5639   8.6534   8.6534   9.1304   9.1304
     9.3436   9.3436   9.9337   9.9337  10.2336  10.2336  10.3188  10.3188

          k =-0.5000 0.0000 0.6198 ( 74352 PWs)   bands (ev):

   -23.0486 -23.0486 -22.9873 -22.9873 -22.6026 -22.6026 -22.6014 -22.6014
   -19.1833 -19.1833 -19.1715 -19.1715 -18.5571 -18.5571 -18.5469 -18.5469
   -18.1304 -18.1304 -18.1246 -18.1246 -16.5055 -16.5055 -16.4784 -16.4784
   -15.6030 -15.6030 -15.5900 -15.5900 -13.0398 -13.0398 -12.9513 -12.9513
   -12.7156 -12.7156 -12.6220 -12.6220 -11.4777 -11.4777 -11.4295 -11.4295
    -8.7501  -8.7501  -8.6625  -8.6625  -7.8458  -7.8458  -7.7252  -7.7252
    -7.0124  -7.0124  -6.8693  -6.8693  -6.3027  -6.3027  -6.2379  -6.2379
    -5.9559  -5.9559  -5.8787  -5.8787  -5.6693  -5.6693  -5.5000  -5.5000
    -5.4385  -5.4385  -5.3634  -5.3634  -5.1781  -5.1781  -5.1281  -5.1281
    -4.9900  -4.9900  -4.9522  -4.9522  -4.8965  -4.8965  -4.7758  -4.7758
    -4.6530  -4.6530  -4.4958  -4.4958  -4.3887  -4.3887  -4.3081  -4.3081
    -3.5871  -3.5871  -3.4405  -3.4405  -2.9175  -2.9174  -2.8764  -2.8764
    -1.0496  -1.0496  -1.0043  -1.0043  -0.3781  -0.3781  -0.2444  -0.2444
    -0.0543  -0.0543   0.0394   0.0394   0.1258   0.1258   0.1761   0.1761
     0.2963   0.2963   0.3720   0.3720   0.5035   0.5035   0.5403   0.5403
     0.6090   0.6090   0.6731   0.6731   0.8541   0.8541   0.9474   0.9474
     1.1985   1.1985   1.2409   1.2409   1.4608   1.4608   1.5044   1.5044
     2.1685   2.1685   2.2571   2.2571   4.0089   4.0089   4.1872   4.1872
     5.1503   5.1503   5.2523   5.2523   7.4470   7.4470   7.5791   7.5791
     8.4025   8.4025   8.4748   8.4748   8.7837   8.7837   9.3843   9.3843
     9.4948   9.4948   9.9152   9.9152  10.1571  10.1572  10.3356  10.3357

          k =-0.5000 0.0000-1.2397 ( 74252 PWs)   bands (ev):

   -23.0152 -23.0152 -23.0151 -23.0151 -22.6010 -22.6010 -22.6009 -22.6009
   -19.1775 -19.1775 -19.1775 -19.1775 -18.5542 -18.5542 -18.5542 -18.5542
   -18.1296 -18.1296 -18.1296 -18.1296 -16.4906 -16.4906 -16.4906 -16.4906
   -15.6133 -15.6133 -15.6133 -15.6133 -13.0073 -13.0073 -13.0073 -13.0073
   -12.6527 -12.6527 -12.6527 -12.6527 -11.4367 -11.4367 -11.4367 -11.4367
    -8.7199  -8.7199  -8.7199  -8.7199  -7.7816  -7.7816  -7.7816  -7.7816
    -6.9326  -6.9326  -6.9326  -6.9326  -6.3000  -6.3000  -6.3000  -6.3000
    -5.9949  -5.9949  -5.9949  -5.9949  -5.6004  -5.6004  -5.6004  -5.6004
    -5.4060  -5.4060  -5.4060  -5.4060  -5.1580  -5.1580  -5.1580  -5.1580
    -4.9668  -4.9668  -4.9668  -4.9668  -4.8151  -4.8151  -4.8151  -4.8151
    -4.5711  -4.5711  -4.5711  -4.5711  -4.3299  -4.3299  -4.3299  -4.3299
    -3.5187  -3.5187  -3.5187  -3.5187  -2.7334  -2.7334  -2.7334  -2.7334
    -0.9877  -0.9877  -0.9877  -0.9877  -0.3069  -0.3069  -0.3068  -0.3068
     0.0083   0.0083   0.0083   0.0083   0.1917   0.1917   0.1917   0.1917
     0.3241   0.3241   0.3241   0.3241   0.4797   0.4797   0.4797   0.4797
     0.6905   0.6905   0.6905   0.6905   0.8670   0.8670   0.8670   0.8670
     1.2015   1.2015   1.2016   1.2016   1.5108   1.5108   1.5108   1.5108
     2.1789   2.1789   2.1789   2.1789   3.9766   3.9766   3.9766   3.9766
     5.2099   5.2099   5.2099   5.2099   7.5040   7.5040   7.5040   7.5040
     8.4175   8.4175   8.4175   8.4175   9.3628   9.3628   9.3628   9.3628
     9.8189   9.8189   9.8189   9.8189  10.1655  10.1655  10.1656  10.1656

          k =-0.5000-0.6382 0.0000 ( 74472 PWs)   bands (ev):

   -23.0639 -23.0639 -22.9776 -22.9776 -22.6034 -22.6034 -22.6027 -22.6027
   -19.1865 -19.1865 -19.1680 -19.1680 -18.5567 -18.5567 -18.5433 -18.5433
   -18.1254 -18.1254 -18.1250 -18.1250 -16.5013 -16.5013 -16.4855 -16.4855
   -15.5807 -15.5807 -15.5794 -15.5793 -12.9966 -12.9966 -12.9780 -12.9780
   -12.7358 -12.7357 -12.6256 -12.6256 -11.4898 -11.4898 -11.4527 -11.4527
    -8.7088  -8.7088  -8.6829  -8.6829  -7.8159  -7.8159  -7.7564  -7.7564
    -7.0070  -7.0070  -6.9292  -6.9292  -6.3048  -6.3048  -6.1746  -6.1746
    -5.7814  -5.7814  -5.7121  -5.7121  -5.6418  -5.6418  -5.5902  -5.5902
    -5.3836  -5.3836  -5.3378  -5.3378  -5.2687  -5.2687  -5.1721  -5.1721
    -5.0103  -5.0103  -4.9748  -4.9748  -4.9268  -4.9268  -4.7801  -4.7801
    -4.6188  -4.6188  -4.5312  -4.5312  -4.3946  -4.3946  -4.2904  -4.2904
    -3.5260  -3.5260  -3.5105  -3.5104  -3.0561  -3.0561  -3.0515  -3.0515
    -1.0669  -1.0669  -1.0647  -1.0647  -0.3141  -0.3141  -0.3002  -0.3002
    -0.0539  -0.0539   0.0345   0.0346   0.0999   0.0999   0.1505   0.1505
     0.2900   0.2900   0.3566   0.3566   0.4999   0.4999   0.5609   0.5609
     0.5667   0.5667   0.6809   0.6809   0.8619   0.8619   0.9651   0.9651
     1.2465   1.2465   1.2538   1.2538   1.4378   1.4378   1.4677   1.4677
     2.1372   2.1372   2.3276   2.3276   4.1205   4.1205   4.3730   4.3730
     5.1741   5.1741   5.1833   5.1833   7.4137   7.4137   7.5823   7.5823
     8.3522   8.3522   8.5362   8.5362   8.6283   8.6283   8.9722   8.9722
     9.6147   9.6147   9.8319   9.8319  10.2559  10.2559  10.2655  10.2655

          k =-0.5000-0.6382 0.6198 ( 74360 PWs)   bands (ev):

   -23.0486 -23.0485 -22.9876 -22.9870 -22.6028 -22.6019 -22.6019 -22.6015
   -19.1867 -19.1810 -19.1715 -19.1701 -18.5582 -18.5562 -18.5495 -18.5449
   -18.1285 -18.1281 -18.1268 -18.1255 -16.5065 -16.5059 -16.4896 -16.4672
   -15.6035 -15.5971 -15.5966 -15.5887 -13.0371 -13.0344 -12.9628 -12.9409
   -12.7283 -12.6859 -12.6787 -12.5871 -11.5010 -11.4506 -11.4378 -11.4276
    -8.7334  -8.7133  -8.6987  -8.6817  -7.8215  -7.8128  -7.8061  -7.7034
    -7.0567  -6.9727  -6.8724  -6.8551  -6.3802  -6.2893  -6.2353  -6.1643
    -5.9160  -5.9083  -5.8982  -5.8785  -5.6679  -5.6632  -5.5968  -5.5419
    -5.4212  -5.4015  -5.3545  -5.3360  -5.2473  -5.2252  -5.1622  -5.1183
    -5.0037  -4.9993  -4.9499  -4.9481  -4.8751  -4.8496  -4.8312  -4.7492
    -4.6146  -4.5807  -4.5066  -4.4966  -4.4171  -4.3497  -4.3033  -4.2915
    -3.6990  -3.5641  -3.4716  -3.3777  -2.9257  -2.9218  -2.8779  -2.8657
    -1.0672  -1.0561  -1.0077  -0.9542  -0.3961  -0.3671  -0.2490  -0.2332
    -0.0678  -0.0124   0.0061   0.0433   0.1171   0.1302   0.1414   0.1885
     0.2883   0.3064   0.3262   0.3433   0.4866   0.5313   0.5524   0.5965
     0.6306   0.6346   0.6517   0.6926   0.7908   0.8795   0.9168   0.9651
     1.2088   1.2202   1.2360   1.2414   1.4472   1.4768   1.4822   1.5042
     2.1072   2.2001   2.2068   2.3446   3.9723   4.0454   4.1570   4.2201
     5.1302   5.2047   5.2133   5.2565   7.3985   7.4824   7.5516   7.6017
     8.3537   8.4361   8.4952   8.5303   8.7165   8.9189   8.9597   9.4782
     9.6627   9.7184   9.7378   9.9839  10.1018  10.2254  10.3709  10.3722

          k =-0.5000-0.6382-1.2397 ( 74368 PWs)   bands (ev):

   -23.0154 -23.0154 -23.0149 -23.0149 -22.6015 -22.6015 -22.6004 -22.6004
   -19.1788 -19.1788 -19.1761 -19.1761 -18.5571 -18.5571 -18.5516 -18.5516
   -18.1303 -18.1303 -18.1283 -18.1283 -16.5107 -16.5107 -16.4713 -16.4713
   -15.6178 -15.6178 -15.6084 -15.6084 -13.0176 -13.0176 -12.9903 -12.9903
   -12.6990 -12.6990 -12.6142 -12.6142 -11.4573 -11.4573 -11.4146 -11.4146
    -8.7281  -8.7281  -8.7079  -8.7079  -7.8330  -7.8330  -7.7437  -7.7437
    -6.9289  -6.9289  -6.9249  -6.9249  -6.2941  -6.2941  -6.2812  -6.2812
    -6.0439  -6.0439  -5.9445  -5.9445  -5.6423  -5.6423  -5.5752  -5.5752
    -5.4201  -5.4201  -5.4123  -5.4123  -5.1984  -5.1984  -5.1563  -5.1563
    -4.9939  -4.9939  -4.9297  -4.9297  -4.8415  -4.8415  -4.7621  -4.7621
    -4.6239  -4.6239  -4.4734  -4.4734  -4.3639  -4.3639  -4.3000  -4.3000
    -3.6814  -3.6814  -3.3805  -3.3805  -2.7697  -2.7697  -2.6992  -2.6992
    -1.0272  -1.0272  -0.9194  -0.9194  -0.4174  -0.4174  -0.2024  -0.2024
    -0.0359  -0.0359  -0.0026  -0.0026   0.1399   0.1399   0.1988   0.1988
     0.3119   0.3119   0.3246   0.3246   0.5074   0.5074   0.5492   0.5492
     0.6933   0.6933   0.7076   0.7076   0.8289   0.8289   0.8770   0.8770
     1.2007   1.2007   1.2194   1.2194   1.4977   1.4977   1.5031   1.5031
     2.0915   2.0915   2.2731   2.2731   3.9702   3.9702   3.9808   3.9808
     5.1694   5.1694   5.2499   5.2499   7.4585   7.4585   7.5450   7.5450
     8.3464   8.3464   8.5036   8.5036   9.2975   9.2975   9.3356   9.3356
     9.7001   9.7001   9.9775   9.9775  10.1265  10.1265  10.3532  10.3532

     highest occupied, lowest unoccupied level (ev):     2.3502    3.9519

!    total energy              =   -1582.50115716 Ry
     Harris-Foulkes estimate   =   -1582.50115716 Ry
     estimated scf accuracy    <          3.0E-09 Ry

     total all-electron energy =     -5968.391810 Ry

     The total energy is the sum of the following terms:

     one-electron contribution =    -711.59971180 Ry
     hartree contribution      =     478.40002558 Ry
     xc contribution           =    -309.14370929 Ry
     ewald contribution        =    -608.97937786 Ry
     Dispersion Correction     =      -0.35896221 Ry
     one-center paw contrib.   =    -430.81942157 Ry

     convergence has been achieved in  16 iterations

     Forces acting on atoms (cartesian axes, Ry/au):

     atom    1 type  2   force =     0.00836192    0.00460859   -0.00887991
     atom    2 type  2   force =    -0.00836192   -0.00460859   -0.00887991
     atom    3 type  2   force =    -0.00836033    0.00460664   -0.00888015
     atom    4 type  2   force =     0.00836033   -0.00460664   -0.00888015
     atom    5 type  1   force =    -0.00747939   -0.00570828    0.00317721
     atom    6 type  1   force =     0.00747939    0.00570828    0.00317721
     atom    7 type  1   force =     0.00748189   -0.00571656    0.00317738
     atom    8 type  1   force =    -0.00748189    0.00571656    0.00317738
     atom    9 type  2   force =     0.00042388   -0.00710586   -0.00298601
     atom   10 type  2   force =    -0.00042388    0.00710586   -0.00298601
     atom   11 type  2   force =    -0.00042372   -0.00710894   -0.00298618
     atom   12 type  2   force =     0.00042372    0.00710894   -0.00298618
     atom   13 type  1   force =     0.00730038    0.00904563    0.00362806
     atom   14 type  1   force =    -0.00730038   -0.00904563    0.00362806
     atom   15 type  1   force =    -0.00730066    0.00903493    0.00362816
     atom   16 type  1   force =     0.00730066   -0.00903493    0.00362816
     atom   17 type  1   force =     0.00201738    0.00415720   -0.00166663
     atom   18 type  1   force =    -0.00201738   -0.00415720   -0.00166663
     atom   19 type  1   force =    -0.00201430    0.00414519   -0.00166871
     atom   20 type  1   force =     0.00201430   -0.00414519   -0.00166871
     atom   21 type  2   force =    -0.00898078    0.00288641   -0.00135354
     atom   22 type  2   force =     0.00898078   -0.00288641   -0.00135354
     atom   23 type  2   force =     0.00898179    0.00288666   -0.00135203
     atom   24 type  2   force =    -0.00898179   -0.00288666   -0.00135203
     atom   25 type  3   force =    -0.00041910    0.00055964    0.00245617
     atom   26 type  3   force =     0.00041910   -0.00055964    0.00245617
     atom   27 type  3   force =     0.00041925    0.00055927    0.00245629
     atom   28 type  3   force =    -0.00041925   -0.00055927    0.00245629
     atom   29 type  3   force =    -0.00073887   -0.00151191    0.00486221
     atom   30 type  3   force =     0.00073887    0.00151191    0.00486221
     atom   31 type  3   force =     0.00073886   -0.00151166    0.00486193
     atom   32 type  3   force =    -0.00073886    0.00151166    0.00486193
     atom   33 type  2   force =     0.00274263    0.00275068   -0.01202733
     atom   34 type  2   force =    -0.00274263   -0.00275068   -0.01202733
     atom   35 type  2   force =    -0.00274520    0.00274964   -0.01202590
     atom   36 type  2   force =     0.00274520   -0.00274964   -0.01202590
     atom   37 type  4   force =    -0.00667046   -0.00224991    0.00242916
     atom   38 type  4   force =     0.00667046    0.00224991    0.00242916
     atom   39 type  4   force =     0.00667728   -0.00224830    0.00242494
     atom   40 type  4   force =    -0.00667728    0.00224830    0.00242494
     atom   41 type  4   force =    -0.00158756   -0.00604574    0.00257604
     atom   42 type  4   force =     0.00158756    0.00604574    0.00257604
     atom   43 type  4   force =     0.00158726   -0.00604513    0.00257587
     atom   44 type  4   force =    -0.00158726    0.00604513    0.00257587
     atom   45 type  2   force =    -0.00642153   -0.00191199    0.00590826
     atom   46 type  2   force =     0.00642153    0.00191199    0.00590826
     atom   47 type  2   force =     0.00641945   -0.00191369    0.00590969
     atom   48 type  2   force =    -0.00641945    0.00191369    0.00590969
     atom   49 type  4   force =     0.00335422   -0.00184763   -0.00076671
     atom   50 type  4   force =    -0.00335422    0.00184763   -0.00076671
     atom   51 type  4   force =    -0.00335522   -0.00184759   -0.00076667
     atom   52 type  4   force =     0.00335522    0.00184759   -0.00076667
     atom   53 type  4   force =     0.00879566    0.00816680    0.00007742
     atom   54 type  4   force =    -0.00879566   -0.00816680    0.00007742
     atom   55 type  4   force =    -0.00879665    0.00816127    0.00007219
     atom   56 type  4   force =     0.00879665   -0.00816127    0.00007219
     atom   57 type  2   force =     0.00101605   -0.00296525    0.00188690
     atom   58 type  2   force =    -0.00101605    0.00296525    0.00188690
     atom   59 type  2   force =    -0.00101361   -0.00296553    0.00188656
     atom   60 type  2   force =     0.00101361    0.00296553    0.00188656
     atom   61 type  3   force =    -0.00135763    0.00077205   -0.00089006
     atom   62 type  3   force =     0.00135763   -0.00077205   -0.00089006
     atom   63 type  3   force =     0.00135825    0.00077227   -0.00089045
     atom   64 type  3   force =    -0.00135825   -0.00077227   -0.00089045
     atom   65 type  3   force =     0.00058105   -0.00075473    0.00157270
     atom   66 type  3   force =    -0.00058105    0.00075473    0.00157270
     atom   67 type  3   force =    -0.00058172   -0.00075455    0.00157313
     atom   68 type  3   force =     0.00058172    0.00075455    0.00157313

     Total force =     0.067657     Total SCF correction =     0.000123


     Computing stress (Cartesian axis) and pressure

          total   stress  (Ry/bohr**3)                   (kbar)     P=   -7.04
  -0.00004625   0.00000000   0.00000000         -6.80      0.00      0.00
   0.00000000  -0.00003466   0.00000000          0.00     -5.10      0.00
   0.00000000   0.00000000  -0.00006262          0.00      0.00     -9.21


     Writing output data file scf.save
 
     init_run     :     30.93s CPU     31.89s WALL (       1 calls)
     electrons    :   1100.13s CPU   1137.03s WALL (       1 calls)
     forces       :     13.02s CPU     13.16s WALL (       1 calls)
     stress       :     89.93s CPU     90.25s WALL (       1 calls)

     Called by init_run:
     wfcinit      :     26.15s CPU     27.02s WALL (       1 calls)
     potinit      :      1.68s CPU      1.70s WALL (       1 calls)

     Called by electrons:
     c_bands      :    972.31s CPU   1005.00s WALL (      16 calls)
     sum_band     :    118.61s CPU    122.10s WALL (      16 calls)
     v_of_rho     :      1.45s CPU      1.60s WALL (      17 calls)
     newd         :      2.53s CPU      3.07s WALL (      17 calls)
     PAW_pot      :      4.74s CPU      4.75s WALL (      17 calls)
     mix_rho      :      0.37s CPU      0.39s WALL (      16 calls)

     Called by c_bands:
     init_us_2    :      7.47s CPU      7.49s WALL (     420 calls)
     cegterg      :    941.15s CPU    973.72s WALL (     192 calls)

     Called by sum_band:
     sum_band:bec :      0.10s CPU      0.10s WALL (     192 calls)
     addusdens    :      2.86s CPU      3.36s WALL (      16 calls)

     Called by *egterg:
     h_psi        :    578.29s CPU    598.61s WALL (     895 calls)
     s_psi        :     80.09s CPU     80.10s WALL (     895 calls)
     g_psi        :      3.36s CPU      3.37s WALL (     691 calls)
     cdiaghg      :     58.80s CPU     58.84s WALL (     883 calls)

     Called by h_psi:
     h_psi:pot    :    573.17s CPU    593.38s WALL (     895 calls)
     h_psi:calbec :     84.09s CPU     84.43s WALL (     895 calls)
     vloc_psi     :    408.58s CPU    428.42s WALL (     895 calls)
     add_vuspsi   :     80.50s CPU     80.53s WALL (     895 calls)

     General routines
     calbec       :    130.19s CPU    130.70s WALL (    1147 calls)
     fft          :      2.38s CPU      2.63s WALL (     245 calls)
     fftw         :    448.38s CPU    470.65s WALL (  204950 calls)
 
     Parallel routines
     fft_scatter  :    148.90s CPU    164.82s WALL (  205195 calls)
 
     PWSCF        : 20m43.09s CPU    22m35.54s WALL

 
   This run was terminated on:   6:58:32  19Dec2017            

=------------------------------------------------------------------------------=
   JOB DONE.
=------------------------------------------------------------------------------=
