
     Program PWSCF v.6.1 (svn rev. 13369) starts on 20Dec2017 at 14: 6:32 

     This program is part of the open-source Quantum ESPRESSO suite
     for quantum simulation of materials; please cite
         "P. Giannozzi et al., J. Phys.:Condens. Matter 21 395502 (2009);
          URL http://www.quantum-espresso.org", 
     in publications or presentations arising from this work. More details at
     http://www.quantum-espresso.org/quote

     Parallel version (MPI), running on     8 processors
     R & G space division:  proc/nbgrp/npool/nimage =       8
     Waiting for input...
     Reading input from standard input

     Current dimensions of program PWSCF are:
     Max number of different atomic species (ntypx) = 10
     Max number of k-points (npk) =  40000
     Max angular momentum in pseudopotentials (lmaxx) =  3
               file C.pbe-n-kjpaw_psl.0.1.UPF: wavefunction(s)  2P renormalized
               file N.pbe-n-kjpaw_psl.0.1.UPF: wavefunction(s)  2P renormalized
               file H.pbe-kjpaw_psl.0.1.UPF: wavefunction(s)  1S renormalized
               file O.pbe-n-kjpaw_psl.0.1.UPF: wavefunction(s)  2P renormalized

     -------------------------------------
     Parameters for Dispersion Correction:
     -------------------------------------
       atom      VdW radius       C_6     

        C          2.744         60.710
        N          2.640         42.670
        H          1.892          4.857
        O          2.536         24.284

     Subspace diagonalization in iterative solution of the eigenvalue problem:
     a serial algorithm will be used

 
     Parallelization info
     --------------------
     sticks:   dense  smooth     PW     G-vecs:    dense   smooth      PW
     Min         979     979    263               131043   131043   18268
     Max         980     980    264               131045   131045   18272
     Sum        7835    7835   2107              1048349  1048349  146155
 


     bravais-lattice index     =            0
     lattice parameter (alat)  =      36.4453  a.u.
     unit-cell volume          =    7758.8315 (a.u.)^3
     number of atoms/cell      =          128
     number of atomic types    =            4
     number of electrons       =       448.00
     number of Kohn-Sham states=          268
     kinetic-energy cutoff     =     100.0000  Ry
     charge density cutoff     =     400.0000  Ry
     convergence threshold     =      1.0E-08
     mixing beta               =       0.5000
     number of iterations used =            8  plain     mixing
     Exchange-correlation      =  SLA  PW   PBX  PBC ( 1  4  3  4 0 0)

     celldm(1)=  36.445258  celldm(2)=   0.000000  celldm(3)=   0.000000
     celldm(4)=   0.000000  celldm(5)=   0.000000  celldm(6)=   0.000000

     crystal axes: (cart. coord. in units of alat)
               a(1) = (   1.000000   0.000000   0.000000 )  
               a(2) = (   0.000000   0.185103   0.000000 )  
               a(3) = (  -0.474450   0.000000   0.865883 )  

     reciprocal axes: (cart. coord. in units 2 pi/alat)
               b(1) = (  1.000000  0.000000  0.547938 )  
               b(2) = (  0.000000  5.402392  0.000000 )  
               b(3) = (  0.000000  0.000000  1.154890 )  


     PseudoPot. # 1 for  C read from file:
     /scratch/ahofstet/pseudo/C.pbe-n-kjpaw_psl.0.1.UPF
     MD5 check sum: 430fe95172b1e11ef3f8ed03bac87931
     Pseudo is Projector augmented-wave + core cor, Zval =  4.0
     Generated using "atomic" code by A. Dal Corso  v.5.0.99 svn rev. 10869
     Shape of augmentation charge: BESSEL
     Using radial grid of 1073 points,  4 beta functions with: 
                l(1) =   0
                l(2) =   0
                l(3) =   1
                l(4) =   1
     Q(r) pseudized with 0 coefficients 


     PseudoPot. # 2 for  N read from file:
     /scratch/ahofstet/pseudo/N.pbe-n-kjpaw_psl.0.1.UPF
     MD5 check sum: f73187c8b701007e77325f868c9291d7
     Pseudo is Projector augmented-wave + core cor, Zval =  5.0
     Generated using "atomic" code by A. Dal Corso  v.5.0.99 svn rev. 10869
     Shape of augmentation charge: PSQ
     Using radial grid of 1085 points,  4 beta functions with: 
                l(1) =   0
                l(2) =   0
                l(3) =   1
                l(4) =   1
     Q(r) pseudized with 0 coefficients 


     PseudoPot. # 3 for  H read from file:
     /scratch/ahofstet/pseudo/H.pbe-kjpaw_psl.0.1.UPF
     MD5 check sum: 94e484f906d9e9773b2f6e52662335b2
     Pseudo is Projector augmented-wave, Zval =  1.0
     Generated using "atomic" code by A. Dal Corso  v.5.0.99 svn rev. 10869
     Shape of augmentation charge: PSQ
     Using radial grid of  929 points,  2 beta functions with: 
                l(1) =   0
                l(2) =   0
     Q(r) pseudized with 0 coefficients 


     PseudoPot. # 4 for  O read from file:
     /scratch/ahofstet/pseudo/O.pbe-n-kjpaw_psl.0.1.UPF
     MD5 check sum: 3f94a2996a3169367d6eb21d9b593f20
     Pseudo is Projector augmented-wave + core cor, Zval =  6.0
     Generated using "atomic" code by A. Dal Corso  v.5.0.99 svn rev. 10869
     Shape of augmentation charge: BESSEL
     Using radial grid of 1095 points,  4 beta functions with: 
                l(1) =   0
                l(2) =   0
                l(3) =   1
                l(4) =   1
     Q(r) pseudized with 0 coefficients 


     atomic species   valence    mass     pseudopotential
        C              4.00    12.01070      C( 1.00)
        N              5.00    14.00670      N( 1.00)
        H              1.00     1.00794      H( 1.00)
        O              6.00    15.99940      O( 1.00)

      2 Sym. Ops., with inversion, found



   Cartesian axes

     site n.     atom                  positions (alat units)
         1           O   tau(   1) = (   0.0528405   0.1103260   0.2986795  )
         2           O   tau(   2) = (   0.7099333   0.1103154   0.1342558  )
         3           O   tau(   3) = (   0.5528383   0.2028777   0.2986846  )
         4           O   tau(   4) = (   0.2099325   0.2028813   0.1342526  )
         5           O   tau(   5) = (   0.4727094   0.0747772   0.5672038  )
         6           O   tau(   6) = (  -0.1843834   0.0747878   0.7316274  )
         7           O   tau(   7) = (  -0.0272885  -0.0177745   0.5671986  )
         8           O   tau(   8) = (   0.3156173  -0.0177781   0.7316306  )
         9           N   tau(   9) = (  -0.0634520  -0.0526282   0.3995995  )
        10           N   tau(  10) = (   0.8262371  -0.0526278   0.0333414  )
        11           N   tau(  11) = (   0.4365429   0.0399338   0.3996073  )
        12           N   tau(  12) = (   0.3262257   0.0399258   0.0333379  )
        13           N   tau(  13) = (   0.5890019   0.2377313   0.4662837  )
        14           N   tau(  14) = (  -0.3006873   0.2377310   0.8325419  )
        15           N   tau(  15) = (   0.0890070   0.1451694   0.4662759  )
        16           N   tau(  16) = (   0.1993242   0.1451774   0.8325454  )
        17           N   tau(  17) = (  -0.1032208   0.0786366   0.3983483  )
        18           N   tau(  18) = (   0.8660035   0.0786343   0.0346011  )
        19           N   tau(  19) = (   0.3967717  -0.0139166   0.3983547  )
        20           N   tau(  20) = (   0.3660051  -0.0139207   0.0345949  )
        21           N   tau(  21) = (   0.6287707   0.1064666   0.4675350  )
        22           N   tau(  22) = (  -0.3404537   0.1064689   0.8312822  )
        23           N   tau(  23) = (   0.1287782   0.1990197   0.4675286  )
        24           N   tau(  24) = (   0.1595447   0.1990239   0.8312884  )
        25           N   tau(  25) = (  -0.1388474   0.0757405   0.3377045  )
        26           N   tau(  26) = (   0.9016236   0.0757395   0.0952477  )
        27           N   tau(  27) = (   0.3611539  -0.0168180   0.3377077  )
        28           N   tau(  28) = (   0.4016285  -0.0168094   0.0952380  )
        29           N   tau(  29) = (   0.6643973   0.1093627   0.5281788  )
        30           N   tau(  30) = (  -0.3760738   0.1093637   0.7706356  )
        31           N   tau(  31) = (   0.1643960   0.2019212   0.5281755  )
        32           N   tau(  32) = (   0.1239214   0.2019126   0.7706452  )
        33           N   tau(  33) = (  -0.1227161   0.1278420   0.2999703  )
        34           N   tau(  34) = (   0.8854857   0.1278489   0.1329790  )
        35           N   tau(  35) = (   0.3772898   0.0352924   0.2999683  )
        36           N   tau(  36) = (   0.3854855   0.0353024   0.1329752  )
        37           N   tau(  37) = (   0.6482659   0.0572612   0.5659130  )
        38           N   tau(  38) = (  -0.3599359   0.0572543   0.7329043  )
        39           N   tau(  39) = (   0.1482601   0.1498108   0.5659150  )
        40           N   tau(  40) = (   0.1400644   0.1498008   0.7329080  )
        41           N   tau(  41) = (  -0.0299070   0.0255672   0.2305775  )
        42           N   tau(  42) = (   0.7926804   0.0255693   0.2023702  )
        43           N   tau(  43) = (   0.4701040   0.1181189   0.2305732  )
        44           N   tau(  44) = (   0.2926788   0.1181158   0.2023611  )
        45           N   tau(  45) = (   0.5554568   0.1595359   0.6353057  )
        46           N   tau(  46) = (  -0.2671305   0.1595339   0.6635131  )
        47           N   tau(  47) = (   0.0554459   0.0669843   0.6353100  )
        48           N   tau(  48) = (   0.2328711   0.0669873   0.6635221  )
        49           N   tau(  49) = (   0.0275431   0.0536368   0.3306163  )
        50           N   tau(  50) = (   0.7352269   0.0536355   0.1023244  )
        51           N   tau(  51) = (   0.5275421   0.1461896   0.3306187  )
        52           N   tau(  52) = (   0.2352249   0.1461740   0.1023155  )
        53           N   tau(  53) = (   0.4980067   0.1314663   0.5352669  )
        54           N   tau(  54) = (  -0.2096771   0.1314677   0.7635588  )
        55           N   tau(  55) = (  -0.0019922   0.0389136   0.5352645  )
        56           N   tau(  56) = (   0.2903249   0.0389292   0.7635677  )
        57           C   tau(  57) = (  -0.0745441  -0.0202337   0.3373394  )
        58           C   tau(  58) = (   0.8373202  -0.0202394   0.0956029  )
        59           C   tau(  59) = (   0.4254558   0.0723158   0.3373418  )
        60           C   tau(  60) = (   0.3373161   0.0723194   0.0956000  )
        61           C   tau(  61) = (   0.6000940   0.2053369   0.5285438  )
        62           C   tau(  62) = (  -0.3117704   0.2053426   0.7702804  )
        63           C   tau(  63) = (   0.1000941   0.1127874   0.5285415  )
        64           C   tau(  64) = (   0.1882338   0.1127838   0.7702833  )
        65           C   tau(  65) = (  -0.0210141   0.0172796   0.2978181  )
        66           C   tau(  66) = (   0.7837964   0.0172861   0.1351221  )
        67           C   tau(  67) = (   0.4789918   0.1098254   0.2978156  )
        68           C   tau(  68) = (   0.2837908   0.1098348   0.1351206  )
        69           C   tau(  69) = (   0.5465640   0.1678236   0.5680651  )
        70           C   tau(  70) = (  -0.2582466   0.1678171   0.7307611  )
        71           C   tau(  71) = (   0.0465580   0.0752778   0.5680676  )
        72           C   tau(  72) = (   0.2417591   0.0752684   0.7307627  )
        73           H   tau(  73) = (  -0.0634134  -0.0052135   0.2029367  )
        74           H   tau(  74) = (   0.8261849  -0.0052157   0.2299976  )
        75           H   tau(  75) = (   0.4365913   0.0873421   0.2029404  )
        76           H   tau(  76) = (   0.3261875   0.0873346   0.2299970  )
        77           H   tau(  77) = (   0.5889632   0.1903167   0.6629466  )
        78           H   tau(  78) = (  -0.3006350   0.1903188   0.6358856  )
        79           H   tau(  79) = (   0.0889586   0.0977611   0.6629429  )
        80           H   tau(  80) = (   0.1993624   0.0977686   0.6358863  )
        81           H   tau(  81) = (   0.0018863   0.0577342   0.2040086  )
        82           H   tau(  82) = (   0.7608794   0.0577299   0.2289350  )
        83           H   tau(  83) = (   0.5018880   0.1502920   0.2040060  )
        84           H   tau(  84) = (   0.2608939   0.1502880   0.2289354  )
        85           H   tau(  85) = (   0.5236635   0.1273689   0.6618746  )
        86           H   tau(  86) = (  -0.2353295   0.1273732   0.6369482  )
        87           H   tau(  87) = (   0.0236618   0.0348112   0.6618772  )
        88           H   tau(  88) = (   0.2646560   0.0348152   0.6369479  )
        89           H   tau(  89) = (   0.0269086   0.0577284   0.3831842  )
        90           H   tau(  90) = (   0.7358812   0.0577201   0.0497533  )
        91           H   tau(  91) = (   0.5269004   0.1502807   0.3831826  )
        92           H   tau(  92) = (   0.2358772   0.1502881   0.0497591  )
        93           H   tau(  93) = (   0.4986412   0.1273748   0.4826990  )
        94           H   tau(  94) = (  -0.2103313   0.1273830   0.8161300  )
        95           H   tau(  95) = (  -0.0013505   0.0348225   0.4827006  )
        96           H   tau(  96) = (   0.2896727   0.0348151   0.8161242  )
        97           H   tau(  97) = (   0.1026346   0.1132262   0.3174829  )
        98           H   tau(  98) = (   0.6601382   0.1132265   0.1154482  )
        99           H   tau(  99) = (   0.6026352   0.2057792   0.3174844  )
       100           H   tau( 100) = (   0.1601393   0.2057773   0.1154534  )
       101           H   tau( 101) = (   0.4229153   0.0718770   0.5484004  )
       102           H   tau( 102) = (  -0.1345883   0.0718766   0.7504351  )
       103           H   tau( 103) = (  -0.0770854  -0.0206760   0.5483989  )
       104           H   tau( 104) = (   0.3654106  -0.0206741   0.7504298  )
       105           O   tau( 105) = (   0.0886635   0.1869131   0.0790001  )
       106           O   tau( 106) = (   0.6741072   0.1869130   0.3539440  )
       107           O   tau( 107) = (   0.5886666   0.2794660   0.0789955  )
       108           O   tau( 108) = (   0.1741047   0.2794648   0.3539380  )
       109           O   tau( 109) = (   0.4368864  -0.0018099   0.7868831  )
       110           O   tau( 110) = (  -0.1485574  -0.0018098   0.5119392  )
       111           O   tau( 111) = (  -0.0631168  -0.0943628   0.7868877  )
       112           O   tau( 112) = (   0.3514451  -0.0943616   0.5119452  )
       113           H   tau( 113) = (   0.0662827   0.2262530   0.0580337  )
       114           H   tau( 114) = (   0.6964749   0.2262616   0.3749240  )
       115           H   tau( 115) = (   0.5662877   0.1336989   0.0580263  )
       116           H   tau( 116) = (   0.1964707   0.1337082   0.3749244  )
       117           H   tau( 117) = (   0.4592672  -0.0411498   0.8078496  )
       118           H   tau( 118) = (  -0.1709250  -0.0411584   0.4909592  )
       119           H   tau( 119) = (  -0.0407379   0.0514043   0.8078570  )
       120           H   tau( 120) = (   0.3290792   0.0513949   0.4909588  )
       121           H   tau( 121) = (   0.1040635   0.1584990   0.0387822  )
       122           H   tau( 122) = (   0.6586983   0.1584959   0.3941559  )
       123           H   tau( 123) = (   0.6040742   0.2510496   0.0387809  )
       124           H   tau( 124) = (   0.1586932   0.2510463   0.3941481  )
       125           H   tau( 125) = (   0.4214863   0.0266042   0.8271010  )
       126           H   tau( 126) = (  -0.1331485   0.0266073   0.4717274  )
       127           H   tau( 127) = (  -0.0785243  -0.0659464   0.8271024  )
       128           H   tau( 128) = (   0.3668566  -0.0659431   0.4717351  )

     number of k points=     3
                       cart. coord. in units 2pi/alat
        k(    1) = (   0.0000000   0.0000000   0.0000000), wk =   0.4000000
        k(    2) = (   0.0000000   1.0804784   0.0000000), wk =   0.8000000
        k(    3) = (   0.0000000   2.1609569   0.0000000), wk =   0.8000000

     Dense  grid:  1048349 G-vectors     FFT dimensions: ( 240,  45, 240)

     Estimated max dynamical RAM per process >    1106.39MB

     Estimated total allocated dynamical RAM >    8851.15MB

     Check: negative/imaginary core charge=   -0.000002    0.000000

     Initial potential from superposition of free atoms

     starting charge  447.99850, renormalised to  448.00000
     Starting wfc are  368 randomized atomic wfcs
     Checking if some PAW data can be deallocated... 

     total cpu time spent up to now is       46.5 secs

     per-process dynamical memory:   618.8 Mb

     Self-consistent Calculation

     iteration #  1     ecut=   100.00 Ry     beta=0.50
     Davidson diagonalization with overlap
     ethr =  1.00E-02,  avg # of iterations =  3.0

     total cpu time spent up to now is      157.3 secs

     total energy              =   -2368.76985309 Ry
     Harris-Foulkes estimate   =   -2374.74171066 Ry
     estimated scf accuracy    <      11.32717879 Ry

     iteration #  2     ecut=   100.00 Ry     beta=0.50
     Davidson diagonalization with overlap
     ethr =  2.53E-03,  avg # of iterations =  2.7

     total cpu time spent up to now is      236.2 secs

     total energy              =   -2370.55371371 Ry
     Harris-Foulkes estimate   =   -2371.42389952 Ry
     estimated scf accuracy    <       1.87713383 Ry

     iteration #  3     ecut=   100.00 Ry     beta=0.50
     Davidson diagonalization with overlap
     ethr =  4.19E-04,  avg # of iterations =  5.7

     total cpu time spent up to now is      331.9 secs

     total energy              =   -2370.89083350 Ry
     Harris-Foulkes estimate   =   -2371.20690062 Ry
     estimated scf accuracy    <       0.78530814 Ry

     iteration #  4     ecut=   100.00 Ry     beta=0.50
     Davidson diagonalization with overlap
     ethr =  1.75E-04,  avg # of iterations =  6.0

     total cpu time spent up to now is      408.0 secs

     total energy              =   -2371.02329043 Ry
     Harris-Foulkes estimate   =   -2371.09481799 Ry
     estimated scf accuracy    <       0.20833051 Ry

     iteration #  5     ecut=   100.00 Ry     beta=0.50
     Davidson diagonalization with overlap
     ethr =  4.65E-05,  avg # of iterations =  4.0

     total cpu time spent up to now is      480.2 secs

     total energy              =   -2371.06185244 Ry
     Harris-Foulkes estimate   =   -2371.06447359 Ry
     estimated scf accuracy    <       0.01371613 Ry

     iteration #  6     ecut=   100.00 Ry     beta=0.50
     Davidson diagonalization with overlap
     ethr =  3.06E-06,  avg # of iterations =  8.7

     total cpu time spent up to now is      617.2 secs

     total energy              =   -2371.06659403 Ry
     Harris-Foulkes estimate   =   -2371.06707360 Ry
     estimated scf accuracy    <       0.00131632 Ry

     iteration #  7     ecut=   100.00 Ry     beta=0.50
     Davidson diagonalization with overlap
     ethr =  2.94E-07,  avg # of iterations =  2.0

     total cpu time spent up to now is      695.2 secs

     total energy              =   -2371.06683432 Ry
     Harris-Foulkes estimate   =   -2371.06688905 Ry
     estimated scf accuracy    <       0.00025309 Ry

     iteration #  8     ecut=   100.00 Ry     beta=0.50
     Davidson diagonalization with overlap
     ethr =  5.65E-08,  avg # of iterations =  2.7

     total cpu time spent up to now is      766.5 secs

     total energy              =   -2371.06687966 Ry
     Harris-Foulkes estimate   =   -2371.06688657 Ry
     estimated scf accuracy    <       0.00003835 Ry

     iteration #  9     ecut=   100.00 Ry     beta=0.50
     Davidson diagonalization with overlap
     ethr =  8.56E-09,  avg # of iterations =  3.0

     total cpu time spent up to now is      854.0 secs

     total energy              =   -2371.06689039 Ry
     Harris-Foulkes estimate   =   -2371.06689219 Ry
     estimated scf accuracy    <       0.00000725 Ry

     iteration # 10     ecut=   100.00 Ry     beta=0.50
     Davidson diagonalization with overlap
     ethr =  1.62E-09,  avg # of iterations =  2.0

     total cpu time spent up to now is      922.6 secs

     total energy              =   -2371.06689137 Ry
     Harris-Foulkes estimate   =   -2371.06689178 Ry
     estimated scf accuracy    <       0.00000132 Ry

     iteration # 11     ecut=   100.00 Ry     beta=0.50
     Davidson diagonalization with overlap
     ethr =  2.94E-10,  avg # of iterations =  3.0

     total cpu time spent up to now is     1008.1 secs

     total energy              =   -2371.06689173 Ry
     Harris-Foulkes estimate   =   -2371.06689182 Ry
     estimated scf accuracy    <       0.00000034 Ry

     iteration # 12     ecut=   100.00 Ry     beta=0.50
     Davidson diagonalization with overlap
     ethr =  7.59E-11,  avg # of iterations =  2.7

     total cpu time spent up to now is     1077.0 secs

     total energy              =   -2371.06689178 Ry
     Harris-Foulkes estimate   =   -2371.06689181 Ry
     estimated scf accuracy    <       0.00000008 Ry

     iteration # 13     ecut=   100.00 Ry     beta=0.50
     Davidson diagonalization with overlap
     ethr =  1.79E-11,  avg # of iterations =  3.0

     total cpu time spent up to now is     1152.9 secs

     End of self-consistent calculation

          k = 0.0000 0.0000 0.0000 (131047 PWs)   bands (ev):

   -21.3804 -21.3794 -21.3727 -21.3723 -21.3440 -21.3433 -21.3367 -21.3361
   -20.9723 -20.9722 -20.9720 -20.9713 -20.9417 -20.9416 -20.9413 -20.9411
   -18.2316 -18.2309 -18.2303 -18.2268 -18.2212 -18.2204 -18.2198 -18.2178
   -16.8355 -16.8351 -16.8242 -16.8211 -16.7360 -16.7349 -16.7274 -16.7248
   -16.2156 -16.2147 -16.1889 -16.1887 -16.1812 -16.1794 -16.1489 -16.1479
   -14.1674 -14.1668 -14.1489 -14.1484 -14.1473 -14.1456 -14.1397 -14.1381
   -12.8917 -12.8914 -12.8843 -12.8835 -12.8797 -12.8791 -12.8721 -12.8720
   -10.0358 -10.0355  -9.9772  -9.9754  -9.9180  -9.9179  -9.8782  -9.8769
    -8.6928  -8.6902  -8.6577  -8.6561  -8.6177  -8.6149  -8.5919  -8.5902
    -7.9685  -7.9621  -7.9612  -7.9582  -7.9202  -7.9153  -7.8942  -7.8926
    -7.6151  -7.6119  -7.5612  -7.5580  -7.3957  -7.3948  -7.3881  -7.3866
    -6.6422  -6.6332  -6.6312  -6.6143  -6.5333  -6.5237  -6.5215  -6.5036
    -6.1834  -6.1448  -5.9182  -5.9004  -5.8853  -5.8578  -5.8149  -5.7871
    -5.7543  -5.7216  -5.5591  -5.5386  -5.4351  -5.4138  -5.3954  -5.3902
    -4.9509  -4.9503  -4.9297  -4.9198  -4.9068  -4.8848  -4.8328  -4.8278
    -4.4093  -4.3907  -4.3857  -4.3627  -4.2388  -4.1902  -4.1875  -4.1469
    -4.0779  -4.0751  -3.9847  -3.9802  -3.7405  -3.7335  -3.6730  -3.6607
    -2.9594  -2.9564  -2.8447  -2.8325  -2.7318  -2.7212  -2.6710  -2.6690
    -2.5566  -2.5487  -2.5405  -2.5360  -2.5301  -2.5292  -2.5119  -2.4883
    -2.3476  -2.3379  -2.3167  -2.3156  -2.3023  -2.2716  -2.2592  -2.2366
    -1.2272  -1.2168  -1.2129  -1.1972  -1.1948  -1.1864  -1.1848  -1.1373
    -0.6799  -0.6753  -0.6645  -0.6616  -0.6582  -0.6455  -0.6171  -0.6164
    -0.4864  -0.4796  -0.4514  -0.4346  -0.4183  -0.4063  -0.3740  -0.3734
    -0.2565  -0.2364  -0.2281  -0.2277  -0.2209  -0.2134  -0.1677  -0.1334
    -0.1256  -0.0873  -0.0803  -0.0327  -0.0291  -0.0203  -0.0176   0.0264
     0.2418   0.2616   0.2813   0.3061   0.4483   0.4551   0.5408   0.5497
     1.1554   1.1572   1.1574   1.1612   1.1638   1.1663   1.1696   1.2198
     1.2274   1.2367   1.2707   1.2945   1.3255   1.3485   1.3516   1.3580
     5.5339   5.5625   5.5688   5.5904   5.6105   5.6176   5.6278   5.6475
     5.9740   5.9861   6.0088   6.0184   6.0717   6.0855   6.0855   6.1017
     6.4512   6.5682   6.7411   6.7416   6.9135   7.0281   7.5281   7.7290
     7.8472   7.8552   7.9128   7.9796   8.0285   8.0703   8.2885   8.4241
     8.4655   8.5539   8.5727   8.7737   8.7977   8.8506   8.9312   8.9344
     9.0490   9.0593   9.1264   9.3287

          k = 0.0000 1.0805 0.0000 (130983 PWs)   bands (ev):

   -21.2680 -21.2672 -21.2622 -21.2618 -21.2379 -21.2372 -21.2324 -21.2319
   -20.8943 -20.8940 -20.8933 -20.8926 -20.8704 -20.8702 -20.8697 -20.8696
   -18.2008 -18.2000 -18.1995 -18.1969 -18.1940 -18.1930 -18.1926 -18.1908
   -16.8826 -16.8817 -16.8722 -16.8699 -16.8062 -16.8052 -16.7993 -16.7974
   -16.1561 -16.1558 -16.1539 -16.1533 -16.1248 -16.1238 -16.1200 -16.1194
   -14.2745 -14.2739 -14.2615 -14.2606 -14.2415 -14.2410 -14.2329 -14.2323
   -13.3171 -13.3168 -13.3093 -13.3089 -13.2991 -13.2985 -13.2907 -13.2896
    -9.8172  -9.8162  -9.7750  -9.7747  -9.7443  -9.7425  -9.7192  -9.7184
    -8.7252  -8.7247  -8.6869  -8.6850  -8.6169  -8.6159  -8.5109  -8.5082
    -8.1865  -8.1811  -8.1618  -8.1600  -8.1189  -8.1165  -8.1128  -8.1119
    -7.4845  -7.4821  -7.4697  -7.4689  -7.3204  -7.3194  -7.3000  -7.2987
    -6.5785  -6.5530  -6.5520  -6.5372  -6.5339  -6.5271  -6.5240  -6.5195
    -6.1975  -6.1928  -6.0969  -6.0788  -5.9371  -5.9313  -5.8773  -5.8687
    -5.8436  -5.8381  -5.8320  -5.8318  -5.6765  -5.6653  -5.5970  -5.5797
    -5.3833  -5.3816  -5.2822  -5.2784  -5.1192  -5.1124  -5.0431  -5.0430
    -4.4280  -4.4004  -4.3158  -4.3040  -4.1891  -4.1795  -4.1632  -4.1423
    -4.0999  -4.0871  -3.9909  -3.9844  -3.9533  -3.9466  -3.8662  -3.8631
    -3.3268  -3.2789  -3.2263  -3.2055  -2.9864  -2.9650  -2.8570  -2.8443
    -2.5645  -2.5551  -2.5434  -2.5408  -2.3920  -2.3849  -2.3535  -2.3392
    -1.9753  -1.9564  -1.9231  -1.9007  -1.8169  -1.8055  -1.7660  -1.7344
    -1.3530  -1.3388  -1.2873  -1.2772  -1.1533  -1.1231  -1.0742  -1.0426
    -0.7620  -0.7556  -0.7438  -0.7346  -0.7219  -0.7023  -0.6829  -0.6717
    -0.3288  -0.3247  -0.2451  -0.2425  -0.2362  -0.2356  -0.1918  -0.1641
    -0.0533  -0.0264   0.0026   0.0322   0.0342   0.0414   0.1650   0.1757
     0.2073   0.2234   0.2896   0.3027   0.3400   0.3453   0.3784   0.3792
     0.4192   0.4285   0.4800   0.4866   0.5554   0.5605   0.5865   0.5875
     1.2237   1.2417   1.2982   1.3041   1.3097   1.3193   1.3441   1.3570
     1.3631   1.3951   1.4020   1.4188   1.4396   1.4589   1.4805   1.4829
     5.4074   5.4292   5.4671   5.4770   5.4786   5.4812   5.5142   5.5265
     6.0953   6.1273   6.1283   6.1481   6.1578   6.1774   6.1838   6.2044
     6.8219   6.8506   7.0894   7.1608   7.1965   7.3118   7.5719   7.7187
     7.7445   7.8472   7.9155   7.9972   8.1790   8.2258   8.3005   8.3727
     8.3798   8.4372   8.6727   8.6775   8.7481   8.7580   8.9262   9.0111
     9.0242   9.0964   9.4355   9.5040

          k = 0.0000 2.1610 0.0000 (131030 PWs)   bands (ev):

   -21.0626 -21.0623 -21.0609 -21.0607 -21.0506 -21.0504 -21.0488 -21.0486
   -20.7577 -20.7575 -20.7551 -20.7549 -20.7514 -20.7513 -20.7489 -20.7489
   -18.1525 -18.1514 -18.1509 -18.1503 -18.1491 -18.1482 -18.1479 -18.1470
   -17.0248 -17.0240 -17.0172 -17.0165 -16.9670 -16.9666 -16.9597 -16.9592
   -16.0579 -16.0579 -16.0402 -16.0402 -16.0387 -16.0387 -16.0239 -16.0238
   -14.4571 -14.4567 -14.4446 -14.4442 -14.4074 -14.4070 -14.3934 -14.3933
   -13.8876 -13.8874 -13.8621 -13.8614 -13.8614 -13.8613 -13.8354 -13.8346
    -9.5510  -9.5488  -9.5231  -9.5220  -9.5133  -9.5101  -9.4894  -9.4862
    -8.7836  -8.7828  -8.7206  -8.7201  -8.6793  -8.6778  -8.5514  -8.5485
    -8.4488  -8.4462  -8.3891  -8.3889  -8.3841  -8.3827  -8.2077  -8.2073
    -7.3100  -7.3091  -7.2325  -7.2313  -7.2311  -7.2305  -7.1439  -7.1430
    -6.5758  -6.5611  -6.5178  -6.5151  -6.5137  -6.4981  -6.4350  -6.4337
    -6.3516  -6.3473  -6.3324  -6.3280  -6.2352  -6.2351  -6.2278  -6.2266
    -6.0730  -6.0662  -6.0580  -6.0559  -6.0106  -6.0077  -5.9874  -5.9669
    -5.6768  -5.6748  -5.6160  -5.6132  -5.4203  -5.4159  -5.3669  -5.3583
    -4.6905  -4.6802  -4.5804  -4.5731  -4.5646  -4.5644  -4.4774  -4.4636
    -4.2846  -4.2827  -4.2227  -4.2016  -4.2007  -4.1974  -4.1329  -4.1063
    -2.8933  -2.8646  -2.8584  -2.8139  -2.7529  -2.7256  -2.7238  -2.6799
    -2.4946  -2.4900  -2.3598  -2.3547  -2.3533  -2.3402  -2.1767  -2.1672
    -1.8104  -1.7910  -1.7880  -1.7405  -1.7333  -1.7227  -1.7191  -1.7111
    -1.5572  -1.5468  -1.3867  -1.3730  -1.2920  -1.2725  -1.1944  -1.1586
    -0.7636  -0.7351  -0.7080  -0.6785  -0.5083  -0.4923  -0.4086  -0.4032
    -0.3033  -0.2852  -0.2308  -0.2243  -0.0808  -0.0700  -0.0548  -0.0414
     0.1102   0.1241   0.1573   0.1815   0.2128   0.2130   0.3488   0.3570
     0.3676   0.3687   0.4070   0.4126   0.5053   0.5134   0.6020   0.6048
     0.7173   0.7218   0.8021   0.8189   0.8207   0.8291   0.8478   0.8562
     1.9245   1.9356   1.9372   1.9464   1.9583   1.9656   1.9716   1.9797
     2.3554   2.3633   2.3742   2.3916   2.4001   2.4091   2.4188   2.4365
     4.6057   4.6145   4.6307   4.6422   4.6460   4.6537   4.6547   4.6565
     6.7585   6.7652   6.7658   6.7679   6.7773   6.7876   6.7898   6.8060
     7.3241   7.4228   7.4502   7.5000   7.5040   7.5303   7.6740   7.7029
     8.0407   8.0458   8.0706   8.1412   8.1461   8.2514   8.3144   8.3274
     8.3678   8.4436   8.7218   8.8778   8.9456   8.9691   9.0330   9.1401
     9.4077   9.4372   9.4574   9.5825

     highest occupied, lowest unoccupied level (ev):     2.4365    4.6057

!    total energy              =   -2371.06689180 Ry
     Harris-Foulkes estimate   =   -2371.06689180 Ry
     estimated scf accuracy    <          8.8E-09 Ry

     total all-electron energy =     -8939.185039 Ry

     The total energy is the sum of the following terms:

     one-electron contribution =   -1712.40103213 Ry
     hartree contribution      =    1045.79869429 Ry
     xc contribution           =    -481.42766609 Ry
     ewald contribution        =    -566.24526976 Ry
     Dispersion Correction     =      -0.71678659 Ry
     one-center paw contrib.   =    -656.07483151 Ry

     convergence has been achieved in  13 iterations

     Forces acting on atoms (cartesian axes, Ry/au):

     atom    1 type  4   force =     0.05840559   -0.00250062   -0.02960492
     atom    2 type  4   force =    -0.05860019   -0.00219276    0.02968969
     atom    3 type  4   force =     0.05846264   -0.00245468   -0.02963021
     atom    4 type  4   force =    -0.05826064   -0.00278738    0.02949473
     atom    5 type  4   force =    -0.05840559    0.00250062    0.02960492
     atom    6 type  4   force =     0.05860019    0.00219276   -0.02968969
     atom    7 type  4   force =    -0.05846264    0.00245468    0.02963021
     atom    8 type  4   force =     0.05826064    0.00278738   -0.02949473
     atom    9 type  2   force =     0.03255951    0.04791764   -0.02631935
     atom   10 type  2   force =    -0.03259978    0.04785018    0.02630486
     atom   11 type  2   force =     0.03238560    0.04758182   -0.02634961
     atom   12 type  2   force =    -0.03231475    0.04757344    0.02637425
     atom   13 type  2   force =    -0.03255951   -0.04791764    0.02631935
     atom   14 type  2   force =     0.03259978   -0.04785018   -0.02630486
     atom   15 type  2   force =    -0.03238560   -0.04758182    0.02634961
     atom   16 type  2   force =     0.03231475   -0.04757344   -0.02637425
     atom   17 type  2   force =    -0.06577787    0.00626232    0.04393370
     atom   18 type  2   force =     0.06582924    0.00626286   -0.04390977
     atom   19 type  2   force =    -0.06560232    0.00658454    0.04381478
     atom   20 type  2   force =     0.06557296    0.00667067   -0.04381680
     atom   21 type  2   force =     0.06577787   -0.00626232   -0.04393370
     atom   22 type  2   force =    -0.06582924   -0.00626286    0.04390977
     atom   23 type  2   force =     0.06560232   -0.00658454   -0.04381478
     atom   24 type  2   force =    -0.06557296   -0.00667067    0.04381680
     atom   25 type  2   force =    -0.07615392    0.00095357    0.04486552
     atom   26 type  2   force =     0.07611738    0.00109778   -0.04479984
     atom   27 type  2   force =    -0.07601889    0.00126890    0.04473892
     atom   28 type  2   force =     0.07597927    0.00130815   -0.04468715
     atom   29 type  2   force =     0.07615392   -0.00095357   -0.04486552
     atom   30 type  2   force =    -0.07611738   -0.00109778    0.04479984
     atom   31 type  2   force =     0.07601889   -0.00126890   -0.04473892
     atom   32 type  2   force =    -0.07597927   -0.00130815    0.04468715
     atom   33 type  2   force =     0.03547221    0.04206617   -0.01709298
     atom   34 type  2   force =    -0.03535413    0.04181909    0.01700707
     atom   35 type  2   force =     0.03535908    0.04170554   -0.01690983
     atom   36 type  2   force =    -0.03531148    0.04168198    0.01683394
     atom   37 type  2   force =    -0.03547221   -0.04206617    0.01709298
     atom   38 type  2   force =     0.03535413   -0.04181909   -0.01700707
     atom   39 type  2   force =    -0.03535908   -0.04170554    0.01690983
     atom   40 type  2   force =     0.03531148   -0.04168198   -0.01683394
     atom   41 type  2   force =     0.00389405   -0.00276948   -0.01004525
     atom   42 type  2   force =    -0.00395872   -0.00275927    0.00964765
     atom   43 type  2   force =     0.00381969   -0.00286610   -0.00986612
     atom   44 type  2   force =    -0.00390710   -0.00272369    0.01005418
     atom   45 type  2   force =    -0.00389405    0.00276948    0.01004525
     atom   46 type  2   force =     0.00395872    0.00275927   -0.00964765
     atom   47 type  2   force =    -0.00381969    0.00286610    0.00986612
     atom   48 type  2   force =     0.00390710    0.00272369   -0.01005418
     atom   49 type  2   force =    -0.01356570   -0.02738024    0.02971594
     atom   50 type  2   force =     0.01389381   -0.02773433   -0.02986598
     atom   51 type  2   force =    -0.01361849   -0.02745832    0.02961358
     atom   52 type  2   force =     0.01342857   -0.02700242   -0.02922514
     atom   53 type  2   force =     0.01356570    0.02738024   -0.02971594
     atom   54 type  2   force =    -0.01389381    0.02773433    0.02986598
     atom   55 type  2   force =     0.01361849    0.02745832   -0.02961358
     atom   56 type  2   force =    -0.01342857    0.02700242    0.02922514
     atom   57 type  1   force =     0.06190091   -0.08780534   -0.04097919
     atom   58 type  1   force =    -0.06197114   -0.08757570    0.04104889
     atom   59 type  1   force =     0.06194239   -0.08775982   -0.04104146
     atom   60 type  1   force =    -0.06183870   -0.08790907    0.04090707
     atom   61 type  1   force =    -0.06190091    0.08780534    0.04097919
     atom   62 type  1   force =     0.06197114    0.08757570   -0.04104889
     atom   63 type  1   force =    -0.06194239    0.08775982    0.04104146
     atom   64 type  1   force =     0.06183870    0.08790907   -0.04090707
     atom   65 type  1   force =    -0.03302135    0.02751907    0.01296721
     atom   66 type  1   force =     0.03282914    0.02751563   -0.01282894
     atom   67 type  1   force =    -0.03301872    0.02764392    0.01299529
     atom   68 type  1   force =     0.03293753    0.02747242   -0.01300486
     atom   69 type  1   force =     0.03302135   -0.02751907   -0.01296721
     atom   70 type  1   force =    -0.03282914   -0.02751563    0.01282894
     atom   71 type  1   force =     0.03301872   -0.02764392   -0.01299529
     atom   72 type  1   force =    -0.03293753   -0.02747242    0.01300486
     atom   73 type  3   force =    -0.00493940   -0.00565425   -0.00692752
     atom   74 type  3   force =     0.00501808   -0.00571225    0.00705840
     atom   75 type  3   force =    -0.00496281   -0.00567612   -0.00699405
     atom   76 type  3   force =     0.00496030   -0.00565993    0.00694624
     atom   77 type  3   force =     0.00493940    0.00565425    0.00692752
     atom   78 type  3   force =    -0.00501808    0.00571225   -0.00705840
     atom   79 type  3   force =     0.00496281    0.00567612    0.00699405
     atom   80 type  3   force =    -0.00496030    0.00565993   -0.00694624
     atom   81 type  3   force =     0.00235905    0.00199794   -0.00288477
     atom   82 type  3   force =    -0.00236320    0.00201550    0.00292367
     atom   83 type  3   force =     0.00241607    0.00204343   -0.00291722
     atom   84 type  3   force =    -0.00236144    0.00198004    0.00285467
     atom   85 type  3   force =    -0.00235905   -0.00199794    0.00288477
     atom   86 type  3   force =     0.00236320   -0.00201550   -0.00292367
     atom   87 type  3   force =    -0.00241607   -0.00204343    0.00291722
     atom   88 type  3   force =     0.00236144   -0.00198004   -0.00285467
     atom   89 type  3   force =    -0.00081423   -0.00070729    0.00304278
     atom   90 type  3   force =     0.00077241   -0.00067093   -0.00296701
     atom   91 type  3   force =    -0.00080503   -0.00070238    0.00317353
     atom   92 type  3   force =     0.00083342   -0.00072371   -0.00334761
     atom   93 type  3   force =     0.00081423    0.00070729   -0.00304278
     atom   94 type  3   force =    -0.00077241    0.00067093    0.00296701
     atom   95 type  3   force =     0.00080503    0.00070238   -0.00317353
     atom   96 type  3   force =    -0.00083342    0.00072371    0.00334761
     atom   97 type  3   force =     0.00027817   -0.00125753   -0.00369898
     atom   98 type  3   force =    -0.00021672   -0.00127826    0.00372539
     atom   99 type  3   force =     0.00025994   -0.00126724   -0.00368272
     atom  100 type  3   force =    -0.00030675   -0.00124775    0.00367270
     atom  101 type  3   force =    -0.00027817    0.00125753    0.00369898
     atom  102 type  3   force =     0.00021672    0.00127826   -0.00372539
     atom  103 type  3   force =    -0.00025994    0.00126724    0.00368272
     atom  104 type  3   force =     0.00030675    0.00124775   -0.00367270
     atom  105 type  4   force =    -0.00004617   -0.01492851    0.01936284
     atom  106 type  4   force =     0.00014222   -0.01470150   -0.01931108
     atom  107 type  4   force =     0.00002342   -0.01500528    0.01941857
     atom  108 type  4   force =     0.00016799   -0.01469280   -0.01928589
     atom  109 type  4   force =     0.00004617    0.01492851   -0.01936284
     atom  110 type  4   force =    -0.00014222    0.01470150    0.01931108
     atom  111 type  4   force =    -0.00002342    0.01500528   -0.01941857
     atom  112 type  4   force =    -0.00016799    0.01469280    0.01928589
     atom  113 type  3   force =    -0.00978407    0.01801351   -0.00428015
     atom  114 type  3   force =     0.00966855    0.01781266    0.00418235
     atom  115 type  3   force =    -0.00982815    0.01809483   -0.00432857
     atom  116 type  3   force =     0.00966035    0.01780547    0.00417092
     atom  117 type  3   force =     0.00978407   -0.01801351    0.00428015
     atom  118 type  3   force =    -0.00966855   -0.01781266   -0.00418235
     atom  119 type  3   force =     0.00982815   -0.01809483    0.00432857
     atom  120 type  3   force =    -0.00966035   -0.01780547   -0.00417092
     atom  121 type  3   force =     0.00646942   -0.00677164   -0.01281982
     atom  122 type  3   force =    -0.00646914   -0.00678813    0.01285191
     atom  123 type  3   force =     0.00645019   -0.00676310   -0.01281639
     atom  124 type  3   force =    -0.00645572   -0.00678878    0.01283951
     atom  125 type  3   force =    -0.00646942    0.00677164    0.01281982
     atom  126 type  3   force =     0.00646914    0.00678813   -0.01285191
     atom  127 type  3   force =    -0.00645019    0.00676310    0.01281639
     atom  128 type  3   force =     0.00645572    0.00678878   -0.01283951

     Total force =     0.595163     Total SCF correction =     0.000200


     Computing stress (Cartesian axis) and pressure

          total   stress  (Ry/bohr**3)                   (kbar)     P=   72.97
   0.00034674  -0.00000008  -0.00017273         51.01     -0.01    -25.41
  -0.00000008   0.00097612  -0.00000023         -0.01    143.59     -0.03
  -0.00017273  -0.00000023   0.00016535        -25.41     -0.03     24.32


     Writing output data file scf.save
 
     init_run     :     44.16s CPU     45.74s WALL (       1 calls)
     electrons    :   1064.80s CPU   1106.61s WALL (       1 calls)
     forces       :     25.96s CPU     26.26s WALL (       1 calls)
     stress       :    101.89s CPU    102.21s WALL (       1 calls)

     Called by init_run:
     wfcinit      :     30.33s CPU     31.70s WALL (       1 calls)
     potinit      :      4.93s CPU      4.97s WALL (       1 calls)

     Called by electrons:
     c_bands      :    947.09s CPU    981.14s WALL (      13 calls)
     sum_band     :    101.82s CPU    108.15s WALL (      13 calls)
     v_of_rho     :      2.43s CPU      2.67s WALL (      14 calls)
     newd         :      5.96s CPU      7.19s WALL (      14 calls)
     PAW_pot      :      6.98s CPU      6.98s WALL (      14 calls)
     mix_rho      :      0.47s CPU      0.51s WALL (      13 calls)

     Called by c_bands:
     init_us_2    :      3.95s CPU      4.06s WALL (      87 calls)
     cegterg      :    931.12s CPU    965.00s WALL (      39 calls)

     Called by sum_band:
     sum_band:bec :      0.05s CPU      0.06s WALL (      39 calls)
     addusdens    :      6.08s CPU      7.20s WALL (      13 calls)

     Called by *egterg:
     h_psi        :    477.97s CPU    505.75s WALL (     187 calls)
     s_psi        :    122.03s CPU    122.06s WALL (     187 calls)
     g_psi        :      1.87s CPU      1.87s WALL (     145 calls)
     cdiaghg      :     60.75s CPU     60.77s WALL (     184 calls)

     Called by h_psi:
     h_psi:pot    :    475.02s CPU    502.70s WALL (     187 calls)
     h_psi:calbec :    121.11s CPU    121.35s WALL (     187 calls)
     vloc_psi     :    231.37s CPU    258.79s WALL (     187 calls)
     add_vuspsi   :    122.53s CPU    122.57s WALL (     187 calls)

     General routines
     calbec       :    181.50s CPU    181.81s WALL (     241 calls)
     fft          :      2.21s CPU      2.62s WALL (     206 calls)
     fftw         :    239.27s CPU    271.56s WALL (   67688 calls)
 
     Parallel routines
     fft_scatter  :     55.40s CPU     87.56s WALL (   67894 calls)
 
     PWSCF        : 20m44.57s CPU    21m53.67s WALL

 
   This run was terminated on:  14:28:26  20Dec2017            

=------------------------------------------------------------------------------=
   JOB DONE.
=------------------------------------------------------------------------------=
