
     Program PWSCF v.6.1 (svn rev. 13369) starts on  4Nov2017 at  1:22:47 

     This program is part of the open-source Quantum ESPRESSO suite
     for quantum simulation of materials; please cite
         "P. Giannozzi et al., J. Phys.:Condens. Matter 21 395502 (2009);
          URL http://www.quantum-espresso.org", 
     in publications or presentations arising from this work. More details at
     http://www.quantum-espresso.org/quote

     Parallel version (MPI), running on     8 processors
     R & G space division:  proc/nbgrp/npool/nimage =       8
     Waiting for input...
     Reading input from standard input

     Current dimensions of program PWSCF are:
     Max number of different atomic species (ntypx) = 10
     Max number of k-points (npk) =  40000
     Max angular momentum in pseudopotentials (lmaxx) =  3
               file C.pbe-n-kjpaw_psl.0.1.UPF: wavefunction(s)  2P renormalized
               file N.pbe-n-kjpaw_psl.0.1.UPF: wavefunction(s)  2P renormalized
               file H.pbe-kjpaw_psl.0.1.UPF: wavefunction(s)  1S renormalized
               file O.pbe-n-kjpaw_psl.0.1.UPF: wavefunction(s)  2P renormalized

     -------------------------------------
     Parameters for Dispersion Correction:
     -------------------------------------
       atom      VdW radius       C_6     

        C          2.744         60.710
        N          2.640         42.670
        H          1.892          4.857
        O          2.536         24.284

     Subspace diagonalization in iterative solution of the eigenvalue problem:
     a serial algorithm will be used

 
     Parallelization info
     --------------------
     sticks:   dense  smooth     PW     G-vecs:    dense   smooth      PW
     Min        2381    2381    624               144561   144561   19403
     Max        2382    2382    626               144563   144563   19404
     Sum       19051   19051   4999              1156497  1156497  155229
 


     bravais-lattice index     =            0
     lattice parameter (alat)  =      31.0406  a.u.
     unit-cell volume          =    8560.9618 (a.u.)^3
     number of atoms/cell      =          136
     number of atomic types    =            4
     number of electrons       =       416.00
     number of Kohn-Sham states=          249
     kinetic-energy cutoff     =     100.0000  Ry
     charge density cutoff     =     400.0000  Ry
     convergence threshold     =      1.0E-08
     mixing beta               =       0.5000
     number of iterations used =            8  plain     mixing
     Exchange-correlation      =  SLA  PW   PBX  PBC ( 1  4  3  4 0 0)

     celldm(1)=  31.040641  celldm(2)=   0.000000  celldm(3)=   0.000000
     celldm(4)=   0.000000  celldm(5)=   0.000000  celldm(6)=   0.000000

     crystal axes: (cart. coord. in units of alat)
               a(1) = (   1.000000   0.000000   0.000000 )  
               a(2) = (   0.000000   0.621271   0.000000 )  
               a(3) = (   0.000000   0.000000   0.460733 )  

     reciprocal axes: (cart. coord. in units 2 pi/alat)
               b(1) = (  1.000000  0.000000  0.000000 )  
               b(2) = (  0.000000  1.609603  0.000000 )  
               b(3) = (  0.000000  0.000000  2.170455 )  


     PseudoPot. # 1 for  C read from file:
     /scratch/ahofstet/pseudo/C.pbe-n-kjpaw_psl.0.1.UPF
     MD5 check sum: 430fe95172b1e11ef3f8ed03bac87931
     Pseudo is Projector augmented-wave + core cor, Zval =  4.0
     Generated using "atomic" code by A. Dal Corso  v.5.0.99 svn rev. 10869
     Shape of augmentation charge: BESSEL
     Using radial grid of 1073 points,  4 beta functions with: 
                l(1) =   0
                l(2) =   0
                l(3) =   1
                l(4) =   1
     Q(r) pseudized with 0 coefficients 


     PseudoPot. # 2 for  N read from file:
     /scratch/ahofstet/pseudo/N.pbe-n-kjpaw_psl.0.1.UPF
     MD5 check sum: f73187c8b701007e77325f868c9291d7
     Pseudo is Projector augmented-wave + core cor, Zval =  5.0
     Generated using "atomic" code by A. Dal Corso  v.5.0.99 svn rev. 10869
     Shape of augmentation charge: PSQ
     Using radial grid of 1085 points,  4 beta functions with: 
                l(1) =   0
                l(2) =   0
                l(3) =   1
                l(4) =   1
     Q(r) pseudized with 0 coefficients 


     PseudoPot. # 3 for  H read from file:
     /scratch/ahofstet/pseudo/H.pbe-kjpaw_psl.0.1.UPF
     MD5 check sum: 94e484f906d9e9773b2f6e52662335b2
     Pseudo is Projector augmented-wave, Zval =  1.0
     Generated using "atomic" code by A. Dal Corso  v.5.0.99 svn rev. 10869
     Shape of augmentation charge: PSQ
     Using radial grid of  929 points,  2 beta functions with: 
                l(1) =   0
                l(2) =   0
     Q(r) pseudized with 0 coefficients 


     PseudoPot. # 4 for  O read from file:
     /scratch/ahofstet/pseudo/O.pbe-n-kjpaw_psl.0.1.UPF
     MD5 check sum: 3f94a2996a3169367d6eb21d9b593f20
     Pseudo is Projector augmented-wave + core cor, Zval =  6.0
     Generated using "atomic" code by A. Dal Corso  v.5.0.99 svn rev. 10869
     Shape of augmentation charge: BESSEL
     Using radial grid of 1095 points,  4 beta functions with: 
                l(1) =   0
                l(2) =   0
                l(3) =   1
                l(4) =   1
     Q(r) pseudized with 0 coefficients 


     atomic species   valence    mass     pseudopotential
        C              4.00    12.01070      C( 1.00)
        N              5.00    14.00670      N( 1.00)
        H              1.00     1.00794      H( 1.00)
        O              6.00    15.99940      O( 1.00)

      4 Sym. Ops., with inversion, found ( 2 have fractional translation)
          (note:  4 additional sym.ops. were found but ignored
           their fractional translations are incommensurate with FFT grid)


   Cartesian axes

     site n.     atom                  positions (alat units)
         1           O   tau(   1) = (   0.4310534   0.5300915   0.3806994  )
         2           O   tau(   2) = (   0.0689466   0.2194559   0.3806994  )
         3           O   tau(   3) = (   0.4310534   0.4018152   0.1503329  )
         4           O   tau(   4) = (   0.0689466   0.0911796   0.1503329  )
         5           O   tau(   5) = (   0.5689466   0.0911796   0.0800336  )
         6           O   tau(   6) = (   0.9310534   0.4018152   0.0800336  )
         7           O   tau(   7) = (   0.5689466   0.2194559   0.3104001  )
         8           O   tau(   8) = (   0.9310534   0.5300915   0.3104001  )
         9           O   tau(   9) = (   0.3239217   0.6039595   0.4301434  )
        10           O   tau(  10) = (   0.1760783   0.2933239   0.4301434  )
        11           O   tau(  11) = (   0.3239217   0.3279472   0.1997769  )
        12           O   tau(  12) = (   0.1760783   0.0173117   0.1997769  )
        13           O   tau(  13) = (   0.6760783   0.0173117   0.0305896  )
        14           O   tau(  14) = (   0.8239217   0.3279472   0.0305896  )
        15           O   tau(  15) = (   0.6760783   0.2933239   0.2609561  )
        16           O   tau(  16) = (   0.8239217   0.6039595   0.2609561  )
        17           O   tau(  17) = (   0.3786906   0.1156287   0.3399220  )
        18           O   tau(  18) = (   0.1213094   0.4262643   0.3399220  )
        19           O   tau(  19) = (   0.3786906   0.1950069   0.1095555  )
        20           O   tau(  20) = (   0.1213094   0.5056425   0.1095555  )
        21           O   tau(  21) = (   0.6213094   0.5056425   0.1208110  )
        22           O   tau(  22) = (   0.8786906   0.1950069   0.1208110  )
        23           O   tau(  23) = (   0.6213094   0.4262643   0.3511775  )
        24           O   tau(  24) = (   0.8786906   0.1156287   0.3511775  )
        25           N   tau(  25) = (   0.3329022   0.2737564   0.3615299  )
        26           N   tau(  26) = (   0.1670978   0.5843920   0.3615299  )
        27           N   tau(  27) = (   0.3329022   0.0368791   0.1311634  )
        28           N   tau(  28) = (   0.1670978   0.3475147   0.1311634  )
        29           N   tau(  29) = (   0.6670978   0.3475147   0.0992030  )
        30           N   tau(  30) = (   0.8329022   0.0368791   0.0992030  )
        31           N   tau(  31) = (   0.6670978   0.5843920   0.3295695  )
        32           N   tau(  32) = (   0.8329022   0.2737564   0.3295695  )
        33           N   tau(  33) = (   0.4540170   0.4477935   0.3717531  )
        34           N   tau(  34) = (   0.0459830   0.1371579   0.3717531  )
        35           N   tau(  35) = (   0.4540170   0.4841132   0.1413866  )
        36           N   tau(  36) = (   0.0459830   0.1734776   0.1413866  )
        37           N   tau(  37) = (   0.5459830   0.1734776   0.0889799  )
        38           N   tau(  38) = (   0.9540170   0.4841132   0.0889799  )
        39           N   tau(  39) = (   0.5459830   0.1371579   0.3193464  )
        40           N   tau(  40) = (   0.9540170   0.4477935   0.3193464  )
        41           C   tau(  41) = (   0.3939925   0.4048501   0.4044127  )
        42           C   tau(  42) = (   0.1060075   0.0942145   0.4044127  )
        43           C   tau(  43) = (   0.3939925   0.5270567   0.1740462  )
        44           C   tau(  44) = (   0.1060075   0.2164211   0.1740462  )
        45           C   tau(  45) = (   0.6060075   0.2164211   0.0563203  )
        46           C   tau(  46) = (   0.8939925   0.5270567   0.0563203  )
        47           C   tau(  47) = (   0.6060075   0.0942145   0.2866868  )
        48           C   tau(  48) = (   0.8939925   0.4048501   0.2866868  )
        49           C   tau(  49) = (   0.3307394   0.4543098   0.4340983  )
        50           C   tau(  50) = (   0.1692606   0.1436742   0.4340983  )
        51           C   tau(  51) = (   0.3307394   0.4775969   0.2037318  )
        52           C   tau(  52) = (   0.1692606   0.1669613   0.2037318  )
        53           C   tau(  53) = (   0.6692606   0.1669613   0.0266346  )
        54           C   tau(  54) = (   0.8307394   0.4775969   0.0266346  )
        55           C   tau(  55) = (   0.6692606   0.1436742   0.2570011  )
        56           C   tau(  56) = (   0.8307394   0.4543098   0.2570011  )
        57           C   tau(  57) = (   0.3558087   0.5335719   0.4183222  )
        58           C   tau(  58) = (   0.1441913   0.2229363   0.4183222  )
        59           C   tau(  59) = (   0.3558087   0.3983348   0.1879557  )
        60           C   tau(  60) = (   0.1441913   0.0876992   0.1879557  )
        61           C   tau(  61) = (   0.6441913   0.0876992   0.0424108  )
        62           C   tau(  62) = (   0.8558087   0.3983348   0.0424108  )
        63           C   tau(  63) = (   0.6441913   0.2229363   0.2727773  )
        64           C   tau(  64) = (   0.8558087   0.5335719   0.2727773  )
        65           C   tau(  65) = (   0.4013508   0.3142288   0.4058588  )
        66           C   tau(  66) = (   0.0986492   0.0035932   0.4058588  )
        67           C   tau(  67) = (   0.4013508   0.6176780   0.1754923  )
        68           C   tau(  68) = (   0.0986492   0.3070424   0.1754923  )
        69           C   tau(  69) = (   0.5986492   0.3070424   0.0548742  )
        70           C   tau(  70) = (   0.9013508   0.6176780   0.0548742  )
        71           C   tau(  71) = (   0.5986492   0.0035932   0.2852407  )
        72           C   tau(  72) = (   0.9013508   0.3142288   0.2852407  )
        73           H   tau(  73) = (   0.2745334   0.4364021   0.4635364  )
        74           H   tau(  74) = (   0.2254666   0.1257665   0.4635364  )
        75           H   tau(  75) = (   0.2745334   0.4955047   0.2331699  )
        76           H   tau(  76) = (   0.2254666   0.1848691   0.2331699  )
        77           H   tau(  77) = (   0.7254666   0.1848691  -0.0028034  )
        78           H   tau(  78) = (   0.7745334   0.4955047  -0.0028034  )
        79           H   tau(  79) = (   0.7254666   0.1257665   0.2275631  )
        80           H   tau(  80) = (   0.7745334   0.4364021   0.2275631  )
        81           H   tau(  81) = (   0.4584652   0.2953214   0.3768179  )
        82           H   tau(  82) = (   0.0415348   0.6059570   0.3768179  )
        83           H   tau(  83) = (   0.4584652   0.0153142   0.1464514  )
        84           H   tau(  84) = (   0.0415348   0.3259498   0.1464514  )
        85           H   tau(  85) = (   0.5415348   0.3259498   0.0839151  )
        86           H   tau(  86) = (   0.9584652   0.0153142   0.0839151  )
        87           H   tau(  87) = (   0.5415348   0.6059570   0.3142816  )
        88           H   tau(  88) = (   0.9584652   0.2953214   0.3142816  )
        89           H   tau(  89) = (   0.4000500   0.2906900   0.4685006  )
        90           H   tau(  90) = (   0.0999500   0.6013256   0.4685006  )
        91           H   tau(  91) = (   0.4000500   0.0199456   0.2381341  )
        92           H   tau(  92) = (   0.0999500   0.3305812   0.2381341  )
        93           H   tau(  93) = (   0.5999500   0.3305812  -0.0077676  )
        94           H   tau(  94) = (   0.9000500   0.0199456  -0.0077676  )
        95           H   tau(  95) = (   0.5999500   0.6013256   0.2225989  )
        96           H   tau(  96) = (   0.9000500   0.2906900   0.2225989  )
        97           H   tau(  97) = (   0.3450007   0.2100201   0.3585563  )
        98           H   tau(  98) = (   0.1549993   0.5206557   0.3585563  )
        99           H   tau(  99) = (   0.3450007   0.1006155   0.1281898  )
       100           H   tau( 100) = (   0.1549993   0.4112510   0.1281898  )
       101           H   tau( 101) = (   0.6549993   0.4112510   0.1021767  )
       102           H   tau( 102) = (   0.8450007   0.1006155   0.1021767  )
       103           H   tau( 103) = (   0.6549993   0.5206557   0.3325432  )
       104           H   tau( 104) = (   0.8450007   0.2100201   0.3325432  )
       105           H   tau( 105) = (   0.2769625   0.2839283   0.3907895  )
       106           H   tau( 106) = (   0.2230375   0.5945639   0.3907895  )
       107           H   tau( 107) = (   0.2769625   0.0267073   0.1604230  )
       108           H   tau( 108) = (   0.2230375   0.3373429   0.1604230  )
       109           H   tau( 109) = (   0.7230375   0.3373429   0.0699435  )
       110           H   tau( 110) = (   0.7769625   0.0267073   0.0699435  )
       111           H   tau( 111) = (   0.7230375   0.5945639   0.3003100  )
       112           H   tau( 112) = (   0.7769625   0.2839283   0.3003100  )
       113           H   tau( 113) = (   0.3285559   0.2957658   0.3015249  )
       114           H   tau( 114) = (   0.1714441   0.6064014   0.3015249  )
       115           H   tau( 115) = (   0.3285559   0.0148697   0.0711584  )
       116           H   tau( 116) = (   0.1714441   0.3255053   0.0711584  )
       117           H   tau( 117) = (   0.6714441   0.3255053   0.1592081  )
       118           H   tau( 118) = (   0.8285559   0.0148697   0.1592081  )
       119           H   tau( 119) = (   0.6714441   0.6064014   0.3895746  )
       120           H   tau( 120) = (   0.8285559   0.2957658   0.3895746  )
       121           H   tau( 121) = (   0.4394010   0.1193245   0.3376834  )
       122           H   tau( 122) = (   0.0605990   0.4299601   0.3376834  )
       123           H   tau( 123) = (   0.4394010   0.1913111   0.1073169  )
       124           H   tau( 124) = (   0.0605990   0.5019467   0.1073169  )
       125           H   tau( 125) = (   0.5605990   0.5019467   0.1230496  )
       126           H   tau( 126) = (   0.9394010   0.1913111   0.1230496  )
       127           H   tau( 127) = (   0.5605990   0.4299601   0.3534161  )
       128           H   tau( 128) = (   0.9394010   0.1193245   0.3534161  )
       129           H   tau( 129) = (   0.3646882   0.0691893   0.3756694  )
       130           H   tau( 130) = (   0.1353118   0.3798249   0.3756694  )
       131           H   tau( 131) = (   0.3646882   0.2414462   0.1453029  )
       132           H   tau( 132) = (   0.1353118   0.5520818   0.1453029  )
       133           H   tau( 133) = (   0.6353118   0.5520818   0.0850636  )
       134           H   tau( 134) = (   0.8646882   0.2414462   0.0850636  )
       135           H   tau( 135) = (   0.6353118   0.3798249   0.3154301  )
       136           H   tau( 136) = (   0.8646882   0.0691893   0.3154301  )

     number of k points=     8
                       cart. coord. in units 2pi/alat
        k(    1) = (   0.0000000   0.0000000   0.0000000), wk =   0.1666667
        k(    2) = (   0.0000000   0.0000000   0.7234848), wk =   0.3333333
        k(    3) = (   0.0000000  -0.8048016   0.0000000), wk =   0.1666667
        k(    4) = (   0.0000000  -0.8048016   0.7234848), wk =   0.3333333
        k(    5) = (  -0.5000000   0.0000000   0.0000000), wk =   0.1666667
        k(    6) = (  -0.5000000   0.0000000   0.7234848), wk =   0.3333333
        k(    7) = (  -0.5000000  -0.8048016   0.0000000), wk =   0.1666667
        k(    8) = (  -0.5000000  -0.8048016   0.7234848), wk =   0.3333333

     Dense  grid:  1156497 G-vectors     FFT dimensions: ( 200, 125,  96)

     Estimated max dynamical RAM per process >    1479.41MB

     Estimated total allocated dynamical RAM >   11835.24MB

     Check: negative/imaginary core charge=   -0.000002    0.000000

     Initial potential from superposition of free atoms

     starting charge  415.99791, renormalised to  416.00000
     Starting wfc are  352 randomized atomic wfcs
     Checking if some PAW data can be deallocated... 

     total cpu time spent up to now is       78.5 secs

     per-process dynamical memory:   979.7 Mb

     Self-consistent Calculation

     iteration #  1     ecut=   100.00 Ry     beta=0.50
     Davidson diagonalization with overlap
     ethr =  1.00E-02,  avg # of iterations =  3.8

     total cpu time spent up to now is      325.3 secs

     total energy              =   -2115.07800919 Ry
     Harris-Foulkes estimate   =   -2122.15833899 Ry
     estimated scf accuracy    <      13.14329830 Ry

     iteration #  2     ecut=   100.00 Ry     beta=0.50
     Davidson diagonalization with overlap
     ethr =  3.16E-03,  avg # of iterations =  3.0

     total cpu time spent up to now is      482.2 secs

     total energy              =   -2117.15392773 Ry
     Harris-Foulkes estimate   =   -2117.85705137 Ry
     estimated scf accuracy    <       1.60189090 Ry

     iteration #  3     ecut=   100.00 Ry     beta=0.50
     Davidson diagonalization with overlap
     ethr =  3.85E-04,  avg # of iterations =  7.2

     total cpu time spent up to now is      728.1 secs

     total energy              =   -2117.61093165 Ry
     Harris-Foulkes estimate   =   -2117.81825286 Ry
     estimated scf accuracy    <       0.50818386 Ry

     iteration #  4     ecut=   100.00 Ry     beta=0.50
     Davidson diagonalization with overlap
     ethr =  1.22E-04,  avg # of iterations =  7.1

     total cpu time spent up to now is      903.2 secs

     total energy              =   -2117.66978451 Ry
     Harris-Foulkes estimate   =   -2117.71552598 Ry
     estimated scf accuracy    <       0.12200074 Ry

     iteration #  5     ecut=   100.00 Ry     beta=0.50
     Davidson diagonalization with overlap
     ethr =  2.93E-05,  avg # of iterations =  5.6

     total cpu time spent up to now is     1090.7 secs

     total energy              =   -2117.69663966 Ry
     Harris-Foulkes estimate   =   -2117.70772478 Ry
     estimated scf accuracy    <       0.03076815 Ry

     iteration #  6     ecut=   100.00 Ry     beta=0.50
     Davidson diagonalization with overlap
     ethr =  7.40E-06,  avg # of iterations =  3.1

     total cpu time spent up to now is     1223.7 secs

     total energy              =   -2117.69902989 Ry
     Harris-Foulkes estimate   =   -2117.70062495 Ry
     estimated scf accuracy    <       0.00348469 Ry

     iteration #  7     ecut=   100.00 Ry     beta=0.50
     Davidson diagonalization with overlap
     ethr =  8.38E-07,  avg # of iterations =  8.1

     total cpu time spent up to now is     1508.3 secs

     total energy              =   -2117.70134074 Ry
     Harris-Foulkes estimate   =   -2117.70167931 Ry
     estimated scf accuracy    <       0.00102795 Ry

     iteration #  8     ecut=   100.00 Ry     beta=0.50
     Davidson diagonalization with overlap
     ethr =  2.47E-07,  avg # of iterations =  1.0

     total cpu time spent up to now is     1630.7 secs

     total energy              =   -2117.70133203 Ry
     Harris-Foulkes estimate   =   -2117.70141986 Ry
     estimated scf accuracy    <       0.00024083 Ry

     iteration #  9     ecut=   100.00 Ry     beta=0.50
     Davidson diagonalization with overlap
     ethr =  5.79E-08,  avg # of iterations =  3.9

     total cpu time spent up to now is     1841.8 secs

     total energy              =   -2117.70144684 Ry
     Harris-Foulkes estimate   =   -2117.70146162 Ry
     estimated scf accuracy    <       0.00005372 Ry

     iteration # 10     ecut=   100.00 Ry     beta=0.50
     Davidson diagonalization with overlap
     ethr =  1.29E-08,  avg # of iterations =  1.0

     total cpu time spent up to now is     1964.2 secs

     total energy              =   -2117.70144237 Ry
     Harris-Foulkes estimate   =   -2117.70145002 Ry
     estimated scf accuracy    <       0.00001656 Ry

     iteration # 11     ecut=   100.00 Ry     beta=0.50
     Davidson diagonalization with overlap
     ethr =  3.98E-09,  avg # of iterations =  4.0

     total cpu time spent up to now is     2187.7 secs

     total energy              =   -2117.70144976 Ry
     Harris-Foulkes estimate   =   -2117.70145308 Ry
     estimated scf accuracy    <       0.00000728 Ry

     iteration # 12     ecut=   100.00 Ry     beta=0.50
     Davidson diagonalization with overlap
     ethr =  1.75E-09,  avg # of iterations =  2.0

     total cpu time spent up to now is     2315.1 secs

     total energy              =   -2117.70144968 Ry
     Harris-Foulkes estimate   =   -2117.70145033 Ry
     estimated scf accuracy    <       0.00000116 Ry

     iteration # 13     ecut=   100.00 Ry     beta=0.50
     Davidson diagonalization with overlap
     ethr =  2.79E-10,  avg # of iterations =  4.0

     total cpu time spent up to now is     2558.8 secs

     total energy              =   -2117.70145096 Ry
     Harris-Foulkes estimate   =   -2117.70145156 Ry
     estimated scf accuracy    <       0.00000184 Ry

     iteration # 14     ecut=   100.00 Ry     beta=0.50
     Davidson diagonalization with overlap
     ethr =  2.79E-10,  avg # of iterations =  1.8

     total cpu time spent up to now is     2683.7 secs

     total energy              =   -2117.70145071 Ry
     Harris-Foulkes estimate   =   -2117.70145102 Ry
     estimated scf accuracy    <       0.00000071 Ry

     iteration # 15     ecut=   100.00 Ry     beta=0.50
     Davidson diagonalization with overlap
     ethr =  1.70E-10,  avg # of iterations =  3.0

     total cpu time spent up to now is     2886.7 secs

     total energy              =   -2117.70145101 Ry
     Harris-Foulkes estimate   =   -2117.70145102 Ry
     estimated scf accuracy    <       0.00000006 Ry

     iteration # 16     ecut=   100.00 Ry     beta=0.50
     Davidson diagonalization with overlap
     ethr =  1.33E-11,  avg # of iterations =  1.0

     total cpu time spent up to now is     3009.0 secs

     total energy              =   -2117.70145099 Ry
     Harris-Foulkes estimate   =   -2117.70145101 Ry
     estimated scf accuracy    <       0.00000004 Ry

     iteration # 17     ecut=   100.00 Ry     beta=0.50
     Davidson diagonalization with overlap
     ethr =  9.91E-12,  avg # of iterations =  3.0

     total cpu time spent up to now is     3165.8 secs

     End of self-consistent calculation

          k = 0.0000 0.0000 0.0000 (144499 PWs)   bands (ev):

   -22.0910 -22.0891 -22.0873 -22.0857 -22.0599 -22.0593 -22.0579 -22.0576
   -19.2662 -19.2620 -19.2559 -19.2413 -19.2195 -19.2152 -19.2042 -19.1985
   -18.4537 -18.4334 -18.4302 -18.4252 -18.4187 -18.4138 -18.4012 -18.3972
   -17.7142 -17.7005 -17.6838 -17.6772 -17.6768 -17.6652 -17.6266 -17.6187
   -15.2537 -15.2372 -15.2204 -15.2187 -15.2172 -15.2054 -15.1736 -15.1727
   -12.7865 -12.7653 -12.7570 -12.7414 -12.7397 -12.7277 -12.7239 -12.7130
   -11.6489 -11.5908 -11.5527 -11.5354 -11.5154 -11.4922 -11.4709 -11.4548
    -8.8952  -8.8853  -8.8370  -8.7926  -8.7808  -8.7455  -8.7253  -8.7152
    -8.1664  -8.1532  -8.1484  -8.1002  -8.0711  -8.0583  -8.0014  -7.9461
    -7.4955  -7.4617  -7.4108  -7.4094  -7.3612  -7.3386  -7.3255  -7.2517
    -7.0380  -6.9848  -6.7734  -6.7387  -6.7116  -6.6717  -6.6064  -6.5954
    -6.5870  -6.5658  -6.5540  -6.5402  -6.5286  -6.5284  -6.5152  -6.5052
    -6.3805  -6.1658  -6.1323  -6.1145  -5.9556  -5.8870  -5.8428  -5.7928
    -5.6058  -5.5265  -5.5260  -5.4884  -5.4524  -5.4385  -5.4209  -5.3593
    -5.3399  -5.2662  -5.0333  -5.0234  -5.0136  -4.8931  -4.8843  -4.8360
    -4.7411  -4.7224  -4.7029  -4.6216  -4.5724  -4.5362  -4.5220  -4.4877
    -4.1652  -4.1054  -4.0863  -4.0832  -3.9071  -3.8918  -3.7877  -3.7095
    -3.7017  -3.6516  -3.6009  -3.5579  -3.5531  -3.4347  -3.4104  -3.1932
    -3.1646  -3.0836  -3.0764  -3.0716  -3.0102  -3.0006  -2.9832  -2.9551
    -2.7940  -2.7862  -2.7732  -2.6876  -2.6119  -2.5911  -2.5849  -2.5334
    -2.4139  -2.3481  -2.3365  -2.3243  -2.2863  -2.2850  -2.1851  -2.1208
    -1.6139  -1.6089  -1.5715  -1.5690  -1.5472  -1.5410  -1.5369  -1.4954
    -1.1578  -1.1138  -1.0937  -1.0840  -0.8738  -0.8640  -0.7933  -0.7804
    -0.6651  -0.6564  -0.6489  -0.6488  -0.6254  -0.6133  -0.6019  -0.5741
    -0.4706  -0.4621  -0.4618  -0.4286  -0.3892  -0.3853  -0.3448  -0.3175
     0.9116   0.9376   0.9387   0.9407   0.9571   0.9598   0.9932   0.9950
     5.1405   5.1425   5.1496   5.1561   5.2022   5.2059   5.2374   5.2455
     5.8278   6.1151   6.2112   6.2557   6.3251   6.3629   6.6213   6.7185
     6.7785   6.7904   6.8271   6.8387   6.8913   7.0298   7.1320   7.4014
     7.4130   7.4750   7.4940   7.5217   7.5573   7.5725   7.6140   7.7076
     7.7657   7.8348   7.9013   8.0461   8.1691   8.2423   8.3379   8.3488
     8.3665

          k = 0.0000 0.0000 0.7235 (144640 PWs)   bands (ev):

   -22.0833 -22.0817 -22.0800 -22.0786 -22.0677 -22.0668 -22.0653 -22.0645
   -19.2529 -19.2509 -19.2416 -19.2316 -19.2295 -19.2274 -19.2130 -19.2128
   -18.4479 -18.4335 -18.4314 -18.4278 -18.4241 -18.4196 -18.4017 -18.3998
   -17.7047 -17.6902 -17.6862 -17.6727 -17.6695 -17.6605 -17.6409 -17.6314
   -15.2458 -15.2317 -15.2290 -15.2210 -15.2095 -15.1967 -15.1868 -15.1797
   -12.7742 -12.7542 -12.7507 -12.7490 -12.7343 -12.7336 -12.7336 -12.7194
   -11.6277 -11.5815 -11.5676 -11.5272 -11.5196 -11.5153 -11.4642 -11.4548
    -8.8564  -8.8421  -8.8226  -8.7947  -8.7793  -8.7727  -8.7568  -8.7559
    -8.1473  -8.1458  -8.1416  -8.1138  -8.0709  -8.0641  -7.9864  -7.9588
    -7.4581  -7.4318  -7.4142  -7.4089  -7.3391  -7.3227  -7.3048  -7.2613
    -7.0499  -7.0179  -6.7724  -6.7541  -6.7235  -6.7033  -6.6008  -6.5982
    -6.5721  -6.5614  -6.5510  -6.5474  -6.5258  -6.5201  -6.5175  -6.5116
    -6.3096  -6.1752  -6.1530  -6.1400  -5.9675  -5.9115  -5.9086  -5.8783
    -5.5322  -5.5271  -5.4992  -5.4785  -5.4619  -5.4076  -5.3800  -5.3658
    -5.3173  -5.1715  -5.1306  -5.0103  -4.9677  -4.9225  -4.8593  -4.8359
    -4.7931  -4.7817  -4.7685  -4.6653  -4.5922  -4.5434  -4.5067  -4.4825
    -4.1297  -4.0810  -4.0239  -4.0078  -3.9781  -3.9427  -3.8943  -3.8110
    -3.7533  -3.7350  -3.5787  -3.5716  -3.4597  -3.4372  -3.3202  -3.1558
    -3.1387  -3.1147  -3.0718  -3.0660  -3.0395  -2.9873  -2.9803  -2.9501
    -2.7618  -2.7319  -2.7064  -2.6730  -2.6526  -2.5893  -2.5849  -2.5617
    -2.3579  -2.3538  -2.3456  -2.3193  -2.2880  -2.2783  -2.2324  -2.1845
    -1.6030  -1.5973  -1.5843  -1.5791  -1.5541  -1.5365  -1.5189  -1.5042
    -1.0921  -1.0373  -1.0332  -1.0130  -0.9477  -0.9270  -0.8703  -0.8631
    -0.6657  -0.6561  -0.6522  -0.6422  -0.6172  -0.6088  -0.6033  -0.5796
    -0.4573  -0.4495  -0.4436  -0.4366  -0.3867  -0.3855  -0.3333  -0.3215
     0.9338   0.9505   0.9535   0.9591   0.9669   0.9777   0.9908   1.0003
     5.1589   5.1593   5.1695   5.1844   5.1989   5.2269   5.2276   5.2426
     6.0866   6.2645   6.4130   6.4340   6.4804   6.5381   6.5835   6.7091
     6.7540   6.8168   6.8501   6.8506   6.9166   7.0211   7.0808   7.0820
     7.3596   7.3989   7.4300   7.5085   7.5413   7.5728   7.5792   7.6459
     7.7096   7.8208   7.9029   7.9809   8.0335   8.1966   8.2035   8.2065
     8.2791

          k = 0.0000-0.8048 0.0000 (144626 PWs)   bands (ev):

   -22.0883 -22.0883 -22.0881 -22.0881 -22.0587 -22.0587 -22.0586 -22.0586
   -19.2641 -19.2641 -19.2592 -19.2592 -19.2084 -19.2084 -19.2081 -19.2080
   -18.4238 -18.4238 -18.4214 -18.4214 -18.4121 -18.4121 -18.4057 -18.4057
   -17.7057 -17.7057 -17.7028 -17.7028 -17.6464 -17.6464 -17.6445 -17.6445
   -15.2301 -15.2301 -15.2297 -15.2297 -15.1943 -15.1943 -15.1940 -15.1940
   -12.7662 -12.7662 -12.7631 -12.7631 -12.7291 -12.7291 -12.7283 -12.7283
   -11.5720 -11.5720 -11.5718 -11.5718 -11.4880 -11.4880 -11.4845 -11.4845
    -8.8554  -8.8554  -8.8443  -8.8443  -8.7455  -8.7455  -8.7282  -8.7282
    -8.0655  -8.0655  -8.0501  -8.0501  -8.0005  -8.0005  -7.9854  -7.9854
    -7.4426  -7.4425  -7.4230  -7.4230  -7.3682  -7.3682  -7.3279  -7.3279
    -7.0408  -7.0408  -7.0313  -7.0313  -6.9905  -6.9905  -6.9853  -6.9853
    -6.5546  -6.5546  -6.4746  -6.4746  -6.4239  -6.4239  -6.3556  -6.3556
    -6.0969  -6.0969  -5.9621  -5.9621  -5.9416  -5.9416  -5.8328  -5.8328
    -5.6001  -5.6001  -5.5629  -5.5629  -5.4063  -5.4063  -5.3925  -5.3925
    -5.1048  -5.1048  -5.0575  -5.0575  -4.8703  -4.8703  -4.8435  -4.8435
    -4.7065  -4.7065  -4.6836  -4.6835  -4.5464  -4.5464  -4.4908  -4.4908
    -4.1150  -4.1150  -4.0965  -4.0965  -3.7881  -3.7881  -3.7864  -3.7864
    -3.6002  -3.6002  -3.5791  -3.5791  -3.4618  -3.4618  -3.3476  -3.3476
    -3.0385  -3.0385  -2.9969  -2.9969  -2.9727  -2.9727  -2.9085  -2.9085
    -2.8420  -2.8420  -2.8338  -2.8338  -2.7541  -2.7541  -2.7412  -2.7412
    -2.4683  -2.4683  -2.4466  -2.4466  -2.2071  -2.2071  -2.1904  -2.1904
    -1.6116  -1.6116  -1.5492  -1.5492  -1.5120  -1.5120  -1.4961  -1.4961
    -1.1198  -1.1198  -1.0952  -1.0952  -0.8363  -0.8363  -0.8336  -0.8336
    -0.6718  -0.6718  -0.6700  -0.6700  -0.5970  -0.5970  -0.5953  -0.5953
    -0.4201  -0.4201  -0.3937  -0.3937  -0.3902  -0.3902  -0.3696  -0.3696
     0.9309   0.9309   0.9383   0.9383   0.9588   0.9588   0.9720   0.9720
     5.1278   5.1278   5.1395   5.1395   5.2617   5.2617   5.2656   5.2656
     6.0287   6.0288   6.1972   6.1972   6.5024   6.5024   6.5890   6.5890
     6.7748   6.7748   6.8464   6.8464   6.9205   6.9205   7.2111   7.2111
     7.4643   7.4643   7.4941   7.4941   7.6487   7.6487   7.8614   7.8614
     7.8721   7.8721   7.9366   7.9366   8.1061   8.1061   8.2808   8.2808
     8.3950

          k = 0.0000-0.8048 0.7235 (144566 PWs)   bands (ev):

   -22.0809 -22.0809 -22.0808 -22.0808 -22.0661 -22.0661 -22.0660 -22.0660
   -19.2503 -19.2503 -19.2459 -19.2459 -19.2226 -19.2226 -19.2200 -19.2200
   -18.4229 -18.4229 -18.4193 -18.4193 -18.4159 -18.4159 -18.4105 -18.4105
   -17.6911 -17.6911 -17.6865 -17.6865 -17.6614 -17.6614 -17.6572 -17.6572
   -15.2217 -15.2217 -15.2212 -15.2212 -15.2029 -15.2029 -15.2026 -15.2026
   -12.7564 -12.7564 -12.7538 -12.7538 -12.7379 -12.7379 -12.7363 -12.7363
   -11.5681 -11.5681 -11.5669 -11.5669 -11.4905 -11.4905 -11.4887 -11.4887
    -8.8278  -8.8278  -8.8150  -8.8150  -8.7727  -8.7727  -8.7567  -8.7567
    -8.0485  -8.0485  -8.0328  -8.0328  -8.0146  -8.0146  -7.9992  -7.9992
    -7.4204  -7.4204  -7.4073  -7.4073  -7.3760  -7.3760  -7.3501  -7.3501
    -7.0317  -7.0317  -7.0112  -7.0112  -6.9881  -6.9881  -6.9799  -6.9799
    -6.5373  -6.5373  -6.5018  -6.5018  -6.3985  -6.3985  -6.3654  -6.3654
    -6.0837  -6.0837  -6.0223  -6.0223  -5.9428  -5.9428  -5.8967  -5.8967
    -5.5390  -5.5389  -5.4975  -5.4975  -5.4250  -5.4250  -5.4138  -5.4138
    -5.0965  -5.0965  -5.0514  -5.0514  -4.9433  -4.9433  -4.9258  -4.9258
    -4.6710  -4.6710  -4.6383  -4.6383  -4.5878  -4.5878  -4.5370  -4.5369
    -4.0242  -4.0242  -4.0220  -4.0220  -3.8562  -3.8562  -3.8363  -3.8363
    -3.5820  -3.5820  -3.5468  -3.5468  -3.4688  -3.4688  -3.4228  -3.4228
    -3.0302  -3.0301  -2.9988  -2.9988  -2.9658  -2.9658  -2.9383  -2.9383
    -2.8255  -2.8255  -2.8012  -2.8012  -2.7579  -2.7579  -2.7396  -2.7396
    -2.4157  -2.4157  -2.3784  -2.3784  -2.2820  -2.2820  -2.2443  -2.2443
    -1.5884  -1.5884  -1.5619  -1.5619  -1.5072  -1.5072  -1.5001  -1.5001
    -1.0375  -1.0375  -1.0185  -1.0185  -0.8860  -0.8860  -0.8779  -0.8779
    -0.6813  -0.6813  -0.6628  -0.6628  -0.6259  -0.6259  -0.6172  -0.6172
    -0.4113  -0.4113  -0.3942  -0.3942  -0.3839  -0.3839  -0.3721  -0.3721
     0.9471   0.9471   0.9587   0.9587   0.9646   0.9646   0.9788   0.9788
     5.1730   5.1730   5.1777   5.1777   5.2406   5.2406   5.2448   5.2448
     6.2763   6.2763   6.4063   6.4063   6.6333   6.6333   6.6474   6.6474
     6.6757   6.6757   6.8043   6.8043   6.9109   6.9109   7.0541   7.0541
     7.4316   7.4316   7.5593   7.5593   7.6962   7.6962   7.7603   7.7603
     7.8013   7.8013   7.9985   7.9985   8.0961   8.0961   8.1954   8.1956
     8.2638

          k =-0.5000 0.0000 0.0000 (144554 PWs)   bands (ev):

   -22.0903 -22.0903 -22.0863 -22.0863 -22.0596 -22.0596 -22.0577 -22.0577
   -19.2618 -19.2618 -19.2536 -19.2536 -19.2110 -19.2110 -19.2049 -19.2049
   -18.4484 -18.4484 -18.4238 -18.4238 -18.4109 -18.4109 -18.4037 -18.4037
   -17.7077 -17.7077 -17.6825 -17.6825 -17.6690 -17.6690 -17.6223 -17.6223
   -15.2473 -15.2473 -15.2180 -15.2180 -15.2111 -15.2111 -15.1731 -15.1731
   -12.7788 -12.7788 -12.7463 -12.7463 -12.7356 -12.7356 -12.7165 -12.7165
   -11.6273 -11.6273 -11.5394 -11.5394 -11.4956 -11.4956 -11.4682 -11.4682
    -8.8922  -8.8922  -8.8132  -8.8132  -8.7651  -8.7651  -8.7187  -8.7187
    -8.1597  -8.1597  -8.1415  -8.1415  -8.0271  -8.0271  -7.9935  -7.9935
    -7.4796  -7.4796  -7.4099  -7.4099  -7.3499  -7.3499  -7.2933  -7.2933
    -6.9333  -6.9333  -6.9045  -6.9045  -6.6155  -6.6155  -6.6130  -6.6130
    -6.5735  -6.5735  -6.5600  -6.5600  -6.5097  -6.5097  -6.5003  -6.5003
    -6.2807  -6.2807  -6.1368  -6.1368  -5.8763  -5.8763  -5.8571  -5.8571
    -5.5884  -5.5884  -5.4738  -5.4738  -5.4466  -5.4466  -5.4080  -5.4080
    -5.2693  -5.2693  -5.0599  -5.0599  -4.9623  -4.9623  -4.8379  -4.8379
    -4.7388  -4.7388  -4.6586  -4.6586  -4.5506  -4.5506  -4.5029  -4.5029
    -4.1366  -4.1366  -4.0879  -4.0879  -3.8990  -3.8990  -3.7378  -3.7378
    -3.6520  -3.6520  -3.6429  -3.6429  -3.4875  -3.4875  -3.3024  -3.3024
    -3.0869  -3.0869  -3.0747  -3.0747  -3.0205  -3.0205  -2.9689  -2.9689
    -2.7923  -2.7923  -2.6860  -2.6860  -2.6643  -2.6643  -2.5474  -2.5474
    -2.3651  -2.3651  -2.3203  -2.3203  -2.3042  -2.3042  -2.1480  -2.1480
    -1.6101  -1.6101  -1.5562  -1.5562  -1.5445  -1.5445  -1.5331  -1.5331
    -1.1330  -1.1330  -1.0896  -1.0896  -0.8687  -0.8687  -0.7871  -0.7871
    -0.6570  -0.6570  -0.6486  -0.6486  -0.6158  -0.6158  -0.6014  -0.6014
    -0.4599  -0.4599  -0.4492  -0.4492  -0.3647  -0.3647  -0.3505  -0.3505
     0.9200   0.9200   0.9488   0.9488   0.9536   0.9536   0.9947   0.9947
     5.1456   5.1456   5.1498   5.1498   5.2044   5.2044   5.2397   5.2397
     5.9248   5.9248   6.3152   6.3152   6.3221   6.3221   6.6421   6.6421
     6.7704   6.7704   6.8065   6.8065   7.1693   7.1693   7.2229   7.2229
     7.2392   7.2392   7.4604   7.4604   7.5820   7.5820   7.7440   7.7440
     7.7688   7.7688   8.0981   8.0981   8.1774   8.1774   8.3455   8.3455
     8.3706

          k =-0.5000 0.0000 0.7235 (144620 PWs)   bands (ev):

   -22.0826 -22.0826 -22.0791 -22.0791 -22.0673 -22.0673 -22.0648 -22.0648
   -19.2490 -19.2490 -19.2442 -19.2442 -19.2196 -19.2196 -19.2171 -19.2171
   -18.4437 -18.4437 -18.4313 -18.4313 -18.4107 -18.4107 -18.4072 -18.4072
   -17.6980 -17.6980 -17.6814 -17.6814 -17.6630 -17.6630 -17.6356 -17.6356
   -15.2400 -15.2400 -15.2254 -15.2254 -15.2019 -15.2019 -15.1829 -15.1829
   -12.7673 -12.7673 -12.7456 -12.7456 -12.7382 -12.7382 -12.7234 -12.7234
   -11.6061 -11.6061 -11.5626 -11.5626 -11.4872 -11.4872 -11.4730 -11.4730
    -8.8521  -8.8521  -8.7985  -8.7985  -8.7820  -8.7820  -8.7586  -8.7586
    -8.1480  -8.1480  -8.1401  -8.1401  -8.0214  -8.0214  -8.0045  -8.0045
    -7.4460  -7.4460  -7.4118  -7.4118  -7.3227  -7.3227  -7.2949  -7.2949
    -6.9452  -6.9452  -6.9277  -6.9277  -6.6198  -6.6198  -6.6189  -6.6189
    -6.5638  -6.5638  -6.5596  -6.5596  -6.5123  -6.5123  -6.5040  -6.5040
    -6.2376  -6.2376  -6.1658  -6.1658  -5.9231  -5.9231  -5.9064  -5.9064
    -5.5234  -5.5234  -5.4822  -5.4822  -5.4475  -5.4475  -5.3741  -5.3741
    -5.2433  -5.2433  -5.0717  -5.0717  -4.9521  -4.9521  -4.8237  -4.8237
    -4.8176  -4.8176  -4.7192  -4.7192  -4.5336  -4.5336  -4.5030  -4.5030
    -4.1074  -4.1074  -4.0170  -4.0170  -3.9712  -3.9712  -3.8438  -3.8438
    -3.6868  -3.6868  -3.6763  -3.6763  -3.3755  -3.3755  -3.3021  -3.3021
    -3.0794  -3.0794  -3.0573  -3.0573  -3.0090  -3.0090  -2.9991  -2.9991
    -2.7368  -2.7368  -2.6815  -2.6815  -2.6399  -2.6399  -2.5750  -2.5750
    -2.3378  -2.3378  -2.3185  -2.3185  -2.3117  -2.3117  -2.2045  -2.2045
    -1.5939  -1.5939  -1.5691  -1.5691  -1.5414  -1.5414  -1.5350  -1.5350
    -1.0673  -1.0673  -1.0190  -1.0190  -0.9369  -0.9369  -0.8670  -0.8670
    -0.6544  -0.6544  -0.6481  -0.6481  -0.6100  -0.6100  -0.6032  -0.6032
    -0.4538  -0.4538  -0.4416  -0.4416  -0.3577  -0.3577  -0.3511  -0.3511
     0.9409   0.9409   0.9586   0.9586   0.9712   0.9712   0.9958   0.9958
     5.1633   5.1633   5.1672   5.1672   5.2173   5.2173   5.2363   5.2363
     6.1528   6.1528   6.4340   6.4340   6.5070   6.5070   6.7003   6.7003
     6.7547   6.7547   6.8142   6.8142   7.0501   7.0501   7.0812   7.0812
     7.2902   7.2902   7.4633   7.4633   7.5617   7.5617   7.6022   7.6022
     7.7571   7.7571   8.0166   8.0166   8.1370   8.1370   8.1497   8.1497
     8.2992

          k =-0.5000-0.8048 0.0000 (144592 PWs)   bands (ev):

   -22.0882 -22.0882 -22.0882 -22.0882 -22.0587 -22.0587 -22.0587 -22.0587
   -19.2617 -19.2617 -19.2617 -19.2617 -19.2082 -19.2082 -19.2082 -19.2082
   -18.4227 -18.4227 -18.4227 -18.4227 -18.4088 -18.4088 -18.4088 -18.4088
   -17.7042 -17.7042 -17.7042 -17.7042 -17.6454 -17.6454 -17.6454 -17.6454
   -15.2299 -15.2299 -15.2299 -15.2299 -15.1942 -15.1942 -15.1942 -15.1942
   -12.7646 -12.7646 -12.7646 -12.7646 -12.7287 -12.7287 -12.7287 -12.7287
   -11.5719 -11.5719 -11.5719 -11.5719 -11.4862 -11.4862 -11.4862 -11.4862
    -8.8499  -8.8499  -8.8499  -8.8499  -8.7370  -8.7370  -8.7370  -8.7370
    -8.0575  -8.0575  -8.0575  -8.0575  -7.9930  -7.9930  -7.9930  -7.9930
    -7.4352  -7.4352  -7.4352  -7.4352  -7.3449  -7.3449  -7.3449  -7.3449
    -7.0342  -7.0342  -7.0342  -7.0342  -6.9906  -6.9906  -6.9906  -6.9906
    -6.4954  -6.4954  -6.4954  -6.4954  -6.4262  -6.4262  -6.4262  -6.4262
    -6.0151  -6.0151  -6.0151  -6.0151  -5.8835  -5.8835  -5.8835  -5.8835
    -5.5831  -5.5831  -5.5831  -5.5831  -5.3998  -5.3998  -5.3998  -5.3998
    -5.0794  -5.0794  -5.0794  -5.0794  -4.8545  -4.8545  -4.8545  -4.8545
    -4.7005  -4.7005  -4.7005  -4.7005  -4.5161  -4.5161  -4.5161  -4.5161
    -4.1059  -4.1059  -4.1059  -4.1059  -3.7883  -3.7883  -3.7883  -3.7883
    -3.5922  -3.5922  -3.5922  -3.5922  -3.4020  -3.4020  -3.4020  -3.4020
    -3.0130  -3.0130  -3.0130  -3.0130  -2.9617  -2.9617  -2.9617  -2.9617
    -2.8057  -2.8057  -2.8057  -2.8057  -2.7616  -2.7616  -2.7616  -2.7616
    -2.4593  -2.4593  -2.4592  -2.4592  -2.1985  -2.1985  -2.1985  -2.1985
    -1.5698  -1.5698  -1.5698  -1.5698  -1.5144  -1.5144  -1.5144  -1.5144
    -1.1070  -1.1070  -1.1070  -1.1070  -0.8354  -0.8354  -0.8354  -0.8354
    -0.6691  -0.6691  -0.6691  -0.6691  -0.5973  -0.5973  -0.5973  -0.5973
    -0.4061  -0.4061  -0.4061  -0.4061  -0.3808  -0.3808  -0.3808  -0.3808
     0.9345   0.9345   0.9345   0.9345   0.9656   0.9656   0.9656   0.9656
     5.1340   5.1340   5.1340   5.1340   5.2634   5.2634   5.2634   5.2634
     6.1007   6.1007   6.1007   6.1007   6.5485   6.5485   6.5485   6.5485
     6.7890   6.7890   6.7890   6.7890   7.1259   7.1259   7.1259   7.1259
     7.4689   7.4689   7.4689   7.4689   7.6441   7.6441   7.6441   7.6441
     7.9589   7.9589   7.9589   7.9589   8.2015   8.2015   8.2015   8.2015
     8.5308

          k =-0.5000-0.8048 0.7235 (144532 PWs)   bands (ev):

   -22.0808 -22.0808 -22.0808 -22.0808 -22.0661 -22.0661 -22.0661 -22.0661
   -19.2482 -19.2482 -19.2482 -19.2482 -19.2212 -19.2212 -19.2212 -19.2212
   -18.4211 -18.4211 -18.4211 -18.4211 -18.4132 -18.4132 -18.4132 -18.4132
   -17.6889 -17.6889 -17.6889 -17.6889 -17.6592 -17.6592 -17.6592 -17.6592
   -15.2214 -15.2214 -15.2214 -15.2214 -15.2028 -15.2028 -15.2028 -15.2028
   -12.7551 -12.7551 -12.7551 -12.7551 -12.7371 -12.7371 -12.7371 -12.7371
   -11.5675 -11.5675 -11.5675 -11.5675 -11.4896 -11.4896 -11.4896 -11.4896
    -8.8215  -8.8215  -8.8215  -8.8215  -8.7648  -8.7648  -8.7648  -8.7648
    -8.0401  -8.0401  -8.0401  -8.0401  -8.0073  -8.0073  -8.0073  -8.0073
    -7.4140  -7.4140  -7.4140  -7.4140  -7.3626  -7.3626  -7.3626  -7.3626
    -7.0197  -7.0197  -7.0197  -7.0197  -6.9855  -6.9855  -6.9855  -6.9855
    -6.4782  -6.4782  -6.4782  -6.4782  -6.4442  -6.4442  -6.4442  -6.4442
    -6.0192  -6.0192  -6.0192  -6.0192  -5.9301  -5.9301  -5.9301  -5.9301
    -5.5217  -5.5217  -5.5217  -5.5217  -5.4185  -5.4185  -5.4185  -5.4185
    -5.0744  -5.0744  -5.0744  -5.0744  -4.9346  -4.9346  -4.9346  -4.9346
    -4.6579  -4.6579  -4.6579  -4.6579  -4.5600  -4.5600  -4.5600  -4.5600
    -4.0219  -4.0219  -4.0219  -4.0219  -3.8486  -3.8486  -3.8486  -3.8486
    -3.5618  -3.5618  -3.5618  -3.5618  -3.4453  -3.4453  -3.4453  -3.4453
    -3.0036  -3.0036  -3.0036  -3.0036  -2.9712  -2.9712  -2.9712  -2.9712
    -2.7926  -2.7926  -2.7926  -2.7926  -2.7648  -2.7648  -2.7648  -2.7648
    -2.3962  -2.3962  -2.3962  -2.3962  -2.2622  -2.2622  -2.2622  -2.2622
    -1.5571  -1.5571  -1.5571  -1.5571  -1.5217  -1.5217  -1.5217  -1.5217
    -1.0274  -1.0274  -1.0274  -1.0274  -0.8818  -0.8818  -0.8818  -0.8818
    -0.6712  -0.6712  -0.6712  -0.6712  -0.6228  -0.6228  -0.6228  -0.6228
    -0.3979  -0.3979  -0.3979  -0.3979  -0.3827  -0.3827  -0.3827  -0.3827
     0.9526   0.9526   0.9526   0.9526   0.9722   0.9722   0.9722   0.9722
     5.1753   5.1753   5.1753   5.1753   5.2428   5.2428   5.2428   5.2428
     6.3338   6.3338   6.3338   6.3338   6.6313   6.6313   6.6313   6.6313
     6.7337   6.7337   6.7337   6.7337   7.0183   7.0183   7.0183   7.0183
     7.4982   7.4982   7.4982   7.4982   7.7254   7.7254   7.7254   7.7254
     7.8472   7.8472   7.8473   7.8473   8.0926   8.0926   8.0926   8.0926
     8.4106

     highest occupied, lowest unoccupied level (ev):     1.0003    5.1278

!    total energy              =   -2117.70145100 Ry
     Harris-Foulkes estimate   =   -2117.70145100 Ry
     estimated scf accuracy    <          2.1E-09 Ry

     total all-electron energy =     -7879.258655 Ry

     The total energy is the sum of the following terms:

     one-electron contribution =   -1151.85279769 Ry
     hartree contribution      =     736.00540299 Ry
     xc contribution           =    -443.21185213 Ry
     ewald contribution        =    -684.47856254 Ry
     Dispersion Correction     =      -0.52795392 Ry
     one-center paw contrib.   =    -573.63568773 Ry

     convergence has been achieved in  17 iterations

     Forces acting on atoms (cartesian axes, Ry/au):

     atom    1 type  4   force =     0.00191426   -0.00033722   -0.00045161
     atom    2 type  4   force =    -0.00191476   -0.00033723   -0.00045191
     atom    3 type  4   force =     0.00191476    0.00033723   -0.00045191
     atom    4 type  4   force =    -0.00191426    0.00033722   -0.00045161
     atom    5 type  4   force =    -0.00191426    0.00033722    0.00045161
     atom    6 type  4   force =     0.00191476    0.00033723    0.00045191
     atom    7 type  4   force =    -0.00191476   -0.00033723    0.00045191
     atom    8 type  4   force =     0.00191426   -0.00033722    0.00045161
     atom    9 type  4   force =     0.00058369   -0.00045365    0.00091317
     atom   10 type  4   force =    -0.00058382   -0.00045393    0.00091333
     atom   11 type  4   force =     0.00058382    0.00045393    0.00091333
     atom   12 type  4   force =    -0.00058369    0.00045365    0.00091317
     atom   13 type  4   force =    -0.00058369    0.00045365   -0.00091317
     atom   14 type  4   force =     0.00058382    0.00045393   -0.00091333
     atom   15 type  4   force =    -0.00058382   -0.00045393   -0.00091333
     atom   16 type  4   force =     0.00058369   -0.00045365   -0.00091317
     atom   17 type  4   force =     0.00014632    0.00091449    0.00061554
     atom   18 type  4   force =    -0.00014586    0.00091476    0.00061541
     atom   19 type  4   force =     0.00014586   -0.00091476    0.00061541
     atom   20 type  4   force =    -0.00014632   -0.00091449    0.00061554
     atom   21 type  4   force =    -0.00014632   -0.00091449   -0.00061554
     atom   22 type  4   force =     0.00014586   -0.00091476   -0.00061541
     atom   23 type  4   force =    -0.00014586    0.00091476   -0.00061541
     atom   24 type  4   force =     0.00014632    0.00091449   -0.00061554
     atom   25 type  2   force =    -0.00007153    0.00011161   -0.00020176
     atom   26 type  2   force =     0.00007165    0.00011163   -0.00020178
     atom   27 type  2   force =    -0.00007165   -0.00011163   -0.00020178
     atom   28 type  2   force =     0.00007153   -0.00011161   -0.00020176
     atom   29 type  2   force =     0.00007153   -0.00011161    0.00020176
     atom   30 type  2   force =    -0.00007165   -0.00011163    0.00020178
     atom   31 type  2   force =     0.00007165    0.00011163    0.00020178
     atom   32 type  2   force =    -0.00007153    0.00011161    0.00020176
     atom   33 type  2   force =     0.00136282    0.00110491    0.00170616
     atom   34 type  2   force =    -0.00136172    0.00110496    0.00170651
     atom   35 type  2   force =     0.00136172   -0.00110496    0.00170651
     atom   36 type  2   force =    -0.00136282   -0.00110491    0.00170616
     atom   37 type  2   force =    -0.00136282   -0.00110491   -0.00170616
     atom   38 type  2   force =     0.00136172   -0.00110496   -0.00170651
     atom   39 type  2   force =    -0.00136172    0.00110496   -0.00170651
     atom   40 type  2   force =     0.00136282    0.00110491   -0.00170616
     atom   41 type  1   force =     0.00005860   -0.00035260   -0.00070432
     atom   42 type  1   force =    -0.00005820   -0.00034886   -0.00070392
     atom   43 type  1   force =     0.00005820    0.00034886   -0.00070392
     atom   44 type  1   force =    -0.00005860    0.00035260   -0.00070432
     atom   45 type  1   force =    -0.00005860    0.00035260    0.00070432
     atom   46 type  1   force =     0.00005820    0.00034886    0.00070392
     atom   47 type  1   force =    -0.00005820   -0.00034886    0.00070392
     atom   48 type  1   force =     0.00005860   -0.00035260    0.00070432
     atom   49 type  1   force =    -0.00236622    0.00040096   -0.00084770
     atom   50 type  1   force =     0.00236582    0.00038005   -0.00084779
     atom   51 type  1   force =    -0.00236582   -0.00038005   -0.00084779
     atom   52 type  1   force =     0.00236622   -0.00040096   -0.00084770
     atom   53 type  1   force =     0.00236622   -0.00040096    0.00084770
     atom   54 type  1   force =    -0.00236582   -0.00038005    0.00084779
     atom   55 type  1   force =     0.00236582    0.00038005    0.00084779
     atom   56 type  1   force =    -0.00236622    0.00040096    0.00084770
     atom   57 type  1   force =    -0.00197244    0.00058665   -0.00103885
     atom   58 type  1   force =     0.00197357    0.00057437   -0.00103811
     atom   59 type  1   force =    -0.00197357   -0.00057437   -0.00103811
     atom   60 type  1   force =     0.00197244   -0.00058665   -0.00103885
     atom   61 type  1   force =     0.00197244   -0.00058665    0.00103885
     atom   62 type  1   force =    -0.00197357   -0.00057437    0.00103811
     atom   63 type  1   force =     0.00197357    0.00057437    0.00103811
     atom   64 type  1   force =    -0.00197244    0.00058665    0.00103885
     atom   65 type  1   force =     0.00030787   -0.00002488    0.00040260
     atom   66 type  1   force =    -0.00030744   -0.00003929    0.00040248
     atom   67 type  1   force =     0.00030744    0.00003929    0.00040248
     atom   68 type  1   force =    -0.00030787    0.00002488    0.00040260
     atom   69 type  1   force =    -0.00030787    0.00002488   -0.00040260
     atom   70 type  1   force =     0.00030744    0.00003929   -0.00040248
     atom   71 type  1   force =    -0.00030744   -0.00003929   -0.00040248
     atom   72 type  1   force =     0.00030787   -0.00002488   -0.00040260
     atom   73 type  3   force =     0.00015237   -0.00022116   -0.00001326
     atom   74 type  3   force =    -0.00015216   -0.00022132   -0.00001320
     atom   75 type  3   force =     0.00015216    0.00022132   -0.00001320
     atom   76 type  3   force =    -0.00015237    0.00022116   -0.00001326
     atom   77 type  3   force =    -0.00015237    0.00022116    0.00001326
     atom   78 type  3   force =     0.00015216    0.00022132    0.00001320
     atom   79 type  3   force =    -0.00015216   -0.00022132    0.00001320
     atom   80 type  3   force =     0.00015237   -0.00022116    0.00001326
     atom   81 type  3   force =    -0.00022220   -0.00004699    0.00012466
     atom   82 type  3   force =     0.00022220   -0.00004678    0.00012460
     atom   83 type  3   force =    -0.00022220    0.00004678    0.00012460
     atom   84 type  3   force =     0.00022220    0.00004699    0.00012466
     atom   85 type  3   force =     0.00022220    0.00004699   -0.00012466
     atom   86 type  3   force =    -0.00022220    0.00004678   -0.00012460
     atom   87 type  3   force =     0.00022220   -0.00004678   -0.00012460
     atom   88 type  3   force =    -0.00022220   -0.00004699   -0.00012466
     atom   89 type  3   force =     0.00029169    0.00029221   -0.00113310
     atom   90 type  3   force =    -0.00029167    0.00029211   -0.00113316
     atom   91 type  3   force =     0.00029167   -0.00029211   -0.00113316
     atom   92 type  3   force =    -0.00029169   -0.00029221   -0.00113310
     atom   93 type  3   force =    -0.00029169   -0.00029221    0.00113310
     atom   94 type  3   force =     0.00029167   -0.00029211    0.00113316
     atom   95 type  3   force =    -0.00029167    0.00029211    0.00113316
     atom   96 type  3   force =     0.00029169    0.00029221    0.00113310
     atom   97 type  3   force =    -0.00062980   -0.00069755   -0.00053638
     atom   98 type  3   force =     0.00062977   -0.00069753   -0.00053644
     atom   99 type  3   force =    -0.00062977    0.00069753   -0.00053644
     atom  100 type  3   force =     0.00062980    0.00069755   -0.00053638
     atom  101 type  3   force =     0.00062980    0.00069755    0.00053638
     atom  102 type  3   force =    -0.00062977    0.00069753    0.00053644
     atom  103 type  3   force =     0.00062977   -0.00069753    0.00053644
     atom  104 type  3   force =    -0.00062980   -0.00069755    0.00053638
     atom  105 type  3   force =     0.00048651   -0.00033211   -0.00016376
     atom  106 type  3   force =    -0.00048651   -0.00033194   -0.00016372
     atom  107 type  3   force =     0.00048651    0.00033194   -0.00016372
     atom  108 type  3   force =    -0.00048651    0.00033211   -0.00016376
     atom  109 type  3   force =    -0.00048651    0.00033211    0.00016376
     atom  110 type  3   force =     0.00048651    0.00033194    0.00016372
     atom  111 type  3   force =    -0.00048651   -0.00033194    0.00016372
     atom  112 type  3   force =     0.00048651   -0.00033211    0.00016376
     atom  113 type  3   force =     0.00040256   -0.00033014    0.00040559
     atom  114 type  3   force =    -0.00040260   -0.00033005    0.00040558
     atom  115 type  3   force =     0.00040260    0.00033005    0.00040558
     atom  116 type  3   force =    -0.00040256    0.00033014    0.00040559
     atom  117 type  3   force =    -0.00040256    0.00033014   -0.00040559
     atom  118 type  3   force =     0.00040260    0.00033005   -0.00040558
     atom  119 type  3   force =    -0.00040260   -0.00033005   -0.00040558
     atom  120 type  3   force =     0.00040256   -0.00033014   -0.00040559
     atom  121 type  3   force =    -0.00013622    0.00029051   -0.00002958
     atom  122 type  3   force =     0.00013637    0.00029050   -0.00002964
     atom  123 type  3   force =    -0.00013637   -0.00029050   -0.00002964
     atom  124 type  3   force =     0.00013622   -0.00029051   -0.00002958
     atom  125 type  3   force =     0.00013622   -0.00029051    0.00002958
     atom  126 type  3   force =    -0.00013637   -0.00029050    0.00002964
     atom  127 type  3   force =     0.00013637    0.00029050    0.00002964
     atom  128 type  3   force =    -0.00013622    0.00029051    0.00002958
     atom  129 type  3   force =    -0.00027797    0.00001997    0.00040826
     atom  130 type  3   force =     0.00027798    0.00001995    0.00040817
     atom  131 type  3   force =    -0.00027798   -0.00001995    0.00040817
     atom  132 type  3   force =     0.00027797   -0.00001997    0.00040826
     atom  133 type  3   force =     0.00027797   -0.00001997   -0.00040826
     atom  134 type  3   force =    -0.00027798   -0.00001995   -0.00040817
     atom  135 type  3   force =     0.00027798    0.00001995   -0.00040817
     atom  136 type  3   force =    -0.00027797    0.00001997   -0.00040826

     Total force =     0.015291     Total SCF correction =     0.000107


     Computing stress (Cartesian axis) and pressure

          total   stress  (Ry/bohr**3)                   (kbar)     P=   -7.65
  -0.00005222  -0.00000000   0.00000000         -7.68     -0.00      0.00
  -0.00000000  -0.00006344   0.00000000         -0.00     -9.33      0.00
   0.00000000   0.00000000  -0.00004037          0.00      0.00     -5.94


     Writing output data file scf.save
 
     init_run     :     73.95s CPU     77.87s WALL (       1 calls)
     electrons    :   2954.45s CPU   3087.77s WALL (       1 calls)
     forces       :     34.14s CPU     34.52s WALL (       1 calls)
     stress       :    316.69s CPU    317.36s WALL (       1 calls)

     Called by init_run:
     wfcinit      :     64.13s CPU     67.78s WALL (       1 calls)
     potinit      :      3.54s CPU      3.64s WALL (       1 calls)

     Called by electrons:
     c_bands      :   2656.21s CPU   2767.67s WALL (      17 calls)
     sum_band     :    275.72s CPU    294.75s WALL (      17 calls)
     v_of_rho     :      3.08s CPU      3.44s WALL (      18 calls)
     newd         :      7.57s CPU      9.73s WALL (      18 calls)
     PAW_pot      :     10.88s CPU     10.89s WALL (      18 calls)
     mix_rho      :      0.85s CPU      0.95s WALL (      17 calls)

     Called by c_bands:
     init_us_2    :     17.25s CPU     17.32s WALL (     296 calls)
     cegterg      :   2590.67s CPU   2702.03s WALL (     136 calls)

     Called by sum_band:
     sum_band:bec :      0.16s CPU      0.16s WALL (     136 calls)
     addusdens    :      8.08s CPU     10.17s WALL (      17 calls)

     Called by *egterg:
     h_psi        :   1459.05s CPU   1547.95s WALL (     645 calls)
     s_psi        :    288.61s CPU    288.64s WALL (     645 calls)
     g_psi        :      9.15s CPU      9.15s WALL (     501 calls)
     cdiaghg      :    156.30s CPU    156.34s WALL (     637 calls)

     Called by h_psi:
     h_psi:pot    :   1448.40s CPU   1537.13s WALL (     645 calls)
     h_psi:calbec :    277.48s CPU    277.95s WALL (     645 calls)
     vloc_psi     :    882.40s CPU    970.61s WALL (     645 calls)
     add_vuspsi   :    288.51s CPU    288.57s WALL (     645 calls)

     General routines
     calbec       :    433.50s CPU    434.27s WALL (     821 calls)
     fft          :      7.72s CPU      8.32s WALL (     258 calls)
     fftw         :    951.00s CPU   1055.31s WALL (  226460 calls)
 
     Parallel routines
     fft_scatter  :    184.79s CPU    289.51s WALL (  226718 calls)
 
     PWSCF        : 56m38.42s CPU    59m54.06s WALL

 
   This run was terminated on:   2:22:41   4Nov2017            

=------------------------------------------------------------------------------=
   JOB DONE.
=------------------------------------------------------------------------------=
