
     Program PWSCF v.6.1 (svn rev. 13369) starts on  4Nov2017 at  5:41:12 

     This program is part of the open-source Quantum ESPRESSO suite
     for quantum simulation of materials; please cite
         "P. Giannozzi et al., J. Phys.:Condens. Matter 21 395502 (2009);
          URL http://www.quantum-espresso.org", 
     in publications or presentations arising from this work. More details at
     http://www.quantum-espresso.org/quote

     Parallel version (MPI), running on     8 processors
     R & G space division:  proc/nbgrp/npool/nimage =       8
     Waiting for input...
     Reading input from standard input

     Current dimensions of program PWSCF are:
     Max number of different atomic species (ntypx) = 10
     Max number of k-points (npk) =  40000
     Max angular momentum in pseudopotentials (lmaxx) =  3
               file C.pbe-n-kjpaw_psl.0.1.UPF: wavefunction(s)  2P renormalized
               file N.pbe-n-kjpaw_psl.0.1.UPF: wavefunction(s)  2P renormalized
               file H.pbe-kjpaw_psl.0.1.UPF: wavefunction(s)  1S renormalized
               file O.pbe-n-kjpaw_psl.0.1.UPF: wavefunction(s)  2P renormalized

     -------------------------------------
     Parameters for Dispersion Correction:
     -------------------------------------
       atom      VdW radius       C_6     

        C          2.744         60.710
        N          2.640         42.670
        H          1.892          4.857
        O          2.536         24.284

     Subspace diagonalization in iterative solution of the eigenvalue problem:
     a serial algorithm will be used

 
     Parallelization info
     --------------------
     sticks:   dense  smooth     PW     G-vecs:    dense   smooth      PW
     Min         998     998    265                83974    83974   11545
     Max         999     999    266                83977    83977   11550
     Sum        7991    7991   2123               671811   671811   92377
 


     bravais-lattice index     =            0
     lattice parameter (alat)  =      18.0482  a.u.
     unit-cell volume          =    4972.4901 (a.u.)^3
     number of atoms/cell      =           80
     number of atomic types    =            4
     number of electrons       =       268.00
     number of Kohn-Sham states=          160
     kinetic-energy cutoff     =     100.0000  Ry
     charge density cutoff     =     400.0000  Ry
     convergence threshold     =      1.0E-08
     mixing beta               =       0.5000
     number of iterations used =            8  plain     mixing
     Exchange-correlation      =  SLA  PW   PBX  PBC ( 1  4  3  4 0 0)

     celldm(1)=  18.048207  celldm(2)=   0.000000  celldm(3)=   0.000000
     celldm(4)=   0.000000  celldm(5)=   0.000000  celldm(6)=   0.000000

     crystal axes: (cart. coord. in units of alat)
               a(1) = (   1.000000   0.000000   0.000000 )  
               a(2) = (   0.000000   0.769357   0.000000 )  
               a(3) = (  -0.396881   0.000000   1.099369 )  

     reciprocal axes: (cart. coord. in units 2 pi/alat)
               b(1) = (  1.000000  0.000000  0.361008 )  
               b(2) = (  0.000000  1.299786  0.000000 )  
               b(3) = (  0.000000  0.000000  0.909612 )  


     PseudoPot. # 1 for  C read from file:
     /scratch/ahofstet/pseudo/C.pbe-n-kjpaw_psl.0.1.UPF
     MD5 check sum: 430fe95172b1e11ef3f8ed03bac87931
     Pseudo is Projector augmented-wave + core cor, Zval =  4.0
     Generated using "atomic" code by A. Dal Corso  v.5.0.99 svn rev. 10869
     Shape of augmentation charge: BESSEL
     Using radial grid of 1073 points,  4 beta functions with: 
                l(1) =   0
                l(2) =   0
                l(3) =   1
                l(4) =   1
     Q(r) pseudized with 0 coefficients 


     PseudoPot. # 2 for  N read from file:
     /scratch/ahofstet/pseudo/N.pbe-n-kjpaw_psl.0.1.UPF
     MD5 check sum: f73187c8b701007e77325f868c9291d7
     Pseudo is Projector augmented-wave + core cor, Zval =  5.0
     Generated using "atomic" code by A. Dal Corso  v.5.0.99 svn rev. 10869
     Shape of augmentation charge: PSQ
     Using radial grid of 1085 points,  4 beta functions with: 
                l(1) =   0
                l(2) =   0
                l(3) =   1
                l(4) =   1
     Q(r) pseudized with 0 coefficients 


     PseudoPot. # 3 for  H read from file:
     /scratch/ahofstet/pseudo/H.pbe-kjpaw_psl.0.1.UPF
     MD5 check sum: 94e484f906d9e9773b2f6e52662335b2
     Pseudo is Projector augmented-wave, Zval =  1.0
     Generated using "atomic" code by A. Dal Corso  v.5.0.99 svn rev. 10869
     Shape of augmentation charge: PSQ
     Using radial grid of  929 points,  2 beta functions with: 
                l(1) =   0
                l(2) =   0
     Q(r) pseudized with 0 coefficients 


     PseudoPot. # 4 for  O read from file:
     /scratch/ahofstet/pseudo/O.pbe-n-kjpaw_psl.0.1.UPF
     MD5 check sum: 3f94a2996a3169367d6eb21d9b593f20
     Pseudo is Projector augmented-wave + core cor, Zval =  6.0
     Generated using "atomic" code by A. Dal Corso  v.5.0.99 svn rev. 10869
     Shape of augmentation charge: BESSEL
     Using radial grid of 1095 points,  4 beta functions with: 
                l(1) =   0
                l(2) =   0
                l(3) =   1
                l(4) =   1
     Q(r) pseudized with 0 coefficients 


     atomic species   valence    mass     pseudopotential
        C              4.00    12.01070      C( 1.00)
        N              5.00    14.00670      N( 1.00)
        H              1.00     1.00794      H( 1.00)
        O              6.00    15.99940      O( 1.00)

      2 Sym. Ops. (no inversion) found ( 1 have fractional translation)



   Cartesian axes

     site n.     atom                  positions (alat units)
         1           C   tau(   1) = (   0.3842273   0.6034272   0.0733159  )
         2           C   tau(   2) = (   0.2188913   0.2187486   1.0260536  )
         3           H   tau(   3) = (  -0.0715921   0.6487116   1.0844216  )
         4           H   tau(   4) = (   0.6747107   0.2640330   0.0149479  )
         5           H   tau(   5) = (   0.4848978   0.6561441   0.0897763  )
         6           H   tau(   6) = (   0.1182208   0.2714655   1.0095932  )
         7           C   tau(   7) = (   0.3249127   0.3851367   0.1413583  )
         8           C   tau(   8) = (   0.2782058   0.0004581   0.9580112  )
         9           C   tau(   9) = (   0.2623914   0.4799526   0.2318324  )
        10           C   tau(  10) = (   0.3407272   0.0952740   0.8675371  )
        11           C   tau(  11) = (   0.1775593   0.4376002   0.3417138  )
        12           C   tau(  12) = (   0.4255593   0.0529216   0.7576557  )
        13           C   tau(  13) = (   0.1595279   0.2922769   0.3623598  )
        14           C   tau(  14) = (   0.4435906   0.6769555   0.7370097  )
        15           C   tau(  15) = (   0.2188233   0.1985146   0.2663000  )
        16           C   tau(  16) = (   0.3842952   0.5831932   0.8330694  )
        17           H   tau(  17) = (   0.2022475   0.0866599   0.2824240  )
        18           H   tau(  18) = (   0.4008711   0.4713385   0.8169455  )
        19           C   tau(  19) = (   0.3028306   0.2418365   0.1535626  )
        20           C   tau(  20) = (   0.3002880   0.6265151   0.9458069  )
        21           H   tau(  21) = (   0.3501363   0.1665826   0.0821254  )
        22           H   tau(  22) = (   0.2529823   0.5512612   1.0172441  )
        23           C   tau(  23) = (   0.0126082   0.4886737   0.5160271  )
        24           C   tau(  24) = (   0.5905104   0.1039950   0.5833424  )
        25           H   tau(  25) = (  -0.0807409   0.4586144   0.4548563  )
        26           H   tau(  26) = (   0.6838594   0.0739358   0.6445132  )
        27           C   tau(  27) = (   0.0619702   0.3608508   0.5984745  )
        28           C   tau(  28) = (   0.5411484   0.7455294   0.5008950  )
        29           C   tau(  29) = (   0.0863696   0.2386281   0.4929433  )
        30           C   tau(  30) = (   0.5167489   0.6233067   0.6064262  )
        31           H   tau(  31) = (  -0.0176796   0.1967457   0.4650561  )
        32           H   tau(  32) = (   0.6207981   0.5814243   0.6343134  )
        33           C   tau(  33) = (  -0.0217526   0.6086660   0.6139038  )
        34           C   tau(  34) = (   0.6248712   0.2239874   0.4854657  )
        35           H   tau(  35) = (   0.0718968   0.6363758   0.6750981  )
        36           H   tau(  36) = (   0.5312218   0.2516972   0.4242714  )
        37           H   tau(  37) = (  -0.0577981   0.7002736   0.5550195  )
        38           H   tau(  38) = (   0.6609166   0.3155950   0.5443500  )
        39           C   tau(  39) = (  -0.1379123   0.4365594   0.7555765  )
        40           C   tau(  40) = (   0.7410309   0.0518808   0.3437930  )
        41           C   tau(  41) = (  -0.0487478   0.3292032   0.7082401  )
        42           C   tau(  42) = (   0.6518664   0.7138819   0.3911294  )
        43           C   tau(  43) = (  -0.0647449   0.1923479   0.7638831  )
        44           C   tau(  44) = (   0.6678635   0.5770265   0.3354864  )
        45           H   tau(  45) = (   0.0033778   0.1081331   0.7285234  )
        46           H   tau(  46) = (   0.5997407   0.4928118   0.3708461  )
        47           C   tau(  47) = (  -0.1687540   0.1694823   0.8609693  )
        48           C   tau(  48) = (   0.7718725   0.5541609   0.2384002  )
        49           C   tau(  49) = (  -0.2580894   0.2765290   0.9047009  )
        50           C   tau(  50) = (   0.8612079   0.6612076   0.1946686  )
        51           C   tau(  51) = (  -0.2442698   0.4116257   0.8555120  )
        52           C   tau(  52) = (   0.8473883   0.0269471   0.2438574  )
        53           H   tau(  53) = (  -0.3128051   0.4967837   0.8882143  )
        54           H   tau(  54) = (   0.9159237   0.1121051   0.2111551  )
        55           C   tau(  55) = (  -0.3231802   0.0782686   1.0141892  )
        56           C   tau(  56) = (   0.9262988   0.4629472   0.0851802  )
        57           H   tau(  57) = (   0.1017563   0.0590522   0.0248632  )
        58           H   tau(  58) = (   0.5013623   0.4437308   1.0745063  )
        59           H   tau(  59) = (   0.5857040   0.0158696   0.9816644  )
        60           H   tau(  60) = (   0.0174145   0.4005482   0.1177051  )
        61           O   tau(  61) = (   0.4075449   0.4561566   0.0472743  )
        62           O   tau(  62) = (   0.1955737   0.0714780   1.0520952  )
        63           O   tau(  63) = (   0.3016800   0.6151417   0.2001564  )
        64           O   tau(  64) = (   0.3014385   0.2304631   0.8992131  )
        65           O   tau(  65) = (   0.1189752   0.5392243   0.4227047  )
        66           O   tau(  66) = (   0.4841433   0.1545457   0.6766648  )
        67           O   tau(  67) = (   0.1925359   0.4001149   0.6620448  )
        68           O   tau(  68) = (   0.4105827   0.0154363   0.4373247  )
        69           H   tau(  69) = (   0.2253290   0.3206822   0.7178182  )
        70           H   tau(  70) = (   0.3777895   0.7053608   0.3815513  )
        71           O   tau(  71) = (   0.1633635   0.1300903   0.5613358  )
        72           O   tau(  72) = (   0.4397551   0.5147690   0.5380337  )
        73           H   tau(  73) = (   0.2528691   0.1107628   0.5141154  )
        74           H   tau(  74) = (   0.3502494   0.4954414   0.5852541  )
        75           O   tau(  75) = (  -0.1346117   0.5713316   0.7059799  )
        76           O   tau(  76) = (   0.7377303   0.1866530   0.3933896  )
        77           O   tau(  77) = (  -0.2053864   0.0454672   0.9257826  )
        78           O   tau(  78) = (   0.8085050   0.4301458   0.1735869  )
        79           O   tau(  79) = (  -0.3552961   0.2253213   0.9966502  )
        80           O   tau(  80) = (   0.9584146   0.6099999   0.1027193  )

     number of k points=     8
                       cart. coord. in units 2pi/alat
        k(    1) = (   0.0000000   0.0000000   0.0000000), wk =   0.1666667
        k(    2) = (   0.0000000   0.0000000  -0.4548061), wk =   0.1666667
        k(    3) = (   0.0000000   0.4332621   0.0000000), wk =   0.3333333
        k(    4) = (   0.0000000   0.4332621  -0.4548061), wk =   0.3333333
        k(    5) = (  -0.5000000   0.0000000  -0.1805041), wk =   0.1666667
        k(    6) = (  -0.5000000   0.0000000  -0.6353103), wk =   0.1666667
        k(    7) = (  -0.5000000   0.4332621  -0.1805041), wk =   0.3333333
        k(    8) = (  -0.5000000   0.4332621  -0.6353103), wk =   0.3333333

     Dense  grid:   671811 G-vectors     FFT dimensions: ( 120,  90, 135)

     Estimated max dynamical RAM per process >     574.96MB

     Estimated total allocated dynamical RAM >    4599.67MB

     Check: negative/imaginary core charge=   -0.000002    0.000000

     Initial potential from superposition of free atoms

     starting charge  267.99821, renormalised to  268.00000
     Starting wfc are  236 randomized atomic wfcs
     Checking if some PAW data can be deallocated... 

     total cpu time spent up to now is       33.9 secs

     per-process dynamical memory:   408.7 Mb

     Self-consistent Calculation

     iteration #  1     ecut=   100.00 Ry     beta=0.50
     Davidson diagonalization with overlap
     ethr =  1.00E-02,  avg # of iterations =  4.0

     total cpu time spent up to now is      125.3 secs

     total energy              =   -1362.22111349 Ry
     Harris-Foulkes estimate   =   -1365.67467809 Ry
     estimated scf accuracy    <       6.91828238 Ry

     iteration #  2     ecut=   100.00 Ry     beta=0.50
     Davidson diagonalization with overlap
     ethr =  2.58E-03,  avg # of iterations =  3.1

     total cpu time spent up to now is      174.5 secs

     total energy              =   -1362.58965162 Ry
     Harris-Foulkes estimate   =   -1362.98953069 Ry
     estimated scf accuracy    <       0.90872941 Ry

     iteration #  3     ecut=   100.00 Ry     beta=0.50
     Davidson diagonalization with overlap
     ethr =  3.39E-04,  avg # of iterations =  5.9

     total cpu time spent up to now is      280.1 secs

     total energy              =   -1363.10530299 Ry
     Harris-Foulkes estimate   =   -1363.28223597 Ry
     estimated scf accuracy    <       0.41034378 Ry

     iteration #  4     ecut=   100.00 Ry     beta=0.50
     Davidson diagonalization with overlap
     ethr =  1.53E-04,  avg # of iterations =  4.1

     total cpu time spent up to now is      328.3 secs

     total energy              =   -1363.08702758 Ry
     Harris-Foulkes estimate   =   -1363.14173412 Ry
     estimated scf accuracy    <       0.09462270 Ry

     iteration #  5     ecut=   100.00 Ry     beta=0.50
     Davidson diagonalization with overlap
     ethr =  3.53E-05,  avg # of iterations =  5.0

     total cpu time spent up to now is      430.7 secs

     total energy              =   -1363.15542043 Ry
     Harris-Foulkes estimate   =   -1363.19794101 Ry
     estimated scf accuracy    <       0.12955910 Ry

     iteration #  6     ecut=   100.00 Ry     beta=0.50
     Davidson diagonalization with overlap
     ethr =  3.53E-05,  avg # of iterations =  3.5

     total cpu time spent up to now is      476.9 secs

     total energy              =   -1363.13215453 Ry
     Harris-Foulkes estimate   =   -1363.16106915 Ry
     estimated scf accuracy    <       0.04841867 Ry

     iteration #  7     ecut=   100.00 Ry     beta=0.50
     Davidson diagonalization with overlap
     ethr =  1.81E-05,  avg # of iterations =  8.2

     total cpu time spent up to now is      577.0 secs

     total energy              =   -1363.15587851 Ry
     Harris-Foulkes estimate   =   -1363.16010063 Ry
     estimated scf accuracy    <       0.01197216 Ry

     iteration #  8     ecut=   100.00 Ry     beta=0.50
     Davidson diagonalization with overlap
     ethr =  4.47E-06,  avg # of iterations =  1.1

     total cpu time spent up to now is      621.1 secs

     total energy              =   -1363.15426215 Ry
     Harris-Foulkes estimate   =   -1363.15638810 Ry
     estimated scf accuracy    <       0.00417421 Ry

     iteration #  9     ecut=   100.00 Ry     beta=0.50
     Davidson diagonalization with overlap
     ethr =  1.56E-06,  avg # of iterations =  7.4

     total cpu time spent up to now is      715.6 secs

     total energy              =   -1363.15663166 Ry
     Harris-Foulkes estimate   =   -1363.15683525 Ry
     estimated scf accuracy    <       0.00093614 Ry

     iteration # 10     ecut=   100.00 Ry     beta=0.50
     Davidson diagonalization with overlap
     ethr =  3.49E-07,  avg # of iterations =  1.0

     total cpu time spent up to now is      759.5 secs

     total energy              =   -1363.15639420 Ry
     Harris-Foulkes estimate   =   -1363.15665403 Ry
     estimated scf accuracy    <       0.00052810 Ry

     iteration # 11     ecut=   100.00 Ry     beta=0.50
     Davidson diagonalization with overlap
     ethr =  1.97E-07,  avg # of iterations =  3.0

     total cpu time spent up to now is      827.6 secs

     total energy              =   -1363.15657356 Ry
     Harris-Foulkes estimate   =   -1363.15657445 Ry
     estimated scf accuracy    <       0.00002987 Ry

     iteration # 12     ecut=   100.00 Ry     beta=0.50
     Davidson diagonalization with overlap
     ethr =  1.11E-08,  avg # of iterations =  3.2

     total cpu time spent up to now is      882.0 secs

     total energy              =   -1363.15656445 Ry
     Harris-Foulkes estimate   =   -1363.15657857 Ry
     estimated scf accuracy    <       0.00003364 Ry

     iteration # 13     ecut=   100.00 Ry     beta=0.50
     Davidson diagonalization with overlap
     ethr =  1.11E-08,  avg # of iterations =  3.1

     total cpu time spent up to now is      929.1 secs

     total energy              =   -1363.15656274 Ry
     Harris-Foulkes estimate   =   -1363.15656707 Ry
     estimated scf accuracy    <       0.00000828 Ry

     iteration # 14     ecut=   100.00 Ry     beta=0.50
     Davidson diagonalization with overlap
     ethr =  3.09E-09,  avg # of iterations =  4.0

     total cpu time spent up to now is     1016.7 secs

     total energy              =   -1363.15656805 Ry
     Harris-Foulkes estimate   =   -1363.15656932 Ry
     estimated scf accuracy    <       0.00000303 Ry

     iteration # 15     ecut=   100.00 Ry     beta=0.50
     Davidson diagonalization with overlap
     ethr =  1.13E-09,  avg # of iterations =  1.0

     total cpu time spent up to now is     1060.7 secs

     total energy              =   -1363.15656753 Ry
     Harris-Foulkes estimate   =   -1363.15656817 Ry
     estimated scf accuracy    <       0.00000099 Ry

     iteration # 16     ecut=   100.00 Ry     beta=0.50
     Davidson diagonalization with overlap
     ethr =  3.68E-10,  avg # of iterations =  4.0

     total cpu time spent up to now is     1151.1 secs

     total energy              =   -1363.15656829 Ry
     Harris-Foulkes estimate   =   -1363.15656880 Ry
     estimated scf accuracy    <       0.00000125 Ry

     iteration # 17     ecut=   100.00 Ry     beta=0.50
     Davidson diagonalization with overlap
     ethr =  3.68E-10,  avg # of iterations =  1.0

     total cpu time spent up to now is     1195.1 secs

     total energy              =   -1363.15656807 Ry
     Harris-Foulkes estimate   =   -1363.15656833 Ry
     estimated scf accuracy    <       0.00000045 Ry

     iteration # 18     ecut=   100.00 Ry     beta=0.50
     Davidson diagonalization with overlap
     ethr =  1.67E-10,  avg # of iterations =  4.0

     total cpu time spent up to now is     1280.5 secs

     total energy              =   -1363.15656842 Ry
     Harris-Foulkes estimate   =   -1363.15656849 Ry
     estimated scf accuracy    <       0.00000028 Ry

     iteration # 19     ecut=   100.00 Ry     beta=0.50
     Davidson diagonalization with overlap
     ethr =  1.05E-10,  avg # of iterations =  1.0

     total cpu time spent up to now is     1324.5 secs

     total energy              =   -1363.15656836 Ry
     Harris-Foulkes estimate   =   -1363.15656842 Ry
     estimated scf accuracy    <       0.00000016 Ry

     iteration # 20     ecut=   100.00 Ry     beta=0.50
     Davidson diagonalization with overlap
     ethr =  6.07E-11,  avg # of iterations =  4.0

     total cpu time spent up to now is     1388.6 secs

     End of self-consistent calculation

          k = 0.0000 0.0000 0.0000 ( 83949 PWs)   bands (ev):

   -21.0816 -21.0660 -20.9432 -20.9275 -19.9165 -19.8988 -19.4160 -19.4118
   -18.7878 -18.7684 -18.6437 -18.6399 -18.5512 -18.4087 -17.8516 -17.6766
   -14.2117 -14.1817 -14.1153 -14.1136 -12.9251 -12.9085 -12.0684 -12.0625
   -11.8011 -11.7886 -11.5195 -11.4982 -11.1637 -11.1610 -10.3028 -10.2659
    -9.8419  -9.7356  -9.2462  -9.2395  -9.0245  -9.0209  -8.5500  -8.4277
    -8.1207  -8.0852  -7.9788  -7.9375  -7.6306  -7.6128  -7.1263  -7.0939
    -6.4476  -6.4302  -6.3143  -6.1756  -6.0062  -6.0041  -5.7100  -5.6472
    -5.5223  -5.4726  -5.4114  -5.3544  -5.2915  -5.2392  -5.1171  -5.1148
    -4.6842  -4.6684  -4.4676  -4.4656  -4.3660  -4.3647  -4.2358  -4.1193
    -4.0527  -3.9851  -3.8506  -3.7486  -3.6228  -3.5360  -3.4968  -3.4966
    -3.3153  -3.3026  -3.2699  -3.1518  -2.9177  -2.8364  -2.8258  -2.7369
    -2.6312  -2.5110  -2.3748  -2.3220  -2.2680  -2.2416  -2.1383  -2.0504
    -1.8887  -1.8722  -1.8192  -1.7991  -1.7662  -1.7028  -1.6850  -1.6525
    -1.5395  -1.5038  -1.4602  -1.3631  -1.3524  -1.2907  -1.0660  -0.9587
    -0.8879  -0.6425  -0.4398  -0.3893  -0.3714  -0.2175  -0.0785  -0.0473
     0.4052   0.4221   0.7148   0.7303   1.1732   1.3174   1.3975   1.5299
     1.8550   1.8638   2.2210   2.2368   2.6055   2.6240   5.9409   5.9769
     6.2263   6.2448   6.3227   6.3572   6.6260   6.7734   7.3079   7.4982
     7.6816   7.7372   7.7771   8.1684   8.2200   8.4275   8.5767   8.6114
     8.6640   8.9264   8.9610   9.0572   9.1726   9.2078   9.3895   9.4692

          k = 0.0000 0.0000-0.4548 ( 83966 PWs)   bands (ev):

   -21.0804 -21.0671 -20.9431 -20.9276 -19.9161 -19.8996 -19.4156 -19.4115
   -18.7906 -18.7660 -18.6438 -18.6397 -18.5512 -18.4089 -17.8516 -17.6766
   -14.2036 -14.1914 -14.1185 -14.1095 -12.9251 -12.9049 -12.0759 -12.0361
   -11.8425 -11.8100 -11.5074 -11.4769 -11.1521 -11.1470 -10.3540 -10.2232
    -9.8177  -9.7743  -9.3022  -9.1958  -9.0371  -9.0214  -8.4791  -8.4495
    -8.1175  -8.0836  -7.9952  -7.9268  -7.6741  -7.5978  -7.1149  -7.0949
    -6.4525  -6.4150  -6.2966  -6.2208  -6.0310  -5.9158  -5.6899  -5.6775
    -5.5794  -5.4999  -5.3674  -5.3565  -5.2739  -5.2244  -5.1688  -5.1005
    -4.6744  -4.6673  -4.4999  -4.4423  -4.4219  -4.3074  -4.2332  -4.1342
    -4.0637  -3.8851  -3.8064  -3.7876  -3.6922  -3.5485  -3.5134  -3.4807
    -3.3390  -3.2578  -3.2310  -3.2302  -2.9357  -2.8875  -2.8268  -2.7593
    -2.6087  -2.4746  -2.2982  -2.2703  -2.2341  -2.1633  -2.1526  -2.1366
    -1.9724  -1.8989  -1.8756  -1.7860  -1.7318  -1.6659  -1.6160  -1.5937
    -1.5868  -1.5611  -1.4196  -1.3926  -1.3343  -1.3277  -1.0902  -0.9642
    -0.8876  -0.6543  -0.4260  -0.3680  -0.3581  -0.2249  -0.0904  -0.0228
     0.3850   0.4230   0.6841   0.7481   1.1714   1.3160   1.4224   1.5099
     1.8586   1.8767   2.1813   2.2753   2.5987   2.6145   5.9298   5.9422
     6.2276   6.3416   6.3465   6.3587   6.6466   6.7272   7.4030   7.4627
     7.5676   7.7445   7.8619   8.0330   8.2517   8.3388   8.4091   8.5420
     8.8760   8.9334   9.0460   9.0659   9.2120   9.2770   9.3344   9.4077

          k = 0.0000 0.4333 0.0000 ( 83980 PWs)   bands (ev):

   -21.0773 -21.0695 -20.9391 -20.9312 -19.9112 -19.9024 -19.4154 -19.4133
   -18.7852 -18.7759 -18.6428 -18.6410 -18.5201 -18.4507 -17.8015 -17.7154
   -14.2106 -14.1964 -14.1217 -14.1215 -12.9219 -12.9134 -12.0536 -12.0494
   -11.8007 -11.7964 -11.4831 -11.4744 -11.1513 -11.1485 -10.2880 -10.2703
    -9.8167  -9.7642  -9.2302  -9.2285  -9.0343  -9.0312  -8.4879  -8.4261
    -8.1470  -8.1325  -7.9648  -7.9551  -7.6517  -7.6446  -7.1484  -7.1362
    -6.4439  -6.4411  -6.3060  -6.2372  -6.0155  -5.9998  -5.6991  -5.6463
    -5.5114  -5.4990  -5.4478  -5.3929  -5.2661  -5.2254  -5.1494  -5.1235
    -4.7194  -4.7036  -4.5083  -4.4936  -4.4195  -4.3779  -4.1952  -4.1479
    -4.0143  -3.9588  -3.7949  -3.7434  -3.6482  -3.6296  -3.4419  -3.4095
    -3.3148  -3.2989  -3.2453  -3.2094  -2.7974  -2.7945  -2.7720  -2.7104
    -2.6048  -2.5753  -2.3766  -2.3043  -2.2593  -2.2276  -2.1555  -2.0908
    -1.8881  -1.8397  -1.8254  -1.7829  -1.7403  -1.7340  -1.6367  -1.6085
    -1.5318  -1.4839  -1.4461  -1.4191  -1.2622  -1.2601  -1.0566  -0.9637
    -0.8297  -0.7137  -0.4128  -0.4088  -0.2792  -0.1848  -0.0751  -0.0449
     0.3369   0.3722   0.7431   0.7482   1.1548   1.2453   1.4138   1.4838
     1.8702   1.8748   2.2601   2.2731   2.6021   2.6248   5.9789   5.9900
     6.1932   6.2121   6.3210   6.3473   6.6409   6.7214   7.3343   7.4013
     7.6403   7.6445   7.8372   8.0916   8.2789   8.2964   8.5943   8.6094
     8.7370   8.7788   8.9664   8.9697   9.1185   9.1322   9.3947   9.4134

          k = 0.0000 0.4333-0.4548 ( 83986 PWs)   bands (ev):

   -21.0767 -21.0701 -20.9391 -20.9313 -19.9112 -19.9029 -19.4149 -19.4129
   -18.7867 -18.7747 -18.6429 -18.6408 -18.5202 -18.4508 -17.8015 -17.7154
   -14.2077 -14.2023 -14.1220 -14.1182 -12.9213 -12.9111 -12.0613 -12.0425
   -11.8239 -11.8056 -11.4739 -11.4569 -11.1384 -11.1352 -10.3282 -10.2629
    -9.7953  -9.7725  -9.2678  -9.2156  -9.0401  -9.0300  -8.4418  -8.4378
    -8.1462  -8.1168  -7.9918  -7.9498  -7.6622  -7.6319  -7.1386  -7.1258
    -6.4522  -6.4387  -6.2964  -6.2637  -6.0553  -5.9933  -5.6635  -5.6394
    -5.6096  -5.5123  -5.3741  -5.3620  -5.2598  -5.2056  -5.2027  -5.1150
    -4.7395  -4.6728  -4.5358  -4.5002  -4.3788  -4.3775  -4.1630  -4.1355
    -4.0074  -3.9255  -3.7952  -3.7878  -3.6767  -3.5667  -3.4772  -3.4642
    -3.3132  -3.2904  -3.2426  -3.2381  -2.8383  -2.8309  -2.7626  -2.7061
    -2.6056  -2.5436  -2.3192  -2.3119  -2.2255  -2.1910  -2.1514  -2.1131
    -1.9006  -1.8515  -1.8503  -1.7949  -1.7536  -1.7007  -1.6099  -1.6066
    -1.5333  -1.5243  -1.4316  -1.4132  -1.2745  -1.2339  -1.1048  -0.9722
    -0.7977  -0.6944  -0.4074  -0.3914  -0.2778  -0.2066  -0.0883  -0.0298
     0.3346   0.3503   0.7400   0.7589   1.1454   1.2354   1.4276   1.4767
     1.8753   1.8843   2.2468   2.2859   2.6063   2.6106   5.9496   5.9542
     6.2118   6.2541   6.3667   6.3691   6.6496   6.6915   7.3446   7.3548
     7.6678   7.8197   7.8866   7.9144   8.1177   8.1946   8.5269   8.5364
     8.7804   8.8928   9.0134   9.1147   9.1955   9.2085   9.3575   9.3956

          k =-0.5000 0.0000-0.1805 ( 83988 PWs)   bands (ev):

   -21.0801 -21.0669 -20.9437 -20.9277 -19.9138 -19.9013 -19.4166 -19.4114
   -18.7870 -18.7686 -18.6439 -18.6398 -18.5533 -18.4071 -17.8523 -17.6757
   -14.2018 -14.1879 -14.1218 -14.1111 -12.9507 -12.8843 -12.0888 -12.0397
   -11.7947 -11.7889 -11.5153 -11.5070 -11.2117 -11.1136 -10.3199 -10.2522
    -9.7962  -9.7775  -9.2669  -9.2334  -9.0323  -9.0063  -8.5021  -8.4743
    -8.1382  -8.0712  -7.9592  -7.9501  -7.6301  -7.6132  -7.1329  -7.0832
    -6.4724  -6.3856  -6.3037  -6.2120  -6.0252  -5.9942  -5.6426  -5.6078
    -5.5526  -5.5389  -5.4100  -5.3536  -5.2466  -5.2365  -5.1780  -5.1157
    -4.7242  -4.7024  -4.4861  -4.4643  -4.3275  -4.2708  -4.1724  -4.1512
    -4.0666  -3.9853  -3.8818  -3.7893  -3.6201  -3.5932  -3.5192  -3.3415
    -3.3395  -3.2984  -3.2818  -3.1772  -2.9999  -2.8372  -2.7389  -2.6823
    -2.6231  -2.5383  -2.3668  -2.3235  -2.3167  -2.1944  -2.1623  -2.0904
    -1.8853  -1.8686  -1.8362  -1.7979  -1.7632  -1.7371  -1.6383  -1.6119
    -1.5814  -1.5097  -1.4392  -1.4210  -1.2732  -1.2487  -1.2177  -0.8834
    -0.7895  -0.7307  -0.3606  -0.3493  -0.3277  -0.2746  -0.0986  -0.0578
     0.3635   0.4065   0.6922   0.7375   1.1845   1.3043   1.3907   1.5199
     1.8603   1.8711   2.2435   2.2596   2.5736   2.6107   5.9013   5.9304
     6.2595   6.2707   6.3118   6.3818   6.6712   6.7084   7.4282   7.5505
     7.5703   7.7345   7.8220   7.8893   8.2434   8.4156   8.5246   8.6489
     8.7533   8.9479   8.9488   8.9721   9.0924   9.3966   9.4119   9.4750

          k =-0.5000 0.0000-0.6353 ( 83952 PWs)   bands (ev):

   -21.0791 -21.0679 -20.9436 -20.9278 -19.9135 -19.9020 -19.4163 -19.4110
   -18.7906 -18.7654 -18.6438 -18.6398 -18.5533 -18.4072 -17.8523 -17.6757
   -14.1961 -14.1930 -14.1204 -14.1137 -12.9473 -12.8839 -12.0552 -12.0535
   -11.8288 -11.8271 -11.5022 -11.4809 -11.1709 -11.1265 -10.2965 -10.2880
    -9.8244  -9.7689  -9.2665  -9.2221  -9.0392  -9.0176  -8.5328  -8.4008
    -8.0983  -8.0929  -7.9817  -7.9599  -7.6547  -7.6061  -7.1204  -7.0859
    -6.4850  -6.3931  -6.2901  -6.2442  -5.9713  -5.9230  -5.6955  -5.6402
    -5.5721  -5.5000  -5.3665  -5.3390  -5.3275  -5.2841  -5.1473  -5.1354
    -4.6765  -4.6115  -4.5260  -4.5217  -4.3927  -4.2699  -4.1701  -4.1306
    -4.1018  -3.9236  -3.8325  -3.7968  -3.5950  -3.5880  -3.5318  -3.4083
    -3.3346  -3.3169  -3.2374  -3.2212  -3.0148  -2.8110  -2.7358  -2.6678
    -2.6313  -2.6233  -2.3033  -2.2584  -2.2479  -2.2095  -2.1805  -2.0743
    -1.9675  -1.9356  -1.8253  -1.7482  -1.7455  -1.7058  -1.6308  -1.6166
    -1.5725  -1.4876  -1.4772  -1.3962  -1.3115  -1.2690  -1.2341  -0.8935
    -0.7817  -0.7272  -0.3688  -0.3540  -0.3141  -0.2734  -0.0968  -0.0328
     0.3623   0.3849   0.6873   0.7457   1.1812   1.3201   1.4261   1.4808
     1.8398   1.8964   2.2091   2.2745   2.5714   2.6127   5.8824   5.9466
     6.2632   6.2813   6.3378   6.4104   6.6496   6.6746   7.3737   7.3957
     7.6903   7.6960   7.9438   8.0545   8.2184   8.4197   8.4685   8.5343
     8.7227   8.9322   8.9690   9.0942   9.2054   9.2386   9.2923   9.4666

          k =-0.5000 0.4333-0.1805 ( 83990 PWs)   bands (ev):

   -21.0764 -21.0698 -20.9396 -20.9315 -19.9098 -19.9036 -19.4157 -19.4131
   -18.7848 -18.7760 -18.6428 -18.6408 -18.5215 -18.4502 -17.8015 -17.7146
   -14.2056 -14.1991 -14.1251 -14.1201 -12.9352 -12.9021 -12.0626 -12.0381
   -11.8006 -11.7979 -11.4804 -11.4768 -11.1729 -11.1246 -10.3005 -10.2675
    -9.7919  -9.7783  -9.2418  -9.2215  -9.0372  -9.0237  -8.4574  -8.4550
    -8.1681  -8.1284  -7.9597  -7.9449  -7.6536  -7.6491  -7.1498  -7.1293
    -6.4584  -6.4218  -6.2973  -6.2598  -6.0246  -6.0040  -5.6151  -5.6106
    -5.5337  -5.5089  -5.4199  -5.4198  -5.3169  -5.2960  -5.1363  -5.1172
    -4.7357  -4.6756  -4.5203  -4.5006  -4.4394  -4.3810  -4.1385  -4.1351
    -4.0278  -3.9519  -3.7700  -3.7616  -3.6685  -3.5626  -3.4605  -3.3858
    -3.3502  -3.3056  -3.2370  -3.2218  -2.8623  -2.7792  -2.7571  -2.7376
    -2.5739  -2.5154  -2.3503  -2.3114  -2.2599  -2.2506  -2.1679  -2.0916
    -1.9170  -1.8979  -1.7870  -1.7527  -1.7362  -1.7277  -1.6190  -1.5895
    -1.5868  -1.5160  -1.4425  -1.4375  -1.2802  -1.2223  -1.1017  -0.9370
    -0.7696  -0.7313  -0.3649  -0.3433  -0.2869  -0.2308  -0.0902  -0.0730
     0.3760   0.4050   0.7018   0.7234   1.1606   1.2300   1.4165   1.4769
     1.8726   1.8795   2.2697   2.2713   2.5860   2.6062   5.9357   5.9535
     6.2379   6.2405   6.3130   6.3579   6.6656   6.6937   7.3759   7.4465
     7.5837   7.6756   7.8153   7.8752   8.1691   8.3435   8.4429   8.6363
     8.8204   8.8757   9.0184   9.1062   9.2568   9.2627   9.3686   9.4250

          k =-0.5000 0.4333-0.6353 ( 83938 PWs)   bands (ev):

   -21.0759 -21.0703 -20.9395 -20.9316 -19.9098 -19.9040 -19.4153 -19.4127
   -18.7866 -18.7744 -18.6428 -18.6409 -18.5215 -18.4503 -17.8015 -17.7146
   -14.2040 -14.2034 -14.1234 -14.1191 -12.9330 -12.9014 -12.0521 -12.0503
   -11.8148 -11.8135 -11.4728 -11.4605 -11.1486 -11.1240 -10.2997 -10.2943
    -9.7930  -9.7712  -9.2559  -9.2338  -9.0330  -9.0253  -8.4736  -8.4082
    -8.1353  -8.1315  -7.9810  -7.9648  -7.6600  -7.6330  -7.1357  -7.1199
    -6.4687  -6.4243  -6.2981  -6.2686  -6.0428  -6.0210  -5.6615  -5.6521
    -5.4965  -5.4907  -5.4023  -5.3670  -5.3091  -5.2901  -5.1460  -5.1451
    -4.6907  -4.6869  -4.5346  -4.5249  -4.4269  -4.3603  -4.1314  -4.1138
    -4.0140  -3.9208  -3.7934  -3.7917  -3.6531  -3.6130  -3.4889  -3.4136
    -3.2989  -3.2882  -3.2545  -3.2434  -2.8793  -2.7725  -2.7590  -2.7366
    -2.5410  -2.5404  -2.3235  -2.3140  -2.2410  -2.2076  -2.1778  -2.1254
    -1.9191  -1.8572  -1.8110  -1.7881  -1.7409  -1.7221  -1.6365  -1.6144
    -1.5301  -1.4856  -1.4662  -1.4318  -1.2776  -1.2392  -1.1355  -0.9291
    -0.7523  -0.6997  -0.3616  -0.3373  -0.3139  -0.2374  -0.0842  -0.0646
     0.3740   0.3861   0.7007   0.7369   1.1527   1.2244   1.4368   1.4591
     1.8681   1.8940   2.2487   2.2894   2.5825   2.6019   5.9159   5.9395
     6.2363   6.2584   6.3316   6.3810   6.6614   6.6657   7.3366   7.3889
     7.6235   7.6987   7.8980   8.0326   8.2937   8.3453   8.4568   8.5110
     8.7028   8.8290   8.9406   9.0146   9.1502   9.2333   9.3667   9.3895

     highest occupied, lowest unoccupied level (ev):     2.6248    5.8824

!    total energy              =   -1363.15656841 Ry
     Harris-Foulkes estimate   =   -1363.15656841 Ry
     estimated scf accuracy    <          1.0E-09 Ry

     total all-electron energy =     -5184.214376 Ry

     The total energy is the sum of the following terms:

     one-electron contribution =    -737.87014771 Ry
     hartree contribution      =     480.91490232 Ry
     xc contribution           =    -287.85016319 Ry
     ewald contribution        =    -426.30412182 Ry
     Dispersion Correction     =      -0.39189571 Ry
     one-center paw contrib.   =    -391.65514229 Ry

     convergence has been achieved in  20 iterations

     Forces acting on atoms (cartesian axes, Ry/au):

     atom    1 type  1   force =    -0.00030113   -0.00175050    0.00028040
     atom    2 type  1   force =     0.00030113   -0.00175050   -0.00028040
     atom    3 type  3   force =    -0.00029458    0.00023170   -0.00047382
     atom    4 type  3   force =     0.00029458    0.00023170    0.00047382
     atom    5 type  3   force =     0.00041521   -0.00042471    0.00044641
     atom    6 type  3   force =    -0.00041521   -0.00042471   -0.00044641
     atom    7 type  1   force =    -0.00415273   -0.00160816    0.00414050
     atom    8 type  1   force =     0.00415273   -0.00160816   -0.00414050
     atom    9 type  1   force =     0.00124221   -0.00029790   -0.00095984
     atom   10 type  1   force =    -0.00124221   -0.00029790    0.00095984
     atom   11 type  1   force =     0.00083980    0.00077384   -0.00093631
     atom   12 type  1   force =    -0.00083980    0.00077384    0.00093631
     atom   13 type  1   force =     0.00107377   -0.00032073    0.00098591
     atom   14 type  1   force =    -0.00107377   -0.00032073   -0.00098591
     atom   15 type  1   force =    -0.00018080   -0.00043890   -0.00214311
     atom   16 type  1   force =     0.00018080   -0.00043890    0.00214311
     atom   17 type  3   force =     0.00029757    0.00193026   -0.00068487
     atom   18 type  3   force =    -0.00029757    0.00193026    0.00068487
     atom   19 type  1   force =    -0.00050566    0.00294939    0.00094033
     atom   20 type  1   force =     0.00050566    0.00294939   -0.00094033
     atom   21 type  3   force =    -0.00026595    0.00099119    0.00003797
     atom   22 type  3   force =     0.00026595    0.00099119   -0.00003797
     atom   23 type  1   force =     0.00064745   -0.00130065   -0.00077523
     atom   24 type  1   force =    -0.00064745   -0.00130065    0.00077523
     atom   25 type  3   force =    -0.00011124    0.00027324   -0.00093970
     atom   26 type  3   force =     0.00011124    0.00027324    0.00093970
     atom   27 type  1   force =     0.00033530   -0.00096666   -0.00049829
     atom   28 type  1   force =    -0.00033530   -0.00096666    0.00049829
     atom   29 type  1   force =     0.00002242    0.00212014    0.00055901
     atom   30 type  1   force =    -0.00002242    0.00212014   -0.00055901
     atom   31 type  3   force =    -0.00008538   -0.00047996    0.00027414
     atom   32 type  3   force =     0.00008538   -0.00047996   -0.00027414
     atom   33 type  1   force =    -0.00103050   -0.00054455    0.00296131
     atom   34 type  1   force =     0.00103050   -0.00054455   -0.00296131
     atom   35 type  3   force =     0.00014466    0.00047321    0.00039650
     atom   36 type  3   force =    -0.00014466    0.00047321   -0.00039650
     atom   37 type  3   force =     0.00078247    0.00067906   -0.00079421
     atom   38 type  3   force =    -0.00078247    0.00067906    0.00079421
     atom   39 type  1   force =     0.00055635   -0.00066759   -0.00018807
     atom   40 type  1   force =    -0.00055635   -0.00066759    0.00018807
     atom   41 type  1   force =    -0.00142232   -0.00183581    0.00138697
     atom   42 type  1   force =     0.00142232   -0.00183581   -0.00138697
     atom   43 type  1   force =     0.00135226    0.00037848   -0.00081315
     atom   44 type  1   force =    -0.00135226    0.00037848    0.00081315
     atom   45 type  3   force =    -0.00007611    0.00070576    0.00050273
     atom   46 type  3   force =     0.00007611    0.00070576   -0.00050273
     atom   47 type  1   force =    -0.00054678   -0.00069699    0.00127789
     atom   48 type  1   force =     0.00054678   -0.00069699   -0.00127789
     atom   49 type  1   force =     0.00210351    0.00074819   -0.00271289
     atom   50 type  1   force =    -0.00210351    0.00074819    0.00271289
     atom   51 type  1   force =    -0.00285612    0.00041169    0.00001264
     atom   52 type  1   force =     0.00285612    0.00041169   -0.00001264
     atom   53 type  3   force =     0.00008446   -0.00057707   -0.00125295
     atom   54 type  3   force =    -0.00008446   -0.00057707    0.00125295
     atom   55 type  1   force =     0.00124212    0.00117000    0.00039445
     atom   56 type  1   force =    -0.00124212    0.00117000   -0.00039445
     atom   57 type  3   force =     0.00008499    0.00012300   -0.00000115
     atom   58 type  3   force =    -0.00008499    0.00012300    0.00000115
     atom   59 type  3   force =    -0.00016686   -0.00045208    0.00079402
     atom   60 type  3   force =     0.00016686   -0.00045208   -0.00079402
     atom   61 type  4   force =     0.00179365    0.00197707   -0.00195692
     atom   62 type  4   force =    -0.00179365    0.00197707    0.00195692
     atom   63 type  4   force =     0.00133334   -0.00126654    0.00015505
     atom   64 type  4   force =    -0.00133334   -0.00126654   -0.00015505
     atom   65 type  4   force =    -0.00212556   -0.00109094    0.00162318
     atom   66 type  4   force =     0.00212556   -0.00109094   -0.00162318
     atom   67 type  4   force =     0.00060166    0.00023118   -0.00012490
     atom   68 type  4   force =    -0.00060166    0.00023118    0.00012490
     atom   69 type  3   force =    -0.00023459   -0.00067040   -0.00033354
     atom   70 type  3   force =     0.00023459   -0.00067040    0.00033354
     atom   71 type  4   force =    -0.00199731   -0.00123086   -0.00128635
     atom   72 type  4   force =     0.00199731   -0.00123086    0.00128635
     atom   73 type  3   force =     0.00066644    0.00011778    0.00013105
     atom   74 type  3   force =    -0.00066644    0.00011778   -0.00013105
     atom   75 type  4   force =    -0.00011658   -0.00122777   -0.00209495
     atom   76 type  4   force =     0.00011658   -0.00122777    0.00209495
     atom   77 type  4   force =    -0.00029853    0.00163392    0.00130785
     atom   78 type  4   force =     0.00029853    0.00163392   -0.00130785
     atom   79 type  4   force =     0.00060736   -0.00007034    0.00042843
     atom   80 type  4   force =    -0.00060736   -0.00007034   -0.00042843

     Total force =     0.018611     Total SCF correction =     0.000073


     Computing stress (Cartesian axis) and pressure

          total   stress  (Ry/bohr**3)                   (kbar)     P=   -5.94
  -0.00003578   0.00000000  -0.00000848         -5.26      0.00     -1.25
   0.00000000  -0.00004980   0.00000000          0.00     -7.33      0.00
  -0.00000848   0.00000000  -0.00003556         -1.25      0.00     -5.23


     Writing output data file scf.save
 
     init_run     :     32.13s CPU     33.28s WALL (       1 calls)
     electrons    :   1301.31s CPU   1354.94s WALL (       1 calls)
     forces       :     16.30s CPU     16.44s WALL (       1 calls)
     stress       :     59.09s CPU     59.35s WALL (       1 calls)

     Called by init_run:
     wfcinit      :     24.30s CPU     25.30s WALL (       1 calls)
     potinit      :      2.76s CPU      2.82s WALL (       1 calls)

     Called by electrons:
     c_bands      :   1172.42s CPU   1217.40s WALL (      20 calls)
     sum_band     :    116.87s CPU    124.14s WALL (      20 calls)
     v_of_rho     :      1.93s CPU      2.13s WALL (      21 calls)
     newd         :      4.31s CPU      5.33s WALL (      21 calls)
     PAW_pot      :      5.17s CPU      5.18s WALL (      21 calls)
     mix_rho      :      0.43s CPU      0.48s WALL (      20 calls)

     Called by c_bands:
     init_us_2    :      6.40s CPU      6.43s WALL (     344 calls)
     cegterg      :   1146.45s CPU   1191.37s WALL (     160 calls)

     Called by sum_band:
     sum_band:bec :      0.08s CPU      0.08s WALL (     160 calls)
     addusdens    :      4.44s CPU      5.45s WALL (      20 calls)

     Called by *egterg:
     h_psi        :    624.26s CPU    659.00s WALL (     742 calls)
     s_psi        :    130.08s CPU    130.11s WALL (     742 calls)
     g_psi        :      3.25s CPU      3.25s WALL (     574 calls)
     cdiaghg      :     70.17s CPU     70.19s WALL (     734 calls)

     Called by h_psi:
     h_psi:pot    :    619.96s CPU    654.63s WALL (     742 calls)
     h_psi:calbec :    128.63s CPU    128.94s WALL (     742 calls)
     vloc_psi     :    360.98s CPU    395.32s WALL (     742 calls)
     add_vuspsi   :    130.35s CPU    130.37s WALL (     742 calls)

     General routines
     calbec       :    183.24s CPU    183.66s WALL (     942 calls)
     fft          :      1.16s CPU      1.50s WALL (     297 calls)
     fftw         :    389.03s CPU    426.65s WALL (  174894 calls)
 
     Parallel routines
     fft_scatter  :     85.15s CPU    112.01s WALL (  175191 calls)
 
     PWSCF        : 23m36.56s CPU    25m 8.96s WALL

 
   This run was terminated on:   6: 6:21   4Nov2017            

=------------------------------------------------------------------------------=
   JOB DONE.
=------------------------------------------------------------------------------=
