
     Program PWSCF v.6.1 (svn rev. 13369) starts on 20Dec2017 at 18:30: 7 

     This program is part of the open-source Quantum ESPRESSO suite
     for quantum simulation of materials; please cite
         "P. Giannozzi et al., J. Phys.:Condens. Matter 21 395502 (2009);
          URL http://www.quantum-espresso.org", 
     in publications or presentations arising from this work. More details at
     http://www.quantum-espresso.org/quote

     Parallel version (MPI), running on     8 processors
     R & G space division:  proc/nbgrp/npool/nimage =       8
     Waiting for input...
     Reading input from standard input

     Current dimensions of program PWSCF are:
     Max number of different atomic species (ntypx) = 10
     Max number of k-points (npk) =  40000
     Max angular momentum in pseudopotentials (lmaxx) =  3
               file C.pbe-n-kjpaw_psl.0.1.UPF: wavefunction(s)  2P renormalized
               file N.pbe-n-kjpaw_psl.0.1.UPF: wavefunction(s)  2P renormalized
               file H.pbe-kjpaw_psl.0.1.UPF: wavefunction(s)  1S renormalized
               file O.pbe-n-kjpaw_psl.0.1.UPF: wavefunction(s)  2P renormalized

     -------------------------------------
     Parameters for Dispersion Correction:
     -------------------------------------
       atom      VdW radius       C_6     

        C          2.744         60.710
        N          2.640         42.670
        H          1.892          4.857
        O          2.536         24.284

     Subspace diagonalization in iterative solution of the eigenvalue problem:
     a serial algorithm will be used

 
     Parallelization info
     --------------------
     sticks:   dense  smooth     PW     G-vecs:    dense   smooth      PW
     Min        1094    1094    288                81001    81001   11003
     Max        1095    1095    289                81004    81004   11005
     Sum        8757    8757   2311               648021   648021   88035
 


     bravais-lattice index     =            0
     lattice parameter (alat)  =      15.6564  a.u.
     unit-cell volume          =    4797.5364 (a.u.)^3
     number of atoms/cell      =           80
     number of atomic types    =            4
     number of electrons       =       256.00
     number of Kohn-Sham states=          153
     kinetic-energy cutoff     =     100.0000  Ry
     charge density cutoff     =     400.0000  Ry
     convergence threshold     =      1.0E-08
     mixing beta               =       0.5000
     number of iterations used =            8  plain     mixing
     Exchange-correlation      =  SLA  PW   PBX  PBC ( 1  4  3  4 0 0)

     celldm(1)=  15.656381  celldm(2)=   0.000000  celldm(3)=   0.000000
     celldm(4)=   0.000000  celldm(5)=   0.000000  celldm(6)=   0.000000

     crystal axes: (cart. coord. in units of alat)
               a(1) = (   1.000000   0.000000   0.000000 )  
               a(2) = (   0.000000   1.123235   0.000000 )  
               a(3) = (  -0.101482   0.000000   1.112945 )  

     reciprocal axes: (cart. coord. in units 2 pi/alat)
               b(1) = (  1.000000  0.000000  0.091183 )  
               b(2) = (  0.000000  0.890286  0.000000 )  
               b(3) = (  0.000000  0.000000  0.898517 )  


     PseudoPot. # 1 for  C read from file:
     /scratch/ahofstet/pseudo/C.pbe-n-kjpaw_psl.0.1.UPF
     MD5 check sum: 430fe95172b1e11ef3f8ed03bac87931
     Pseudo is Projector augmented-wave + core cor, Zval =  4.0
     Generated using "atomic" code by A. Dal Corso  v.5.0.99 svn rev. 10869
     Shape of augmentation charge: BESSEL
     Using radial grid of 1073 points,  4 beta functions with: 
                l(1) =   0
                l(2) =   0
                l(3) =   1
                l(4) =   1
     Q(r) pseudized with 0 coefficients 


     PseudoPot. # 2 for  N read from file:
     /scratch/ahofstet/pseudo/N.pbe-n-kjpaw_psl.0.1.UPF
     MD5 check sum: f73187c8b701007e77325f868c9291d7
     Pseudo is Projector augmented-wave + core cor, Zval =  5.0
     Generated using "atomic" code by A. Dal Corso  v.5.0.99 svn rev. 10869
     Shape of augmentation charge: PSQ
     Using radial grid of 1085 points,  4 beta functions with: 
                l(1) =   0
                l(2) =   0
                l(3) =   1
                l(4) =   1
     Q(r) pseudized with 0 coefficients 


     PseudoPot. # 3 for  H read from file:
     /scratch/ahofstet/pseudo/H.pbe-kjpaw_psl.0.1.UPF
     MD5 check sum: 94e484f906d9e9773b2f6e52662335b2
     Pseudo is Projector augmented-wave, Zval =  1.0
     Generated using "atomic" code by A. Dal Corso  v.5.0.99 svn rev. 10869
     Shape of augmentation charge: PSQ
     Using radial grid of  929 points,  2 beta functions with: 
                l(1) =   0
                l(2) =   0
     Q(r) pseudized with 0 coefficients 


     PseudoPot. # 4 for  O read from file:
     /scratch/ahofstet/pseudo/O.pbe-n-kjpaw_psl.0.1.UPF
     MD5 check sum: 3f94a2996a3169367d6eb21d9b593f20
     Pseudo is Projector augmented-wave + core cor, Zval =  6.0
     Generated using "atomic" code by A. Dal Corso  v.5.0.99 svn rev. 10869
     Shape of augmentation charge: BESSEL
     Using radial grid of 1095 points,  4 beta functions with: 
                l(1) =   0
                l(2) =   0
                l(3) =   1
                l(4) =   1
     Q(r) pseudized with 0 coefficients 


     atomic species   valence    mass     pseudopotential
        C              4.00    12.01070      C( 1.00)
        N              5.00    14.00670      N( 1.00)
        H              1.00     1.00794      H( 1.00)
        O              6.00    15.99940      O( 1.00)

      4 Sym. Ops., with inversion, found ( 2 have fractional translation)



   Cartesian axes

     site n.     atom                  positions (alat units)
         1           O   tau(   1) = (   0.6447639   0.7838884   0.5093160  )
         2           O   tau(   2) = (   0.0940231   0.9009637   1.0657884  )
         3           O   tau(   3) = (   0.2537543   0.3393464   0.6036287  )
         4           O   tau(   4) = (   0.8044952   0.2222710   0.0471563  )
         5           O   tau(   5) = (   0.3481065   0.7277307   0.8078700  )
         6           O   tau(   6) = (   0.8988473   0.9571215   0.2513977  )
         7           O   tau(   7) = (   0.5504118   0.3955041   0.3050747  )
         8           O   tau(   8) = (  -0.0003291   0.1661133   0.8615471  )
         9           O   tau(   9) = (   0.2856248   0.9733787   0.7310913  )
        10           O   tau(  10) = (   0.8363657   0.7114734   0.1746189  )
        11           O   tau(  11) = (   0.6128934   0.1498560   0.3818534  )
        12           O   tau(  12) = (   0.0621525   0.4117614   0.9383258  )
        13           O   tau(  13) = (   0.0991221   0.7734440   0.7288583  )
        14           O   tau(  14) = (   0.6498630   0.9114082   0.1723860  )
        15           O   tau(  15) = (   0.7993962   0.3497908   0.3840864  )
        16           O   tau(  16) = (   0.2486553   0.2118266   0.9405587  )
        17           O   tau(  17) = (   0.7773198   0.9176535   0.9749508  )
        18           O   tau(  18) = (   0.3280606   0.7671986   0.4184784  )
        19           O   tau(  19) = (   0.1211985   0.2055812   0.1379940  )
        20           O   tau(  20) = (   0.5704576   0.3560361   0.6944663  )
        21           H   tau(  21) = (   0.8897517   0.9335385   1.0118306  )
        22           H   tau(  22) = (   0.4404926   0.7513137   0.4553582  )
        23           H   tau(  23) = (   0.0087665   0.1896963   0.1011142  )
        24           H   tau(  24) = (   0.4580257   0.3719211   0.6575865  )
        25           N   tau(  25) = (   0.2575648   0.8318245   0.7577945  )
        26           N   tau(  26) = (   0.8083057   0.8530277   0.2013221  )
        27           N   tau(  27) = (   0.6409535   0.2914103   0.3551502  )
        28           N   tau(  28) = (   0.0902126   0.2702071   0.9116226  )
        29           C   tau(  29) = (   0.8195232   0.8224996   0.6981688  )
        30           C   tau(  30) = (   0.3702641   0.8623526   0.1416964  )
        31           C   tau(  31) = (   0.0789950   0.3007352   0.4147759  )
        32           C   tau(  32) = (   0.5282541   0.2608822   0.9712483  )
        33           C   tau(  33) = (   0.7773156   0.6879410   0.5766143  )
        34           C   tau(  34) = (   0.3280565   0.9969112   0.0201419  )
        35           C   tau(  35) = (   0.1212026   0.4352938   0.5363305  )
        36           C   tau(  36) = (   0.5704617   0.1263236   1.0928028  )
        37           H   tau(  37) = (   0.8694289   0.6643159   0.4837898  )
        38           H   tau(  38) = (   0.3186880   1.0205362   1.0402622  )
        39           H   tau(  39) = (   0.0290893   0.4589188   0.6291549  )
        40           H   tau(  40) = (   0.5798302   0.1026986   0.0726826  )
        41           H   tau(  41) = (   0.7336553   0.5738050   0.6281758  )
        42           H   tau(  42) = (   0.2843962   1.1110471   0.0717035  )
        43           H   tau(  43) = (   0.1648629   0.5494297   0.4847689  )
        44           H   tau(  44) = (   0.6141220   0.0121876   1.0412413  )
        45           C   tau(  45) = (   0.6862842   0.9210303   0.6128852  )
        46           C   tau(  46) = (   0.2370251   0.7638218   0.0564129  )
        47           C   tau(  47) = (   0.2122341   0.2022045   0.5000595  )
        48           C   tau(  48) = (   0.6614932   0.3594129   1.0565319  )
        49           H   tau(  49) = (   0.5850202   0.9566081   0.6910962  )
        50           H   tau(  50) = (   0.1357610   0.7282440   0.1346239  )
        51           H   tau(  51) = (   0.3134981   0.1666266   0.4218485  )
        52           H   tau(  52) = (   0.7627572   0.3949907   0.9783209  )
        53           H   tau(  53) = (   0.7265310   1.0246151   0.5398536  )
        54           H   tau(  54) = (   0.1757901   0.6602371   1.0963260  )
        55           H   tau(  55) = (   0.1719872   0.0986197   0.5730911  )
        56           H   tau(  56) = (   0.7227281   0.4629977   0.0166187  )
        57           C   tau(  57) = (   0.7768782   0.7797244   0.8726537  )
        58           C   tau(  58) = (   0.3276191   0.9051278   0.3161813  )
        59           C   tau(  59) = (   0.1216400   0.3435104   0.2402910  )
        60           C   tau(  60) = (   0.5708991   0.2181070   0.7967634  )
        61           H   tau(  61) = (   0.6540318   0.7290877   0.8732398  )
        62           H   tau(  62) = (   0.2047726   0.9557644   0.3167674  )
        63           H   tau(  63) = (   0.2444865   0.3941471   0.2397050  )
        64           H   tau(  64) = (   0.6937456   0.1674703   0.7961773  )
        65           H   tau(  65) = (   0.8605485   0.6862340   0.9173217  )
        66           H   tau(  66) = (   0.4112894   0.9986181   0.3608493  )
        67           H   tau(  67) = (   0.0379697   0.4370008   0.1956231  )
        68           H   tau(  68) = (   0.4872288   0.1246166   0.7520954  )
        69           C   tau(  69) = (  -0.0144595   0.8974529   0.6814926  )
        70           C   tau(  70) = (   0.5362814   0.7873993   0.1250203  )
        71           C   tau(  71) = (   0.9129777   0.2257819   0.4314521  )
        72           C   tau(  72) = (   0.3622368   0.3358355   0.9879245  )
        73           H   tau(  73) = (   0.0101863   0.9331240   0.5559314  )
        74           H   tau(  74) = (   0.5609271   0.7517281  -0.0005410  )
        75           H   tau(  75) = (   0.8883320   0.1901107   0.5570133  )
        76           H   tau(  76) = (   0.3375911   0.3715066   1.1134857  )
        77           H   tau(  77) = (  -0.0016427   1.0021947   0.7618979  )
        78           H   tau(  78) = (   0.5490982   0.6826575   0.2054256  )
        79           H   tau(  79) = (   0.9001610   0.1210401   0.3510468  )
        80           H   tau(  80) = (   0.3494201   0.4405773   0.9075192  )

     number of k points=     8
                       cart. coord. in units 2pi/alat
        k(    1) = (   0.0000000   0.0000000   0.0000000), wk =   0.1666667
        k(    2) = (   0.0000000   0.0000000  -0.4492586), wk =   0.1666667
        k(    3) = (   0.0000000  -0.4451429   0.0000000), wk =   0.1666667
        k(    4) = (   0.0000000  -0.4451429  -0.4492586), wk =   0.1666667
        k(    5) = (   0.3333333   0.0000000   0.0303944), wk =   0.3333333
        k(    6) = (   0.3333333   0.0000000  -0.4188642), wk =   0.3333333
        k(    7) = (   0.3333333  -0.4451429   0.0303944), wk =   0.3333333
        k(    8) = (   0.3333333  -0.4451429  -0.4188642), wk =   0.3333333

     Dense  grid:   648021 G-vectors     FFT dimensions: ( 100, 120, 120)

     Estimated max dynamical RAM per process >     528.33MB

     Estimated total allocated dynamical RAM >    4226.61MB

     Check: negative/imaginary core charge=   -0.000003    0.000000

     Initial potential from superposition of free atoms

     starting charge  255.99877, renormalised to  256.00000
     Starting wfc are  212 randomized atomic wfcs
     Checking if some PAW data can be deallocated... 

     total cpu time spent up to now is       27.9 secs

     per-process dynamical memory:   400.1 Mb

     Self-consistent Calculation

     iteration #  1     ecut=   100.00 Ry     beta=0.50
     Davidson diagonalization with overlap
     ethr =  1.00E-02,  avg # of iterations =  3.2

     total cpu time spent up to now is       92.6 secs

     total energy              =   -1354.81405180 Ry
     Harris-Foulkes estimate   =   -1358.73902659 Ry
     estimated scf accuracy    <       7.49290034 Ry

     iteration #  2     ecut=   100.00 Ry     beta=0.50
     Davidson diagonalization with overlap
     ethr =  2.93E-03,  avg # of iterations =  4.4

     total cpu time spent up to now is      138.2 secs

     total energy              =   -1355.88205414 Ry
     Harris-Foulkes estimate   =   -1356.64814064 Ry
     estimated scf accuracy    <       1.65101013 Ry

     iteration #  3     ecut=   100.00 Ry     beta=0.50
     Davidson diagonalization with overlap
     ethr =  6.45E-04,  avg # of iterations =  7.4

     total cpu time spent up to now is      198.7 secs

     total energy              =   -1356.29068433 Ry
     Harris-Foulkes estimate   =   -1356.43679884 Ry
     estimated scf accuracy    <       0.36893937 Ry

     iteration #  4     ecut=   100.00 Ry     beta=0.50
     Davidson diagonalization with overlap
     ethr =  1.44E-04,  avg # of iterations =  3.1

     total cpu time spent up to now is      237.5 secs

     total energy              =   -1356.32245275 Ry
     Harris-Foulkes estimate   =   -1356.34669131 Ry
     estimated scf accuracy    <       0.05936626 Ry

     iteration #  5     ecut=   100.00 Ry     beta=0.50
     Davidson diagonalization with overlap
     ethr =  2.32E-05,  avg # of iterations =  8.2

     total cpu time spent up to now is      306.5 secs

     total energy              =   -1356.33985370 Ry
     Harris-Foulkes estimate   =   -1356.35216887 Ry
     estimated scf accuracy    <       0.03238088 Ry

     iteration #  6     ecut=   100.00 Ry     beta=0.50
     Davidson diagonalization with overlap
     ethr =  1.26E-05,  avg # of iterations =  2.0

     total cpu time spent up to now is      342.5 secs

     total energy              =   -1356.34207033 Ry
     Harris-Foulkes estimate   =   -1356.34435417 Ry
     estimated scf accuracy    <       0.00520379 Ry

     iteration #  7     ecut=   100.00 Ry     beta=0.50
     Davidson diagonalization with overlap
     ethr =  2.03E-06,  avg # of iterations =  6.8

     total cpu time spent up to now is      410.0 secs

     total energy              =   -1356.34420635 Ry
     Harris-Foulkes estimate   =   -1356.34448396 Ry
     estimated scf accuracy    <       0.00094178 Ry

     iteration #  8     ecut=   100.00 Ry     beta=0.50
     Davidson diagonalization with overlap
     ethr =  3.68E-07,  avg # of iterations =  2.0

     total cpu time spent up to now is      447.1 secs

     total energy              =   -1356.34422306 Ry
     Harris-Foulkes estimate   =   -1356.34435128 Ry
     estimated scf accuracy    <       0.00028875 Ry

     iteration #  9     ecut=   100.00 Ry     beta=0.50
     Davidson diagonalization with overlap
     ethr =  1.13E-07,  avg # of iterations =  3.0

     total cpu time spent up to now is      497.6 secs

     total energy              =   -1356.34430452 Ry
     Harris-Foulkes estimate   =   -1356.34432445 Ry
     estimated scf accuracy    <       0.00006329 Ry

     iteration # 10     ecut=   100.00 Ry     beta=0.50
     Davidson diagonalization with overlap
     ethr =  2.47E-08,  avg # of iterations =  2.0

     total cpu time spent up to now is      533.8 secs

     total energy              =   -1356.34430862 Ry
     Harris-Foulkes estimate   =   -1356.34431255 Ry
     estimated scf accuracy    <       0.00001004 Ry

     iteration # 11     ecut=   100.00 Ry     beta=0.50
     Davidson diagonalization with overlap
     ethr =  3.92E-09,  avg # of iterations =  3.9

     total cpu time spent up to now is      590.9 secs

     total energy              =   -1356.34431308 Ry
     Harris-Foulkes estimate   =   -1356.34431383 Ry
     estimated scf accuracy    <       0.00000233 Ry

     iteration # 12     ecut=   100.00 Ry     beta=0.50
     Davidson diagonalization with overlap
     ethr =  9.09E-10,  avg # of iterations =  2.0

     total cpu time spent up to now is      626.4 secs

     total energy              =   -1356.34431300 Ry
     Harris-Foulkes estimate   =   -1356.34431323 Ry
     estimated scf accuracy    <       0.00000051 Ry

     iteration # 13     ecut=   100.00 Ry     beta=0.50
     Davidson diagonalization with overlap
     ethr =  2.00E-10,  avg # of iterations =  4.0

     total cpu time spent up to now is      691.1 secs

     total energy              =   -1356.34431339 Ry
     Harris-Foulkes estimate   =   -1356.34431351 Ry
     estimated scf accuracy    <       0.00000049 Ry

     iteration # 14     ecut=   100.00 Ry     beta=0.50
     Davidson diagonalization with overlap
     ethr =  1.92E-10,  avg # of iterations =  1.0

     total cpu time spent up to now is      724.7 secs

     total energy              =   -1356.34431324 Ry
     Harris-Foulkes estimate   =   -1356.34431340 Ry
     estimated scf accuracy    <       0.00000028 Ry

     iteration # 15     ecut=   100.00 Ry     beta=0.50
     Davidson diagonalization with overlap
     ethr =  1.10E-10,  avg # of iterations =  4.0

     total cpu time spent up to now is      780.0 secs

     total energy              =   -1356.34431337 Ry
     Harris-Foulkes estimate   =   -1356.34431339 Ry
     estimated scf accuracy    <       0.00000007 Ry

     iteration # 16     ecut=   100.00 Ry     beta=0.50
     Davidson diagonalization with overlap
     ethr =  2.70E-11,  avg # of iterations =  1.0

     total cpu time spent up to now is      813.7 secs

     total energy              =   -1356.34431336 Ry
     Harris-Foulkes estimate   =   -1356.34431337 Ry
     estimated scf accuracy    <       0.00000005 Ry

     iteration # 17     ecut=   100.00 Ry     beta=0.50
     Davidson diagonalization with overlap
     ethr =  1.91E-11,  avg # of iterations =  3.0

     total cpu time spent up to now is      850.3 secs

     total energy              =   -1356.34431336 Ry
     Harris-Foulkes estimate   =   -1356.34431336 Ry
     estimated scf accuracy    <       0.00000001 Ry

     iteration # 18     ecut=   100.00 Ry     beta=0.50
     Davidson diagonalization with overlap
     ethr =  5.62E-12,  avg # of iterations =  4.0

     total cpu time spent up to now is      906.5 secs

     End of self-consistent calculation

          k = 0.0000 0.0000 0.0000 ( 81051 PWs)   bands (ev):

   -25.5565 -25.5555 -25.5525 -25.5517 -20.8731 -20.8720 -20.8643 -20.8637
   -20.2248 -20.2220 -20.2204 -20.2116 -19.6636 -19.6600 -19.6433 -19.6412
   -18.5712 -18.5678 -18.5101 -18.5083 -13.6474 -13.6170 -13.5531 -13.5451
   -11.4362 -11.4218 -11.3560 -11.3404 -10.7188 -10.6706 -10.5767 -10.5589
    -9.8605  -9.8343  -9.6091  -9.5936  -8.9149  -8.8648  -8.8299  -8.7713
    -7.8916  -7.8265  -7.6976  -7.6653  -7.6045  -7.5781  -7.5462  -7.5284
    -7.0097  -7.0081  -6.9950  -6.8231  -6.7555  -6.7009  -6.5603  -6.4883
    -6.3161  -6.2563  -5.7454  -5.6992  -5.6608  -5.6466  -5.6348  -5.6178
    -5.5738  -5.4934  -5.3642  -5.2884  -4.7119  -4.7073  -4.3400  -4.3268
    -4.2719  -4.2247  -4.2130  -4.0986  -3.6851  -3.6360  -3.6311  -3.5176
    -3.5107  -3.5085  -3.3698  -3.3533  -3.1782  -3.1764  -3.1122  -3.0997
    -2.8871  -2.7721  -2.7610  -2.6422  -2.1436  -1.9053  -1.8535  -1.8420
    -1.7972  -1.7914  -1.7262  -1.6623  -1.6503  -1.5983  -1.5313  -1.3796
    -1.3568  -1.3249  -1.2544  -1.1854  -1.1352  -1.0349  -1.0229  -0.7892
    -0.7514  -0.7276  -0.7246  -0.7069  -0.6501  -0.6341  -0.6094  -0.5147
     0.2321   0.3283   0.3668   0.4075   0.5940   0.5967   0.6622   0.7921
     3.6677   3.7144   3.7787   3.8035   6.0878   6.3511   6.4058   6.4664
     6.5382   6.5869   7.1593   7.2188   7.3220   7.4603   7.8609   7.8659
     7.8803   7.9250   8.0892   8.2024   8.5615   8.5645   8.6793   8.6891
     8.8257

          k = 0.0000 0.0000-0.4493 ( 80952 PWs)   bands (ev):

   -25.5560 -25.5560 -25.5521 -25.5521 -20.8726 -20.8726 -20.8640 -20.8640
   -20.2229 -20.2229 -20.2164 -20.2164 -19.6549 -19.6549 -19.6504 -19.6504
   -18.5401 -18.5401 -18.5373 -18.5373 -13.6024 -13.6024 -13.5800 -13.5800
   -11.3984 -11.3984 -11.3834 -11.3834 -10.6973 -10.6973 -10.5666 -10.5666
    -9.7394  -9.7394  -9.7247  -9.7247  -8.8924  -8.8924  -8.7812  -8.7812
    -7.8550  -7.8550  -7.6689  -7.6689  -7.5830  -7.5830  -7.5476  -7.5476
    -6.9926  -6.9926  -6.8904  -6.8904  -6.7472  -6.7472  -6.5193  -6.5193
    -6.1210  -6.1210  -6.0807  -6.0807  -5.6729  -5.6729  -5.6242  -5.6242
    -5.4020  -5.4020  -5.3098  -5.3098  -4.5086  -4.5086  -4.4527  -4.4527
    -4.2601  -4.2601  -4.2024  -4.2024  -3.6450  -3.6450  -3.5647  -3.5647
    -3.4723  -3.4723  -3.3761  -3.3761  -3.1725  -3.1725  -3.1168  -3.1168
    -2.8844  -2.8844  -2.7458  -2.7458  -2.0401  -2.0401  -1.8205  -1.8205
    -1.7190  -1.7190  -1.7016  -1.7016  -1.6576  -1.6576  -1.5191  -1.5191
    -1.3030  -1.3030  -1.2228  -1.2228  -1.0510  -1.0510  -0.9382  -0.9382
    -0.7238  -0.7238  -0.7094  -0.7094  -0.6317  -0.6317  -0.5544  -0.5544
     0.3090   0.3090   0.4156   0.4156   0.5678   0.5678   0.7153   0.7153
     3.7140   3.7140   3.7594   3.7594   6.1669   6.1669   6.4769   6.4769
     6.5891   6.5891   7.1472   7.1472   7.4133   7.4133   7.7268   7.7268
     8.0910   8.0910   8.2018   8.2018   8.4063   8.4063   8.6436   8.6436
     8.9047

          k = 0.0000-0.4451 0.0000 ( 80920 PWs)   bands (ev):

   -25.5545 -25.5545 -25.5536 -25.5536 -20.8687 -20.8687 -20.8679 -20.8679
   -20.2236 -20.2236 -20.2157 -20.2157 -19.6618 -19.6618 -19.6421 -19.6421
   -18.5696 -18.5696 -18.5092 -18.5092 -13.6323 -13.6323 -13.5492 -13.5492
   -11.4298 -11.4298 -11.3463 -11.3463 -10.6817 -10.6817 -10.5820 -10.5820
    -9.8491  -9.8491  -9.6116  -9.6116  -8.8469  -8.8469  -8.8358  -8.8358
    -7.7978  -7.7978  -7.7324  -7.7324  -7.6039  -7.6039  -7.5303  -7.5303
    -6.9978  -6.9978  -6.9240  -6.9240  -6.6671  -6.6671  -6.5821  -6.5821
    -6.3073  -6.3073  -5.7495  -5.7495  -5.6230  -5.6230  -5.6016  -5.6016
    -5.5463  -5.5463  -5.3036  -5.3036  -4.7245  -4.7245  -4.3362  -4.3362
    -4.2126  -4.2126  -4.1735  -4.1735  -3.6645  -3.6645  -3.6219  -3.6219
    -3.4281  -3.4281  -3.3703  -3.3703  -3.2013  -3.2013  -3.1582  -3.1582
    -2.8537  -2.8537  -2.6825  -2.6825  -2.0691  -2.0691  -1.8476  -1.8476
    -1.7247  -1.7247  -1.6491  -1.6491  -1.6088  -1.6088  -1.5407  -1.5407
    -1.3045  -1.3045  -1.2452  -1.2452  -1.0508  -1.0508  -0.9362  -0.9362
    -0.7604  -0.7604  -0.6926  -0.6926  -0.6050  -0.6050  -0.5477  -0.5477
     0.2624   0.2624   0.4155   0.4155   0.5768   0.5768   0.7118   0.7118
     3.6904   3.6904   3.7921   3.7921   6.1895   6.1895   6.4160   6.4160
     6.8126   6.8126   6.8793   6.8793   7.4737   7.4737   7.8601   7.8601
     7.9681   7.9681   8.1206   8.1206   8.2815   8.2815   8.7870   8.7871
     8.8679

          k = 0.0000-0.4451-0.4493 ( 81000 PWs)   bands (ev):

   -25.5540 -25.5540 -25.5540 -25.5540 -20.8684 -20.8684 -20.8682 -20.8682
   -20.2212 -20.2212 -20.2181 -20.2181 -19.6534 -19.6534 -19.6518 -19.6518
   -18.5397 -18.5397 -18.5377 -18.5377 -13.5931 -13.5931 -13.5895 -13.5895
   -11.3953 -11.3953 -11.3857 -11.3857 -10.6803 -10.6803 -10.5841 -10.5841
    -9.7398  -9.7398  -9.7357  -9.7357  -8.8425  -8.8425  -8.8244  -8.8244
    -7.7732  -7.7732  -7.7524  -7.7524  -7.5685  -7.5685  -7.5537  -7.5537
    -6.9620  -6.9620  -6.9274  -6.9274  -6.6501  -6.6501  -6.6157  -6.6157
    -6.1424  -6.1424  -6.0926  -6.0926  -5.6857  -5.6857  -5.5622  -5.5622
    -5.3829  -5.3829  -5.3271  -5.3271  -4.5138  -4.5138  -4.4456  -4.4456
    -4.2452  -4.2452  -4.2194  -4.2194  -3.6619  -3.6619  -3.5661  -3.5661
    -3.4475  -3.4475  -3.3639  -3.3639  -3.2050  -3.2050  -3.1581  -3.1581
    -2.8218  -2.8218  -2.8177  -2.8177  -1.9423  -1.9423  -1.9060  -1.9060
    -1.7694  -1.7694  -1.6729  -1.6729  -1.5986  -1.5986  -1.5504  -1.5504
    -1.2673  -1.2673  -1.2463  -1.2463  -1.0384  -1.0384  -0.8617  -0.8617
    -0.8107  -0.8107  -0.6964  -0.6964  -0.5995  -0.5995  -0.5609  -0.5609
     0.3592   0.3592   0.3635   0.3635   0.5882   0.5882   0.6784   0.6784
     3.7294   3.7294   3.7441   3.7441   6.2507   6.2507   6.3756   6.3756
     6.7577   6.7577   6.8850   6.8850   7.4637   7.4637   7.7419   7.7419
     8.1064   8.1064   8.1983   8.1983   8.4421   8.4421   8.4436   8.4436
     8.9833

          k = 0.3333 0.0000 0.0304 ( 81016 PWs)   bands (ev):

   -25.5562 -25.5557 -25.5523 -25.5519 -20.8729 -20.8723 -20.8642 -20.8639
   -20.2267 -20.2241 -20.2212 -20.2162 -19.6567 -19.6521 -19.6468 -19.6426
   -18.5554 -18.5524 -18.5249 -18.5227 -13.6168 -13.5918 -13.5714 -13.5555
   -11.4556 -11.4512 -11.4182 -11.4040 -10.7141 -10.6853 -10.5807 -10.5669
    -9.7747  -9.7461  -9.6401  -9.6174  -8.8556  -8.8374  -8.7705  -8.7355
    -7.8801  -7.8457  -7.6971  -7.6745  -7.5976  -7.5624  -7.5606  -7.5284
    -6.9978  -6.9961  -6.9512  -6.8583  -6.7535  -6.7398  -6.5461  -6.4987
    -6.2309  -6.1522  -5.9205  -5.9118  -5.7356  -5.6873  -5.6116  -5.5798
    -5.4949  -5.4208  -5.4206  -5.3341  -4.6493  -4.5628  -4.4674  -4.3928
    -4.2396  -4.1786  -4.1737  -4.1633  -3.6859  -3.6763  -3.6038  -3.5371
    -3.5060  -3.4490  -3.4304  -3.3783  -3.1828  -3.1473  -3.0979  -3.0713
    -2.9264  -2.8861  -2.8278  -2.7336  -2.0284  -1.9782  -1.9144  -1.8947
    -1.7501  -1.7433  -1.7191  -1.6947  -1.6631  -1.6457  -1.4462  -1.4261
    -1.3704  -1.2214  -1.1664  -1.1281  -1.0615  -1.0513  -0.9762  -0.9294
    -0.7780  -0.7719  -0.7232  -0.7074  -0.6124  -0.5382  -0.5146  -0.4317
     0.2721   0.3324   0.3324   0.3976   0.5749   0.5872   0.7100   0.7669
     3.6891   3.7353   3.7420   3.7790   6.0286   6.1731   6.2914   6.4405
     6.6376   6.6937   6.9921   7.1469   7.5093   7.5333   7.7583   7.9658
     7.9851   7.9866   8.0871   8.2328   8.4071   8.4725   8.5472   8.7597
     8.7612

          k = 0.3333 0.0000-0.4189 ( 80992 PWs)   bands (ev):

   -25.5562 -25.5558 -25.5523 -25.5518 -20.8729 -20.8723 -20.8645 -20.8636
   -20.2277 -20.2241 -20.2227 -20.2137 -19.6616 -19.6542 -19.6422 -19.6405
   -18.5642 -18.5617 -18.5155 -18.5126 -13.6264 -13.5994 -13.5607 -13.5505
   -11.4891 -11.4814 -11.3850 -11.3700 -10.7012 -10.6951 -10.6055 -10.5479
    -9.7995  -9.7929  -9.6089  -9.5835  -8.8615  -8.8247  -8.7752  -8.7401
    -7.8616  -7.8365  -7.6943  -7.6608  -7.6170  -7.5812  -7.5492  -7.5214
    -6.9940  -6.9917  -6.9257  -6.8888  -6.7676  -6.6924  -6.5318  -6.5270
    -6.2581  -6.2121  -5.8488  -5.8194  -5.7846  -5.6537  -5.6486  -5.5782
    -5.5032  -5.4506  -5.4160  -5.3191  -4.7910  -4.6572  -4.3240  -4.2986
    -4.2567  -4.2405  -4.1535  -4.1365  -3.6728  -3.6623  -3.5876  -3.5492
    -3.4627  -3.4573  -3.4026  -3.3744  -3.2158  -3.1341  -3.1113  -3.0459
    -2.9595  -2.9210  -2.9177  -2.7430  -2.1265  -2.0175  -1.9778  -1.7980
    -1.7592  -1.7427  -1.6990  -1.6835  -1.5988  -1.5383  -1.5185  -1.4500
    -1.3324  -1.2333  -1.2078  -1.1157  -1.0491  -1.0060  -0.9962  -0.9443
    -0.8157  -0.7433  -0.7243  -0.7110  -0.6186  -0.5548  -0.4983  -0.3659
     0.2854   0.3424   0.3814   0.4369   0.5775   0.5924   0.6560   0.7409
     3.6814   3.6945   3.7363   3.8087   6.0183   6.1473   6.3285   6.3363
     6.6078   6.7722   7.0054   7.1315   7.4309   7.5751   7.7654   7.8618
     7.9380   8.0588   8.1280   8.1654   8.3800   8.4291   8.5183   8.6834
     8.9348

          k = 0.3333-0.4451 0.0304 ( 81034 PWs)   bands (ev):

   -25.5543 -25.5543 -25.5538 -25.5538 -20.8686 -20.8686 -20.8681 -20.8681
   -20.2245 -20.2245 -20.2195 -20.2195 -19.6548 -19.6548 -19.6441 -19.6441
   -18.5539 -18.5539 -18.5238 -18.5238 -13.6045 -13.6045 -13.5634 -13.5634
   -11.4547 -11.4547 -11.4100 -11.4100 -10.6864 -10.6864 -10.5861 -10.5861
    -9.7631  -9.7631  -9.6356  -9.6356  -8.8072  -8.8072  -8.7898  -8.7898
    -7.7908  -7.7908  -7.7491  -7.7491  -7.5857  -7.5857  -7.5416  -7.5416
    -6.9772  -6.9772  -6.9308  -6.9308  -6.6607  -6.6607  -6.6070  -6.6070
    -6.2147  -6.2147  -5.8996  -5.8996  -5.7086  -5.7086  -5.6105  -5.6105
    -5.4410  -5.4410  -5.3569  -5.3569  -4.6137  -4.6137  -4.4094  -4.4094
    -4.2072  -4.2072  -4.1921  -4.1921  -3.6682  -3.6682  -3.6093  -3.6093
    -3.4481  -3.4481  -3.3768  -3.3768  -3.2001  -3.2001  -3.1154  -3.1154
    -2.9046  -2.9046  -2.7809  -2.7809  -2.0080  -2.0080  -1.8957  -1.8957
    -1.7740  -1.7740  -1.7041  -1.7041  -1.6225  -1.6225  -1.5423  -1.5423
    -1.2279  -1.2279  -1.1299  -1.1299  -1.0003  -1.0003  -0.9138  -0.9138
    -0.7982  -0.7982  -0.7286  -0.7286  -0.5593  -0.5593  -0.4797  -0.4797
     0.2883   0.2883   0.3699   0.3699   0.6149   0.6149   0.6861   0.6861
     3.7124   3.7124   3.7621   3.7621   6.1031   6.1031   6.3219   6.3219
     6.8522   6.8522   6.9053   6.9053   7.5024   7.5024   7.8466   7.8466
     7.9784   7.9784   8.0983   8.0983   8.5507   8.5507   8.7070   8.7070
     8.9178

          k = 0.3333-0.4451-0.4189 ( 81010 PWs)   bands (ev):

   -25.5542 -25.5542 -25.5538 -25.5538 -20.8688 -20.8688 -20.8679 -20.8679
   -20.2262 -20.2262 -20.2178 -20.2178 -19.6581 -19.6581 -19.6410 -19.6410
   -18.5630 -18.5630 -18.5140 -18.5140 -13.6131 -13.6131 -13.5555 -13.5555
   -11.4855 -11.4855 -11.3776 -11.3776 -10.6872 -10.6872 -10.5859 -10.5859
    -9.8031  -9.8031  -9.5991  -9.5991  -8.8037  -8.8037  -8.7948  -8.7948
    -7.7757  -7.7757  -7.7413  -7.7413  -7.6010  -7.6010  -7.5319  -7.5319
    -6.9772  -6.9772  -6.9347  -6.9347  -6.6631  -6.6631  -6.5961  -6.5961
    -6.2474  -6.2474  -5.8639  -5.8639  -5.7018  -5.7018  -5.5751  -5.5751
    -5.4783  -5.4783  -5.3558  -5.3558  -4.7309  -4.7309  -4.3115  -4.3115
    -4.2228  -4.2228  -4.1746  -4.1746  -3.6903  -3.6903  -3.5498  -3.5498
    -3.4423  -3.4423  -3.3831  -3.3831  -3.1898  -3.1898  -3.1276  -3.1276
    -2.9494  -2.9494  -2.8154  -2.8154  -2.0618  -2.0618  -1.9046  -1.9046
    -1.7790  -1.7790  -1.6749  -1.6749  -1.5929  -1.5929  -1.4693  -1.4693
    -1.2815  -1.2815  -1.1407  -1.1407  -1.0296  -1.0296  -0.8896  -0.8896
    -0.8025  -0.8025  -0.6904  -0.6904  -0.6028  -0.6028  -0.4334  -0.4334
     0.3072   0.3072   0.4279   0.4279   0.5740   0.5740   0.6728   0.6728
     3.6881   3.6881   3.7738   3.7738   6.1063   6.1063   6.3152   6.3152
     6.8325   6.8325   6.8555   6.8555   7.5206   7.5206   7.7699   7.7699
     7.9744   7.9744   8.1003   8.1003   8.5760   8.5760   8.7678   8.7679
     8.8267

     highest occupied, lowest unoccupied level (ev):     0.7921    3.6677

!    total energy              =   -1356.34431336 Ry
     Harris-Foulkes estimate   =   -1356.34431337 Ry
     estimated scf accuracy    <          2.4E-09 Ry

     total all-electron energy =     -5013.759239 Ry

     The total energy is the sum of the following terms:

     one-electron contribution =    -753.26603975 Ry
     hartree contribution      =     479.42767696 Ry
     xc contribution           =    -277.99577068 Ry
     ewald contribution        =    -447.62349478 Ry
     Dispersion Correction     =      -0.36294812 Ry
     one-center paw contrib.   =    -356.52373698 Ry

     convergence has been achieved in  18 iterations

     Forces acting on atoms (cartesian axes, Ry/au):

     atom    1 type  4   force =     0.00111191    0.00031600    0.00012281
     atom    2 type  4   force =     0.00111191   -0.00031600    0.00012281
     atom    3 type  4   force =    -0.00111191   -0.00031600   -0.00012281
     atom    4 type  4   force =    -0.00111191    0.00031600   -0.00012281
     atom    5 type  4   force =    -0.00079909   -0.00047441    0.00015214
     atom    6 type  4   force =    -0.00079909    0.00047441    0.00015214
     atom    7 type  4   force =     0.00079909    0.00047441   -0.00015214
     atom    8 type  4   force =     0.00079909   -0.00047441   -0.00015214
     atom    9 type  4   force =    -0.00183317   -0.00000310    0.00037311
     atom   10 type  4   force =    -0.00183317    0.00000310    0.00037311
     atom   11 type  4   force =     0.00183317    0.00000310   -0.00037311
     atom   12 type  4   force =     0.00183317   -0.00000310   -0.00037311
     atom   13 type  4   force =     0.00553378   -0.00160915    0.00176113
     atom   14 type  4   force =     0.00553378    0.00160915    0.00176113
     atom   15 type  4   force =    -0.00553378    0.00160915   -0.00176113
     atom   16 type  4   force =    -0.00553378   -0.00160915   -0.00176113
     atom   17 type  4   force =     0.00146768    0.00047608    0.00076626
     atom   18 type  4   force =     0.00146768   -0.00047608    0.00076626
     atom   19 type  4   force =    -0.00146768   -0.00047608   -0.00076626
     atom   20 type  4   force =    -0.00146768    0.00047608   -0.00076626
     atom   21 type  3   force =    -0.00132239   -0.00063316   -0.00030779
     atom   22 type  3   force =    -0.00132239    0.00063316   -0.00030779
     atom   23 type  3   force =     0.00132239    0.00063316    0.00030779
     atom   24 type  3   force =     0.00132239   -0.00063316    0.00030779
     atom   25 type  2   force =    -0.00255981   -0.00034756   -0.00005046
     atom   26 type  2   force =    -0.00255981    0.00034756   -0.00005046
     atom   27 type  2   force =     0.00255981    0.00034756    0.00005046
     atom   28 type  2   force =     0.00255981   -0.00034756    0.00005046
     atom   29 type  1   force =     0.00039770    0.00145841   -0.00191352
     atom   30 type  1   force =     0.00039770   -0.00145841   -0.00191352
     atom   31 type  1   force =    -0.00039770   -0.00145841    0.00191352
     atom   32 type  1   force =    -0.00039770    0.00145841    0.00191352
     atom   33 type  1   force =    -0.00008053   -0.00034784   -0.00018974
     atom   34 type  1   force =    -0.00008053    0.00034784   -0.00018974
     atom   35 type  1   force =     0.00008053    0.00034784    0.00018974
     atom   36 type  1   force =     0.00008053   -0.00034784    0.00018974
     atom   37 type  3   force =    -0.00048654   -0.00006168    0.00098403
     atom   38 type  3   force =    -0.00048654    0.00006168    0.00098403
     atom   39 type  3   force =     0.00048654    0.00006168   -0.00098403
     atom   40 type  3   force =     0.00048654   -0.00006168   -0.00098403
     atom   41 type  3   force =    -0.00042384    0.00009154   -0.00022704
     atom   42 type  3   force =    -0.00042384   -0.00009154   -0.00022704
     atom   43 type  3   force =     0.00042384   -0.00009154    0.00022704
     atom   44 type  3   force =     0.00042384    0.00009154    0.00022704
     atom   45 type  1   force =    -0.00139744    0.00076184    0.00023594
     atom   46 type  1   force =    -0.00139744   -0.00076184    0.00023594
     atom   47 type  1   force =     0.00139744   -0.00076184   -0.00023594
     atom   48 type  1   force =     0.00139744    0.00076184   -0.00023594
     atom   49 type  3   force =     0.00112342   -0.00049875   -0.00232863
     atom   50 type  3   force =     0.00112342    0.00049875   -0.00232863
     atom   51 type  3   force =    -0.00112342    0.00049875    0.00232863
     atom   52 type  3   force =    -0.00112342   -0.00049875    0.00232863
     atom   53 type  3   force =     0.00042188   -0.00082632    0.00026229
     atom   54 type  3   force =     0.00042188    0.00082632    0.00026229
     atom   55 type  3   force =    -0.00042188    0.00082632   -0.00026229
     atom   56 type  3   force =    -0.00042188   -0.00082632   -0.00026229
     atom   57 type  1   force =     0.00022804   -0.00095774    0.00069370
     atom   58 type  1   force =     0.00022804    0.00095774    0.00069370
     atom   59 type  1   force =    -0.00022804    0.00095774   -0.00069370
     atom   60 type  1   force =    -0.00022804   -0.00095774   -0.00069370
     atom   61 type  3   force =     0.00062750    0.00004185    0.00044759
     atom   62 type  3   force =     0.00062750   -0.00004185    0.00044759
     atom   63 type  3   force =    -0.00062750   -0.00004185   -0.00044759
     atom   64 type  3   force =    -0.00062750    0.00004185   -0.00044759
     atom   65 type  3   force =     0.00001314   -0.00036040   -0.00004009
     atom   66 type  3   force =     0.00001314    0.00036040   -0.00004009
     atom   67 type  3   force =    -0.00001314    0.00036040    0.00004009
     atom   68 type  3   force =    -0.00001314   -0.00036040    0.00004009
     atom   69 type  1   force =    -0.00112104    0.00214399   -0.00003716
     atom   70 type  1   force =    -0.00112104   -0.00214399   -0.00003716
     atom   71 type  1   force =     0.00112104   -0.00214399    0.00003716
     atom   72 type  1   force =     0.00112104    0.00214399    0.00003716
     atom   73 type  3   force =     0.00036824   -0.00012746   -0.00019108
     atom   74 type  3   force =     0.00036824    0.00012746   -0.00019108
     atom   75 type  3   force =    -0.00036824    0.00012746    0.00019108
     atom   76 type  3   force =    -0.00036824   -0.00012746    0.00019108
     atom   77 type  3   force =     0.00005218    0.00003880   -0.00037580
     atom   78 type  3   force =     0.00005218   -0.00003880   -0.00037580
     atom   79 type  3   force =    -0.00005218   -0.00003880    0.00037580
     atom   80 type  3   force =    -0.00005218    0.00003880    0.00037580

     Total force =     0.017924     Total SCF correction =     0.000078


     Computing stress (Cartesian axis) and pressure

          total   stress  (Ry/bohr**3)                   (kbar)     P=   -2.71
  -0.00002669   0.00000000  -0.00000067         -3.93      0.00     -0.10
   0.00000000  -0.00001203   0.00000000          0.00     -1.77      0.00
  -0.00000067   0.00000000  -0.00001646         -0.10      0.00     -2.42


     Writing output data file scf.save
 
     init_run     :     26.06s CPU     27.26s WALL (       1 calls)
     electrons    :    832.60s CPU    878.77s WALL (       1 calls)
     forces       :     13.58s CPU     13.73s WALL (       1 calls)
     stress       :     69.04s CPU     69.29s WALL (       1 calls)

     Called by init_run:
     wfcinit      :     17.10s CPU     18.18s WALL (       1 calls)
     potinit      :      3.12s CPU      3.14s WALL (       1 calls)

     Called by electrons:
     c_bands      :    734.50s CPU    773.74s WALL (      18 calls)
     sum_band     :     86.10s CPU     92.02s WALL (      18 calls)
     v_of_rho     :      1.86s CPU      2.02s WALL (      19 calls)
     newd         :      4.05s CPU      4.82s WALL (      19 calls)
     PAW_pot      :      5.41s CPU      5.42s WALL (      19 calls)
     mix_rho      :      0.46s CPU      0.50s WALL (      18 calls)

     Called by c_bands:
     init_us_2    :      5.62s CPU      5.66s WALL (     312 calls)
     cegterg      :    711.17s CPU    750.24s WALL (     144 calls)

     Called by sum_band:
     sum_band:bec :      0.05s CPU      0.05s WALL (     144 calls)
     addusdens    :      4.43s CPU      5.16s WALL (      18 calls)

     Called by *egterg:
     h_psi        :    431.82s CPU    462.19s WALL (     672 calls)
     s_psi        :     57.68s CPU     57.69s WALL (     672 calls)
     g_psi        :      2.60s CPU      2.60s WALL (     520 calls)
     cdiaghg      :     38.90s CPU     38.90s WALL (     664 calls)

     Called by h_psi:
     h_psi:pot    :    428.21s CPU    458.52s WALL (     672 calls)
     h_psi:calbec :     62.89s CPU     63.14s WALL (     672 calls)
     vloc_psi     :    307.76s CPU    337.80s WALL (     672 calls)
     add_vuspsi   :     57.57s CPU     57.57s WALL (     672 calls)

     General routines
     calbec       :     95.18s CPU     95.57s WALL (     856 calls)
     fft          :      3.87s CPU      4.14s WALL (     271 calls)
     fftw         :    333.74s CPU    368.63s WALL (  146716 calls)
 
     Parallel routines
     fft_scatter  :    116.87s CPU    146.75s WALL (  146987 calls)
 
     PWSCF        : 15m47.77s CPU    17m16.29s WALL

 
   This run was terminated on:  18:47:24  20Dec2017            

=------------------------------------------------------------------------------=
   JOB DONE.
=------------------------------------------------------------------------------=
