
     Program PWSCF v.6.1 (svn rev. 13369) starts on  4Nov2017 at 22:21:15 

     This program is part of the open-source Quantum ESPRESSO suite
     for quantum simulation of materials; please cite
         "P. Giannozzi et al., J. Phys.:Condens. Matter 21 395502 (2009);
          URL http://www.quantum-espresso.org", 
     in publications or presentations arising from this work. More details at
     http://www.quantum-espresso.org/quote

     Parallel version (MPI), running on     8 processors
     R & G space division:  proc/nbgrp/npool/nimage =       8
     Waiting for input...
     Reading input from standard input

     Current dimensions of program PWSCF are:
     Max number of different atomic species (ntypx) = 10
     Max number of k-points (npk) =  40000
     Max angular momentum in pseudopotentials (lmaxx) =  3
               file C.pbe-n-kjpaw_psl.0.1.UPF: wavefunction(s)  2P renormalized
               file N.pbe-n-kjpaw_psl.0.1.UPF: wavefunction(s)  2P renormalized
               file H.pbe-kjpaw_psl.0.1.UPF: wavefunction(s)  1S renormalized
               file O.pbe-n-kjpaw_psl.0.1.UPF: wavefunction(s)  2P renormalized

     -------------------------------------
     Parameters for Dispersion Correction:
     -------------------------------------
       atom      VdW radius       C_6     

        C          2.744         60.710
        N          2.640         42.670
        H          1.892          4.857
        O          2.536         24.284

     Subspace diagonalization in iterative solution of the eigenvalue problem:
     a serial algorithm will be used

 
     Parallelization info
     --------------------
     sticks:   dense  smooth     PW     G-vecs:    dense   smooth      PW
     Min         903     903    238                64011    64011    8696
     Max         904     904    239                64012    64012    8698
     Sum        7231    7231   1907               512095   512095   69571
 


     bravais-lattice index     =            0
     lattice parameter (alat)  =      14.0036  a.u.
     unit-cell volume          =    3790.5874 (a.u.)^3
     number of atoms/cell      =           48
     number of atomic types    =            4
     number of electrons       =       216.00
     number of Kohn-Sham states=          129
     kinetic-energy cutoff     =     100.0000  Ry
     charge density cutoff     =     400.0000  Ry
     convergence threshold     =      1.0E-08
     mixing beta               =       0.5000
     number of iterations used =            8  plain     mixing
     Exchange-correlation      =  SLA  PW   PBX  PBC ( 1  4  3  4 0 0)

     celldm(1)=  14.003627  celldm(2)=   0.000000  celldm(3)=   0.000000
     celldm(4)=   0.000000  celldm(5)=   0.000000  celldm(6)=   0.000000

     crystal axes: (cart. coord. in units of alat)
               a(1) = (   1.000000   0.000000   0.000000 )  
               a(2) = (   0.126320   1.159215   0.000000 )  
               a(3) = (   0.060628   0.439138   1.190751 )  

     reciprocal axes: (cart. coord. in units 2 pi/alat)
               b(1) = (  1.000000 -0.108970 -0.010729 )  
               b(2) = (  0.000000  0.862653 -0.318139 )  
               b(3) = (  0.000000  0.000000  0.839806 )  


     PseudoPot. # 1 for  C read from file:
     /scratch/ahofstet/pseudo/C.pbe-n-kjpaw_psl.0.1.UPF
     MD5 check sum: 430fe95172b1e11ef3f8ed03bac87931
     Pseudo is Projector augmented-wave + core cor, Zval =  4.0
     Generated using "atomic" code by A. Dal Corso  v.5.0.99 svn rev. 10869
     Shape of augmentation charge: BESSEL
     Using radial grid of 1073 points,  4 beta functions with: 
                l(1) =   0
                l(2) =   0
                l(3) =   1
                l(4) =   1
     Q(r) pseudized with 0 coefficients 


     PseudoPot. # 2 for  N read from file:
     /scratch/ahofstet/pseudo/N.pbe-n-kjpaw_psl.0.1.UPF
     MD5 check sum: f73187c8b701007e77325f868c9291d7
     Pseudo is Projector augmented-wave + core cor, Zval =  5.0
     Generated using "atomic" code by A. Dal Corso  v.5.0.99 svn rev. 10869
     Shape of augmentation charge: PSQ
     Using radial grid of 1085 points,  4 beta functions with: 
                l(1) =   0
                l(2) =   0
                l(3) =   1
                l(4) =   1
     Q(r) pseudized with 0 coefficients 


     PseudoPot. # 3 for  H read from file:
     /scratch/ahofstet/pseudo/H.pbe-kjpaw_psl.0.1.UPF
     MD5 check sum: 94e484f906d9e9773b2f6e52662335b2
     Pseudo is Projector augmented-wave, Zval =  1.0
     Generated using "atomic" code by A. Dal Corso  v.5.0.99 svn rev. 10869
     Shape of augmentation charge: PSQ
     Using radial grid of  929 points,  2 beta functions with: 
                l(1) =   0
                l(2) =   0
     Q(r) pseudized with 0 coefficients 


     PseudoPot. # 4 for  O read from file:
     /scratch/ahofstet/pseudo/O.pbe-n-kjpaw_psl.0.1.UPF
     MD5 check sum: 3f94a2996a3169367d6eb21d9b593f20
     Pseudo is Projector augmented-wave + core cor, Zval =  6.0
     Generated using "atomic" code by A. Dal Corso  v.5.0.99 svn rev. 10869
     Shape of augmentation charge: BESSEL
     Using radial grid of 1095 points,  4 beta functions with: 
                l(1) =   0
                l(2) =   0
                l(3) =   1
                l(4) =   1
     Q(r) pseudized with 0 coefficients 


     atomic species   valence    mass     pseudopotential
        C              4.00    12.01070      C( 1.00)
        N              5.00    14.00670      N( 1.00)
        H              1.00     1.00794      H( 1.00)
        O              6.00    15.99940      O( 1.00)

      2 Sym. Ops., with inversion, found



   Cartesian axes

     site n.     atom                  positions (alat units)
         1           N   tau(   1) = (   0.1169035   0.3535407   0.3828557  )
         2           N   tau(   2) = (   1.0700449   1.2448127   0.8078952  )
         3           N   tau(   3) = (   0.3502888   0.3543306   0.5821034  )
         4           N   tau(   4) = (   0.8366596   1.2440227   0.6086475  )
         5           N   tau(   5) = (   0.1024026   0.7369008   0.3880270  )
         6           N   tau(   6) = (   1.0845459   0.8614525   0.8027239  )
         7           N   tau(   7) = (   0.3265044   0.9370605   0.4514801  )
         8           N   tau(   8) = (   0.8604441   0.6612928   0.7392708  )
         9           N   tau(   9) = (   0.5481599   0.7301537   0.5722738  )
        10           N   tau(  10) = (   0.6387886   0.8681996   0.6184770  )
        11           O   tau(  11) = (   0.1584311   0.1771161   0.4360111  )
        12           O   tau(  12) = (   1.0285173   1.4212373   0.7547398  )
        13           O   tau(  13) = (   0.1573741   0.9158156   0.3856401  )
        14           O   tau(  14) = (   1.0295743   0.6825377   0.8051107  )
        15           C   tau(  15) = (   0.4237551   1.3485528   0.5527016  )
        16           C   tau(  16) = (   0.7631934   0.2498006   0.6380493  )
        17           H   tau(  17) = (   0.4782905   1.2232233   0.6063520  )
        18           H   tau(  18) = (   0.7086579   0.3751300   0.5843988  )
        19           C   tau(  19) = (   0.2354471   0.4513642   0.4736016  )
        20           C   tau(  20) = (   0.9515014   1.1469891   0.7171492  )
        21           C   tau(  21) = (   0.2404944   0.6472969   0.4550151  )
        22           C   tau(  22) = (   0.9464540   0.9510564   0.7357358  )
        23           C   tau(  23) = (   0.3814736   0.7730923   0.4975154  )
        24           C   tau(  24) = (   0.8054748   0.8252610   0.6932355  )
        25           N   tau(  25) = (   0.5505450   1.0637087   0.9686929  )
        26           N   tau(  26) = (   0.6364034   0.5346447   0.2220579  )
        27           N   tau(  27) = (   0.3253192   1.1167939   1.1700739  )
        28           N   tau(  28) = (   0.8616292   0.4815595   0.0206769  )
        29           N   tau(  29) = (   0.6563155   1.4341574   0.9870415  )
        30           N   tau(  30) = (   0.5306329   0.1641960   0.2037094  )
        31           N   tau(  31) = (   0.3596829   0.5192579   1.0617309  )
        32           N   tau(  32) = (   0.8272656   1.0790954   0.1290200  )
        33           N   tau(  33) = (   0.2141290   1.5243019   1.1571478  )
        34           N   tau(  34) = (   0.9728195   0.0740514   0.0336030  )
        35           O   tau(  35) = (   0.4714133   0.9009023   1.0233291  )
        36           O   tau(  36) = (   0.7155352   0.6974510   0.1674217  )
        37           O   tau(  37) = (   0.5201263   0.4618710   0.9952358  )
        38           O   tau(  38) = (   0.6668222   1.1364824   0.1955151  )
        39           C   tau(  39) = (   0.3400068   0.9440065   1.1414650  )
        40           C   tau(  40) = (   0.8469416   0.6543468   0.0492858  )
        41           H   tau(  41) = (   0.2611245   0.8344346   1.1986984  )
        42           H   tau(  42) = (   0.9258240   0.7639188  -0.0079476  )
        43           C   tau(  43) = (   0.4576133   1.1852909   1.0600216  )
        44           C   tau(  44) = (   0.7293351   0.4130624   0.1307292  )
        45           C   tau(  45) = (   0.4991089   1.3771399   1.0464588  )
        46           C   tau(  46) = (   0.6878395   0.2212135   0.1442920  )
        47           C   tau(  47) = (   0.3913681   1.5303218   1.0954239  )
        48           C   tau(  48) = (   0.7955803   0.0680316   0.0953270  )

     number of k points=     8
                       cart. coord. in units 2pi/alat
        k(    1) = (   0.0000000   0.0000000   0.0000000), wk =   0.1666667
        k(    2) = (   0.0000000   0.0000000  -0.4199031), wk =   0.1666667
        k(    3) = (   0.0000000  -0.4313263   0.1590693), wk =   0.1666667
        k(    4) = (   0.0000000  -0.4313263  -0.2608339), wk =   0.1666667
        k(    5) = (   0.3333333  -0.0363234  -0.0035763), wk =   0.3333333
        k(    6) = (   0.3333333  -0.0363234  -0.4234794), wk =   0.3333333
        k(    7) = (   0.3333333  -0.4676497   0.1554930), wk =   0.3333333
        k(    8) = (   0.3333333  -0.4676497  -0.2644101), wk =   0.3333333

     Dense  grid:   512095 G-vectors     FFT dimensions: (  90, 108, 120)

     Estimated max dynamical RAM per process >     359.10MB

     Estimated total allocated dynamical RAM >    2872.80MB

     Check: negative/imaginary core charge=   -0.000002    0.000000

     Initial potential from superposition of free atoms

     starting charge  215.99914, renormalised to  216.00000
     Starting wfc are  180 randomized atomic wfcs
     Checking if some PAW data can be deallocated... 

     total cpu time spent up to now is       20.1 secs

     per-process dynamical memory:   263.6 Mb

     Self-consistent Calculation

     iteration #  1     ecut=   100.00 Ry     beta=0.50
     Davidson diagonalization with overlap
     ethr =  1.00E-02,  avg # of iterations =  3.0

     total cpu time spent up to now is       67.1 secs

     total energy              =   -1195.30161813 Ry
     Harris-Foulkes estimate   =   -1197.12523204 Ry
     estimated scf accuracy    <       3.72379026 Ry

     iteration #  2     ecut=   100.00 Ry     beta=0.50
     Davidson diagonalization with overlap
     ethr =  1.72E-03,  avg # of iterations =  3.0

     total cpu time spent up to now is       95.7 secs

     total energy              =   -1195.56416464 Ry
     Harris-Foulkes estimate   =   -1195.92465309 Ry
     estimated scf accuracy    <       0.76635377 Ry

     iteration #  3     ecut=   100.00 Ry     beta=0.50
     Davidson diagonalization with overlap
     ethr =  3.55E-04,  avg # of iterations = 10.0

     total cpu time spent up to now is      141.9 secs

     total energy              =   -1195.77816386 Ry
     Harris-Foulkes estimate   =   -1195.85315814 Ry
     estimated scf accuracy    <       0.18676808 Ry

     iteration #  4     ecut=   100.00 Ry     beta=0.50
     Davidson diagonalization with overlap
     ethr =  8.65E-05,  avg # of iterations = 10.4

     total cpu time spent up to now is      175.9 secs

     total energy              =   -1195.80935696 Ry
     Harris-Foulkes estimate   =   -1195.81580310 Ry
     estimated scf accuracy    <       0.01857303 Ry

     iteration #  5     ecut=   100.00 Ry     beta=0.50
     Davidson diagonalization with overlap
     ethr =  8.60E-06,  avg # of iterations =  9.6

     total cpu time spent up to now is      237.2 secs

     total energy              =   -1195.81772451 Ry
     Harris-Foulkes estimate   =   -1195.81938133 Ry
     estimated scf accuracy    <       0.00487616 Ry

     iteration #  6     ecut=   100.00 Ry     beta=0.50
     Davidson diagonalization with overlap
     ethr =  2.26E-06,  avg # of iterations =  3.4

     total cpu time spent up to now is      264.5 secs

     total energy              =   -1195.81830237 Ry
     Harris-Foulkes estimate   =   -1195.81853133 Ry
     estimated scf accuracy    <       0.00079597 Ry

     iteration #  7     ecut=   100.00 Ry     beta=0.50
     Davidson diagonalization with overlap
     ethr =  3.69E-07,  avg # of iterations =  3.9

     total cpu time spent up to now is      305.6 secs

     total energy              =   -1195.81858755 Ry
     Harris-Foulkes estimate   =   -1195.81869066 Ry
     estimated scf accuracy    <       0.00031591 Ry

     iteration #  8     ecut=   100.00 Ry     beta=0.50
     Davidson diagonalization with overlap
     ethr =  1.46E-07,  avg # of iterations =  2.0

     total cpu time spent up to now is      331.0 secs

     total energy              =   -1195.81861218 Ry
     Harris-Foulkes estimate   =   -1195.81863027 Ry
     estimated scf accuracy    <       0.00004656 Ry

     iteration #  9     ecut=   100.00 Ry     beta=0.50
     Davidson diagonalization with overlap
     ethr =  2.16E-08,  avg # of iterations =  4.0

     total cpu time spent up to now is      377.2 secs

     total energy              =   -1195.81863726 Ry
     Harris-Foulkes estimate   =   -1195.81864221 Ry
     estimated scf accuracy    <       0.00001868 Ry

     iteration # 10     ecut=   100.00 Ry     beta=0.50
     Davidson diagonalization with overlap
     ethr =  8.65E-09,  avg # of iterations =  1.0

     total cpu time spent up to now is      401.6 secs

     total energy              =   -1195.81863633 Ry
     Harris-Foulkes estimate   =   -1195.81863876 Ry
     estimated scf accuracy    <       0.00000639 Ry

     iteration # 11     ecut=   100.00 Ry     beta=0.50
     Davidson diagonalization with overlap
     ethr =  2.96E-09,  avg # of iterations =  3.4

     total cpu time spent up to now is      440.6 secs

     total energy              =   -1195.81863840 Ry
     Harris-Foulkes estimate   =   -1195.81863853 Ry
     estimated scf accuracy    <       0.00000059 Ry

     iteration # 12     ecut=   100.00 Ry     beta=0.50
     Davidson diagonalization with overlap
     ethr =  2.72E-10,  avg # of iterations =  2.0

     total cpu time spent up to now is      467.6 secs

     total energy              =   -1195.81863839 Ry
     Harris-Foulkes estimate   =   -1195.81863849 Ry
     estimated scf accuracy    <       0.00000023 Ry

     iteration # 13     ecut=   100.00 Ry     beta=0.50
     Davidson diagonalization with overlap
     ethr =  1.08E-10,  avg # of iterations =  4.0

     total cpu time spent up to now is      505.2 secs

     total energy              =   -1195.81863846 Ry
     Harris-Foulkes estimate   =   -1195.81863847 Ry
     estimated scf accuracy    <       0.00000005 Ry

     iteration # 14     ecut=   100.00 Ry     beta=0.50
     Davidson diagonalization with overlap
     ethr =  2.31E-11,  avg # of iterations =  2.1

     total cpu time spent up to now is      531.6 secs

     total energy              =   -1195.81863846 Ry
     Harris-Foulkes estimate   =   -1195.81863847 Ry
     estimated scf accuracy    <       0.00000001 Ry

     iteration # 15     ecut=   100.00 Ry     beta=0.50
     Davidson diagonalization with overlap
     ethr =  5.23E-12,  avg # of iterations =  4.0

     total cpu time spent up to now is      577.6 secs

     End of self-consistent calculation

          k = 0.0000 0.0000 0.0000 ( 63931 PWs)   bands (ev):

   -22.9775 -22.9493 -22.8810 -22.8606 -22.0194 -22.0126 -21.9644 -21.9461
   -19.4067 -19.3230 -16.3807 -16.3620 -16.3437 -16.3277 -15.8933 -15.8390
   -15.6849 -15.6369 -15.3410 -15.2856 -14.6138 -14.5726 -14.1961 -14.1563
   -14.0375 -13.9875 -12.0266 -11.9408 -10.0793 -10.0754 -10.0265 -10.0183
    -9.4036  -9.3374  -8.7928  -8.7748  -8.4132  -8.3590  -7.8272  -7.8132
    -7.7648  -7.7195  -7.2922  -7.2553  -6.4064  -6.2922  -6.1536  -6.1288
    -5.8030  -5.7069  -5.6287  -5.6056  -5.1939  -4.9931  -4.9739  -4.9381
    -4.4431  -4.4141  -4.2724  -4.2192  -4.1959  -4.1770  -3.6520  -3.5630
    -3.3738  -3.3425  -3.1604  -3.1498  -3.0538  -2.9896  -2.9176  -2.8883
    -2.8660  -2.8009  -1.9220  -1.8011  -1.6132  -1.5483  -1.3355  -1.2777
    -1.1982  -1.1481  -0.9863  -0.9568  -0.8977  -0.8558  -0.7463  -0.7430
    -0.6988  -0.5068  -0.4728  -0.3656  -0.3643  -0.2539  -0.2350  -0.2114
    -0.1154   0.0887   0.2026   0.2430   0.3183   0.4063   0.4521   0.5187
     0.5727   0.5840   1.4615   1.6285   3.1930   3.2530   4.4247   4.5934
     4.6484   4.7138   5.8410   5.8460   5.9417   6.2015   6.5197   6.5235
     7.0526   7.2714   7.8736   7.9509   8.1608   8.1682   8.4755   8.4866
     8.4874

          k = 0.0000 0.0000-0.4199 ( 64006 PWs)   bands (ev):

   -22.9767 -22.9503 -22.8803 -22.8611 -22.0184 -22.0136 -21.9644 -21.9461
   -19.4065 -19.3232 -16.3804 -16.3561 -16.3405 -16.3379 -15.8922 -15.8412
   -15.6624 -15.6574 -15.3383 -15.2878 -14.6138 -14.5738 -14.1942 -14.1579
   -14.0357 -13.9891 -12.0263 -11.9407 -10.0793 -10.0762 -10.0267 -10.0176
    -9.4024  -9.3393  -8.7872  -8.7774  -8.4135  -8.3605  -7.8266  -7.8166
    -7.7566  -7.7253  -7.2902  -7.2572  -6.3789  -6.3260  -6.1315  -6.1256
    -5.7999  -5.7094  -5.6700  -5.6428  -5.0545  -5.0539  -4.9838  -4.9533
    -4.4273  -4.4048  -4.2587  -4.2442  -4.1966  -4.1722  -3.6090  -3.5861
    -3.4016  -3.3887  -3.1354  -3.1314  -3.0459  -3.0405  -2.8968  -2.8727
    -2.8473  -2.8233  -1.9103  -1.7927  -1.6059  -1.5734  -1.3282  -1.2934
    -1.1835  -1.1646  -0.9832  -0.9243  -0.8895  -0.8660  -0.7723  -0.7281
    -0.6129  -0.5691  -0.4816  -0.3601  -0.3097  -0.2806  -0.2629  -0.2059
    -0.0876  -0.0119   0.1817   0.2813   0.3942   0.3988   0.4160   0.5053
     0.5601   0.5811   1.4855   1.6219   3.2132   3.2374   4.4436   4.4904
     4.6916   4.7490   5.8384   5.8703   6.0138   6.0732   6.5232   6.5503
     7.0605   7.2876   7.8895   7.9370   8.1137   8.1973   8.4704   8.4844
     8.5344

          k = 0.0000-0.4313 0.1591 ( 64048 PWs)   bands (ev):

   -22.9760 -22.9496 -22.8798 -22.8606 -22.0200 -22.0151 -21.9655 -21.9470
   -19.4065 -19.3232 -16.3496 -16.3431 -16.3333 -16.3083 -15.9042 -15.8505
   -15.6614 -15.6566 -15.3547 -15.3044 -14.6315 -14.5911 -14.2157 -14.1594
   -14.0448 -14.0184 -12.0172 -11.9277 -10.0709 -10.0256 -10.0006  -9.9981
    -9.3417  -9.3110  -8.7548  -8.7033  -8.4493  -8.4223  -7.9279  -7.9220
    -7.6882  -7.6527  -7.3330  -7.3058  -6.2778  -6.2420  -6.0365  -6.0255
    -5.8953  -5.7998  -5.6209  -5.6067  -5.2414  -5.1391  -4.9547  -4.8690
    -4.6140  -4.5907  -4.4161  -4.3782  -4.2294  -4.2133  -3.5859  -3.5470
    -3.2923  -3.2692  -3.2178  -3.2035  -3.1001  -3.0295  -2.7969  -2.7586
    -2.7129  -2.6999  -1.8444  -1.7878  -1.6033  -1.5147  -1.4122  -1.3521
    -1.2089  -1.1797  -0.8950  -0.8788  -0.8117  -0.7764  -0.7157  -0.7084
    -0.5725  -0.5380  -0.4827  -0.4776  -0.3771  -0.3356  -0.3085  -0.2925
    -0.0072   0.0887   0.1701   0.2081   0.3066   0.4041   0.4335   0.4375
     0.6007   0.7107   1.4938   1.6181   3.2250   3.2432   4.4724   4.5330
     4.6755   4.7268   5.6325   5.7254   6.0804   6.0817   6.6656   6.8478
     7.1424   7.1647   7.9945   8.0753   8.1181   8.1374   8.2674   8.2703
     8.3675

          k = 0.0000-0.4313-0.2608 ( 64020 PWs)   bands (ev):

   -22.9765 -22.9488 -22.8804 -22.8603 -22.0213 -22.0135 -21.9657 -21.9470
   -19.4066 -19.3231 -16.3574 -16.3422 -16.3257 -16.3082 -15.9054 -15.8504
   -15.6657 -15.6524 -15.3544 -15.3035 -14.6429 -14.5807 -14.2167 -14.1584
   -14.0446 -14.0182 -12.0185 -11.9263 -10.0711 -10.0252 -10.0028  -9.9960
    -9.3444  -9.3093  -8.7625  -8.6966  -8.4531  -8.4179  -7.9396  -7.9105
    -7.6904  -7.6488  -7.3366  -7.3018  -6.2987  -6.2179  -6.0483  -6.0125
    -5.9086  -5.7723  -5.6494  -5.5949  -5.2725  -5.1194  -4.9969  -4.8448
    -4.5751  -4.5426  -4.4645  -4.3853  -4.2284  -4.1800  -3.6337  -3.5403
    -3.3651  -3.2697  -3.2307  -3.1460  -3.0777  -3.0229  -2.7987  -2.7561
    -2.7472  -2.6764  -1.8550  -1.7721  -1.5703  -1.5417  -1.4308  -1.3286
    -1.2036  -1.1683  -0.9552  -0.8820  -0.7890  -0.7511  -0.6848  -0.6597
    -0.6291  -0.5646  -0.4790  -0.4648  -0.4133  -0.3422  -0.2735  -0.2478
    -0.0591   0.1072   0.1615   0.2500   0.2738   0.3322   0.3641   0.5466
     0.5936   0.7187   1.4871   1.6344   3.1971   3.2752   4.4753   4.5397
     4.7004   4.7063   5.5877   5.7766   6.0245   6.0964   6.6407   6.9064
     7.0887   7.1917   8.0475   8.0679   8.1463   8.1542   8.2020   8.2763
     8.3358

          k = 0.3333-0.0363-0.0036 ( 63992 PWs)   bands (ev):

   -22.9722 -22.9454 -22.8852 -22.8658 -22.0170 -22.0114 -21.9663 -21.9480
   -19.4085 -19.3256 -16.3952 -16.3669 -16.3317 -16.3195 -15.8436 -15.8156
   -15.7090 -15.6679 -15.3071 -15.2682 -14.6631 -14.6140 -14.1651 -14.1309
   -14.0653 -14.0175 -12.0099 -11.9364 -10.0893 -10.0549 -10.0515 -10.0036
    -9.3775  -9.3197  -8.8164  -8.7760  -8.3969  -8.3712  -7.8393  -7.8146
    -7.7479  -7.7268  -7.3078  -7.2564  -6.3652  -6.2450  -6.2296  -6.1485
    -5.8135  -5.7697  -5.7054  -5.6733  -5.0150  -4.9952  -4.9176  -4.8107
    -4.4439  -4.4078  -4.2760  -4.2603  -4.1574  -4.1370  -3.6756  -3.5613
    -3.4022  -3.3728  -3.1543  -3.1375  -3.0351  -2.9989  -2.9258  -2.8945
    -2.8789  -2.8419  -1.9374  -1.8939  -1.5693  -1.5399  -1.3345  -1.2455
    -1.1913  -1.1795  -1.0991  -1.0860  -0.9193  -0.8856  -0.8638  -0.8111
    -0.6768  -0.5903  -0.4401  -0.3657  -0.3118  -0.2492  -0.2272  -0.1759
     0.1457   0.1959   0.2118   0.2454   0.3518   0.3973   0.4391   0.4751
     0.6292   0.6734   1.4822   1.6253   3.1794   3.2486   4.3636   4.4816
     4.6907   4.7650   5.6697   5.7610   6.0569   6.2135   6.5156   6.5348
     7.1463   7.2314   7.8716   7.9553   8.0334   8.1291   8.4574   8.5260
     8.5481

          k = 0.3333-0.0363-0.4235 ( 64005 PWs)   bands (ev):

   -22.9719 -22.9455 -22.8852 -22.8659 -22.0167 -22.0116 -21.9665 -21.9479
   -19.4085 -19.3256 -16.3950 -16.3608 -16.3381 -16.3203 -15.8431 -15.8156
   -15.7030 -15.6728 -15.3072 -15.2685 -14.6640 -14.6135 -14.1653 -14.1310
   -14.0648 -14.0179 -12.0099 -11.9362 -10.0878 -10.0636 -10.0439 -10.0044
    -9.3761  -9.3202  -8.8175  -8.7752  -8.3958  -8.3712  -7.8392  -7.8153
    -7.7457  -7.7296  -7.3073  -7.2567  -6.3279  -6.3002  -6.1951  -6.1896
    -5.8113  -5.7290  -5.7140  -5.6858  -4.9883  -4.9506  -4.8994  -4.8922
    -4.4560  -4.4064  -4.2786  -4.2597  -4.1534  -4.1329  -3.6770  -3.5734
    -3.3997  -3.3797  -3.1558  -3.1372  -3.0123  -2.9998  -2.9208  -2.9000
    -2.8929  -2.8368  -1.9608  -1.8895  -1.5659  -1.5321  -1.3321  -1.2424
    -1.1957  -1.1727  -1.0987  -1.0772  -0.9124  -0.8887  -0.8216  -0.7934
    -0.6410  -0.6199  -0.4597  -0.3426  -0.3297  -0.2780  -0.2394  -0.1753
     0.1102   0.1477   0.2237   0.3006   0.3755   0.3848   0.4182   0.4368
     0.6381   0.7096   1.4852   1.6187   3.1772   3.2516   4.3688   4.4519
     4.7156   4.7665   5.6785   5.7563   6.0880   6.1786   6.5251   6.5464
     7.0931   7.2750   7.8698   7.9691   7.9957   8.1482   8.4601   8.5027
     8.5739

          k = 0.3333-0.4676 0.1555 ( 64030 PWs)   bands (ev):

   -22.9713 -22.9448 -22.8847 -22.8653 -22.0183 -22.0130 -21.9676 -21.9488
   -19.4085 -19.3256 -16.3690 -16.3373 -16.3247 -16.3057 -15.8551 -15.8277
   -15.6967 -15.6646 -15.3340 -15.2915 -14.6533 -14.6082 -14.2322 -14.2066
   -14.0504 -13.9925 -11.9966 -11.9249 -10.0629 -10.0413 -10.0229  -9.9662
    -9.3536  -9.2857  -8.7202  -8.7099  -8.4565  -8.4156  -7.9423  -7.9076
    -7.6855  -7.6714  -7.3715  -7.3086  -6.2515  -6.2324  -6.0723  -6.0469
    -5.8723  -5.8029  -5.7259  -5.6828  -5.1667  -5.0753  -4.8449  -4.7515
    -4.6456  -4.5916  -4.4197  -4.3633  -4.2205  -4.2095  -3.6399  -3.5380
    -3.2908  -3.2729  -3.2193  -3.2041  -3.1189  -3.0318  -2.7768  -2.7679
    -2.7425  -2.7065  -1.8921  -1.8212  -1.6146  -1.5073  -1.4049  -1.3098
    -1.2597  -1.2060  -1.1100  -1.0693  -0.7698  -0.7596  -0.7026  -0.6785
    -0.6165  -0.5927  -0.5174  -0.4389  -0.3653  -0.3387  -0.2979  -0.2720
     0.0995   0.2041   0.2867   0.3119   0.3489   0.3821   0.4590   0.5025
     0.5883   0.6777   1.4929   1.6252   3.1881   3.2605   4.4383   4.4674
     4.6243   4.7123   5.7416   5.7977   5.9901   6.0142   6.6212   6.7644
     7.1236   7.3083   7.8914   8.0253   8.1115   8.1894   8.2561   8.2805
     8.3439

          k = 0.3333-0.4676-0.2644 ( 63998 PWs)   bands (ev):

   -22.9713 -22.9447 -22.8847 -22.8654 -22.0187 -22.0125 -21.9677 -21.9489
   -19.4085 -19.3256 -16.3697 -16.3446 -16.3155 -16.3062 -15.8561 -15.8285
   -15.6958 -15.6646 -15.3339 -15.2912 -14.6560 -14.6056 -14.2326 -14.2070
   -14.0491 -13.9930 -11.9970 -11.9242 -10.0644 -10.0383 -10.0247  -9.9663
    -9.3538  -9.2862  -8.7270  -8.7041  -8.4580  -8.4139  -7.9428  -7.9077
    -7.6841  -7.6715  -7.3710  -7.3077  -6.2680  -6.2191  -6.0791  -6.0409
    -5.8898  -5.8033  -5.7093  -5.6767  -5.1676  -5.0753  -4.8567  -4.7167
    -4.6356  -4.5867  -4.4382  -4.3725  -4.2227  -4.2099  -3.6431  -3.5451
    -3.3312  -3.2632  -3.2345  -3.1698  -3.1136  -3.0334  -2.7778  -2.7652
    -2.7412  -2.7106  -1.8936  -1.8220  -1.6177  -1.5090  -1.4069  -1.3020
    -1.2571  -1.2111  -1.0923  -1.0522  -0.7956  -0.7600  -0.7367  -0.6598
    -0.6255  -0.5886  -0.4581  -0.4129  -0.3958  -0.3476  -0.2860  -0.2445
     0.0708   0.1853   0.2654   0.2951   0.3493   0.3725   0.4475   0.5509
     0.5877   0.6759   1.4937   1.6272   3.1846   3.2644   4.4227   4.5055
     4.5861   4.7345   5.7127   5.8307   5.9873   6.0007   6.6321   6.7822
     7.0968   7.3098   7.9066   8.0418   8.1050   8.1778   8.2080   8.2569
     8.3967

     highest occupied, lowest unoccupied level (ev):     1.6344    3.1772

!    total energy              =   -1195.81863846 Ry
     Harris-Foulkes estimate   =   -1195.81863847 Ry
     estimated scf accuracy    <          4.8E-09 Ry

     total all-electron energy =     -4616.795405 Ry

     The total energy is the sum of the following terms:

     one-electron contribution =    -573.63625014 Ry
     hartree contribution      =     375.68824789 Ry
     xc contribution           =    -234.64247038 Ry
     ewald contribution        =    -414.53937721 Ry
     Dispersion Correction     =      -0.23626354 Ry
     one-center paw contrib.   =    -348.45252510 Ry

     convergence has been achieved in  15 iterations

     Forces acting on atoms (cartesian axes, Ry/au):

     atom    1 type  2   force =     0.00138962   -0.00279790   -0.00031667
     atom    2 type  2   force =    -0.00138962    0.00279790    0.00031667
     atom    3 type  2   force =     0.00106675    0.00096255    0.00122286
     atom    4 type  2   force =    -0.00106675   -0.00096255   -0.00122286
     atom    5 type  2   force =     0.00255935   -0.00002789   -0.00000972
     atom    6 type  2   force =    -0.00255935    0.00002789    0.00000972
     atom    7 type  2   force =     0.00338153   -0.00309485    0.00288732
     atom    8 type  2   force =    -0.00338153    0.00309485   -0.00288732
     atom    9 type  2   force =     0.00574368    0.00005872    0.00331702
     atom   10 type  2   force =    -0.00574368   -0.00005872   -0.00331702
     atom   11 type  4   force =     0.00024484    0.00390249    0.00073846
     atom   12 type  4   force =    -0.00024484   -0.00390249   -0.00073846
     atom   13 type  4   force =    -0.00106186   -0.00118416   -0.00586510
     atom   14 type  4   force =     0.00106186    0.00118416    0.00586510
     atom   15 type  1   force =    -0.00130837   -0.00196880   -0.00121158
     atom   16 type  1   force =     0.00130837    0.00196880    0.00121158
     atom   17 type  3   force =     0.00004995   -0.00009716   -0.00096983
     atom   18 type  3   force =    -0.00004995    0.00009716    0.00096983
     atom   19 type  1   force =    -0.00114750    0.00246664   -0.00042639
     atom   20 type  1   force =     0.00114750   -0.00246664    0.00042639
     atom   21 type  1   force =    -0.00057626   -0.00258182   -0.00262864
     atom   22 type  1   force =     0.00057626    0.00258182    0.00262864
     atom   23 type  1   force =    -0.00664505    0.00447951   -0.00366554
     atom   24 type  1   force =     0.00664505   -0.00447951    0.00366554
     atom   25 type  2   force =    -0.00086551   -0.00322058    0.00107959
     atom   26 type  2   force =     0.00086551    0.00322058   -0.00107959
     atom   27 type  2   force =    -0.00125373    0.00021557    0.00080590
     atom   28 type  2   force =     0.00125373   -0.00021557   -0.00080590
     atom   29 type  2   force =    -0.00020872    0.00246578   -0.00091254
     atom   30 type  2   force =     0.00020872   -0.00246578    0.00091254
     atom   31 type  2   force =    -0.00586177   -0.00186432   -0.00106302
     atom   32 type  2   force =     0.00586177    0.00186432    0.00106302
     atom   33 type  2   force =    -0.00639648    0.00330654    0.00108052
     atom   34 type  2   force =     0.00639648   -0.00330654   -0.00108052
     atom   35 type  4   force =     0.00101193    0.00366053    0.00051840
     atom   36 type  4   force =    -0.00101193   -0.00366053   -0.00051840
     atom   37 type  4   force =    -0.00235989   -0.00426306   -0.00213831
     atom   38 type  4   force =     0.00235989    0.00426306    0.00213831
     atom   39 type  1   force =     0.00058842   -0.00138522   -0.00133702
     atom   40 type  1   force =    -0.00058842    0.00138522    0.00133702
     atom   41 type  3   force =    -0.00030171   -0.00082069   -0.00078686
     atom   42 type  3   force =     0.00030171    0.00082069    0.00078686
     atom   43 type  1   force =     0.00208079    0.00396992    0.00070655
     atom   44 type  1   force =    -0.00208079   -0.00396992   -0.00070655
     atom   45 type  1   force =    -0.00089083   -0.00449623    0.00066154
     atom   46 type  1   force =     0.00089083    0.00449623   -0.00066154
     atom   47 type  1   force =     0.00752235    0.00354593   -0.00320232
     atom   48 type  1   force =    -0.00752235   -0.00354593    0.00320232

     Total force =     0.032760     Total SCF correction =     0.000138


     Computing stress (Cartesian axis) and pressure

          total   stress  (Ry/bohr**3)                   (kbar)     P=   -2.92
  -0.00001256  -0.00000196   0.00000233         -1.85     -0.29      0.34
  -0.00000196  -0.00003364   0.00000643         -0.29     -4.95      0.95
   0.00000233   0.00000643  -0.00001333          0.34      0.95     -1.96


     Writing output data file scf.save
 
     init_run     :     18.73s CPU     19.44s WALL (       1 calls)
     electrons    :    536.97s CPU    557.72s WALL (       1 calls)
     forces       :      9.87s CPU      9.93s WALL (       1 calls)
     stress       :     30.63s CPU     30.75s WALL (       1 calls)

     Called by init_run:
     wfcinit      :     12.43s CPU     13.05s WALL (       1 calls)
     potinit      :      2.26s CPU      2.30s WALL (       1 calls)

     Called by electrons:
     c_bands      :    479.57s CPU    497.34s WALL (      15 calls)
     sum_band     :     50.95s CPU     53.31s WALL (      15 calls)
     v_of_rho     :      1.13s CPU      1.27s WALL (      16 calls)
     newd         :      2.19s CPU      2.57s WALL (      16 calls)
     PAW_pot      :      2.92s CPU      2.92s WALL (      16 calls)
     mix_rho      :      0.23s CPU      0.25s WALL (      15 calls)

     Called by c_bands:
     init_us_2    :      2.96s CPU      2.98s WALL (     264 calls)
     cegterg      :    467.24s CPU    484.97s WALL (     120 calls)

     Called by sum_band:
     sum_band:bec :      0.04s CPU      0.04s WALL (     120 calls)
     addusdens    :      2.21s CPU      2.57s WALL (      15 calls)

     Called by *egterg:
     h_psi        :    265.45s CPU    278.68s WALL (     654 calls)
     s_psi        :     47.35s CPU     47.36s WALL (     654 calls)
     g_psi        :      1.45s CPU      1.45s WALL (     526 calls)
     cdiaghg      :     36.07s CPU     36.07s WALL (     646 calls)

     Called by h_psi:
     h_psi:pot    :    263.80s CPU    276.99s WALL (     654 calls)
     h_psi:calbec :     47.65s CPU     47.78s WALL (     654 calls)
     vloc_psi     :    168.42s CPU    181.47s WALL (     654 calls)
     add_vuspsi   :     47.73s CPU     47.73s WALL (     654 calls)

     General routines
     calbec       :     70.89s CPU     71.10s WALL (     814 calls)
     fft          :      0.99s CPU      1.23s WALL (     232 calls)
     fftw         :    181.51s CPU    195.67s WALL (  104940 calls)
 
     Parallel routines
     fft_scatter  :     41.59s CPU     50.49s WALL (  105172 calls)
 
     PWSCF        : 10m 1.38s CPU    10m24.16s WALL

 
   This run was terminated on:  22:31:39   4Nov2017            

=------------------------------------------------------------------------------=
   JOB DONE.
=------------------------------------------------------------------------------=
