
     Program PWSCF v.6.1 (svn rev. 13369) starts on  4Nov2017 at  2:46: 4 

     This program is part of the open-source Quantum ESPRESSO suite
     for quantum simulation of materials; please cite
         "P. Giannozzi et al., J. Phys.:Condens. Matter 21 395502 (2009);
          URL http://www.quantum-espresso.org", 
     in publications or presentations arising from this work. More details at
     http://www.quantum-espresso.org/quote

     Parallel version (MPI), running on     8 processors
     R & G space division:  proc/nbgrp/npool/nimage =       8
     Waiting for input...
     Reading input from standard input

     Current dimensions of program PWSCF are:
     Max number of different atomic species (ntypx) = 10
     Max number of k-points (npk) =  40000
     Max angular momentum in pseudopotentials (lmaxx) =  3
               file C.pbe-n-kjpaw_psl.0.1.UPF: wavefunction(s)  2P renormalized
               file N.pbe-n-kjpaw_psl.0.1.UPF: wavefunction(s)  2P renormalized
               file H.pbe-kjpaw_psl.0.1.UPF: wavefunction(s)  1S renormalized
               file O.pbe-n-kjpaw_psl.0.1.UPF: wavefunction(s)  2P renormalized

     -------------------------------------
     Parameters for Dispersion Correction:
     -------------------------------------
       atom      VdW radius       C_6     

        C          2.744         60.710
        N          2.640         42.670
        H          1.892          4.857
        O          2.536         24.284

     Subspace diagonalization in iterative solution of the eigenvalue problem:
     a serial algorithm will be used

 
     Parallelization info
     --------------------
     sticks:   dense  smooth     PW     G-vecs:    dense   smooth      PW
     Min         899     899    242                73087    73087   10285
     Max         900     900    243                73090    73090   10289
     Sum        7197    7197   1937               584709   584709   82289
 


     bravais-lattice index     =            0
     lattice parameter (alat)  =      10.2593  a.u.
     unit-cell volume          =    4327.7199 (a.u.)^3
     number of atoms/cell      =           76
     number of atomic types    =            4
     number of electrons       =       192.00
     number of Kohn-Sham states=          115
     kinetic-energy cutoff     =     100.0000  Ry
     charge density cutoff     =     400.0000  Ry
     convergence threshold     =      1.0E-08
     mixing beta               =       0.5000
     number of iterations used =            8  plain     mixing
     Exchange-correlation      =  SLA  PW   PBX  PBC ( 1  4  3  4 0 0)

     celldm(1)=  10.259323  celldm(2)=   0.000000  celldm(3)=   0.000000
     celldm(4)=   0.000000  celldm(5)=   0.000000  celldm(6)=   0.000000

     crystal axes: (cart. coord. in units of alat)
               a(1) = (   1.000000   0.000000   0.000000 )  
               a(2) = (   0.000000   2.146988   0.000000 )  
               a(3) = (  -0.355078   0.000000   1.866695 )  

     reciprocal axes: (cart. coord. in units 2 pi/alat)
               b(1) = (  1.000000  0.000000  0.190218 )  
               b(2) = (  0.000000  0.465769  0.000000 )  
               b(3) = (  0.000000  0.000000  0.535706 )  


     PseudoPot. # 1 for  C read from file:
     /scratch/ahofstet/pseudo/C.pbe-n-kjpaw_psl.0.1.UPF
     MD5 check sum: 430fe95172b1e11ef3f8ed03bac87931
     Pseudo is Projector augmented-wave + core cor, Zval =  4.0
     Generated using "atomic" code by A. Dal Corso  v.5.0.99 svn rev. 10869
     Shape of augmentation charge: BESSEL
     Using radial grid of 1073 points,  4 beta functions with: 
                l(1) =   0
                l(2) =   0
                l(3) =   1
                l(4) =   1
     Q(r) pseudized with 0 coefficients 


     PseudoPot. # 2 for  N read from file:
     /scratch/ahofstet/pseudo/N.pbe-n-kjpaw_psl.0.1.UPF
     MD5 check sum: f73187c8b701007e77325f868c9291d7
     Pseudo is Projector augmented-wave + core cor, Zval =  5.0
     Generated using "atomic" code by A. Dal Corso  v.5.0.99 svn rev. 10869
     Shape of augmentation charge: PSQ
     Using radial grid of 1085 points,  4 beta functions with: 
                l(1) =   0
                l(2) =   0
                l(3) =   1
                l(4) =   1
     Q(r) pseudized with 0 coefficients 


     PseudoPot. # 3 for  H read from file:
     /scratch/ahofstet/pseudo/H.pbe-kjpaw_psl.0.1.UPF
     MD5 check sum: 94e484f906d9e9773b2f6e52662335b2
     Pseudo is Projector augmented-wave, Zval =  1.0
     Generated using "atomic" code by A. Dal Corso  v.5.0.99 svn rev. 10869
     Shape of augmentation charge: PSQ
     Using radial grid of  929 points,  2 beta functions with: 
                l(1) =   0
                l(2) =   0
     Q(r) pseudized with 0 coefficients 


     PseudoPot. # 4 for  O read from file:
     /scratch/ahofstet/pseudo/O.pbe-n-kjpaw_psl.0.1.UPF
     MD5 check sum: 3f94a2996a3169367d6eb21d9b593f20
     Pseudo is Projector augmented-wave + core cor, Zval =  6.0
     Generated using "atomic" code by A. Dal Corso  v.5.0.99 svn rev. 10869
     Shape of augmentation charge: BESSEL
     Using radial grid of 1095 points,  4 beta functions with: 
                l(1) =   0
                l(2) =   0
                l(3) =   1
                l(4) =   1
     Q(r) pseudized with 0 coefficients 


     atomic species   valence    mass     pseudopotential
        C              4.00    12.01070      C( 1.00)
        N              5.00    14.00670      N( 1.00)
        H              1.00     1.00794      H( 1.00)
        O              6.00    15.99940      O( 1.00)

      2 Sym. Ops., with inversion, found
          (note:  2 additional sym.ops. were found but ignored
           their fractional translations are incommensurate with FFT grid)


   Cartesian axes

     site n.     atom                  positions (alat units)
         1           C   tau(   1) = (   0.2210181   0.2015775   0.1701265  )
         2           C   tau(   2) = (   0.0434790   0.8719167   1.1034739  )
         3           C   tau(   3) = (   0.4239037   1.9454109   1.6965683  )
         4           C   tau(   4) = (   0.6014428   1.2750717   0.7632209  )
         5           H   tau(   5) = (   0.2395820   0.0527996   0.0334589  )
         6           H   tau(   6) = (   0.0620429   1.0206946   0.9668063  )
         7           H   tau(   7) = (   0.4053398   2.0941888   1.8332359  )
         8           H   tau(   8) = (   0.5828789   1.1262938   0.8998885  )
         9           C   tau(   9) = (   0.1020153   0.1009761   0.4015409  )
        10           C   tau(  10) = (  -0.0755238   0.9725181   1.3348883  )
        11           C   tau(  11) = (   0.5429065   2.0460123   1.4651539  )
        12           C   tau(  12) = (   0.7204456   1.1744703   0.5318065  )
        13           H   tau(  13) = (  -0.0629630  -0.0112861   0.3787478  )
        14           H   tau(  14) = (  -0.2405021   1.0847803   1.3120952  )
        15           H   tau(  15) = (   0.7078848   2.1582745   1.4879470  )
        16           H   tau(  16) = (   0.8854239   1.0622081   0.5545996  )
        17           C   tau(  17) = (   0.2008650   0.1404051   0.6250460  )
        18           C   tau(  18) = (   0.0233259   0.9330891   1.5583934  )
        19           C   tau(  19) = (   0.4440568   2.0065833   1.2416488  )
        20           C   tau(  20) = (   0.6215959   1.2138993   0.3083014  )
        21           H   tau(  21) = (   0.1170106   0.0595817   0.7891704  )
        22           H   tau(  22) = (  -0.0605285   1.0139125   1.7225178  )
        23           H   tau(  23) = (   0.5279112   2.0874067   1.0775244  )
        24           H   tau(  24) = (   0.7054503   1.1330759   0.1441770  )
        25           C   tau(  25) = (   0.4267845   0.2968044   0.6601902  )
        26           C   tau(  26) = (   0.2492454   0.7766898   1.5935376  )
        27           C   tau(  27) = (   0.2181373   1.8501840   1.2065045  )
        28           C   tau(  28) = (   0.3956764   1.3702986   0.2731572  )
        29           H   tau(  29) = (   0.5932193   0.1812018   0.6919314  )
        30           H   tau(  30) = (   0.4156802   0.8922924   1.6252788  )
        31           H   tau(  31) = (   0.0517025   1.9657866   1.1747634  )
        32           H   tau(  32) = (   0.2292416   1.2546960   0.2414160  )
        33           H   tau(  33) = (   0.4064679   0.4162741   0.8229709  )
        34           H   tau(  34) = (   0.2289288   0.6572201   1.7563183  )
        35           H   tau(  35) = (   0.2384539   1.7307143   1.0437239  )
        36           H   tau(  36) = (   0.4159930   1.4897683   0.1103765  )
        37           C   tau(  37) = (   0.4710294   0.4493689   0.4256868  )
        38           C   tau(  38) = (   0.2934903   0.6241253   1.3590342  )
        39           C   tau(  39) = (   0.1738924   1.6976195   1.4410080  )
        40           C   tau(  40) = (   0.3514315   1.5228631   0.5076606  )
        41           H   tau(  41) = (   0.6624171   0.5253984   0.4277341  )
        42           H   tau(  42) = (   0.4848780   0.5480958   1.3610815  )
        43           H   tau(  43) = (  -0.0174953   1.6215900   1.4389607  )
        44           H   tau(  44) = (   0.1600438   1.5988925   0.5056133  )
        45           C   tau(  45) = (   0.2858616   0.6511223   0.3939544  )
        46           C   tau(  46) = (   0.1083225   0.4223719   1.3273018  )
        47           C   tau(  47) = (   0.3590602   1.4958661   1.4727404  )
        48           C   tau(  48) = (   0.5365993   1.7246165   0.5393930  )
        49           H   tau(  49) = (   0.3035013   0.8092433   0.5169746  )
        50           H   tau(  50) = (   0.1259622   0.2642509   1.4503220  )
        51           H   tau(  51) = (   0.3414205   1.3377451   1.3497202  )
        52           H   tau(  52) = (   0.5189596   1.8827375   0.4163728  )
        53           C   tau(  53) = (   0.1084766   0.6417529   0.2217014  )
        54           C   tau(  54) = (  -0.0690625   0.4317413   1.1550488  )
        55           C   tau(  55) = (   0.5364452   1.5052355   1.6449933  )
        56           C   tau(  56) = (   0.7139843   1.7152471   0.7116460  )
        57           H   tau(  57) = (  -0.0186126   0.7957855   0.1977517  )
        58           H   tau(  58) = (  -0.1961517   0.2777087   1.1310991  )
        59           H   tau(  59) = (   0.6635344   1.3512029   1.6689431  )
        60           H   tau(  60) = (   0.8410735   1.8692797   0.7355957  )
        61           C   tau(  61) = (   0.0834966   0.4228221   0.0533518  )
        62           C   tau(  62) = (  -0.0940425   0.6506721   0.9866992  )
        63           C   tau(  63) = (   0.5614252   1.7241663   1.8133430  )
        64           C   tau(  64) = (   0.7389643   1.4963163   0.8799956  )
        65           H   tau(  65) = (  -0.1858034   0.4616807   1.7399231  )
        66           H   tau(  66) = (  -0.0082643   0.6118135   0.8065757  )
        67           H   tau(  67) = (   0.8307252   1.6853077   0.1267717  )
        68           H   tau(  68) = (   0.6531861   1.5351749   1.0601191  )
        69           H   tau(  69) = (   0.8891011   0.3804053   0.0182628  )
        70           H   tau(  70) = (   0.7115620   0.6930889   0.9516102  )
        71           H   tau(  71) = (  -0.2441793   1.7665831   1.8484320  )
        72           H   tau(  72) = (  -0.0666402   1.4538995   0.9150846  )
        73           O   tau(  73) = (   0.4687509   0.2797567   0.2204117  )
        74           O   tau(  74) = (   0.2912118   0.7937375   1.1537591  )
        75           O   tau(  75) = (   0.1761709   1.8672317   1.6462831  )
        76           O   tau(  76) = (   0.3537100   1.3532509   0.7129357  )

     number of k points=    12
                       cart. coord. in units 2pi/alat
        k(    1) = (   0.0000000   0.0000000   0.0000000), wk =   0.1250000
        k(    2) = (   0.0000000   0.0000000  -0.2678531), wk =   0.1250000
        k(    3) = (   0.0000000  -0.2328844   0.0000000), wk =   0.1250000
        k(    4) = (   0.0000000  -0.2328844  -0.2678531), wk =   0.1250000
        k(    5) = (   0.2500000   0.0000000   0.0475544), wk =   0.2500000
        k(    6) = (   0.2500000   0.0000000  -0.2202987), wk =   0.2500000
        k(    7) = (   0.2500000  -0.2328844   0.0475544), wk =   0.2500000
        k(    8) = (   0.2500000  -0.2328844  -0.2202987), wk =   0.2500000
        k(    9) = (  -0.5000000   0.0000000  -0.0951088), wk =   0.1250000
        k(   10) = (  -0.5000000   0.0000000  -0.3629619), wk =   0.1250000
        k(   11) = (  -0.5000000  -0.2328844  -0.0951088), wk =   0.1250000
        k(   12) = (  -0.5000000  -0.2328844  -0.3629619), wk =   0.1250000

     Dense  grid:   584709 G-vectors     FFT dimensions: (  72, 144, 125)

     Estimated max dynamical RAM per process >     439.04MB

     Estimated total allocated dynamical RAM >    3512.28MB

     Check: negative/imaginary core charge=   -0.000002    0.000000

     Initial potential from superposition of free atoms

     starting charge  191.99828, renormalised to  192.00000
     Starting wfc are  184 randomized atomic wfcs
     Checking if some PAW data can be deallocated... 

     total cpu time spent up to now is       30.5 secs

     per-process dynamical memory:   361.9 Mb

     Self-consistent Calculation

     iteration #  1     ecut=   100.00 Ry     beta=0.50
     Davidson diagonalization with overlap
     ethr =  1.00E-02,  avg # of iterations =  4.8

     total cpu time spent up to now is      100.1 secs

     total energy              =    -802.72142638 Ry
     Harris-Foulkes estimate   =    -806.60362618 Ry
     estimated scf accuracy    <       7.60916934 Ry

     iteration #  2     ecut=   100.00 Ry     beta=0.50
     Davidson diagonalization with overlap
     ethr =  3.96E-03,  avg # of iterations =  1.1

     total cpu time spent up to now is      134.0 secs

     total energy              =    -802.63049422 Ry
     Harris-Foulkes estimate   =    -803.18918235 Ry
     estimated scf accuracy    <       1.05341953 Ry

     iteration #  3     ecut=   100.00 Ry     beta=0.50
     Davidson diagonalization with overlap
     ethr =  5.49E-04,  avg # of iterations =  5.0

     total cpu time spent up to now is      213.2 secs

     total energy              =    -804.22361351 Ry
     Harris-Foulkes estimate   =    -804.56118084 Ry
     estimated scf accuracy    <       2.23279140 Ry

     iteration #  4     ecut=   100.00 Ry     beta=0.50
     Davidson diagonalization with overlap
     ethr =  5.49E-04,  avg # of iterations =  1.0

     total cpu time spent up to now is      247.0 secs

     total energy              =    -802.93716944 Ry
     Harris-Foulkes estimate   =    -804.23273250 Ry
     estimated scf accuracy    <       1.63216836 Ry

     iteration #  5     ecut=   100.00 Ry     beta=0.50
     Davidson diagonalization with overlap
     ethr =  5.49E-04,  avg # of iterations =  4.3

     total cpu time spent up to now is      322.6 secs

     total energy              =    -803.22697059 Ry
     Harris-Foulkes estimate   =    -804.82924978 Ry
     estimated scf accuracy    <       2.96834266 Ry

     iteration #  6     ecut=   100.00 Ry     beta=0.50
     Davidson diagonalization with overlap
     ethr =  5.49E-04,  avg # of iterations =  5.3

     total cpu time spent up to now is      384.0 secs

     total energy              =    -803.84365462 Ry
     Harris-Foulkes estimate   =    -803.84390658 Ry
     estimated scf accuracy    <       0.00776788 Ry

     iteration #  7     ecut=   100.00 Ry     beta=0.50
     Davidson diagonalization with overlap
     c_bands:  1 eigenvalues not converged
     c_bands:  1 eigenvalues not converged
     c_bands:  2 eigenvalues not converged
     c_bands:  1 eigenvalues not converged
     c_bands:  2 eigenvalues not converged
     c_bands:  2 eigenvalues not converged
     c_bands:  2 eigenvalues not converged
     ethr =  4.05E-06,  avg # of iterations = 16.1

     total cpu time spent up to now is      467.4 secs

     total energy              =    -803.84593193 Ry
     Harris-Foulkes estimate   =    -803.84926833 Ry
     estimated scf accuracy    <       0.00849401 Ry

     iteration #  8     ecut=   100.00 Ry     beta=0.50
     Davidson diagonalization with overlap
     c_bands:  1 eigenvalues not converged
     c_bands:  1 eigenvalues not converged
     c_bands:  1 eigenvalues not converged
     ethr =  4.05E-06,  avg # of iterations = 11.9

     total cpu time spent up to now is      514.9 secs

     total energy              =    -803.84509875 Ry
     Harris-Foulkes estimate   =    -803.84631130 Ry
     estimated scf accuracy    <       0.00243439 Ry

     iteration #  9     ecut=   100.00 Ry     beta=0.50
     Davidson diagonalization with overlap
     ethr =  1.27E-06,  avg # of iterations =  7.7

     total cpu time spent up to now is      581.7 secs

     total energy              =    -803.84680353 Ry
     Harris-Foulkes estimate   =    -803.84676673 Ry
     estimated scf accuracy    <       0.00052021 Ry

     iteration # 10     ecut=   100.00 Ry     beta=0.50
     Davidson diagonalization with overlap
     ethr =  2.71E-07,  avg # of iterations =  1.1

     total cpu time spent up to now is      615.6 secs

     total energy              =    -803.84657719 Ry
     Harris-Foulkes estimate   =    -803.84681355 Ry
     estimated scf accuracy    <       0.00058934 Ry

     iteration # 11     ecut=   100.00 Ry     beta=0.50
     Davidson diagonalization with overlap
     ethr =  2.71E-07,  avg # of iterations =  1.0

     total cpu time spent up to now is      649.5 secs

     total energy              =    -803.84651738 Ry
     Harris-Foulkes estimate   =    -803.84660052 Ry
     estimated scf accuracy    <       0.00019794 Ry

     iteration # 12     ecut=   100.00 Ry     beta=0.50
     Davidson diagonalization with overlap
     ethr =  1.03E-07,  avg # of iterations =  3.6

     total cpu time spent up to now is      705.1 secs

     total energy              =    -803.84661243 Ry
     Harris-Foulkes estimate   =    -803.84661333 Ry
     estimated scf accuracy    <       0.00001079 Ry

     iteration # 13     ecut=   100.00 Ry     beta=0.50
     Davidson diagonalization with overlap
     ethr =  5.62E-09,  avg # of iterations =  2.3

     total cpu time spent up to now is      744.1 secs

     total energy              =    -803.84660856 Ry
     Harris-Foulkes estimate   =    -803.84661356 Ry
     estimated scf accuracy    <       0.00000934 Ry

     iteration # 14     ecut=   100.00 Ry     beta=0.50
     Davidson diagonalization with overlap
     ethr =  4.86E-09,  avg # of iterations =  2.8

     total cpu time spent up to now is      780.2 secs

     total energy              =    -803.84660889 Ry
     Harris-Foulkes estimate   =    -803.84660944 Ry
     estimated scf accuracy    <       0.00000156 Ry

     iteration # 15     ecut=   100.00 Ry     beta=0.50
     Davidson diagonalization with overlap
     ethr =  8.10E-10,  avg # of iterations =  4.0

     total cpu time spent up to now is      851.7 secs

     total energy              =    -803.84661027 Ry
     Harris-Foulkes estimate   =    -803.84661104 Ry
     estimated scf accuracy    <       0.00000140 Ry

     iteration # 16     ecut=   100.00 Ry     beta=0.50
     Davidson diagonalization with overlap
     ethr =  7.30E-10,  avg # of iterations =  1.1

     total cpu time spent up to now is      885.6 secs

     total energy              =    -803.84661025 Ry
     Harris-Foulkes estimate   =    -803.84661037 Ry
     estimated scf accuracy    <       0.00000027 Ry

     iteration # 17     ecut=   100.00 Ry     beta=0.50
     Davidson diagonalization with overlap
     ethr =  1.40E-10,  avg # of iterations =  4.0

     total cpu time spent up to now is      958.3 secs

     total energy              =    -803.84661057 Ry
     Harris-Foulkes estimate   =    -803.84661089 Ry
     estimated scf accuracy    <       0.00000093 Ry

     iteration # 18     ecut=   100.00 Ry     beta=0.50
     Davidson diagonalization with overlap
     ethr =  1.40E-10,  avg # of iterations =  1.0

     total cpu time spent up to now is      992.1 secs

     total energy              =    -803.84661044 Ry
     Harris-Foulkes estimate   =    -803.84661059 Ry
     estimated scf accuracy    <       0.00000041 Ry

     iteration # 19     ecut=   100.00 Ry     beta=0.50
     Davidson diagonalization with overlap
     ethr =  1.40E-10,  avg # of iterations =  4.0

     total cpu time spent up to now is     1051.0 secs

     End of self-consistent calculation

          k = 0.0000 0.0000 0.0000 ( 73085 PWs)   bands (ev):

   -19.6153 -19.6091 -19.5997 -19.5968 -13.8516 -13.7591 -13.7270 -13.6895
   -13.3020 -13.2298 -13.1557 -13.1361 -13.0994 -13.0014 -12.9633 -12.9408
   -10.4103 -10.4070 -10.4034 -10.3175  -9.5735  -9.4740  -9.4137  -9.4056
    -9.0181  -8.9935  -8.9088  -8.9017  -7.4489  -7.4031  -7.3872  -7.3520
    -6.9505  -6.4989  -6.4146  -6.4068  -5.6399  -5.4717  -5.4671  -5.4209
    -5.1815  -5.1700  -5.1440  -5.0804  -5.0293  -5.0238  -5.0072  -5.0014
    -4.6107  -4.5396  -4.3083  -4.2423  -4.0856  -3.9212  -3.7801  -3.7377
    -3.5208  -3.5111  -3.5065  -3.4532  -3.4267  -3.3504  -3.3447  -3.2480
    -3.2216  -3.1310  -3.1249  -3.0619  -2.5547  -2.5499  -2.5261  -2.4906
    -2.4793  -2.4552  -2.3523  -2.2773  -1.9212  -1.8791  -1.8134  -1.7785
    -0.8427  -0.8406  -0.7905  -0.7222  -0.1003  -0.0110   0.0996   0.1748
     0.2389   0.2422   0.3396   0.4240   0.4318   0.4854   0.4987   0.5727
     5.2209   5.4620   5.4912   5.5379   5.6220   5.6415   5.6867   5.8726
     6.0091   6.6574   7.0498   7.0572   7.0790   7.4815   7.6629   7.7830
     7.9273   8.0225   8.1815

          k = 0.0000 0.0000-0.2679 ( 73056 PWs)   bands (ev):

   -19.6122 -19.6122 -19.5983 -19.5983 -13.7990 -13.7990 -13.7268 -13.7268
   -13.2083 -13.2083 -13.2031 -13.2031 -13.0386 -13.0386 -12.9503 -12.9503
   -10.4111 -10.4111 -10.3692 -10.3692  -9.4876  -9.4876  -9.4370  -9.4370
    -8.9628  -8.9628  -8.9523  -8.9523  -7.4293  -7.4293  -7.3687  -7.3687
    -6.7393  -6.7392  -6.4020  -6.4020  -5.5985  -5.5985  -5.3919  -5.3919
    -5.1786  -5.1786  -5.0966  -5.0966  -5.0453  -5.0453  -5.0132  -5.0132
    -4.4354  -4.4354  -4.3865  -4.3865  -3.9763  -3.9763  -3.7499  -3.7499
    -3.5798  -3.5798  -3.4760  -3.4760  -3.4437  -3.4437  -3.2556  -3.2556
    -3.1613  -3.1613  -3.0895  -3.0895  -2.6379  -2.6379  -2.5000  -2.5000
    -2.3901  -2.3901  -2.2993  -2.2992  -1.9120  -1.9120  -1.7918  -1.7918
    -0.8933  -0.8933  -0.7308  -0.7308   0.0939   0.0939   0.1555   0.1555
     0.1824   0.1824   0.3356   0.3356   0.4451   0.4451   0.5064   0.5064
     5.2530   5.2530   5.5248   5.5248   5.7610   5.7610   5.8186   5.8186
     6.1951   6.1951   6.9718   6.9718   7.4532   7.4532   7.7283   7.7283
     8.0265   8.0266   8.1831

          k = 0.0000-0.2329 0.0000 ( 73062 PWs)   bands (ev):

   -19.6126 -19.6125 -19.5979 -19.5979 -13.8117 -13.8117 -13.7065 -13.7065
   -13.2707 -13.2707 -13.1324 -13.1324 -13.0371 -13.0371 -12.9700 -12.9700
   -10.4170 -10.4169 -10.3513 -10.3513  -9.5298  -9.5298  -9.4045  -9.4045
    -9.0078  -9.0078  -8.9038  -8.9038  -7.4219  -7.4219  -7.3671  -7.3671
    -6.7894  -6.7894  -6.3700  -6.3700  -5.5630  -5.5630  -5.4141  -5.4141
    -5.1483  -5.1483  -5.0879  -5.0878  -5.0721  -5.0721  -5.0139  -5.0139
    -4.5607  -4.5607  -4.2809  -4.2809  -4.0066  -4.0066  -3.7681  -3.7681
    -3.5199  -3.5199  -3.4927  -3.4927  -3.3873  -3.3873  -3.3269  -3.3269
    -3.1856  -3.1856  -3.0404  -3.0404  -2.5481  -2.5481  -2.5080  -2.5079
    -2.4660  -2.4660  -2.3147  -2.3147  -1.8964  -1.8964  -1.7998  -1.7998
    -0.8287  -0.8287  -0.7707  -0.7707  -0.0596  -0.0596   0.1312   0.1312
     0.2632   0.2632   0.3823   0.3823   0.4498   0.4498   0.5305   0.5305
     5.2945   5.2945   5.5436   5.5436   5.6719   5.6719   5.9285   5.9285
     6.0311   6.0311   7.1132   7.1132   7.4191   7.4191   7.6743   7.6743
     7.8534   7.8534   8.3263

          k = 0.0000-0.2329-0.2679 ( 73108 PWs)   bands (ev):

   -19.6121 -19.6121 -19.5984 -19.5983 -13.7739 -13.7739 -13.7577 -13.7577
   -13.2067 -13.2067 -13.1899 -13.1899 -13.0244 -13.0244 -12.9743 -12.9743
   -10.4059 -10.4059 -10.3732 -10.3732  -9.4765  -9.4765  -9.4496  -9.4496
    -8.9621  -8.9621  -8.9532  -8.9532  -7.4209  -7.4209  -7.3710  -7.3709
    -6.6806  -6.6806  -6.5041  -6.5041  -5.5099  -5.5099  -5.4300  -5.4300
    -5.1425  -5.1425  -5.1179  -5.1178  -5.0441  -5.0441  -5.0394  -5.0394
    -4.4369  -4.4369  -4.3808  -4.3808  -3.9612  -3.9612  -3.7774  -3.7774
    -3.5407  -3.5407  -3.5122  -3.5122  -3.3856  -3.3856  -3.3685  -3.3684
    -3.1544  -3.1544  -3.0378  -3.0378  -2.6115  -2.6115  -2.5493  -2.5493
    -2.3376  -2.3376  -2.3314  -2.3314  -1.9090  -1.9090  -1.7957  -1.7956
    -0.8962  -0.8962  -0.7248  -0.7248   0.1032   0.1032   0.1470   0.1470
     0.2461   0.2461   0.2742   0.2742   0.4725   0.4726   0.4749   0.4749
     5.2615   5.2616   5.5154   5.5154   5.7732   5.7732   5.8202   5.8202
     6.4530   6.4530   6.4881   6.4881   7.6890   7.6890   7.8103   7.8103
     8.0583   8.0583   8.1665

          k = 0.2500 0.0000 0.0476 ( 73083 PWs)   bands (ev):

   -19.6104 -19.6049 -19.5966 -19.5941 -13.8270 -13.7552 -13.7356 -13.7080
   -13.2764 -13.2277 -13.2100 -13.1709 -13.0746 -13.0077 -12.9634 -12.9620
   -10.4665 -10.3963 -10.3935 -10.3778  -9.5883  -9.4899  -9.4622  -9.4262
    -8.9758  -8.9494  -8.9452  -8.8450  -7.4340  -7.4249  -7.3850  -7.3197
    -6.7833  -6.4445  -6.4158  -6.3657  -5.6414  -5.5394  -5.4436  -5.4109
    -5.2063  -5.1843  -5.0937  -5.0875  -5.0554  -5.0252  -5.0222  -4.9548
    -4.6417  -4.5746  -4.2945  -4.2876  -4.0258  -3.9051  -3.8783  -3.7273
    -3.6146  -3.5653  -3.4739  -3.4499  -3.3821  -3.3749  -3.3472  -3.2441
    -3.2038  -3.1138  -3.0173  -2.9828  -2.7137  -2.5923  -2.5669  -2.4899
    -2.4287  -2.3845  -2.3835  -2.3141  -1.9460  -1.9353  -1.8077  -1.7751
    -0.9421  -0.9369  -0.8730  -0.8197   0.0563   0.1455   0.2070   0.2228
     0.3466   0.3479   0.4435   0.4996   0.5377   0.5477   0.5747   0.6409
     5.1409   5.2415   5.3966   5.4293   5.5053   5.5838   5.7354   5.9453
     6.0890   6.8603   7.1182   7.2424   7.2907   7.4905   7.5042   7.7272
     7.8878   8.0826   8.0973

          k = 0.2500 0.0000-0.2203 ( 73077 PWs)   bands (ev):

   -19.6080 -19.6073 -19.5956 -19.5952 -13.8080 -13.7604 -13.7381 -13.7275
   -13.2661 -13.2352 -13.2016 -13.1784 -13.0516 -13.0216 -12.9778 -12.9501
   -10.4757 -10.4319 -10.3937 -10.3311  -9.5583  -9.5437  -9.4554  -9.4257
    -8.9858  -8.9446  -8.9186  -8.8552  -7.4393  -7.4261  -7.3673  -7.3281
    -6.7319  -6.5429  -6.4155  -6.3369  -5.6925  -5.4650  -5.4404  -5.4397
    -5.1983  -5.1794  -5.1195  -5.0818  -5.0805  -5.0083  -4.9700  -4.9286
    -4.5353  -4.5150  -4.4488  -4.4063  -4.0041  -3.9113  -3.8117  -3.7053
    -3.6791  -3.4973  -3.4693  -3.4585  -3.4228  -3.4043  -3.2586  -3.2330
    -3.1949  -3.1855  -3.0364  -3.0007  -2.6622  -2.5513  -2.5422  -2.5197
    -2.5179  -2.3981  -2.3855  -2.3069  -1.9184  -1.9070  -1.8275  -1.7691
    -1.0078  -0.9882  -0.8045  -0.8007   0.1475   0.1552   0.2670   0.2855
     0.3191   0.3623   0.4099   0.4360   0.5047   0.5435   0.5746   0.5791
     5.1459   5.2225   5.4531   5.4708   5.5751   5.6074   5.6984   5.7700
     6.3747   6.4834   6.9952   7.1565   7.4243   7.5886   7.7036   7.8568
     7.9110   7.9526   8.1200

          k = 0.2500-0.2329 0.0476 ( 73060 PWs)   bands (ev):

   -19.6080 -19.6080 -19.5951 -19.5950 -13.7951 -13.7951 -13.7206 -13.7206
   -13.2566 -13.2566 -13.1841 -13.1840 -13.0268 -13.0267 -12.9763 -12.9763
   -10.4397 -10.4397 -10.3782 -10.3782  -9.5492  -9.5492  -9.4336  -9.4335
    -8.9669  -8.9669  -8.8912  -8.8912  -7.4172  -7.4172  -7.3660  -7.3660
    -6.6519  -6.6519  -6.3595  -6.3594  -5.5481  -5.5481  -5.4533  -5.4533
    -5.1898  -5.1898  -5.1129  -5.1129  -5.0477  -5.0477  -4.9677  -4.9677
    -4.6216  -4.6216  -4.2822  -4.2822  -3.9793  -3.9793  -3.8161  -3.8161
    -3.5593  -3.5593  -3.4872  -3.4872  -3.3968  -3.3968  -3.2539  -3.2539
    -3.1203  -3.1203  -3.0416  -3.0416  -2.6598  -2.6598  -2.5303  -2.5303
    -2.4066  -2.4066  -2.3415  -2.3415  -1.9326  -1.9325  -1.7951  -1.7951
    -0.9358  -0.9358  -0.8500  -0.8499   0.1044   0.1044   0.2010   0.2010
     0.3718   0.3718   0.4614   0.4614   0.5519   0.5519   0.5915   0.5915
     5.1983   5.1983   5.3895   5.3895   5.5602   5.5602   5.8394   5.8394
     6.3931   6.3931   7.1798   7.1798   7.4209   7.4209   7.7237   7.7237
     7.9999   8.0000   8.1179

          k = 0.2500-0.2329-0.2203 ( 73080 PWs)   bands (ev):

   -19.6076 -19.6076 -19.5955 -19.5954 -13.7792 -13.7792 -13.7403 -13.7403
   -13.2563 -13.2563 -13.1802 -13.1802 -13.0194 -13.0194 -12.9828 -12.9828
   -10.4590 -10.4590 -10.3585 -10.3585  -9.5472  -9.5472  -9.4433  -9.4433
    -8.9615  -8.9614  -8.8912  -8.8912  -7.4181  -7.4181  -7.3633  -7.3632
    -6.6269  -6.6269  -6.4010  -6.4010  -5.5748  -5.5748  -5.4187  -5.4187
    -5.1550  -5.1550  -5.1219  -5.1218  -5.0546  -5.0546  -4.9664  -4.9664
    -4.5101  -4.5101  -4.4485  -4.4485  -3.9584  -3.9584  -3.7573  -3.7573
    -3.6036  -3.6036  -3.4714  -3.4714  -3.3650  -3.3650  -3.2879  -3.2879
    -3.1221  -3.1221  -3.0617  -3.0617  -2.6261  -2.6261  -2.5348  -2.5348
    -2.4393  -2.4393  -2.3378  -2.3378  -1.9207  -1.9206  -1.7933  -1.7933
    -0.9936  -0.9936  -0.8050  -0.8050   0.1971   0.1971   0.2407   0.2407
     0.3436   0.3436   0.4135   0.4135   0.5263   0.5263   0.5682   0.5683
     5.2066   5.2066   5.4261   5.4261   5.6133   5.6133   5.7180   5.7180
     6.5522   6.5522   6.8689   6.8689   7.5562   7.5562   7.7706   7.7706
     8.0364   8.0364   8.1405

          k =-0.5000 0.0000-0.0951 ( 73068 PWs)   bands (ev):

   -19.6054 -19.6006 -19.5936 -19.5915 -13.7781 -13.7744 -13.7444 -13.7287
   -13.2469 -13.2424 -13.2323 -13.2315 -13.0197 -13.0121 -13.0023 -12.9620
   -10.5287 -10.4690 -10.3746 -10.3514  -9.6081  -9.5114  -9.5084  -9.4700
    -8.9569  -8.9265  -8.8923  -8.8159  -7.4226  -7.4208  -7.3898  -7.3014
    -6.4776  -6.4016  -6.3933  -6.3814  -5.7650  -5.4767  -5.4498  -5.4382
    -5.2946  -5.1679  -5.1572  -5.1421  -5.0811  -5.0259  -4.9552  -4.9179
    -4.6427  -4.5669  -4.4376  -4.3207  -3.8940  -3.8584  -3.8461  -3.6913
    -3.5734  -3.5257  -3.5121  -3.4989  -3.4763  -3.4002  -3.2665  -3.2530
    -3.2187  -3.0636  -2.9774  -2.9470  -2.6692  -2.6341  -2.5532  -2.5508
    -2.5326  -2.4393  -2.4189  -2.3310  -1.9679  -1.9464  -1.8296  -1.7643
    -1.0623  -1.0336  -0.9076  -0.8820   0.1208   0.2569   0.2899   0.3665
     0.4586   0.4759   0.5263   0.5336   0.6233   0.6535   0.7178   0.7225
     4.9321   5.1172   5.2980   5.3671   5.4803   5.5393   5.6153   5.8841
     6.5791   6.9468   7.0566   7.1444   7.3295   7.6309   7.6316   7.7411
     7.8493   7.9037   7.9153

          k =-0.5000 0.0000-0.3630 ( 73090 PWs)   bands (ev):

   -19.6030 -19.6030 -19.5926 -19.5926 -13.7741 -13.7741 -13.7384 -13.7384
   -13.2602 -13.2602 -13.2140 -13.2140 -13.0221 -13.0220 -12.9795 -12.9795
   -10.4624 -10.4624 -10.3982 -10.3982  -9.5970  -9.5970  -9.4495  -9.4495
    -8.9551  -8.9551  -8.8427  -8.8427  -7.4303  -7.4303  -7.3368  -7.3368
    -6.5014  -6.5014  -6.3661  -6.3661  -5.5629  -5.5629  -5.5022  -5.5022
    -5.2209  -5.2208  -5.1052  -5.1052  -5.0004  -5.0004  -4.9155  -4.9155
    -4.5799  -4.5799  -4.4905  -4.4905  -3.9357  -3.9357  -3.7711  -3.7711
    -3.5520  -3.5520  -3.4579  -3.4579  -3.4002  -3.4002  -3.3048  -3.3048
    -3.1164  -3.1164  -3.0236  -3.0236  -2.5931  -2.5931  -2.5056  -2.5056
    -2.4888  -2.4888  -2.4192  -2.4192  -1.9414  -1.9414  -1.8144  -1.8144
    -1.0968  -1.0967  -0.8500  -0.8500   0.1924   0.1924   0.4089   0.4089
     0.4571   0.4571   0.5203   0.5203   0.6246   0.6246   0.6705   0.6705
     5.0846   5.0846   5.3387   5.3387   5.4542   5.4542   5.6962   5.6962
     6.7832   6.7832   7.2669   7.2669   7.3162   7.3162   7.5233   7.5233
     8.0476   8.0476   8.0797

          k =-0.5000-0.2329-0.0951 ( 73112 PWs)   bands (ev):

   -19.6033 -19.6033 -19.5923 -19.5923 -13.7753 -13.7753 -13.7374 -13.7374
   -13.2474 -13.2474 -13.2323 -13.2322 -13.0112 -13.0112 -12.9834 -12.9834
   -10.5035 -10.5035 -10.3615 -10.3615  -9.5673  -9.5673  -9.4796  -9.4796
    -8.9265  -8.9265  -8.8695  -8.8695  -7.4122  -7.4122  -7.3606  -7.3606
    -6.4304  -6.4304  -6.3844  -6.3844  -5.6539  -5.6539  -5.4389  -5.4389
    -5.1918  -5.1918  -5.1108  -5.1108  -5.0708  -5.0708  -4.9678  -4.9678
    -4.6191  -4.6191  -4.4034  -4.4034  -3.8863  -3.8863  -3.7695  -3.7695
    -3.5983  -3.5983  -3.4644  -3.4644  -3.4316  -3.4315  -3.1528  -3.1528
    -3.1432  -3.1432  -3.0023  -3.0023  -2.6583  -2.6583  -2.5787  -2.5787
    -2.4740  -2.4740  -2.3730  -2.3730  -1.9609  -1.9609  -1.7945  -1.7945
    -1.0373  -1.0373  -0.9078  -0.9078   0.2144   0.2144   0.2910   0.2910
     0.4810   0.4811   0.5139   0.5139   0.6748   0.6748   0.6960   0.6960
     5.0399   5.0399   5.2973   5.2973   5.5049   5.5049   5.7705   5.7705
     6.7183   6.7183   7.2410   7.2410   7.3838   7.3838   7.6348   7.6348
     7.9383   7.9385   8.1022

          k =-0.5000-0.2329-0.3630 ( 73128 PWs)   bands (ev):

   -19.6030 -19.6029 -19.5927 -19.5926 -13.7732 -13.7732 -13.7391 -13.7391
   -13.2629 -13.2629 -13.2147 -13.2146 -13.0132 -13.0131 -12.9849 -12.9849
   -10.4568 -10.4568 -10.4070 -10.4070  -9.5974  -9.5974  -9.4456  -9.4456
    -8.9368  -8.9368  -8.8623  -8.8622  -7.4107  -7.4107  -7.3626  -7.3625
    -6.4866  -6.4866  -6.3676  -6.3676  -5.5687  -5.5687  -5.4800  -5.4800
    -5.1868  -5.1868  -5.1495  -5.1495  -5.0195  -5.0195  -4.9202  -4.9202
    -4.5793  -4.5793  -4.4836  -4.4836  -3.9935  -3.9935  -3.7503  -3.7503
    -3.5570  -3.5570  -3.4468  -3.4468  -3.3808  -3.3808  -3.2325  -3.2325
    -3.1252  -3.1252  -3.0581  -3.0581  -2.5657  -2.5657  -2.5408  -2.5408
    -2.4780  -2.4780  -2.4395  -2.4394  -1.9359  -1.9358  -1.8155  -1.8154
    -1.0847  -1.0846  -0.8660  -0.8660   0.2828   0.2828   0.3002   0.3002
     0.4720   0.4720   0.5191   0.5191   0.6274   0.6274   0.6719   0.6719
     5.1510   5.1510   5.2200   5.2200   5.5814   5.5814   5.6223   5.6223
     6.7409   6.7410   7.2576   7.2576   7.4251   7.4251   7.5608   7.5608
     8.0018   8.0019   8.1278

     highest occupied, lowest unoccupied level (ev):     0.7225    4.9321

!    total energy              =    -803.84661059 Ry
     Harris-Foulkes estimate   =    -803.84661059 Ry
     estimated scf accuracy    <          4.2E-09 Ry

     total all-electron energy =     -3087.685252 Ry

     The total energy is the sum of the following terms:

     one-electron contribution =    -418.64416794 Ry
     hartree contribution      =     281.12421668 Ry
     xc contribution           =    -190.58809079 Ry
     ewald contribution        =    -224.46103920 Ry
     Dispersion Correction     =      -0.35161610 Ry
     one-center paw contrib.   =    -250.92591324 Ry

     convergence has been achieved in  19 iterations

     Forces acting on atoms (cartesian axes, Ry/au):

     atom    1 type  1   force =    -0.00810069    0.00207304   -0.00220403
     atom    2 type  1   force =    -0.00810091   -0.00207210   -0.00221259
     atom    3 type  1   force =     0.00810069   -0.00207304    0.00220403
     atom    4 type  1   force =     0.00810091    0.00207210    0.00221259
     atom    5 type  3   force =     0.00049294   -0.00096745   -0.00010159
     atom    6 type  3   force =     0.00049269    0.00096875   -0.00010240
     atom    7 type  3   force =    -0.00049294    0.00096745    0.00010159
     atom    8 type  3   force =    -0.00049269   -0.00096875    0.00010240
     atom    9 type  1   force =     0.00896081    0.00425392    0.00230590
     atom   10 type  1   force =     0.00895978   -0.00425345    0.00232106
     atom   11 type  1   force =    -0.00896081   -0.00425392   -0.00230590
     atom   12 type  1   force =    -0.00895978    0.00425345   -0.00232106
     atom   13 type  3   force =    -0.00378514    0.00125368   -0.00007577
     atom   14 type  3   force =    -0.00378529   -0.00125349   -0.00007551
     atom   15 type  3   force =     0.00378514   -0.00125368    0.00007577
     atom   16 type  3   force =     0.00378529    0.00125349    0.00007551
     atom   17 type  1   force =    -0.00379128   -0.00384633   -0.00762440
     atom   18 type  1   force =    -0.00379156    0.00384682   -0.00761802
     atom   19 type  1   force =     0.00379128    0.00384633    0.00762440
     atom   20 type  1   force =     0.00379156   -0.00384682    0.00761802
     atom   21 type  3   force =     0.00007392   -0.00028148   -0.00024609
     atom   22 type  3   force =     0.00007377    0.00028157   -0.00024624
     atom   23 type  3   force =    -0.00007392    0.00028148    0.00024609
     atom   24 type  3   force =    -0.00007377   -0.00028157    0.00024624
     atom   25 type  1   force =     0.00616206   -0.00317617    0.00187119
     atom   26 type  1   force =     0.00616218    0.00317570    0.00185864
     atom   27 type  1   force =    -0.00616206    0.00317617   -0.00187119
     atom   28 type  1   force =    -0.00616218   -0.00317570   -0.00185864
     atom   29 type  3   force =    -0.01033792    0.00390338    0.00053963
     atom   30 type  3   force =    -0.01033680   -0.00390269    0.00054021
     atom   31 type  3   force =     0.01033792   -0.00390338   -0.00053963
     atom   32 type  3   force =     0.01033680    0.00390269   -0.00054021
     atom   33 type  3   force =    -0.00166330    0.00125681   -0.00003055
     atom   34 type  3   force =    -0.00166326   -0.00125756   -0.00002986
     atom   35 type  3   force =     0.00166330   -0.00125681    0.00003055
     atom   36 type  3   force =     0.00166326    0.00125756    0.00002986
     atom   37 type  1   force =     0.02310624   -0.00654760    0.00217528
     atom   38 type  1   force =     0.02310810    0.00654426    0.00217202
     atom   39 type  1   force =    -0.02310624    0.00654760   -0.00217528
     atom   40 type  1   force =    -0.02310810   -0.00654426   -0.00217202
     atom   41 type  3   force =    -0.01841750   -0.00381172    0.00057835
     atom   42 type  3   force =    -0.01841729    0.00381127    0.00057847
     atom   43 type  3   force =     0.01841750    0.00381172   -0.00057835
     atom   44 type  3   force =     0.01841729   -0.00381127   -0.00057847
     atom   45 type  1   force =    -0.00794529    0.00981697   -0.00703665
     atom   46 type  1   force =    -0.00794406   -0.00981816   -0.00704058
     atom   47 type  1   force =     0.00794529   -0.00981697    0.00703665
     atom   48 type  1   force =     0.00794406    0.00981816    0.00704058
     atom   49 type  3   force =     0.00007368    0.00084650    0.00000840
     atom   50 type  3   force =     0.00007390   -0.00084626    0.00000874
     atom   51 type  3   force =    -0.00007368   -0.00084650   -0.00000840
     atom   52 type  3   force =    -0.00007390    0.00084626   -0.00000874
     atom   53 type  1   force =     0.01051665   -0.00123048   -0.00018499
     atom   54 type  1   force =     0.01051683    0.00123006   -0.00017154
     atom   55 type  1   force =    -0.01051665    0.00123048    0.00018499
     atom   56 type  1   force =    -0.01051683   -0.00123006    0.00017154
     atom   57 type  3   force =    -0.00172867    0.00013441    0.00192153
     atom   58 type  3   force =    -0.00172874   -0.00013474    0.00192187
     atom   59 type  3   force =     0.00172867   -0.00013441   -0.00192153
     atom   60 type  3   force =     0.00172874    0.00013474   -0.00192187
     atom   61 type  1   force =     0.00441551   -0.00437937    0.01011295
     atom   62 type  1   force =     0.00441426    0.00437848    0.01012147
     atom   63 type  1   force =    -0.00441551    0.00437937   -0.01011295
     atom   64 type  1   force =    -0.00441426   -0.00437848   -0.01012147
     atom   65 type  3   force =    -0.00182004    0.00077361   -0.00183903
     atom   66 type  3   force =    -0.00182021   -0.00077385   -0.00183954
     atom   67 type  3   force =     0.00182004   -0.00077361    0.00183903
     atom   68 type  3   force =     0.00182021    0.00077385    0.00183954
     atom   69 type  3   force =    -0.00518623   -0.00380411    0.00274898
     atom   70 type  3   force =    -0.00518676    0.00380399    0.00274904
     atom   71 type  3   force =     0.00518623    0.00380411   -0.00274898
     atom   72 type  3   force =     0.00518676   -0.00380399   -0.00274904
     atom   73 type  4   force =     0.00856242    0.00406953   -0.00407233
     atom   74 type  4   force =     0.00856187   -0.00406960   -0.00407559
     atom   75 type  4   force =    -0.00856242   -0.00406953    0.00407233
     atom   76 type  4   force =    -0.00856187    0.00406960    0.00407559

     Total force =     0.090093     Total SCF correction =     0.000111


     Computing stress (Cartesian axis) and pressure

          total   stress  (Ry/bohr**3)                   (kbar)     P=  -13.51
  -0.00009965  -0.00000000  -0.00001659        -14.66     -0.00     -2.44
  -0.00000000  -0.00007115   0.00000000         -0.00    -10.47      0.00
  -0.00001659   0.00000000  -0.00010474         -2.44      0.00    -15.41


     Writing output data file scf.save
 
     init_run     :     28.39s CPU     29.64s WALL (       1 calls)
     electrons    :    990.89s CPU   1020.65s WALL (       1 calls)
     forces       :     13.05s CPU     13.16s WALL (       1 calls)
     stress       :     66.43s CPU     66.57s WALL (       1 calls)

     Called by init_run:
     wfcinit      :     20.29s CPU     20.97s WALL (       1 calls)
     potinit      :      2.82s CPU      2.90s WALL (       1 calls)

     Called by electrons:
     c_bands      :    882.44s CPU    906.84s WALL (      19 calls)
     sum_band     :     97.92s CPU    101.88s WALL (      19 calls)
     v_of_rho     :      1.80s CPU      1.96s WALL (      20 calls)
     newd         :      3.67s CPU      4.75s WALL (      20 calls)
     PAW_pot      :      4.16s CPU      4.21s WALL (      20 calls)
     mix_rho      :      0.49s CPU      0.56s WALL (      19 calls)

     Called by c_bands:
     init_us_2    :      9.21s CPU      9.24s WALL (     492 calls)
     cegterg      :    854.32s CPU    878.67s WALL (     228 calls)

     Called by sum_band:
     sum_band:bec :      0.08s CPU      0.08s WALL (     228 calls)
     addusdens    :      4.06s CPU      5.12s WALL (      19 calls)

     Called by *egterg:
     h_psi        :    555.49s CPU    567.69s WALL (    1226 calls)
     s_psi        :     74.90s CPU     74.92s WALL (    1226 calls)
     g_psi        :      4.15s CPU      4.15s WALL (     986 calls)
     cdiaghg      :     42.22s CPU     42.45s WALL (    1214 calls)

     Called by h_psi:
     h_psi:pot    :    550.23s CPU    562.34s WALL (    1226 calls)
     h_psi:calbec :     69.75s CPU     70.07s WALL (    1226 calls)
     vloc_psi     :    405.64s CPU    417.42s WALL (    1226 calls)
     add_vuspsi   :     74.83s CPU     74.84s WALL (    1226 calls)

     General routines
     calbec       :     98.90s CPU     99.32s WALL (    1514 calls)
     fft          :      1.31s CPU      1.95s WALL (     284 calls)
     fftw         :    427.67s CPU    440.61s WALL (  189670 calls)
 
     Parallel routines
     fft_scatter  :    101.79s CPU    110.62s WALL (  189954 calls)
 
     PWSCF        : 18m26.27s CPU    19m52.87s WALL

 
   This run was terminated on:   3: 5:57   4Nov2017            

=------------------------------------------------------------------------------=
   JOB DONE.
=------------------------------------------------------------------------------=
