
     Program PWSCF v.6.1 (svn rev. 13369) starts on 22Dec2017 at 20:38:48 

     This program is part of the open-source Quantum ESPRESSO suite
     for quantum simulation of materials; please cite
         "P. Giannozzi et al., J. Phys.:Condens. Matter 21 395502 (2009);
          URL http://www.quantum-espresso.org", 
     in publications or presentations arising from this work. More details at
     http://www.quantum-espresso.org/quote

     Parallel version (MPI), running on     8 processors
     R & G space division:  proc/nbgrp/npool/nimage =       8
     Waiting for input...
     Reading input from standard input

     Current dimensions of program PWSCF are:
     Max number of different atomic species (ntypx) = 10
     Max number of k-points (npk) =  40000
     Max angular momentum in pseudopotentials (lmaxx) =  3
               file C.pbe-n-kjpaw_psl.0.1.UPF: wavefunction(s)  2P renormalized
               file N.pbe-n-kjpaw_psl.0.1.UPF: wavefunction(s)  2P renormalized
               file H.pbe-kjpaw_psl.0.1.UPF: wavefunction(s)  1S renormalized
               file O.pbe-n-kjpaw_psl.0.1.UPF: wavefunction(s)  2P renormalized

     -------------------------------------
     Parameters for Dispersion Correction:
     -------------------------------------
       atom      VdW radius       C_6     

        C          2.744         60.710
        N          2.640         42.670
        H          1.892          4.857
        O          2.536         24.284

     Subspace diagonalization in iterative solution of the eigenvalue problem:
     a serial algorithm will be used

 
     Parallelization info
     --------------------
     sticks:   dense  smooth     PW     G-vecs:    dense   smooth      PW
     Min        1000    1000    265               107247   107247   14579
     Max        1001    1001    266               107254   107254   14583
     Sum        8007    8007   2121               858013   858013  116645
 


     bravais-lattice index     =            0
     lattice parameter (alat)  =      19.8058  a.u.
     unit-cell volume          =    6351.4238 (a.u.)^3
     number of atoms/cell      =           92
     number of atomic types    =            4
     number of electrons       =       376.00
     number of Kohn-Sham states=          225
     kinetic-energy cutoff     =     100.0000  Ry
     charge density cutoff     =     400.0000  Ry
     convergence threshold     =      1.0E-08
     mixing beta               =       0.5000
     number of iterations used =            8  plain     mixing
     Exchange-correlation      =  SLA  PW   PBX  PBC ( 1  4  3  4 0 0)

     celldm(1)=  19.805842  celldm(2)=   0.000000  celldm(3)=   0.000000
     celldm(4)=   0.000000  celldm(5)=   0.000000  celldm(6)=   0.000000

     crystal axes: (cart. coord. in units of alat)
               a(1) = (   1.000000   0.000000   0.000000 )  
               a(2) = (   0.000000   0.642279   0.000000 )  
               a(3) = (  -0.349876   0.000000   1.272821 )  

     reciprocal axes: (cart. coord. in units 2 pi/alat)
               b(1) = (  1.000000  0.000000  0.274883 )  
               b(2) = (  0.000000  1.556955  0.000000 )  
               b(3) = (  0.000000  0.000000  0.785656 )  


     PseudoPot. # 1 for  C read from file:
     /scratch/ahofstet/pseudo/C.pbe-n-kjpaw_psl.0.1.UPF
     MD5 check sum: 430fe95172b1e11ef3f8ed03bac87931
     Pseudo is Projector augmented-wave + core cor, Zval =  4.0
     Generated using "atomic" code by A. Dal Corso  v.5.0.99 svn rev. 10869
     Shape of augmentation charge: BESSEL
     Using radial grid of 1073 points,  4 beta functions with: 
                l(1) =   0
                l(2) =   0
                l(3) =   1
                l(4) =   1
     Q(r) pseudized with 0 coefficients 


     PseudoPot. # 2 for  N read from file:
     /scratch/ahofstet/pseudo/N.pbe-n-kjpaw_psl.0.1.UPF
     MD5 check sum: f73187c8b701007e77325f868c9291d7
     Pseudo is Projector augmented-wave + core cor, Zval =  5.0
     Generated using "atomic" code by A. Dal Corso  v.5.0.99 svn rev. 10869
     Shape of augmentation charge: PSQ
     Using radial grid of 1085 points,  4 beta functions with: 
                l(1) =   0
                l(2) =   0
                l(3) =   1
                l(4) =   1
     Q(r) pseudized with 0 coefficients 


     PseudoPot. # 3 for  H read from file:
     /scratch/ahofstet/pseudo/H.pbe-kjpaw_psl.0.1.UPF
     MD5 check sum: 94e484f906d9e9773b2f6e52662335b2
     Pseudo is Projector augmented-wave, Zval =  1.0
     Generated using "atomic" code by A. Dal Corso  v.5.0.99 svn rev. 10869
     Shape of augmentation charge: PSQ
     Using radial grid of  929 points,  2 beta functions with: 
                l(1) =   0
                l(2) =   0
     Q(r) pseudized with 0 coefficients 


     PseudoPot. # 4 for  O read from file:
     /scratch/ahofstet/pseudo/O.pbe-n-kjpaw_psl.0.1.UPF
     MD5 check sum: 3f94a2996a3169367d6eb21d9b593f20
     Pseudo is Projector augmented-wave + core cor, Zval =  6.0
     Generated using "atomic" code by A. Dal Corso  v.5.0.99 svn rev. 10869
     Shape of augmentation charge: BESSEL
     Using radial grid of 1095 points,  4 beta functions with: 
                l(1) =   0
                l(2) =   0
                l(3) =   1
                l(4) =   1
     Q(r) pseudized with 0 coefficients 


     atomic species   valence    mass     pseudopotential
        C              4.00    12.01070      C( 1.00)
        N              5.00    14.00670      N( 1.00)
        H              1.00     1.00794      H( 1.00)
        O              6.00    15.99940      O( 1.00)

      2 Sym. Ops., with inversion, found



   Cartesian axes

     site n.     atom                  positions (alat units)
         1           O   tau(   1) = (  -0.0902155   0.4821505   0.4439001  )
         2           O   tau(   2) = (   0.9152753   0.1610160   0.1924781  )
         3           O   tau(   3) = (   0.7403391   0.1601288   0.8289208  )
         4           O   tau(   4) = (  -0.2651517   0.4812632   1.0803429  )
         5           O   tau(   5) = (   0.5839234   0.2622210   0.4276506  )
         6           O   tau(   6) = (   0.2411325   0.5833351   0.2087537  )
         7           O   tau(   7) = (   0.0662003   0.3800582   0.8451703  )
         8           O   tau(   8) = (   0.4089911   0.0589441   1.0640672  )
         9           O   tau(   9) = (   0.5413736   0.1444709   0.2602398  )
        10           O   tau(  10) = (   0.2836858   0.4655995   0.3761758  )
        11           O   tau(  11) = (   0.1087500   0.4978083   1.0125812  )
        12           O   tau(  12) = (   0.3664378   0.1766797   0.8966451  )
        13           O   tau(  13) = (   0.3121584   0.2504177   0.1771787  )
        14           O   tau(  14) = (   0.5129094   0.5715500   0.4592257  )
        15           O   tau(  15) = (   0.3379652   0.3918615   1.0956423  )
        16           O   tau(  16) = (   0.1372142   0.0707292   0.8135952  )
        17           O   tau(  17) = (   0.2968837   0.3718561   0.0074027  )
        18           O   tau(  18) = (   0.5281568   0.0507092   0.6290071  )
        19           O   tau(  19) = (   0.3532399   0.2704231   1.2654182  )
        20           O   tau(  20) = (   0.1219668   0.5915700   0.6438138  )
        21           N   tau(  21) = (  -0.0148232   0.4841956   0.3349899  )
        22           N   tau(  22) = (   0.8398902   0.1630597   0.3013943  )
        23           N   tau(  23) = (   0.6649468   0.1580836   0.9378310  )
        24           N   tau(  24) = (  -0.1897666   0.4792196   0.9714267  )
        25           N   tau(  25) = (   0.7839156   0.4692244   0.4143219  )
        26           N   tau(  26) = (   0.0411473   0.1480875   0.2220464  )
        27           N   tau(  27) = (  -0.1337920   0.1730548   0.8584991  )
        28           N   tau(  28) = (   0.6089763   0.4941917   1.0507745  )
        29           N   tau(  29) = (   0.6243492   0.5245526   0.1215798  )
        30           N   tau(  30) = (   0.2007106   0.2034148   0.5148006  )
        31           N   tau(  31) = (   0.0257744   0.1177266   1.1512411  )
        32           N   tau(  32) = (   0.4494130   0.4388644   0.7580204  )
        33           N   tau(  33) = (   0.5116204   0.4934030   0.0703521  )
        34           N   tau(  34) = (   0.3134372   0.1722650   0.5660357  )
        35           N   tau(  35) = (   0.1385032   0.1488762   1.2024688  )
        36           N   tau(  36) = (   0.3366864   0.4700142   0.7067852  )
        37           N   tau(  37) = (   0.5614119   0.2478459   0.3129159  )
        38           N   tau(  38) = (   0.2636449   0.5689776   0.3234833  )
        39           N   tau(  39) = (   0.0887117   0.3944333   0.9599051  )
        40           N   tau(  40) = (   0.3864787   0.0733016   0.9493377  )
        41           N   tau(  41) = (   0.3518999   0.3338967   0.1048945  )
        42           N   tau(  42) = (   0.4731550   0.0127625   0.5315219  )
        43           N   tau(  43) = (   0.2982237   0.3083825   1.1679264  )
        44           N   tau(  44) = (   0.1769686   0.6295167   0.7412990  )
        45           N   tau(  45) = (   0.6996269   0.6219176   0.0737221  )
        46           N   tau(  46) = (   0.1254312   0.3007779   0.5626620  )
        47           N   tau(  47) = (  -0.0495033   0.0203617   1.1990988  )
        48           N   tau(  48) = (   0.5246924   0.3415013   0.7101590  )
        49           C   tau(  49) = (   0.9068871   0.4736249   0.2378509  )
        50           C   tau(  50) = (  -0.0818139   0.1524863   0.3985283  )
        51           C   tau(  51) = (  -0.2567635   0.1686543   1.0349700  )
        52           C   tau(  52) = (   0.7319375   0.4897929   0.8742927  )
        53           C   tau(  53) = (   0.7795533   0.4641716   0.2887203  )
        54           C   tau(  54) = (   0.0455164   0.1430329   0.3476474  )
        55           C   tau(  55) = (  -0.1294297   0.1781076   0.9841007  )
        56           C   tau(  56) = (   0.6046072   0.4992463   0.9251735  )
        57           C   tau(  57) = (   0.6591099   0.4486010   0.2219522  )
        58           C   tau(  58) = (   0.1659543   0.1274607   0.4144284  )
        59           C   tau(  59) = (  -0.0089863   0.1936782   1.0508688  )
        60           C   tau(  60) = (   0.4841693   0.5148185   0.8583925  )
        61           C   tau(  61) = (   0.5606632   0.3597205   0.2331689  )
        62           C   tau(  62) = (   0.2643972   0.0385759   0.4032244  )
        63           C   tau(  63) = (   0.0894605   0.2825588   1.0396520  )
        64           C   tau(  64) = (   0.3857264   0.6037034   0.8695965  )
        65           C   tau(  65) = (   0.4731636   0.3920356   0.1363189  )
        66           C   tau(  66) = (   0.3518943   0.0708932   0.5000737  )
        67           C   tau(  67) = (   0.1769600   0.2502436   1.1365020  )
        68           C   tau(  68) = (   0.2982293   0.5713860   0.7727473  )
        69           C   tau(  69) = (   0.9524650   0.4689460   0.1036729  )
        70           C   tau(  70) = (  -0.1273806   0.1478012   0.5327127  )
        71           C   tau(  71) = (  -0.3023414   0.1733333   1.1691480  )
        72           C   tau(  72) = (   0.7775042   0.4944780   0.7401083  )
        73           H   tau(  73) = (   0.3535511   0.6116431   1.2493193  )
        74           H   tau(  74) = (   0.1216144   0.2904872   0.6598832  )
        75           H   tau(  75) = (   0.2965725   0.0306361   0.0235017  )
        76           H   tau(  76) = (   0.5285093   0.3517921   0.6129377  )
        77           H   tau(  77) = (   0.6567596   0.0654211   0.0939790  )
        78           H   tau(  78) = (   0.1683077   0.3865610   0.5424267  )
        79           H   tau(  79) = (  -0.0066360   0.5768581   1.1788419  )
        80           H   tau(  80) = (   0.4818159   0.2557182   0.7303942  )
        81           H   tau(  81) = (   0.8938501   0.4025589   0.0479366  )
        82           H   tau(  82) = (  -0.0687594   0.0814113   0.5884383  )
        83           H   tau(  83) = (  -0.2437265   0.2397203   1.2248844  )
        84           H   tau(  84) = (   0.7188830   0.5608680   0.6843826  )
        85           H   tau(  85) = (   0.9430991   0.5635397   0.0598570  )
        86           H   tau(  86) = (  -0.1180151   0.2423941   0.5765294  )
        87           H   tau(  87) = (  -0.2929754   0.0787396   1.2129640  )
        88           H   tau(  88) = (   0.7681387   0.3998851   0.6962915  )
        89           H   tau(  89) = (   0.0527251   0.4391958   0.1002008  )
        90           H   tau(  90) = (   0.7723601   0.1180484   0.5361917  )
        91           H   tau(  91) = (   0.5973985   0.2030834   1.1726201  )
        92           H   tau(  92) = (  -0.1222365   0.5242308   0.7366293  )

     number of k points=     8
                       cart. coord. in units 2pi/alat
        k(    1) = (   0.0000000   0.0000000   0.0000000), wk =   0.1666667
        k(    2) = (   0.0000000   0.0000000  -0.3928282), wk =   0.1666667
        k(    3) = (   0.0000000   0.5189851   0.0000000), wk =   0.3333333
        k(    4) = (   0.0000000   0.5189851  -0.3928282), wk =   0.3333333
        k(    5) = (  -0.5000000   0.0000000  -0.1374413), wk =   0.1666667
        k(    6) = (  -0.5000000   0.0000000  -0.5302696), wk =   0.1666667
        k(    7) = (  -0.5000000   0.5189851  -0.1374413), wk =   0.3333333
        k(    8) = (  -0.5000000   0.5189851  -0.5302696), wk =   0.3333333

     Dense  grid:   858013 G-vectors     FFT dimensions: ( 128,  81, 180)

     Estimated max dynamical RAM per process >     999.59MB

     Estimated total allocated dynamical RAM >    7996.74MB

     Check: negative/imaginary core charge=   -0.000002    0.000000

     Initial potential from superposition of free atoms

     starting charge  375.99858, renormalised to  376.00000
     Starting wfc are  308 randomized atomic wfcs
     Checking if some PAW data can be deallocated... 

     total cpu time spent up to now is       63.9 secs

     per-process dynamical memory:   666.0 Mb

     Self-consistent Calculation

     iteration #  1     ecut=   100.00 Ry     beta=0.50
     Davidson diagonalization with overlap
     ethr =  1.00E-02,  avg # of iterations =  3.0

     total cpu time spent up to now is      256.1 secs

     total energy              =   -2084.84603099 Ry
     Harris-Foulkes estimate   =   -2089.79712825 Ry
     estimated scf accuracy    <       9.10599926 Ry

     iteration #  2     ecut=   100.00 Ry     beta=0.50
     Davidson diagonalization with overlap
     ethr =  2.42E-03,  avg # of iterations =  4.0

     total cpu time spent up to now is      393.7 secs

     total energy              =   -2086.26326074 Ry
     Harris-Foulkes estimate   =   -2087.42541399 Ry
     estimated scf accuracy    <       2.46810120 Ry

     iteration #  3     ecut=   100.00 Ry     beta=0.50
     Davidson diagonalization with overlap
     ethr =  6.56E-04,  avg # of iterations =  5.6

     total cpu time spent up to now is      531.2 secs

     total energy              =   -2086.78652932 Ry
     Harris-Foulkes estimate   =   -2086.93161480 Ry
     estimated scf accuracy    <       0.37056439 Ry

     iteration #  4     ecut=   100.00 Ry     beta=0.50
     Davidson diagonalization with overlap
     ethr =  9.86E-05,  avg # of iterations = 12.0

     total cpu time spent up to now is      694.6 secs

     total energy              =   -2086.85125745 Ry
     Harris-Foulkes estimate   =   -2086.87862375 Ry
     estimated scf accuracy    <       0.06965101 Ry

     iteration #  5     ecut=   100.00 Ry     beta=0.50
     Davidson diagonalization with overlap
     ethr =  1.85E-05,  avg # of iterations =  7.6

     total cpu time spent up to now is      845.7 secs

     total energy              =   -2086.86357636 Ry
     Harris-Foulkes estimate   =   -2086.87792348 Ry
     estimated scf accuracy    <       0.04105653 Ry

     iteration #  6     ecut=   100.00 Ry     beta=0.50
     Davidson diagonalization with overlap
     ethr =  1.09E-05,  avg # of iterations =  2.0

     total cpu time spent up to now is      952.9 secs

     total energy              =   -2086.87094484 Ry
     Harris-Foulkes estimate   =   -2086.87197275 Ry
     estimated scf accuracy    <       0.00330740 Ry

     iteration #  7     ecut=   100.00 Ry     beta=0.50
     Davidson diagonalization with overlap
     ethr =  8.80E-07,  avg # of iterations =  6.9

     total cpu time spent up to now is     1138.1 secs

     total energy              =   -2086.87189328 Ry
     Harris-Foulkes estimate   =   -2086.87227868 Ry
     estimated scf accuracy    <       0.00099403 Ry

     iteration #  8     ecut=   100.00 Ry     beta=0.50
     Davidson diagonalization with overlap
     ethr =  2.64E-07,  avg # of iterations =  2.0

     total cpu time spent up to now is     1246.7 secs

     total energy              =   -2086.87202466 Ry
     Harris-Foulkes estimate   =   -2086.87214479 Ry
     estimated scf accuracy    <       0.00033915 Ry

     iteration #  9     ecut=   100.00 Ry     beta=0.50
     Davidson diagonalization with overlap
     ethr =  9.02E-08,  avg # of iterations =  3.0

     total cpu time spent up to now is     1366.2 secs

     total energy              =   -2086.87210278 Ry
     Harris-Foulkes estimate   =   -2086.87212781 Ry
     estimated scf accuracy    <       0.00008345 Ry

     iteration # 10     ecut=   100.00 Ry     beta=0.50
     Davidson diagonalization with overlap
     ethr =  2.22E-08,  avg # of iterations =  2.4

     total cpu time spent up to now is     1474.2 secs

     total energy              =   -2086.87211781 Ry
     Harris-Foulkes estimate   =   -2086.87212307 Ry
     estimated scf accuracy    <       0.00001525 Ry

     iteration # 11     ecut=   100.00 Ry     beta=0.50
     Davidson diagonalization with overlap
     ethr =  4.06E-09,  avg # of iterations =  3.0

     total cpu time spent up to now is     1629.7 secs

     total energy              =   -2086.87212243 Ry
     Harris-Foulkes estimate   =   -2086.87212488 Ry
     estimated scf accuracy    <       0.00000810 Ry

     iteration # 12     ecut=   100.00 Ry     beta=0.50
     Davidson diagonalization with overlap
     ethr =  2.15E-09,  avg # of iterations =  2.0

     total cpu time spent up to now is     1731.9 secs

     total energy              =   -2086.87212320 Ry
     Harris-Foulkes estimate   =   -2086.87212355 Ry
     estimated scf accuracy    <       0.00000094 Ry

     iteration # 13     ecut=   100.00 Ry     beta=0.50
     Davidson diagonalization with overlap
     ethr =  2.49E-10,  avg # of iterations =  4.0

     total cpu time spent up to now is     1903.4 secs

     total energy              =   -2086.87212364 Ry
     Harris-Foulkes estimate   =   -2086.87212380 Ry
     estimated scf accuracy    <       0.00000054 Ry

     iteration # 14     ecut=   100.00 Ry     beta=0.50
     Davidson diagonalization with overlap
     ethr =  1.43E-10,  avg # of iterations =  1.0

     total cpu time spent up to now is     2000.5 secs

     total energy              =   -2086.87212359 Ry
     Harris-Foulkes estimate   =   -2086.87212367 Ry
     estimated scf accuracy    <       0.00000018 Ry

     iteration # 15     ecut=   100.00 Ry     beta=0.50
     Davidson diagonalization with overlap
     ethr =  4.79E-11,  avg # of iterations =  4.0

     total cpu time spent up to now is     2142.4 secs

     total energy              =   -2086.87212366 Ry
     Harris-Foulkes estimate   =   -2086.87212367 Ry
     estimated scf accuracy    <       0.00000002 Ry

     iteration # 16     ecut=   100.00 Ry     beta=0.50
     Davidson diagonalization with overlap
     ethr =  5.69E-12,  avg # of iterations =  2.4

     total cpu time spent up to now is     2254.2 secs

     total energy              =   -2086.87212366 Ry
     Harris-Foulkes estimate   =   -2086.87212367 Ry
     estimated scf accuracy    <       0.00000001 Ry

     iteration # 17     ecut=   100.00 Ry     beta=0.50
     Davidson diagonalization with overlap
     ethr =  3.57E-12,  avg # of iterations =  4.0

     total cpu time spent up to now is     2368.2 secs

     End of self-consistent calculation

          k = 0.0000 0.0000 0.0000 (107299 PWs)   bands (ev):

   -23.7746 -23.7624 -23.7274 -23.7218 -23.6482 -23.6331 -23.6074 -23.5989
   -22.2955 -22.2951 -22.2553 -22.2553 -20.6659 -20.6612 -20.6522 -20.6497
   -19.2969 -19.2868 -19.2790 -19.2736 -19.1807 -19.1799 -19.1635 -19.1587
   -16.4553 -16.4475 -16.4441 -16.4436 -15.3310 -15.3261 -15.2722 -15.2718
   -14.7995 -14.7916 -14.7842 -14.7657 -13.7370 -13.7332 -13.7291 -13.7250
   -13.3572 -13.3060 -13.2888 -13.2611 -11.7482 -11.7400 -11.7377 -11.7071
   -10.5893 -10.4543 -10.4458 -10.4430 -10.0592  -9.9505  -9.9478  -9.9050
    -9.2130  -9.1905  -9.1831  -9.1602  -7.8453  -7.8423  -7.7799  -7.7504
    -7.5008  -7.4148  -7.4020  -7.3776  -7.3398  -7.3224  -7.2916  -7.2674
    -6.9347  -6.8020  -6.7690  -6.6551  -6.6190  -6.5599  -6.2751  -6.2339
    -6.2219  -6.1271  -6.1235  -6.1054  -6.0457  -6.0219  -5.9589  -5.9252
    -5.8686  -5.8359  -5.8179  -5.7602  -5.7201  -5.6972  -5.6074  -5.4926
    -5.4322  -5.4267  -5.3858  -5.3726  -5.1983  -5.1900  -5.1800  -5.1223
    -5.0980  -5.0131  -4.6504  -4.4397  -4.4249  -4.3666  -4.2331  -4.2129
    -3.6665  -3.5796  -3.5572  -3.4898  -3.4018  -3.3772  -3.3668  -3.3507
    -2.8782  -2.4942  -2.3909  -2.3488  -2.2713  -2.1101  -2.1057  -2.0962
    -2.0817  -2.0310  -1.8899  -1.8019  -1.2223  -1.1763  -1.1677  -1.0023
    -0.9585  -0.8772  -0.8343  -0.7315  -0.7176  -0.6259  -0.6195  -0.5857
    -0.5824  -0.5815  -0.5128  -0.4747  -0.4313  -0.4257  -0.3469  -0.3167
    -0.2652  -0.2629  -0.2381  -0.1813  -0.1784  -0.1646  -0.1514  -0.1295
    -0.1056   0.0014   0.0085   0.0362   0.0867   0.1306   0.1323   0.1712
     0.1934   0.2315   0.2824   0.2939   0.3180   0.3434   0.4910   0.5313
     0.6066   0.6222   0.6616   0.6742   0.7816   0.7997   0.8065   0.8630
     0.8689   0.9283   0.9592   1.0341   3.5781   3.5936   3.6878   3.7382
     4.1898   4.2677   4.2915   4.3160   5.0413   5.0706   5.1457   5.1631
     5.9442   6.0089   6.0547   6.0760   7.2000   7.2039   7.2217   7.2932
     7.6675   7.8069   7.8944   7.9201   8.1157   8.1442   8.2124   8.4812
     8.5031   8.5424   8.9054   8.9424   9.0964   9.1956   9.2962   9.3204
     9.4554

          k = 0.0000 0.0000-0.3928 (107284 PWs)   bands (ev):

   -23.7692 -23.7691 -23.7240 -23.7240 -23.6416 -23.6414 -23.6024 -23.6022
   -22.2953 -22.2953 -22.2553 -22.2553 -20.6638 -20.6638 -20.6507 -20.6507
   -19.2928 -19.2928 -19.2754 -19.2753 -19.1803 -19.1803 -19.1610 -19.1610
   -16.4518 -16.4518 -16.4435 -16.4435 -15.3286 -15.3286 -15.2719 -15.2719
   -14.7972 -14.7971 -14.7734 -14.7733 -13.7356 -13.7356 -13.7268 -13.7268
   -13.3362 -13.3362 -13.2702 -13.2701 -11.7445 -11.7444 -11.7225 -11.7225
   -10.5319 -10.5319 -10.4353 -10.4352 -10.0077 -10.0077  -9.9243  -9.9242
    -9.2018  -9.2018  -9.1710  -9.1710  -7.8436  -7.8436  -7.7661  -7.7661
    -7.4596  -7.4596  -7.3859  -7.3858  -7.3238  -7.3238  -7.2814  -7.2814
    -6.8644  -6.8644  -6.7366  -6.7366  -6.5891  -6.5890  -6.2645  -6.2644
    -6.2021  -6.2020  -6.0769  -6.0769  -6.0045  -6.0045  -5.9182  -5.9180
    -5.8633  -5.8632  -5.7744  -5.7744  -5.7342  -5.7341  -5.5645  -5.5645
    -5.4445  -5.4444  -5.3864  -5.3864  -5.2100  -5.2099  -5.1223  -5.1222
    -5.0581  -5.0581  -4.5337  -4.5337  -4.3931  -4.3931  -4.2236  -4.2236
    -3.6355  -3.6355  -3.5254  -3.5253  -3.4098  -3.4096  -3.3475  -3.3474
    -2.7446  -2.7446  -2.3158  -2.3157  -2.1340  -2.1338  -2.1076  -2.1075
    -1.9862  -1.9862  -1.9392  -1.9391  -1.2171  -1.2170  -1.0783  -1.0782
    -0.9006  -0.9006  -0.8021  -0.8021  -0.6837  -0.6835  -0.5835  -0.5835
    -0.5705  -0.5705  -0.5011  -0.5010  -0.3772  -0.3770  -0.3301  -0.3300
    -0.3054  -0.3053  -0.2755  -0.2753  -0.1612  -0.1611  -0.0833  -0.0831
    -0.0413  -0.0412  -0.0143  -0.0142   0.1146   0.1147   0.1453   0.1453
     0.2283   0.2284   0.2794   0.2794   0.3198   0.3200   0.5216   0.5217
     0.6170   0.6172   0.6652   0.6654   0.7745   0.7746   0.8411   0.8411
     0.9062   0.9064   1.0009   1.0011   3.5812   3.5814   3.7166   3.7169
     4.2236   4.2238   4.3089   4.3091   5.0556   5.0556   5.1554   5.1555
     5.9633   5.9634   6.0783   6.0783   7.1911   7.1913   7.2676   7.2677
     7.7326   7.7327   7.9165   7.9166   8.2003   8.2006   8.3080   8.3081
     8.5695   8.5696   8.7285   8.7286   9.1264   9.1264   9.4028   9.4028
     9.6229

          k = 0.0000 0.5190 0.0000 (107268 PWs)   bands (ev):

   -23.7640 -23.7529 -23.7411 -23.7327 -23.6361 -23.6233 -23.6162 -23.6065
   -22.2854 -22.2852 -22.2654 -22.2652 -20.6692 -20.6667 -20.6491 -20.6479
   -19.2950 -19.2859 -19.2850 -19.2784 -19.1774 -19.1715 -19.1682 -19.1614
   -16.4664 -16.4620 -16.4228 -16.4196 -15.3167 -15.3130 -15.2874 -15.2858
   -14.7909 -14.7893 -14.7860 -14.7739 -13.7345 -13.7336 -13.7317 -13.7284
   -13.3469 -13.3212 -13.2978 -13.2847 -11.7549 -11.7469 -11.7231 -11.7118
   -10.5575 -10.4905 -10.4459 -10.4440 -10.0083  -9.9523  -9.9107  -9.8871
    -9.2116  -9.1967  -9.1788  -9.1634  -7.8312  -7.8118  -7.8044  -7.7647
    -7.4764  -7.4518  -7.3888  -7.3850  -7.3557  -7.3262  -7.3158  -7.3033
    -6.9357  -6.9177  -6.8911  -6.7268  -6.5543  -6.4874  -6.2707  -6.2566
    -6.1954  -6.1659  -6.1141  -6.0516  -6.0401  -5.9778  -5.8836  -5.8791
    -5.8248  -5.8222  -5.7333  -5.7220  -5.7062  -5.6990  -5.6347  -5.5345
    -5.5069  -5.4654  -5.3496  -5.3014  -5.2297  -5.2108  -5.1656  -5.1609
    -4.9326  -4.8635  -4.6247  -4.5074  -4.4524  -4.3789  -4.3278  -4.3131
    -3.6493  -3.5948  -3.5418  -3.4823  -3.4671  -3.4630  -3.3370  -3.3324
    -2.6946  -2.5983  -2.5181  -2.3340  -2.2613  -2.2241  -2.0951  -2.0849
    -2.0719  -2.0085  -1.8736  -1.8264  -1.1801  -1.1695  -1.0833  -0.9651
    -0.9403  -0.9000  -0.8024  -0.7490  -0.7321  -0.7301  -0.6578  -0.6454
    -0.5839  -0.5407  -0.5347  -0.4673  -0.4310  -0.4092  -0.3944  -0.3705
    -0.3348  -0.3252  -0.2448  -0.2189  -0.1615  -0.1451  -0.1251  -0.0894
    -0.0681  -0.0401  -0.0340   0.0118   0.0951   0.1084   0.1374   0.1649
     0.2246   0.2610   0.2657   0.3120   0.3363   0.3873   0.4202   0.4543
     0.6365   0.6395   0.6483   0.6774   0.7975   0.8168   0.8731   0.9196
     0.9202   0.9500   0.9656   0.9998   3.5837   3.5944   3.6665   3.6972
     4.2137   4.2401   4.2580   4.2585   5.0605   5.0901   5.1086   5.1462
     5.9542   6.0279   6.0302   6.0570   7.1874   7.1913   7.2526   7.3122
     7.7102   7.8010   7.8976   7.9036   8.1999   8.3755   8.4853   8.5203
     8.6542   8.7122   8.8844   8.9182   9.1114   9.3053   9.5083   9.5765
     9.5870

          k = 0.0000 0.5190-0.3928 (107224 PWs)   bands (ev):

   -23.7596 -23.7594 -23.7359 -23.7358 -23.6313 -23.6311 -23.6100 -23.6097
   -22.2853 -22.2853 -22.2653 -22.2653 -20.6680 -20.6680 -20.6485 -20.6485
   -19.2917 -19.2915 -19.2807 -19.2806 -19.1750 -19.1748 -19.1643 -19.1641
   -16.4643 -16.4643 -16.4212 -16.4212 -15.3149 -15.3149 -15.2866 -15.2866
   -14.7911 -14.7910 -14.7791 -14.7790 -13.7343 -13.7342 -13.7299 -13.7298
   -13.3353 -13.3352 -13.2901 -13.2900 -11.7484 -11.7483 -11.7205 -11.7203
   -10.5101 -10.5100 -10.4601 -10.4600  -9.9634  -9.9633  -9.9165  -9.9164
    -9.2012  -9.2010  -9.1737  -9.1735  -7.8240  -7.8240  -7.7807  -7.7807
    -7.4679  -7.4678  -7.3976  -7.3976  -7.3260  -7.3260  -7.3047  -7.3046
    -6.9341  -6.9340  -6.8072  -6.8071  -6.5244  -6.5243  -6.2728  -6.2728
    -6.1730  -6.1728  -6.0877  -6.0877  -5.9814  -5.9813  -5.9158  -5.9155
    -5.8191  -5.8190  -5.7576  -5.7575  -5.6385  -5.6385  -5.6050  -5.6049
    -5.4601  -5.4601  -5.3574  -5.3574  -5.2290  -5.2289  -5.1575  -5.1574
    -4.8959  -4.8959  -4.5565  -4.5564  -4.3881  -4.3880  -4.3521  -4.3520
    -3.6024  -3.6023  -3.5410  -3.5410  -3.4797  -3.4795  -3.3370  -3.3369
    -2.6462  -2.6462  -2.3590  -2.3589  -2.2731  -2.2730  -2.1151  -2.1150
    -1.9587  -1.9587  -1.9171  -1.9171  -1.1755  -1.1754  -1.0339  -1.0338
    -0.9017  -0.9016  -0.7943  -0.7942  -0.7145  -0.7144  -0.6312  -0.6310
    -0.5855  -0.5854  -0.4974  -0.4973  -0.4475  -0.4472  -0.3872  -0.3872
    -0.3157  -0.3154  -0.2085  -0.2082  -0.1554  -0.1553  -0.0944  -0.0942
    -0.0711  -0.0710  -0.0208  -0.0206   0.0805   0.0806   0.1641   0.1643
     0.2548   0.2549   0.2930   0.2931   0.3495   0.3497   0.4388   0.4389
     0.6342   0.6344   0.6711   0.6713   0.8064   0.8065   0.8968   0.8970
     0.9359   0.9361   0.9793   0.9794   3.5910   3.5912   3.6790   3.6793
     4.2305   4.2307   4.2550   4.2552   5.0753   5.0754   5.1275   5.1275
     5.9810   5.9811   6.0525   6.0526   7.1965   7.1967   7.2788   7.2790
     7.7638   7.7639   7.8936   7.8938   8.3298   8.3300   8.5402   8.5404
     8.6329   8.6332   8.8427   8.8429   9.1728   9.1730   9.4990   9.4992
     9.6642

          k =-0.5000 0.0000-0.1374 (107256 PWs)   bands (ev):

   -23.7745 -23.7624 -23.7275 -23.7219 -23.6482 -23.6332 -23.6074 -23.5988
   -22.2955 -22.2951 -22.2553 -22.2552 -20.6654 -20.6617 -20.6517 -20.6503
   -19.2968 -19.2869 -19.2791 -19.2735 -19.1807 -19.1799 -19.1633 -19.1588
   -16.4546 -16.4466 -16.4451 -16.4445 -15.3295 -15.3291 -15.2732 -15.2691
   -14.8006 -14.7865 -14.7789 -14.7731 -13.7409 -13.7369 -13.7272 -13.7227
   -13.3495 -13.3130 -13.2791 -13.2739 -11.7463 -11.7463 -11.7276 -11.7075
   -10.5871 -10.4561 -10.4465 -10.4463 -10.0374  -9.9630  -9.9601  -9.8930
    -9.2046  -9.2028  -9.1793  -9.1590  -7.9139  -7.8434  -7.7880  -7.7232
    -7.5369  -7.4441  -7.3685  -7.3430  -7.3355  -7.3223  -7.2721  -7.2063
    -6.9401  -6.8301  -6.7749  -6.6717  -6.6103  -6.5701  -6.2957  -6.2314
    -6.2268  -6.1504  -6.1252  -6.0837  -6.0373  -5.9771  -5.9688  -5.8682
    -5.8301  -5.8285  -5.8017  -5.7972  -5.7870  -5.6897  -5.6028  -5.5288
    -5.4307  -5.3929  -5.3848  -5.3767  -5.2517  -5.1848  -5.1566  -5.1390
    -5.0754  -5.0731  -4.5076  -4.4998  -4.4951  -4.2962  -4.2387  -4.2273
    -3.7125  -3.5928  -3.5314  -3.4384  -3.4353  -3.3804  -3.3747  -3.3282
    -2.8756  -2.5051  -2.3831  -2.3478  -2.2728  -2.1093  -2.1033  -2.0891
    -2.0696  -2.0283  -1.8937  -1.8082  -1.2132  -1.1745  -1.1561  -1.0400
    -0.9492  -0.8195  -0.7893  -0.7753  -0.7246  -0.7198  -0.6819  -0.6214
    -0.6134  -0.5109  -0.4983  -0.4888  -0.4349  -0.4188  -0.3573  -0.3399
    -0.3186  -0.2699  -0.2397  -0.2134  -0.1714  -0.1347  -0.1145  -0.0955
    -0.0050   0.0075   0.0123   0.0492   0.0851   0.0933   0.1291   0.1315
     0.2135   0.2634   0.2801   0.2925   0.3930   0.3995   0.4523   0.4978
     0.5907   0.6032   0.6378   0.6547   0.7650   0.7850   0.8035   0.8349
     0.9115   0.9679   0.9919   1.0158   3.5900   3.5915   3.6895   3.7305
     4.1879   4.2680   4.2909   4.3277   5.0442   5.0490   5.1397   5.1771
     5.8914   6.0170   6.0640   6.1326   7.1353   7.1823   7.2182   7.3242
     7.7073   7.7969   7.8842   7.8900   8.1263   8.1873   8.3201   8.3500
     8.6857   8.6885   8.8206   8.8481   8.9692   9.1667   9.2244   9.2857
     9.4957

          k =-0.5000 0.0000-0.5303 (107198 PWs)   bands (ev):

   -23.7691 -23.7690 -23.7241 -23.7241 -23.6416 -23.6415 -23.6024 -23.6022
   -22.2953 -22.2953 -22.2553 -22.2553 -20.6637 -20.6636 -20.6509 -20.6508
   -19.2928 -19.2927 -19.2754 -19.2753 -19.1803 -19.1803 -19.1610 -19.1610
   -16.4511 -16.4511 -16.4443 -16.4443 -15.3293 -15.3293 -15.2711 -15.2711
   -14.7951 -14.7951 -14.7745 -14.7744 -13.7389 -13.7389 -13.7251 -13.7251
   -13.3318 -13.3318 -13.2759 -13.2758 -11.7472 -11.7471 -11.7167 -11.7167
   -10.5314 -10.5314 -10.4377 -10.4377 -10.0017 -10.0016  -9.9261  -9.9260
    -9.2038  -9.2037  -9.1683  -9.1682  -7.8905  -7.8905  -7.7459  -7.7459
    -7.4459  -7.4459  -7.4071  -7.4071  -7.3373  -7.3372  -7.2185  -7.2184
    -6.8689  -6.8688  -6.7565  -6.7564  -6.5895  -6.5894  -6.2649  -6.2648
    -6.2044  -6.2043  -6.0838  -6.0838  -6.0052  -6.0051  -5.8873  -5.8872
    -5.8449  -5.8449  -5.7998  -5.7997  -5.7199  -5.7199  -5.5706  -5.5705
    -5.4646  -5.4644  -5.3755  -5.3755  -5.2005  -5.2004  -5.1317  -5.1316
    -5.0792  -5.0792  -4.5278  -4.5278  -4.3810  -4.3809  -4.2323  -4.2323
    -3.6255  -3.6254  -3.5067  -3.5066  -3.4424  -3.4423  -3.3353  -3.3352
    -2.7460  -2.7459  -2.3090  -2.3090  -2.1391  -2.1388  -2.1028  -2.1028
    -1.9909  -1.9909  -1.9326  -1.9325  -1.2023  -1.2022  -1.0920  -1.0919
    -0.9148  -0.9148  -0.7454  -0.7453  -0.7026  -0.7025  -0.6472  -0.6472
    -0.5851  -0.5850  -0.5285  -0.5285  -0.3911  -0.3909  -0.3614  -0.3613
    -0.2931  -0.2928  -0.1977  -0.1976  -0.1563  -0.1560  -0.1314  -0.1314
    -0.0025  -0.0024   0.0302   0.0302   0.0862   0.0862   0.1372   0.1373
     0.2232   0.2233   0.2877   0.2878   0.4068   0.4069   0.4836   0.4836
     0.6034   0.6035   0.6286   0.6287   0.7766   0.7767   0.8283   0.8283
     0.9209   0.9210   1.0183   1.0184   3.5854   3.5855   3.7142   3.7144
     4.2249   4.2252   4.3124   4.3127   5.0441   5.0441   5.1617   5.1618
     5.9400   5.9400   6.1109   6.1111   7.1471   7.1471   7.2849   7.2850
     7.7564   7.7564   7.8863   7.8863   8.1740   8.1743   8.4507   8.4508
     8.6339   8.6340   8.7252   8.7254   8.9553   8.9554   9.2868   9.2869
     9.7886

          k =-0.5000 0.5190-0.1374 (107238 PWs)   bands (ev):

   -23.7639 -23.7529 -23.7411 -23.7328 -23.6361 -23.6233 -23.6162 -23.6065
   -22.2855 -22.2852 -22.2654 -22.2652 -20.6689 -20.6670 -20.6489 -20.6482
   -19.2950 -19.2860 -19.2850 -19.2784 -19.1774 -19.1715 -19.1681 -19.1615
   -16.4660 -16.4625 -16.4223 -16.4199 -15.3162 -15.3146 -15.2879 -15.2848
   -14.7937 -14.7844 -14.7823 -14.7783 -13.7387 -13.7338 -13.7299 -13.7280
   -13.3441 -13.3261 -13.2924 -13.2890 -11.7545 -11.7411 -11.7258 -11.7109
   -10.5565 -10.4923 -10.4477 -10.4464  -9.9936  -9.9544  -9.9181  -9.8824
    -9.2101  -9.1940  -9.1821  -9.1637  -7.8820  -7.8255  -7.8075  -7.7738
    -7.4975  -7.4604  -7.3933  -7.3795  -7.3499  -7.2853  -7.2786  -7.2417
    -6.9489  -6.9264  -6.8846  -6.7311  -6.5503  -6.4967  -6.3008  -6.2594
    -6.1940  -6.1740  -6.0805  -6.0755  -6.0417  -5.9530  -5.9066  -5.8806
    -5.8470  -5.8155  -5.7623  -5.7423  -5.7052  -5.6869  -5.5914  -5.5118
    -5.4959  -5.4741  -5.3532  -5.2936  -5.2560  -5.2014  -5.1763  -5.1681
    -4.9078  -4.8867  -4.5550  -4.5155  -4.4515  -4.3800  -4.3481  -4.3188
    -3.6655  -3.6287  -3.5397  -3.5052  -3.4539  -3.4043  -3.3476  -3.3329
    -2.6961  -2.6021  -2.5165  -2.3262  -2.2652  -2.2168  -2.0898  -2.0894
    -2.0630  -2.0005  -1.8760  -1.8289  -1.1901  -1.1452  -1.0907  -0.9970
    -0.9490  -0.8547  -0.8264  -0.7529  -0.7479  -0.7350  -0.6706  -0.6317
    -0.5891  -0.5585  -0.5143  -0.5135  -0.4751  -0.4678  -0.4083  -0.3421
    -0.3053  -0.2881  -0.2369  -0.1940  -0.1760  -0.1325  -0.1248  -0.0876
    -0.0713  -0.0553  -0.0547   0.0033   0.1056   0.1139   0.1349   0.2187
     0.2340   0.2538   0.2708   0.2897   0.4127   0.4339   0.4339   0.4661
     0.5919   0.5998   0.6150   0.6170   0.8095   0.8387   0.8858   0.8953
     0.9580   0.9621   0.9799   0.9957   3.5947   3.5971   3.6623   3.6885
     4.2122   4.2445   4.2569   4.2653   5.0614   5.0698   5.1088   5.1373
     5.9495   6.0331   6.0670   6.0687   7.1381   7.1795   7.2357   7.3018
     7.6962   7.7953   7.8728   7.9195   8.3615   8.4201   8.4710   8.4746
     8.6758   8.7828   8.8159   8.9492   9.1101   9.1998   9.3766   9.5454
     9.6458

          k =-0.5000 0.5190-0.5303 (107244 PWs)   bands (ev):

   -23.7595 -23.7594 -23.7360 -23.7358 -23.6313 -23.6311 -23.6100 -23.6097
   -22.2853 -22.2853 -22.2653 -22.2653 -20.6680 -20.6679 -20.6485 -20.6485
   -19.2917 -19.2916 -19.2807 -19.2806 -19.1750 -19.1748 -19.1643 -19.1641
   -16.4642 -16.4642 -16.4211 -16.4211 -15.3154 -15.3154 -15.2863 -15.2863
   -14.7900 -14.7900 -14.7794 -14.7794 -13.7365 -13.7365 -13.7288 -13.7287
   -13.3341 -13.3341 -13.2918 -13.2917 -11.7481 -11.7480 -11.7183 -11.7181
   -10.5114 -10.5114 -10.4609 -10.4608  -9.9593  -9.9592  -9.9163  -9.9162
    -9.2019  -9.2018  -9.1721  -9.1719  -7.8647  -7.8647  -7.7800  -7.7800
    -7.4564  -7.4563  -7.3990  -7.3989  -7.3394  -7.3393  -7.2480  -7.2479
    -6.9363  -6.9362  -6.8105  -6.8104  -6.5229  -6.5229  -6.2866  -6.2865
    -6.1634  -6.1633  -6.1188  -6.1187  -5.9608  -5.9606  -5.9071  -5.9069
    -5.8247  -5.8246  -5.7857  -5.7857  -5.6310  -5.6309  -5.5911  -5.5910
    -5.4521  -5.4521  -5.3579  -5.3579  -5.2330  -5.2328  -5.1600  -5.1598
    -4.8972  -4.8972  -4.5391  -4.5391  -4.3954  -4.3954  -4.3547  -4.3546
    -3.6052  -3.6051  -3.5332  -3.5331  -3.4839  -3.4838  -3.3380  -3.3379
    -2.6476  -2.6476  -2.3609  -2.3607  -2.2692  -2.2691  -2.1029  -2.1027
    -1.9645  -1.9644  -1.9134  -1.9134  -1.1709  -1.1709  -1.0462  -1.0462
    -0.9050  -0.9050  -0.7785  -0.7784  -0.7271  -0.7270  -0.6710  -0.6709
    -0.5829  -0.5827  -0.5230  -0.5229  -0.4350  -0.4349  -0.3814  -0.3813
    -0.3006  -0.3002  -0.2221  -0.2218  -0.1426  -0.1425  -0.1159  -0.1157
    -0.0841  -0.0840  -0.0245  -0.0244   0.1390   0.1393   0.1658   0.1659
     0.2315   0.2317   0.2824   0.2825   0.4227   0.4229   0.4561   0.4562
     0.6008   0.6010   0.6160   0.6161   0.8266   0.8267   0.8894   0.8895
     0.9486   0.9488   0.9933   0.9934   3.5954   3.5957   3.6753   3.6756
     4.2306   4.2308   4.2587   4.2589   5.0628   5.0629   5.1258   5.1259
     5.9857   5.9858   6.0725   6.0727   7.1483   7.1485   7.2877   7.2878
     7.7407   7.7408   7.8959   7.8960   8.4155   8.4156   8.5174   8.5175
     8.7157   8.7160   8.8871   8.8874   9.0207   9.0208   9.4845   9.4846
     9.6764

     highest occupied, lowest unoccupied level (ev):     1.0341    3.5781

!    total energy              =   -2086.87212366 Ry
     Harris-Foulkes estimate   =   -2086.87212367 Ry
     estimated scf accuracy    <          3.4E-09 Ry

     total all-electron energy =     -7926.514750 Ry

     The total energy is the sum of the following terms:

     one-electron contribution =   -1068.09573358 Ry
     hartree contribution      =     690.87818872 Ry
     xc contribution           =    -411.52578430 Ry
     ewald contribution        =    -715.59545448 Ry
     Dispersion Correction     =      -0.46876988 Ry
     one-center paw contrib.   =    -582.06457014 Ry

     convergence has been achieved in  17 iterations

     Forces acting on atoms (cartesian axes, Ry/au):

     atom    1 type  4   force =     0.00105855   -0.00010164    0.00143830
     atom    2 type  4   force =    -0.00105937   -0.00010196   -0.00143272
     atom    3 type  4   force =    -0.00105855    0.00010164   -0.00143830
     atom    4 type  4   force =     0.00105937    0.00010196    0.00143272
     atom    5 type  4   force =    -0.00118628   -0.00071511   -0.00193238
     atom    6 type  4   force =     0.00116252   -0.00068175    0.00182204
     atom    7 type  4   force =     0.00118628    0.00071511    0.00193238
     atom    8 type  4   force =    -0.00116252    0.00068175   -0.00182204
     atom    9 type  4   force =    -0.00055671    0.00200347    0.00346830
     atom   10 type  4   force =     0.00052048    0.00218933   -0.00356167
     atom   11 type  4   force =     0.00055671   -0.00200347   -0.00346830
     atom   12 type  4   force =    -0.00052048   -0.00218933    0.00356167
     atom   13 type  4   force =    -0.00042364   -0.00083984   -0.00009100
     atom   14 type  4   force =     0.00027678   -0.00053832    0.00035009
     atom   15 type  4   force =     0.00042364    0.00083984    0.00009100
     atom   16 type  4   force =    -0.00027678    0.00053832   -0.00035009
     atom   17 type  4   force =    -0.00039311   -0.00049204    0.00138724
     atom   18 type  4   force =     0.00051165   -0.00038700   -0.00116074
     atom   19 type  4   force =     0.00039311    0.00049204   -0.00138724
     atom   20 type  4   force =    -0.00051165    0.00038700    0.00116074
     atom   21 type  2   force =     0.00287321    0.00012130    0.00114017
     atom   22 type  2   force =    -0.00287525    0.00012046   -0.00113860
     atom   23 type  2   force =    -0.00287321   -0.00012130   -0.00114017
     atom   24 type  2   force =     0.00287525   -0.00012046    0.00113860
     atom   25 type  2   force =    -0.00036435   -0.00012147   -0.00023159
     atom   26 type  2   force =     0.00036582   -0.00012288    0.00025657
     atom   27 type  2   force =     0.00036435    0.00012147    0.00023159
     atom   28 type  2   force =    -0.00036582    0.00012288   -0.00025657
     atom   29 type  2   force =    -0.00237394   -0.00204838    0.00005954
     atom   30 type  2   force =     0.00238299   -0.00202771   -0.00003184
     atom   31 type  2   force =     0.00237394    0.00204838   -0.00005954
     atom   32 type  2   force =    -0.00238299    0.00202771    0.00003184
     atom   33 type  2   force =     0.00123114    0.00099030   -0.00020377
     atom   34 type  2   force =    -0.00125332    0.00096849    0.00017510
     atom   35 type  2   force =    -0.00123114   -0.00099030    0.00020377
     atom   36 type  2   force =     0.00125332   -0.00096849   -0.00017510
     atom   37 type  2   force =     0.00012286   -0.00201934    0.00156599
     atom   38 type  2   force =    -0.00005411   -0.00223613   -0.00134813
     atom   39 type  2   force =    -0.00012286    0.00201934   -0.00156599
     atom   40 type  2   force =     0.00005411    0.00223613    0.00134813
     atom   41 type  2   force =     0.00049281    0.00210406    0.00039809
     atom   42 type  2   force =    -0.00046700    0.00167825   -0.00091643
     atom   43 type  2   force =    -0.00049281   -0.00210406   -0.00039809
     atom   44 type  2   force =     0.00046700   -0.00167825    0.00091643
     atom   45 type  2   force =    -0.00012850    0.00221492   -0.00007456
     atom   46 type  2   force =     0.00012961    0.00221265    0.00006136
     atom   47 type  2   force =     0.00012850   -0.00221492    0.00007456
     atom   48 type  2   force =    -0.00012961   -0.00221265   -0.00006136
     atom   49 type  1   force =    -0.00159697   -0.00074415   -0.00084471
     atom   50 type  1   force =     0.00159119   -0.00073290    0.00082758
     atom   51 type  1   force =     0.00159697    0.00074415    0.00084471
     atom   52 type  1   force =    -0.00159119    0.00073290   -0.00082758
     atom   53 type  1   force =     0.00086548   -0.00027656   -0.00018718
     atom   54 type  1   force =    -0.00086759   -0.00027413    0.00024694
     atom   55 type  1   force =    -0.00086548    0.00027656    0.00018718
     atom   56 type  1   force =     0.00086759    0.00027413   -0.00024694
     atom   57 type  1   force =     0.00018667    0.00058011   -0.00107322
     atom   58 type  1   force =    -0.00019907    0.00060420    0.00104876
     atom   59 type  1   force =    -0.00018667   -0.00058011    0.00107322
     atom   60 type  1   force =     0.00019907   -0.00060420   -0.00104876
     atom   61 type  1   force =     0.00058306    0.00052368   -0.00171469
     atom   62 type  1   force =    -0.00057342    0.00048395    0.00168376
     atom   63 type  1   force =    -0.00058306   -0.00052368    0.00171469
     atom   64 type  1   force =     0.00057342   -0.00048395   -0.00168376
     atom   65 type  1   force =    -0.00118801    0.00056404   -0.00089296
     atom   66 type  1   force =     0.00120579    0.00058859    0.00095700
     atom   67 type  1   force =     0.00118801   -0.00056404    0.00089296
     atom   68 type  1   force =    -0.00120579   -0.00058859   -0.00095700
     atom   69 type  1   force =     0.00024296   -0.00070546    0.00097454
     atom   70 type  1   force =    -0.00025024   -0.00071272   -0.00100929
     atom   71 type  1   force =    -0.00024296    0.00070546   -0.00097454
     atom   72 type  1   force =     0.00025024    0.00071272    0.00100929
     atom   73 type  3   force =     0.00016183   -0.00003010    0.00034730
     atom   74 type  3   force =    -0.00015906   -0.00003441   -0.00033915
     atom   75 type  3   force =    -0.00016183    0.00003010   -0.00034730
     atom   76 type  3   force =     0.00015906    0.00003441    0.00033915
     atom   77 type  3   force =     0.00059236   -0.00119625   -0.00054689
     atom   78 type  3   force =    -0.00058846   -0.00119716    0.00053901
     atom   79 type  3   force =    -0.00059236    0.00119625    0.00054689
     atom   80 type  3   force =     0.00058846    0.00119716   -0.00053901
     atom   81 type  3   force =     0.00002501    0.00025904   -0.00066630
     atom   82 type  3   force =    -0.00002386    0.00026027    0.00067408
     atom   83 type  3   force =    -0.00002501   -0.00025904    0.00066630
     atom   84 type  3   force =     0.00002386   -0.00026027   -0.00067408
     atom   85 type  3   force =    -0.00036211    0.00042201   -0.00051288
     atom   86 type  3   force =     0.00036435    0.00042270    0.00051691
     atom   87 type  3   force =     0.00036211   -0.00042201    0.00051288
     atom   88 type  3   force =    -0.00036435   -0.00042270   -0.00051691
     atom   89 type  3   force =    -0.00075872    0.00039515    0.00077058
     atom   90 type  3   force =     0.00076077    0.00039308   -0.00077430
     atom   91 type  3   force =     0.00075872   -0.00039515   -0.00077058
     atom   92 type  3   force =    -0.00076077   -0.00039308    0.00077430

     Total force =     0.018431     Total SCF correction =     0.000134


     Computing stress (Cartesian axis) and pressure

          total   stress  (Ry/bohr**3)                   (kbar)     P=   -0.03
   0.00000988   0.00000012   0.00000561          1.45      0.02      0.83
   0.00000012  -0.00000712  -0.00000003          0.02     -1.05     -0.01
   0.00000561  -0.00000003  -0.00000334          0.83     -0.01     -0.49


     Writing output data file scf.save
 
     init_run     :     61.51s CPU     63.21s WALL (       1 calls)
     electrons    :   2233.30s CPU   2304.37s WALL (       1 calls)
     forces       :     30.58s CPU     30.80s WALL (       1 calls)
     stress       :    139.18s CPU    139.55s WALL (       1 calls)

     Called by init_run:
     wfcinit      :     50.49s CPU     52.04s WALL (       1 calls)
     potinit      :      3.94s CPU      3.96s WALL (       1 calls)

     Called by electrons:
     c_bands      :   2004.53s CPU   2066.32s WALL (      17 calls)
     sum_band     :    213.59s CPU    221.49s WALL (      17 calls)
     v_of_rho     :      2.38s CPU      2.57s WALL (      18 calls)
     newd         :      5.54s CPU      6.73s WALL (      18 calls)
     PAW_pot      :      6.78s CPU      6.78s WALL (      18 calls)
     mix_rho      :      0.54s CPU      0.57s WALL (      17 calls)

     Called by c_bands:
     init_us_2    :      8.05s CPU      8.09s WALL (     296 calls)
     cegterg      :   1960.88s CPU   2022.59s WALL (     136 calls)

     Called by sum_band:
     sum_band:bec :      0.11s CPU      0.11s WALL (     136 calls)
     addusdens    :      5.52s CPU      6.67s WALL (      17 calls)

     Called by *egterg:
     h_psi        :   1034.96s CPU   1081.22s WALL (     695 calls)
     s_psi        :    230.73s CPU    230.72s WALL (     695 calls)
     g_psi        :      4.07s CPU      4.07s WALL (     551 calls)
     cdiaghg      :    125.76s CPU    125.73s WALL (     687 calls)

     Called by h_psi:
     h_psi:pot    :   1029.29s CPU   1075.46s WALL (     695 calls)
     h_psi:calbec :    239.33s CPU    239.79s WALL (     695 calls)
     vloc_psi     :    559.54s CPU    605.25s WALL (     695 calls)
     add_vuspsi   :    230.42s CPU    230.41s WALL (     695 calls)

     General routines
     calbec       :    359.15s CPU    359.82s WALL (     871 calls)
     fft          :      3.31s CPU      3.65s WALL (     258 calls)
     fftw         :    621.29s CPU    673.44s WALL (  193222 calls)
 
     Parallel routines
     fft_scatter  :    196.98s CPU    248.90s WALL (  193480 calls)
 
     PWSCF        : 41m18.04s CPU    43m34.58s WALL

 
   This run was terminated on:  21:22:22  22Dec2017            

=------------------------------------------------------------------------------=
   JOB DONE.
=------------------------------------------------------------------------------=
