
     Program PWSCF v.6.1 (svn rev. 13369) starts on 15Dec2017 at  6:21:52 

     This program is part of the open-source Quantum ESPRESSO suite
     for quantum simulation of materials; please cite
         "P. Giannozzi et al., J. Phys.:Condens. Matter 21 395502 (2009);
          URL http://www.quantum-espresso.org", 
     in publications or presentations arising from this work. More details at
     http://www.quantum-espresso.org/quote

     Parallel version (MPI), running on     8 processors
     R & G space division:  proc/nbgrp/npool/nimage =       8
     Waiting for input...
     Reading input from standard input

     Current dimensions of program PWSCF are:
     Max number of different atomic species (ntypx) = 10
     Max number of k-points (npk) =  40000
     Max angular momentum in pseudopotentials (lmaxx) =  3
               file C.pbe-n-kjpaw_psl.0.1.UPF: wavefunction(s)  2P renormalized
               file N.pbe-n-kjpaw_psl.0.1.UPF: wavefunction(s)  2P renormalized
               file H.pbe-kjpaw_psl.0.1.UPF: wavefunction(s)  1S renormalized
               file O.pbe-n-kjpaw_psl.0.1.UPF: wavefunction(s)  2P renormalized

     -------------------------------------
     Parameters for Dispersion Correction:
     -------------------------------------
       atom      VdW radius       C_6     

        C          2.744         60.710
        N          2.640         42.670
        H          1.892          4.857
        O          2.536         24.284

     Subspace diagonalization in iterative solution of the eigenvalue problem:
     a serial algorithm will be used

 
     Parallelization info
     --------------------
     sticks:   dense  smooth     PW     G-vecs:    dense   smooth      PW
     Min        2186    2186    572               139910   139910   18794
     Max        2187    2187    573               139911   139911   18795
     Sum       17489   17489   4583              1119281  1119281  150359
 


     bravais-lattice index     =            0
     lattice parameter (alat)  =      18.9143  a.u.
     unit-cell volume          =    8285.8314 (a.u.)^3
     number of atoms/cell      =          132
     number of atomic types    =            4
     number of electrons       =       416.00
     number of Kohn-Sham states=          249
     kinetic-energy cutoff     =     100.0000  Ry
     charge density cutoff     =     400.0000  Ry
     convergence threshold     =      1.0E-08
     mixing beta               =       0.5000
     number of iterations used =            8  plain     mixing
     Exchange-correlation      =  SLA  PW   PBX  PBC ( 1  4  3  4 0 0)

     celldm(1)=  18.914269  celldm(2)=   0.000000  celldm(3)=   0.000000
     celldm(4)=   0.000000  celldm(5)=   0.000000  celldm(6)=   0.000000

     crystal axes: (cart. coord. in units of alat)
               a(1) = (   1.000000   0.000000   0.000000 )  
               a(2) = (   0.000000   1.534719   0.000000 )  
               a(3) = (   0.000000   0.000000   0.797882 )  

     reciprocal axes: (cart. coord. in units 2 pi/alat)
               b(1) = (  1.000000  0.000000  0.000000 )  
               b(2) = (  0.000000  0.651585  0.000000 )  
               b(3) = (  0.000000  0.000000  1.253318 )  


     PseudoPot. # 1 for  C read from file:
     /scratch/ahofstet/pseudo/C.pbe-n-kjpaw_psl.0.1.UPF
     MD5 check sum: 430fe95172b1e11ef3f8ed03bac87931
     Pseudo is Projector augmented-wave + core cor, Zval =  4.0
     Generated using "atomic" code by A. Dal Corso  v.5.0.99 svn rev. 10869
     Shape of augmentation charge: BESSEL
     Using radial grid of 1073 points,  4 beta functions with: 
                l(1) =   0
                l(2) =   0
                l(3) =   1
                l(4) =   1
     Q(r) pseudized with 0 coefficients 


     PseudoPot. # 2 for  N read from file:
     /scratch/ahofstet/pseudo/N.pbe-n-kjpaw_psl.0.1.UPF
     MD5 check sum: f73187c8b701007e77325f868c9291d7
     Pseudo is Projector augmented-wave + core cor, Zval =  5.0
     Generated using "atomic" code by A. Dal Corso  v.5.0.99 svn rev. 10869
     Shape of augmentation charge: PSQ
     Using radial grid of 1085 points,  4 beta functions with: 
                l(1) =   0
                l(2) =   0
                l(3) =   1
                l(4) =   1
     Q(r) pseudized with 0 coefficients 


     PseudoPot. # 3 for  H read from file:
     /scratch/ahofstet/pseudo/H.pbe-kjpaw_psl.0.1.UPF
     MD5 check sum: 94e484f906d9e9773b2f6e52662335b2
     Pseudo is Projector augmented-wave, Zval =  1.0
     Generated using "atomic" code by A. Dal Corso  v.5.0.99 svn rev. 10869
     Shape of augmentation charge: PSQ
     Using radial grid of  929 points,  2 beta functions with: 
                l(1) =   0
                l(2) =   0
     Q(r) pseudized with 0 coefficients 


     PseudoPot. # 4 for  O read from file:
     /scratch/ahofstet/pseudo/O.pbe-n-kjpaw_psl.0.1.UPF
     MD5 check sum: 3f94a2996a3169367d6eb21d9b593f20
     Pseudo is Projector augmented-wave + core cor, Zval =  6.0
     Generated using "atomic" code by A. Dal Corso  v.5.0.99 svn rev. 10869
     Shape of augmentation charge: BESSEL
     Using radial grid of 1095 points,  4 beta functions with: 
                l(1) =   0
                l(2) =   0
                l(3) =   1
                l(4) =   1
     Q(r) pseudized with 0 coefficients 


     atomic species   valence    mass     pseudopotential
        C              4.00    12.01070      C( 1.00)
        N              5.00    14.00670      N( 1.00)
        H              1.00     1.00794      H( 1.00)
        O              6.00    15.99940      O( 1.00)

     No symmetry found
          (note:  1 additional sym.ops. were found but ignored
           their fractional translations are incommensurate with FFT grid)


   Cartesian axes

     site n.     atom                  positions (alat units)
         1           O   tau(   1) = (   0.5945469   0.1898790   0.4483235  )
         2           O   tau(   2) = (   0.0945469   0.5774803   0.3495584  )
         3           O   tau(   3) = (   0.4055355   0.9572303   0.7484616  )
         4           O   tau(   4) = (   0.9055355   1.3448478   0.0494203  )
         5           O   tau(   5) = (   0.7058103   0.3810945   0.6180387  )
         6           O   tau(   6) = (   0.2058103   0.3862649   0.1798432  )
         7           O   tau(   7) = (   0.2941879   1.1484235   0.5787931  )
         8           O   tau(   8) = (   0.7941879   1.1536546   0.2190888  )
         9           O   tau(   9) = (   0.5257467   0.5102244   0.0092922  )
        10           O   tau(  10) = (   0.0257467   0.2571350   0.7885897  )
        11           O   tau(  11) = (   0.4742304   1.2775578   0.3895268  )
        12           O   tau(  12) = (   0.9742304   1.0245203   0.4083551  )
        13           O   tau(  13) = (   0.3312355   0.5372144   0.7123666  )
        14           O   tau(  14) = (   0.8312355   0.2301450   0.0855153  )
        15           O   tau(  15) = (   0.6686962   1.3045859   0.4843778  )
        16           O   tau(  16) = (   0.1686962   0.9974923   0.3135041  )
        17           O   tau(  17) = (   0.3784804   0.2295413   0.0393633  )
        18           O   tau(  18) = (   0.8784804   0.5378181   0.7585186  )
        19           O   tau(  19) = (   0.6214433   0.9969076   0.3593813  )
        20           O   tau(  20) = (   0.1214433   1.3051705   0.4385006  )
        21           O   tau(  21) = (   0.5158484   0.0673726   0.6351749  )
        22           O   tau(  22) = (   0.0158484   0.6999868   0.1627070  )
        23           O   tau(  23) = (   0.4841496   0.8347157   0.5615663  )
        24           O   tau(  24) = (   0.9841496   1.4673625   0.2363156  )
        25           O   tau(  25) = (   0.5046212   0.4839962   0.4520473  )
        26           O   tau(  26) = (   0.0046212   0.2833632   0.3458346  )
        27           O   tau(  27) = (   0.4954183   1.2513624   0.7445878  )
        28           O   tau(  28) = (   0.9954183   1.0507157   0.0532941  )
        29           O   tau(  29) = (   0.3189794   0.3539024   0.4402463  )
        30           O   tau(  30) = (   0.8189794   0.4134570   0.3576356  )
        31           O   tau(  31) = (   0.6810484   1.1212387   0.7564537  )
        32           O   tau(  32) = (   0.1810484   1.1808395   0.0414282  )
        33           N   tau(  33) = (   0.4385177   0.4784552   0.7270501  )
        34           N   tau(  34) = (   0.9385177   0.2889042   0.0708318  )
        35           N   tau(  35) = (   0.5614606   1.2458176   0.4696624  )
        36           N   tau(  36) = (   0.0614606   1.0562605   0.3282195  )
        37           C   tau(  37) = (   0.6093606   0.1601411   0.5855983  )
        38           C   tau(  38) = (   0.1093606   0.6072182   0.2122836  )
        39           C   tau(  39) = (   0.3906625   0.9274850   0.6111987  )
        40           C   tau(  40) = (   0.8906625   1.3745931   0.1866832  )
        41           C   tau(  41) = (   0.6005985   0.2956984   0.6576508  )
        42           C   tau(  42) = (   0.1005985   0.4716610   0.1402311  )
        43           C   tau(  43) = (   0.3993872   1.0630305   0.5391126  )
        44           C   tau(  44) = (   0.8993872   1.2390476   0.2587693  )
        45           C   tau(  45) = (   0.4575166   0.3516127   0.6412347  )
        46           C   tau(  46) = (   0.9575166   0.4157466   0.1566472  )
        47           C   tau(  47) = (   0.5424770   1.1189507   0.5554575  )
        48           C   tau(  48) = (   0.0424770   1.1831275   0.2424244  )
        49           C   tau(  49) = (   0.3577072   0.2456016   0.6987736  )
        50           C   tau(  50) = (   0.8577072   0.5217577   0.0991083  )
        51           C   tau(  51) = (   0.6422598   1.0129480   0.4978400  )
        52           C   tau(  52) = (   0.1422598   1.2891301   0.3000419  )
        53           C   tau(  53) = (   0.3787270   0.1124674   0.6244326  )
        54           C   tau(  54) = (   0.8787270   0.6548920   0.1734493  )
        55           C   tau(  55) = (   0.6212770   0.8798205   0.5722019  )
        56           C   tau(  56) = (   0.1212770   1.4222576   0.2256800  )
        57           C   tau(  57) = (   0.2905904   0.0025060   0.6795606  )
        58           C   tau(  58) = (   0.7905904   0.7648534   0.1183213  )
        59           C   tau(  59) = (   0.7093982   0.7698547   0.5170580  )
        60           C   tau(  60) = (   0.2093982   1.5322234   0.2808239  )
        61           C   tau(  61) = (   0.6243364   0.0809639   0.3605063  )
        62           C   tau(  62) = (   0.1243364   0.6863954   0.4373756  )
        63           C   tau(  63) = (   0.3756976   0.8483427   0.0384150  )
        64           C   tau(  64) = (   0.8756976   1.4537354   0.7594669  )
        65           C   tau(  65) = (   0.4177138   0.3944229   0.4988162  )
        66           C   tau(  66) = (   0.9177138   0.3729365   0.2990657  )
        67           C   tau(  67) = (   0.5823092   1.1617696   0.6978486  )
        68           C   tau(  68) = (   0.0823092   1.1403085   0.1000333  )
        69           C   tau(  69) = (   0.4840036   0.5275378   0.3158770  )
        70           C   tau(  70) = (   0.9840036   0.2398216   0.4820049  )
        71           C   tau(  71) = (   0.5160091   1.2949238   0.0828583  )
        72           C   tau(  72) = (   0.0160091   1.0071544   0.7150237  )
        73           H   tau(  73) = (   0.7172735   0.3809918   0.5204238  )
        74           H   tau(  74) = (   0.2172735   0.3863676   0.2774581  )
        75           H   tau(  75) = (   0.2827966   1.1483269   0.6764032  )
        76           H   tau(  76) = (   0.7827966   1.1537513   0.1214787  )
        77           H   tau(  77) = (   0.3117177   0.2842435   0.0876259  )
        78           H   tau(  78) = (   0.8117177   0.4831159   0.7102560  )
        79           H   tau(  79) = (   0.6882131   1.0516142   0.3111296  )
        80           H   tau(  80) = (   0.1882131   1.2504639   0.4867523  )
        81           H   tau(  81) = (   0.7079741   0.1144958   0.6050437  )
        82           H   tau(  82) = (   0.2079741   0.6528636   0.1928382  )
        83           H   tau(  83) = (   0.2920386   0.8818389   0.5918075  )
        84           H   tau(  84) = (   0.7920386   1.4202392   0.2060744  )
        85           H   tau(  85) = (   0.6134953   0.2765846   0.7648191  )
        86           H   tau(  86) = (   0.1134953   0.4907748   0.0330628  )
        87           H   tau(  87) = (   0.3864293   1.0439109   0.4319570  )
        88           H   tau(  88) = (   0.8864293   1.2581673   0.3659249  )
        89           H   tau(  89) = (   0.2558536   0.2810332   0.6769712  )
        90           H   tau(  90) = (   0.7558536   0.4863261   0.1209107  )
        91           H   tau(  91) = (   0.7441181   1.0483801   0.5196266  )
        92           H   tau(  92) = (   0.2441181   1.2536980   0.2782553  )
        93           H   tau(  93) = (   0.3555266   0.1301097   0.5184403  )
        94           H   tau(  94) = (   0.8555266   0.6372497   0.2794416  )
        95           H   tau(  95) = (   0.6445382   0.8974836   0.6781797  )
        96           H   tau(  96) = (   0.1445382   1.4045945   0.1197022  )
        97           H   tau(  97) = (   0.3127447   1.5209052   0.7856100  )
        98           H   tau(  98) = (   0.8127447   0.7811729   0.0122719  )
        99           H   tau(  99) = (   0.6872289   0.7535161   0.4110182  )
       100           H   tau( 100) = (   0.1872289   0.0138432   0.3868637  )
       101           H   tau( 101) = (   0.3064870   1.4443463   0.6236165  )
       102           H   tau( 102) = (   0.8064870   0.8577319   0.1742654  )
       103           H   tau( 103) = (   0.6935088   0.6769898   0.5730310  )
       104           H   tau( 104) = (   0.1935088   0.0903696   0.2248509  )
       105           H   tau( 105) = (   0.1850618   0.0314566   0.6703248  )
       106           H   tau( 106) = (   0.6850618   0.7359028   0.1275572  )
       107           H   tau( 107) = (   0.8149258   0.7988111   0.5262893  )
       108           H   tau( 108) = (   0.3149258   1.5032670   0.2715926  )
       109           H   tau( 109) = (   0.5587024  -0.0049506   0.3799858  )
       110           H   tau( 110) = (   0.0587024   0.7723100   0.4178961  )
       111           H   tau( 111) = (   0.4413133   0.7624051   0.0189745  )
       112           H   tau( 112) = (   0.9413133   0.0049543   0.7789074  )
       113           H   tau( 113) = (   0.7292319   0.0489620   0.3728351  )
       114           H   tau( 114) = (   0.2292319   0.7183974   0.4250468  )
       115           H   tau( 115) = (   0.2707964   0.8163654   0.0260704  )
       116           H   tau( 116) = (   0.7707964   1.4857128   0.7718115  )
       117           H   tau( 117) = (   0.6089632   0.1185571   0.2587056  )
       118           H   tau( 118) = (   0.1089632   0.6488023   0.5391763  )
       119           H   tau( 119) = (   0.3910548   0.8859512   0.1402120  )
       120           H   tau( 120) = (   0.8910548   1.4161269   0.6576699  )
       121           H   tau( 121) = (   0.3862004   0.5760794   0.3065963  )
       122           H   tau( 122) = (   0.8862004   0.1912800   0.4912856  )
       123           H   tau( 123) = (   0.6138086   1.3434681   0.0921694  )
       124           H   tau( 124) = (   0.1138086   0.9586101   0.7057125  )
       125           H   tau( 125) = (   0.4891669   0.4413709   0.2484732  )
       126           H   tau( 126) = (   0.9891669   0.3259885   0.5494087  )
       127           H   tau( 127) = (   0.5108348   1.2087673   0.1502796  )
       128           H   tau( 128) = (   0.0108348   1.0933108   0.6476023  )
       129           H   tau( 129) = (   0.5649171   0.5979385   0.2955120  )
       130           H   tau( 130) = (   0.0649171   0.1694208   0.5023699  )
       131           H   tau( 131) = (   0.4350903   1.3653199   0.1032195  )
       132           H   tau( 132) = (   0.9350903   0.9367583   0.6946624  )

     number of k points=     8
                       cart. coord. in units 2pi/alat
        k(    1) = (   0.0000000   0.0000000   0.0000000), wk =   0.1666667
        k(    2) = (   0.0000000   0.0000000   0.4177728), wk =   0.3333333
        k(    3) = (   0.0000000  -0.3257926   0.0000000), wk =   0.1666667
        k(    4) = (   0.0000000  -0.3257926   0.4177728), wk =   0.3333333
        k(    5) = (  -0.5000000   0.0000000   0.0000000), wk =   0.1666667
        k(    6) = (  -0.5000000   0.0000000   0.4177728), wk =   0.3333333
        k(    7) = (  -0.5000000  -0.3257926   0.0000000), wk =   0.1666667
        k(    8) = (  -0.5000000  -0.3257926   0.4177728), wk =   0.3333333

     Dense  grid:  1119281 G-vectors     FFT dimensions: ( 125, 192, 100)

     Estimated max dynamical RAM per process >    1432.22MB

     Estimated total allocated dynamical RAM >   11457.76MB

     Check: negative/imaginary core charge=   -0.000002    0.000000

     Initial potential from superposition of free atoms

     starting charge  415.99785, renormalised to  416.00000
     Starting wfc are  348 randomized atomic wfcs
     Checking if some PAW data can be deallocated... 

     total cpu time spent up to now is       74.7 secs

     per-process dynamical memory:   934.5 Mb

     Self-consistent Calculation

     iteration #  1     ecut=   100.00 Ry     beta=0.50
     Davidson diagonalization with overlap
     ethr =  1.00E-02,  avg # of iterations =  5.4

     total cpu time spent up to now is      337.3 secs

     total energy              =   -2177.89022336 Ry
     Harris-Foulkes estimate   =   -2184.25537089 Ry
     estimated scf accuracy    <      12.19381226 Ry

     iteration #  2     ecut=   100.00 Ry     beta=0.50
     Davidson diagonalization with overlap
     ethr =  2.93E-03,  avg # of iterations =  4.0

     total cpu time spent up to now is      495.7 secs

     total energy              =   -2179.63813838 Ry
     Harris-Foulkes estimate   =   -2180.67920820 Ry
     estimated scf accuracy    <       2.23978749 Ry

     iteration #  3     ecut=   100.00 Ry     beta=0.50
     Davidson diagonalization with overlap
     ethr =  5.38E-04,  avg # of iterations =  6.9

     total cpu time spent up to now is      708.9 secs

     total energy              =   -2180.19060448 Ry
     Harris-Foulkes estimate   =   -2180.42227134 Ry
     estimated scf accuracy    <       0.58485888 Ry

     iteration #  4     ecut=   100.00 Ry     beta=0.50
     Davidson diagonalization with overlap
     ethr =  1.41E-04,  avg # of iterations =  2.9

     total cpu time spent up to now is      841.9 secs

     total energy              =   -2180.25408518 Ry
     Harris-Foulkes estimate   =   -2180.28234774 Ry
     estimated scf accuracy    <       0.08140553 Ry

     iteration #  5     ecut=   100.00 Ry     beta=0.50
     Davidson diagonalization with overlap
     ethr =  1.96E-05,  avg # of iterations =  8.8

     total cpu time spent up to now is     1105.9 secs

     total energy              =   -2180.27956713 Ry
     Harris-Foulkes estimate   =   -2180.29113526 Ry
     estimated scf accuracy    <       0.02934936 Ry

     iteration #  6     ecut=   100.00 Ry     beta=0.50
     Davidson diagonalization with overlap
     ethr =  7.06E-06,  avg # of iterations =  1.2

     total cpu time spent up to now is     1223.7 secs

     total energy              =   -2180.27761383 Ry
     Harris-Foulkes estimate   =   -2180.28170066 Ry
     estimated scf accuracy    <       0.00761665 Ry

     iteration #  7     ecut=   100.00 Ry     beta=0.50
     Davidson diagonalization with overlap
     ethr =  1.83E-06,  avg # of iterations =  7.0

     total cpu time spent up to now is     1487.5 secs

     total energy              =   -2180.28283034 Ry
     Harris-Foulkes estimate   =   -2180.28387882 Ry
     estimated scf accuracy    <       0.00408065 Ry

     iteration #  8     ecut=   100.00 Ry     beta=0.50
     Davidson diagonalization with overlap
     ethr =  9.81E-07,  avg # of iterations =  1.2

     total cpu time spent up to now is     1605.3 secs

     total energy              =   -2180.28228964 Ry
     Harris-Foulkes estimate   =   -2180.28303860 Ry
     estimated scf accuracy    <       0.00202100 Ry

     iteration #  9     ecut=   100.00 Ry     beta=0.50
     Davidson diagonalization with overlap
     ethr =  4.86E-07,  avg # of iterations =  3.0

     total cpu time spent up to now is     1769.7 secs

     total energy              =   -2180.28268836 Ry
     Harris-Foulkes estimate   =   -2180.28275414 Ry
     estimated scf accuracy    <       0.00016612 Ry

     iteration # 10     ecut=   100.00 Ry     beta=0.50
     Davidson diagonalization with overlap
     ethr =  3.99E-08,  avg # of iterations =  4.2

     total cpu time spent up to now is     1965.4 secs

     total energy              =   -2180.28272109 Ry
     Harris-Foulkes estimate   =   -2180.28276039 Ry
     estimated scf accuracy    <       0.00008749 Ry

     iteration # 11     ecut=   100.00 Ry     beta=0.50
     Davidson diagonalization with overlap
     ethr =  2.10E-08,  avg # of iterations =  2.0

     total cpu time spent up to now is     2087.1 secs

     total energy              =   -2180.28272195 Ry
     Harris-Foulkes estimate   =   -2180.28272826 Ry
     estimated scf accuracy    <       0.00001529 Ry

     iteration # 12     ecut=   100.00 Ry     beta=0.50
     Davidson diagonalization with overlap
     ethr =  3.67E-09,  avg # of iterations =  4.0

     total cpu time spent up to now is     2317.8 secs

     total energy              =   -2180.28273580 Ry
     Harris-Foulkes estimate   =   -2180.28273790 Ry
     estimated scf accuracy    <       0.00000786 Ry

     iteration # 13     ecut=   100.00 Ry     beta=0.50
     Davidson diagonalization with overlap
     ethr =  1.89E-09,  avg # of iterations =  2.0

     total cpu time spent up to now is     2438.1 secs

     total energy              =   -2180.28273471 Ry
     Harris-Foulkes estimate   =   -2180.28273619 Ry
     estimated scf accuracy    <       0.00000310 Ry

     iteration # 14     ecut=   100.00 Ry     beta=0.50
     Davidson diagonalization with overlap
     ethr =  7.45E-10,  avg # of iterations =  3.0

     total cpu time spent up to now is     2633.3 secs

     total energy              =   -2180.28273585 Ry
     Harris-Foulkes estimate   =   -2180.28273588 Ry
     estimated scf accuracy    <       0.00000020 Ry

     iteration # 15     ecut=   100.00 Ry     beta=0.50
     Davidson diagonalization with overlap
     ethr =  4.76E-11,  avg # of iterations =  1.9

     total cpu time spent up to now is     2753.1 secs

     total energy              =   -2180.28273580 Ry
     Harris-Foulkes estimate   =   -2180.28273587 Ry
     estimated scf accuracy    <       0.00000014 Ry

     iteration # 16     ecut=   100.00 Ry     beta=0.50
     Davidson diagonalization with overlap
     ethr =  3.25E-11,  avg # of iterations =  3.0

     total cpu time spent up to now is     2929.2 secs

     End of self-consistent calculation

          k = 0.0000 0.0000 0.0000 (139801 PWs)   bands (ev):

   -24.9696 -24.9676 -24.9662 -24.9642 -21.9658 -21.9654 -21.9464 -21.9461
   -20.8353 -20.8353 -20.8345 -20.8306 -20.5924 -20.5891 -20.5861 -20.5828
   -19.8723 -19.8695 -19.7377 -19.7365 -19.7040 -19.7014 -19.6302 -19.6278
   -19.4228 -19.4212 -19.3667 -19.3661 -19.0250 -19.0225 -18.9761 -18.9739
   -14.9781 -14.9725 -14.8963 -14.8911 -13.2826 -13.2630 -13.2495 -13.2114
   -12.3379 -12.3191 -12.2809 -12.2747 -11.9356 -11.9171 -11.8967 -11.8708
   -10.8676 -10.8155 -10.7923 -10.7790 -10.6499 -10.6353 -10.5936 -10.5434
    -9.6585  -9.5478  -9.4608  -9.4213  -9.2801  -9.2417  -9.2154  -9.2145
    -8.2806  -8.2484  -8.2342  -8.2251  -7.8459  -7.8161  -7.7845  -7.7752
    -7.6775  -7.6508  -7.6164  -7.5901  -7.4009  -7.3659  -7.3578  -7.3466
    -7.3374  -7.3096  -7.1581  -7.1464  -6.8932  -6.8705  -6.7841  -6.7547
    -6.5870  -6.5374  -6.4438  -6.4121  -6.3789  -6.3084  -6.2703  -6.2154
    -6.0726  -6.0165  -5.9879  -5.9640  -5.8470  -5.8383  -5.7917  -5.7348
    -5.7299  -5.7184  -5.6623  -5.6619  -5.4804  -5.4687  -5.4177  -5.4045
    -5.0966  -5.0118  -4.9600  -4.8784  -4.8160  -4.8007  -4.7567  -4.7318
    -4.6398  -4.4763  -4.4368  -4.3891  -4.3192  -4.2672  -4.1531  -4.1387
    -4.0272  -3.9912  -3.8540  -3.8457  -3.8312  -3.7398  -3.7153  -3.6531
    -3.6443  -3.5782  -3.5283  -3.4928  -3.2880  -3.2392  -3.1825  -3.1206
    -2.9917  -2.9486  -2.9408  -2.9224  -2.7981  -2.7810  -2.7764  -2.7233
    -2.6843  -2.6443  -2.6430  -2.5770  -2.5528  -2.4440  -2.4374  -2.4118
    -2.1882  -2.1570  -2.0340  -2.0274  -1.9747  -1.9654  -1.9371  -1.9052
    -1.7820  -1.7811  -1.6137  -1.5616  -1.5602  -1.5251  -1.4724  -1.4622
    -1.3872  -1.3200  -1.2864  -1.2860  -1.2663  -1.2321  -1.1994  -1.1961
    -1.0320  -1.0065  -0.9891  -0.9699  -0.9222  -0.8738  -0.8592  -0.8249
    -0.6606  -0.6524  -0.5525  -0.5136  -0.3663  -0.3447  -0.3360  -0.2622
    -0.1890  -0.1864  -0.1141  -0.0991   0.1634   0.1804   0.1885   0.2269
     2.8916   2.9064   2.9126   2.9158   4.4868   4.4952   4.4988   4.5208
     5.9154   6.2175   6.2708   6.6673   6.6890   6.7178   6.7949   6.8920
     7.1199   7.1471   7.1721   7.1946   7.2271   7.3217   7.5204   7.5690
     7.6477   7.6610   7.7658   7.7824   7.8923   7.9159   8.0829   8.1354
     8.1480   8.2374   8.2644   8.2808   8.3118   8.3523   8.4135   8.4182
     8.5172

          k = 0.0000 0.0000 0.4178 (139906 PWs)   bands (ev):

   -24.9695 -24.9676 -24.9661 -24.9642 -21.9661 -21.9659 -21.9468 -21.9467
   -20.8404 -20.8397 -20.8285 -20.8273 -20.5921 -20.5889 -20.5852 -20.5820
   -19.8503 -19.8481 -19.7611 -19.7598 -19.7055 -19.7029 -19.6408 -19.6395
   -19.4145 -19.4137 -19.3628 -19.3622 -19.0232 -19.0219 -18.9739 -18.9727
   -14.9536 -14.9484 -14.9111 -14.9061 -13.2785 -13.2686 -13.2412 -13.2222
   -12.3255 -12.3239 -12.2676 -12.2596 -11.9786 -11.9625 -11.9220 -11.9026
   -10.8639 -10.8212 -10.7892 -10.7778 -10.6430 -10.6231 -10.5943 -10.5776
    -9.5735  -9.5009  -9.4673  -9.4596  -9.1904  -9.1885  -9.1386  -9.1283
    -8.3560  -8.3336  -8.3105  -8.3100  -7.8386  -7.8344  -7.7864  -7.7817
    -7.7176  -7.6704  -7.6512  -7.6294  -7.3655  -7.3499  -7.3342  -7.3169
    -7.2925  -7.2896  -7.1150  -7.1086  -6.8940  -6.8800  -6.8153  -6.8100
    -6.5528  -6.4901  -6.4755  -6.3985  -6.3917  -6.3569  -6.3137  -6.3103
    -5.9761  -5.9502  -5.9437  -5.9224  -5.8460  -5.8436  -5.7556  -5.7499
    -5.7127  -5.6849  -5.6578  -5.6556  -5.5073  -5.4786  -5.4565  -5.4296
    -5.0775  -5.0494  -5.0351  -4.9298  -4.8256  -4.8236  -4.7327  -4.7112
    -4.6183  -4.5024  -4.4374  -4.4131  -4.2682  -4.2214  -4.1817  -4.1615
    -3.9923  -3.9521  -3.8761  -3.8490  -3.8096  -3.7753  -3.6974  -3.6931
    -3.5916  -3.5613  -3.5213  -3.4981  -3.2900  -3.2812  -3.1702  -3.1366
    -2.9810  -2.9697  -2.9079  -2.9018  -2.7795  -2.7759  -2.7753  -2.7315
    -2.6999  -2.6462  -2.6086  -2.5814  -2.5581  -2.5054  -2.4474  -2.4291
    -2.2077  -2.1477  -2.0984  -2.0320  -1.9109  -1.9054  -1.8825  -1.8690
    -1.7433  -1.7263  -1.6002  -1.5829  -1.5677  -1.5091  -1.5084  -1.4636
    -1.4486  -1.3739  -1.2938  -1.2837  -1.2718  -1.2662  -1.2364  -1.2246
    -1.0346  -1.0157  -0.9917  -0.9863  -0.8918  -0.8791  -0.8371  -0.8131
    -0.6113  -0.6003  -0.5634  -0.5512  -0.3408  -0.3231  -0.3133  -0.2550
    -0.2361  -0.2215  -0.1143  -0.1014   0.1631   0.1645   0.2137   0.2259
     2.8870   2.8921   2.8965   2.9005   4.5024   4.5077   4.5593   4.5677
     6.0261   6.3449   6.4309   6.4874   6.6870   6.7133   6.8386   6.9528
     7.0187   7.1015   7.1941   7.2334   7.3639   7.3894   7.4276   7.5298
     7.5588   7.6286   7.7360   7.7430   7.7796   7.8781   7.9092   7.9981
     8.0647   8.0668   8.1082   8.1905   8.3680   8.4300   8.4836   8.5512
     8.6712

          k = 0.0000-0.3258 0.0000 (139876 PWs)   bands (ev):

   -24.9696 -24.9676 -24.9662 -24.9642 -21.9656 -21.9656 -21.9463 -21.9463
   -20.8356 -20.8356 -20.8323 -20.8323 -20.5923 -20.5892 -20.5861 -20.5829
   -19.8712 -19.8706 -19.7374 -19.7367 -19.7039 -19.7015 -19.6296 -19.6284
   -19.4222 -19.4218 -19.3666 -19.3661 -19.0240 -19.0235 -18.9752 -18.9747
   -14.9755 -14.9752 -14.8939 -14.8935 -13.2772 -13.2771 -13.2263 -13.2261
   -12.3288 -12.3281 -12.2780 -12.2773 -11.9168 -11.9166 -11.8947 -11.8946
   -10.8249 -10.8249 -10.7938 -10.7934 -10.6623 -10.6617 -10.5573 -10.5572
    -9.6140  -9.6139  -9.4269  -9.4267  -9.2665  -9.2664  -9.2122  -9.2121
    -8.2654  -8.2650  -8.2290  -8.2289  -7.8311  -7.8307  -7.7806  -7.7799
    -7.6624  -7.6621  -7.6052  -7.6051  -7.3876  -7.3866  -7.3501  -7.3490
    -7.3242  -7.3242  -7.1505  -7.1501  -6.8837  -6.8834  -6.7682  -6.7679
    -6.5612  -6.5609  -6.4279  -6.4278  -6.3593  -6.3592  -6.2299  -6.2299
    -6.0453  -6.0450  -5.9768  -5.9766  -5.8399  -5.8399  -5.7624  -5.7622
    -5.7191  -5.7191  -5.6680  -5.6679  -5.4745  -5.4742  -5.4123  -5.4117
    -5.0474  -5.0474  -4.9241  -4.9240  -4.8265  -4.8262  -4.7444  -4.7444
    -4.5518  -4.5517  -4.4009  -4.4008  -4.2995  -4.2993  -4.1519  -4.1518
    -4.0042  -4.0042  -3.8419  -3.8415  -3.7598  -3.7594  -3.7196  -3.7191
    -3.6041  -3.6039  -3.5105  -3.5090  -3.2669  -3.2665  -3.1583  -3.1581
    -2.9579  -2.9575  -2.9305  -2.9303  -2.7930  -2.7929  -2.7421  -2.7420
    -2.6508  -2.6508  -2.6379  -2.6377  -2.5291  -2.5289  -2.4061  -2.4061
    -2.1519  -2.1518  -2.0340  -2.0337  -1.9712  -1.9707  -1.9166  -1.9160
    -1.7790  -1.7784  -1.5938  -1.5937  -1.5476  -1.5472  -1.4621  -1.4620
    -1.3372  -1.3371  -1.3097  -1.3096  -1.2512  -1.2511  -1.1995  -1.1994
    -1.0037  -1.0029  -0.9931  -0.9920  -0.8883  -0.8877  -0.8455  -0.8455
    -0.6633  -0.6627  -0.5257  -0.5255  -0.3589  -0.3588  -0.3022  -0.3022
    -0.1830  -0.1830  -0.1074  -0.1070   0.1758   0.1760   0.2047   0.2048
     2.8962   2.8973   2.9153   2.9165   4.4904   4.4911   4.5101   4.5107
     5.9972   5.9973   6.5722   6.5724   6.6967   6.6968   6.7875   6.7877
     7.1356   7.1359   7.2344   7.2347   7.2654   7.2657   7.5453   7.5456
     7.6639   7.6642   7.8055   7.8058   7.9369   7.9372   8.0314   8.0317
     8.1139   8.1148   8.2094   8.2096   8.3064   8.3067   8.5176   8.5177
     8.6713

          k = 0.0000-0.3258 0.4178 (139860 PWs)   bands (ev):

   -24.9695 -24.9676 -24.9661 -24.9642 -21.9660 -21.9660 -21.9468 -21.9468
   -20.8400 -20.8400 -20.8280 -20.8280 -20.5920 -20.5889 -20.5853 -20.5821
   -19.8496 -19.8489 -19.7609 -19.7600 -19.7055 -19.7029 -19.6406 -19.6397
   -19.4143 -19.4139 -19.3628 -19.3622 -19.0228 -19.0223 -18.9736 -18.9730
   -14.9512 -14.9509 -14.9088 -14.9085 -13.2746 -13.2745 -13.2308 -13.2306
   -12.3249 -12.3242 -12.2643 -12.2636 -11.9565 -11.9564 -11.9277 -11.9276
   -10.8216 -10.8214 -10.7989 -10.7987 -10.6414 -10.6409 -10.5831 -10.5829
    -9.5441  -9.5440  -9.4572  -9.4571  -9.1782  -9.1781  -9.1434  -9.1434
    -8.3419  -8.3416  -8.3132  -8.3132  -7.8354  -7.8353  -7.7874  -7.7867
    -7.6946  -7.6944  -7.6388  -7.6384  -7.3570  -7.3570  -7.3261  -7.3246
    -7.2925  -7.2911  -7.1123  -7.1118  -6.8878  -6.8874  -6.8131  -6.8128
    -6.5162  -6.5160  -6.4514  -6.4513  -6.3675  -6.3674  -6.3105  -6.3104
    -5.9613  -5.9613  -5.9342  -5.9335  -5.8434  -5.8433  -5.7542  -5.7541
    -5.6982  -5.6981  -5.6574  -5.6573  -5.4880  -5.4877  -5.4456  -5.4452
    -5.0714  -5.0712  -4.9784  -4.9780  -4.8309  -4.8308  -4.7229  -4.7228
    -4.5521  -4.5517  -4.4293  -4.4291  -4.2463  -4.2460  -4.1714  -4.1712
    -3.9645  -3.9642  -3.8606  -3.8604  -3.7747  -3.7745  -3.7248  -3.7237
    -3.5745  -3.5740  -3.5065  -3.5048  -3.2846  -3.2839  -3.1550  -3.1547
    -2.9579  -2.9576  -2.9049  -2.9046  -2.8011  -2.8009  -2.7549  -2.7549
    -2.6610  -2.6608  -2.6182  -2.6177  -2.5205  -2.5204  -2.4430  -2.4428
    -2.1762  -2.1760  -2.0577  -2.0576  -1.8996  -1.8995  -1.8771  -1.8762
    -1.7331  -1.7322  -1.5955  -1.5954  -1.5356  -1.5355  -1.4858  -1.4857
    -1.4215  -1.4213  -1.2927  -1.2926  -1.2637  -1.2635  -1.2362  -1.2361
    -1.0083  -1.0072  -1.0015  -1.0006  -0.8758  -0.8754  -0.8322  -0.8320
    -0.6098  -0.6093  -0.5547  -0.5543  -0.3341  -0.3338  -0.2839  -0.2838
    -0.2270  -0.2269  -0.1082  -0.1079   0.1706   0.1709   0.2139   0.2141
     2.8882   2.8892   2.8982   2.8993   4.5055   4.5062   4.5625   4.5633
     6.1236   6.1237   6.5148   6.5149   6.7370   6.7372   6.8751   6.8753
     7.0952   7.0957   7.2646   7.2649   7.2977   7.2979   7.5001   7.5008
     7.5205   7.5206   7.7111   7.7118   7.8174   7.8176   7.9151   7.9155
     8.1380   8.1383   8.2450   8.2451   8.3506   8.3508   8.5085   8.5088
     8.5769

          k =-0.5000 0.0000 0.0000 (139916 PWs)   bands (ev):

   -24.9686 -24.9686 -24.9652 -24.9652 -21.9562 -21.9562 -21.9558 -21.9558
   -20.8353 -20.8353 -20.8329 -20.8329 -20.5891 -20.5891 -20.5858 -20.5858
   -19.8232 -19.8232 -19.8207 -19.8207 -19.6491 -19.6491 -19.6469 -19.6469
   -19.3961 -19.3961 -19.3947 -19.3946 -18.9985 -18.9985 -18.9977 -18.9977
   -14.9376 -14.9376 -14.9322 -14.9322 -13.2756 -13.2756 -13.2280 -13.2280
   -12.3089 -12.3089 -12.2954 -12.2954 -11.9280 -11.9279 -11.8837 -11.8837
   -10.8603 -10.8603 -10.7652 -10.7652 -10.6260 -10.6260 -10.5847 -10.5847
    -9.5611  -9.5611  -9.4767  -9.4766  -9.2782  -9.2781  -9.2119  -9.2119
    -8.2744  -8.2744  -8.2144  -8.2144  -7.8286  -7.8286  -7.8012  -7.8012
    -7.6785  -7.6785  -7.6037  -7.6037  -7.3967  -7.3967  -7.3687  -7.3687
    -7.2284  -7.2284  -7.2195  -7.2195  -6.8114  -6.8114  -6.7892  -6.7892
    -6.5101  -6.5101  -6.4706  -6.4706  -6.3396  -6.3396  -6.2807  -6.2807
    -5.9691  -5.9691  -5.9594  -5.9594  -5.8630  -5.8630  -5.8443  -5.8443
    -5.6834  -5.6834  -5.6687  -5.6687  -5.4687  -5.4687  -5.4436  -5.4436
    -5.0738  -5.0738  -4.9464  -4.9464  -4.7493  -4.7493  -4.5948  -4.5948
    -4.5882  -4.5882  -4.5434  -4.5434  -4.2478  -4.2478  -4.1904  -4.1904
    -3.9587  -3.9587  -3.9296  -3.9296  -3.7788  -3.7788  -3.6821  -3.6821
    -3.5909  -3.5909  -3.5454  -3.5454  -3.1962  -3.1962  -3.1052  -3.1052
    -3.0380  -3.0380  -2.9831  -2.9831  -2.7854  -2.7854  -2.7390  -2.7390
    -2.6935  -2.6935  -2.5508  -2.5508  -2.5167  -2.5167  -2.4356  -2.4356
    -2.1106  -2.1106  -2.0953  -2.0953  -1.9554  -1.9554  -1.9153  -1.9153
    -1.6576  -1.6576  -1.6061  -1.6061  -1.5074  -1.5074  -1.5011  -1.5011
    -1.4162  -1.4162  -1.3302  -1.3301  -1.2406  -1.2406  -1.2251  -1.2251
    -1.0139  -1.0139  -0.9750  -0.9750  -0.8957  -0.8957  -0.8440  -0.8439
    -0.6008  -0.6008  -0.5734  -0.5734  -0.3696  -0.3695  -0.2587  -0.2587
    -0.1996  -0.1996  -0.1387  -0.1386   0.1880   0.1880   0.2198   0.2198
     2.9052   2.9052   2.9113   2.9113   4.4928   4.4928   4.5117   4.5117
     6.1462   6.1462   6.3821   6.3821   6.5321   6.5321   6.8696   6.8696
     7.1270   7.1270   7.1714   7.1714   7.3964   7.3964   7.5221   7.5221
     7.6850   7.6850   7.7492   7.7492   7.8906   7.8906   8.1344   8.1344
     8.1618   8.1619   8.2732   8.2732   8.4499   8.4499   8.5488   8.5488
     8.6625

          k =-0.5000 0.0000 0.4178 (139968 PWs)   bands (ev):

   -24.9686 -24.9685 -24.9652 -24.9652 -21.9566 -21.9566 -21.9563 -21.9563
   -20.8351 -20.8351 -20.8330 -20.8330 -20.5886 -20.5886 -20.5853 -20.5853
   -19.8156 -19.8156 -19.8135 -19.8135 -19.6638 -19.6638 -19.6620 -19.6619
   -19.3897 -19.3897 -19.3884 -19.3884 -18.9971 -18.9971 -18.9965 -18.9965
   -14.9325 -14.9325 -14.9273 -14.9273 -13.2655 -13.2655 -13.2410 -13.2410
   -12.2974 -12.2974 -12.2905 -12.2905 -11.9670 -11.9670 -11.9140 -11.9140
   -10.8488 -10.8488 -10.7778 -10.7778 -10.6201 -10.6201 -10.5967 -10.5967
    -9.5280  -9.5280  -9.4757  -9.4757  -9.1955  -9.1955  -9.1373  -9.1373
    -8.3340  -8.3339  -8.2968  -8.2968  -7.8341  -7.8340  -7.7994  -7.7994
    -7.7164  -7.7164  -7.6664  -7.6664  -7.3327  -7.3327  -7.3114  -7.3114
    -7.2263  -7.2263  -7.2129  -7.2129  -6.8195  -6.8195  -6.8062  -6.8062
    -6.5632  -6.5632  -6.5017  -6.5017  -6.2839  -6.2839  -6.2468  -6.2468
    -5.9654  -5.9654  -5.9240  -5.9240  -5.8627  -5.8627  -5.8458  -5.8458
    -5.6878  -5.6878  -5.6743  -5.6743  -5.4718  -5.4718  -5.4483  -5.4483
    -5.0585  -5.0585  -5.0082  -5.0082  -4.7365  -4.7365  -4.6640  -4.6640
    -4.5943  -4.5943  -4.5180  -4.5180  -4.2429  -4.2429  -4.2059  -4.2059
    -3.9041  -3.9041  -3.8916  -3.8916  -3.7828  -3.7828  -3.6816  -3.6816
    -3.5580  -3.5580  -3.5395  -3.5395  -3.2208  -3.2208  -3.1637  -3.1637
    -2.9909  -2.9909  -2.9439  -2.9439  -2.8297  -2.8297  -2.7601  -2.7601
    -2.6917  -2.6917  -2.5665  -2.5664  -2.5227  -2.5227  -2.4575  -2.4575
    -2.1111  -2.1111  -2.0748  -2.0748  -1.9042  -1.9042  -1.8737  -1.8737
    -1.6530  -1.6530  -1.6155  -1.6155  -1.5444  -1.5444  -1.5338  -1.5338
    -1.4261  -1.4261  -1.3502  -1.3501  -1.2283  -1.2283  -1.2018  -1.2018
    -1.0202  -1.0201  -0.9751  -0.9751  -0.8943  -0.8943  -0.8559  -0.8559
    -0.5860  -0.5859  -0.5707  -0.5707  -0.3280  -0.3280  -0.2678  -0.2678
    -0.1990  -0.1990  -0.1675  -0.1675   0.1896   0.1896   0.2181   0.2181
     2.8922   2.8922   2.8977   2.8977   4.5242   4.5242   4.5402   4.5402
     6.2429   6.2429   6.5016   6.5017   6.6022   6.6022   6.8110   6.8110
     6.9822   6.9822   7.1249   7.1249   7.3872   7.3872   7.5018   7.5018
     7.6414   7.6414   7.7939   7.7939   7.8794   7.8794   8.0148   8.0148
     8.1636   8.1636   8.2912   8.2912   8.3428   8.3428   8.5314   8.5314
     8.6463

          k =-0.5000-0.3258 0.0000 (139852 PWs)   bands (ev):

   -24.9686 -24.9686 -24.9652 -24.9652 -21.9560 -21.9560 -21.9560 -21.9560
   -20.8348 -20.8348 -20.8334 -20.8333 -20.5890 -20.5890 -20.5859 -20.5859
   -19.8227 -19.8226 -19.8212 -19.8212 -19.6488 -19.6488 -19.6472 -19.6472
   -19.3961 -19.3961 -19.3946 -19.3946 -18.9985 -18.9985 -18.9977 -18.9976
   -14.9352 -14.9352 -14.9346 -14.9346 -13.2753 -13.2753 -13.2284 -13.2284
   -12.3036 -12.3036 -12.3005 -12.3005 -11.9115 -11.9115 -11.9016 -11.9016
   -10.8251 -10.8250 -10.8023 -10.8023 -10.6220 -10.6220 -10.5861 -10.5861
    -9.5538  -9.5538  -9.4888  -9.4887  -9.2440  -9.2440  -9.2405  -9.2405
    -8.2719  -8.2719  -8.2166  -8.2166  -7.8250  -7.8250  -7.8071  -7.8071
    -7.6710  -7.6710  -7.6114  -7.6114  -7.3945  -7.3945  -7.3703  -7.3703
    -7.2277  -7.2277  -7.2180  -7.2180  -6.8034  -6.8033  -6.7990  -6.7990
    -6.5003  -6.5003  -6.4779  -6.4779  -6.3406  -6.3406  -6.2835  -6.2835
    -5.9741  -5.9741  -5.9497  -5.9497  -5.8581  -5.8581  -5.8525  -5.8525
    -5.6749  -5.6749  -5.6748  -5.6748  -5.4607  -5.4607  -5.4528  -5.4528
    -5.0735  -5.0735  -4.9444  -4.9444  -4.7561  -4.7561  -4.5918  -4.5918
    -4.5723  -4.5723  -4.5610  -4.5610  -4.2435  -4.2435  -4.1962  -4.1962
    -3.9471  -3.9471  -3.9399  -3.9399  -3.7444  -3.7444  -3.7144  -3.7144
    -3.5767  -3.5767  -3.5580  -3.5580  -3.1791  -3.1790  -3.1239  -3.1239
    -3.0306  -3.0306  -2.9851  -2.9851  -2.7787  -2.7787  -2.7687  -2.7687
    -2.6659  -2.6659  -2.5849  -2.5849  -2.5045  -2.5045  -2.4274  -2.4274
    -2.1080  -2.1080  -2.1047  -2.1047  -1.9298  -1.9298  -1.9233  -1.9233
    -1.6337  -1.6337  -1.6321  -1.6321  -1.5191  -1.5191  -1.4902  -1.4902
    -1.3897  -1.3897  -1.3577  -1.3577  -1.2394  -1.2394  -1.2372  -1.2372
    -0.9951  -0.9951  -0.9896  -0.9896  -0.8896  -0.8896  -0.8439  -0.8439
    -0.6094  -0.6094  -0.5676  -0.5676  -0.3691  -0.3691  -0.2451  -0.2451
    -0.2145  -0.2145  -0.1362  -0.1362   0.1969   0.1969   0.2111   0.2111
     2.9061   2.9061   2.9097   2.9097   4.4897   4.4897   4.5150   4.5150
     6.2056   6.2056   6.2564   6.2564   6.6659   6.6659   6.7877   6.7877
     7.1471   7.1471   7.1907   7.1908   7.3372   7.3372   7.5831   7.5831
     7.6862   7.6862   7.7501   7.7501   7.8611   7.8612   8.1013   8.1013
     8.2215   8.2215   8.2274   8.2274   8.5150   8.5150   8.5153   8.5153
     8.5752

          k =-0.5000-0.3258 0.4178 (140048 PWs)   bands (ev):

   -24.9686 -24.9685 -24.9652 -24.9652 -21.9565 -21.9565 -21.9564 -21.9564
   -20.8345 -20.8344 -20.8337 -20.8337 -20.5885 -20.5885 -20.5853 -20.5853
   -19.8150 -19.8150 -19.8141 -19.8141 -19.6636 -19.6636 -19.6622 -19.6622
   -19.3895 -19.3895 -19.3886 -19.3886 -18.9971 -18.9971 -18.9965 -18.9965
   -14.9301 -14.9301 -14.9297 -14.9297 -13.2649 -13.2649 -13.2416 -13.2416
   -12.2949 -12.2949 -12.2931 -12.2931 -11.9436 -11.9436 -11.9387 -11.9387
   -10.8177 -10.8177 -10.8059 -10.8059 -10.6185 -10.6185 -10.6006 -10.6006
    -9.5209  -9.5209  -9.4850  -9.4850  -9.1670  -9.1670  -9.1628  -9.1628
    -8.3250  -8.3250  -8.3056  -8.3056  -7.8229  -7.8229  -7.8141  -7.8141
    -7.7099  -7.7099  -7.6701  -7.6701  -7.3251  -7.3251  -7.3201  -7.3200
    -7.2193  -7.2193  -7.2187  -7.2187  -6.8143  -6.8143  -6.8125  -6.8125
    -6.5358  -6.5358  -6.5296  -6.5296  -6.2794  -6.2794  -6.2511  -6.2511
    -5.9509  -5.9509  -5.9386  -5.9386  -5.8558  -5.8558  -5.8526  -5.8526
    -5.6807  -5.6807  -5.6798  -5.6798  -5.4594  -5.4594  -5.4590  -5.4590
    -5.0609  -5.0609  -5.0090  -5.0090  -4.7366  -4.7366  -4.6648  -4.6648
    -4.5626  -4.5626  -4.5515  -4.5515  -4.2347  -4.2347  -4.2111  -4.2111
    -3.9007  -3.9007  -3.8983  -3.8983  -3.7398  -3.7398  -3.7241  -3.7241
    -3.5508  -3.5508  -3.5441  -3.5440  -3.1996  -3.1996  -3.1793  -3.1793
    -2.9736  -2.9736  -2.9587  -2.9587  -2.8159  -2.8159  -2.8013  -2.8013
    -2.6476  -2.6476  -2.6176  -2.6176  -2.5039  -2.5038  -2.4531  -2.4531
    -2.0956  -2.0956  -2.0935  -2.0935  -1.8844  -1.8844  -1.8808  -1.8808
    -1.6352  -1.6352  -1.6251  -1.6251  -1.5444  -1.5444  -1.5399  -1.5399
    -1.4031  -1.4030  -1.3879  -1.3879  -1.2166  -1.2165  -1.2148  -1.2148
    -0.9960  -0.9960  -0.9928  -0.9927  -0.8852  -0.8852  -0.8620  -0.8620
    -0.5907  -0.5907  -0.5683  -0.5683  -0.3272  -0.3272  -0.2613  -0.2613
    -0.2051  -0.2051  -0.1671  -0.1671   0.2014   0.2014   0.2067   0.2067
     2.8933   2.8934   2.8960   2.8960   4.5256   4.5256   4.5388   4.5388
     6.3295   6.3295   6.3305   6.3306   6.6893   6.6893   6.8878   6.8878
     6.9834   6.9834   7.0649   7.0649   7.3214   7.3214   7.4910   7.4910
     7.6908   7.6908   7.7768   7.7768   7.8837   7.8838   7.9992   7.9992
     8.2396   8.2396   8.2467   8.2467   8.3877   8.3878   8.5748   8.5748
     8.5965

     highest occupied, lowest unoccupied level (ev):     0.2269    2.8870

!    total energy              =   -2180.28273583 Ry
     Harris-Foulkes estimate   =   -2180.28273584 Ry
     estimated scf accuracy    <          9.8E-09 Ry

     total all-electron energy =     -8068.085889 Ry

     The total energy is the sum of the following terms:

     one-electron contribution =   -1539.11171417 Ry
     hartree contribution      =     930.67010570 Ry
     xc contribution           =    -450.75987984 Ry
     ewald contribution        =    -543.49871997 Ry
     Dispersion Correction     =      -0.56983499 Ry
     one-center paw contrib.   =    -577.01269256 Ry

     convergence has been achieved in  16 iterations

     Forces acting on atoms (cartesian axes, Ry/au):

     atom    1 type  4   force =     0.00028683   -0.00045490    0.00102630
     atom    2 type  4   force =     0.00028686    0.00045244   -0.00102492
     atom    3 type  4   force =    -0.00027553   -0.00045665   -0.00103607
     atom    4 type  4   force =    -0.00027725    0.00045773    0.00103639
     atom    5 type  4   force =     0.00013364    0.00023372   -0.00043783
     atom    6 type  4   force =     0.00013494   -0.00023487    0.00043709
     atom    7 type  4   force =    -0.00008936    0.00021202    0.00021379
     atom    8 type  4   force =    -0.00009089   -0.00021330   -0.00021245
     atom    9 type  4   force =    -0.00029182   -0.00076630   -0.00165846
     atom   10 type  4   force =    -0.00026834    0.00075409    0.00163413
     atom   11 type  4   force =     0.00024983   -0.00071234    0.00158334
     atom   12 type  4   force =     0.00023264    0.00070065   -0.00156268
     atom   13 type  4   force =     0.00080677   -0.00061344   -0.00063357
     atom   14 type  4   force =     0.00083813    0.00063404    0.00063139
     atom   15 type  4   force =    -0.00023018   -0.00026012    0.00066835
     atom   16 type  4   force =    -0.00024816    0.00027216   -0.00066601
     atom   17 type  4   force =    -0.00034369   -0.00034558   -0.00017587
     atom   18 type  4   force =    -0.00034208    0.00034599    0.00017633
     atom   19 type  4   force =     0.00033601   -0.00033904    0.00016726
     atom   20 type  4   force =     0.00033640    0.00033840   -0.00016696
     atom   21 type  4   force =    -0.00093488   -0.00008172   -0.00045097
     atom   22 type  4   force =    -0.00093329    0.00008467    0.00044997
     atom   23 type  4   force =     0.00093345   -0.00008381    0.00044644
     atom   24 type  4   force =     0.00093305    0.00008367   -0.00044702
     atom   25 type  4   force =    -0.00073969   -0.00153755    0.00124994
     atom   26 type  4   force =    -0.00074307    0.00153998   -0.00124992
     atom   27 type  4   force =     0.00069186   -0.00146877   -0.00124131
     atom   28 type  4   force =     0.00068466    0.00146265    0.00124276
     atom   29 type  4   force =     0.00017438    0.00032762   -0.00046773
     atom   30 type  4   force =     0.00017063   -0.00032606    0.00046865
     atom   31 type  4   force =    -0.00069225    0.00055386    0.00012457
     atom   32 type  4   force =    -0.00070021   -0.00055790   -0.00011826
     atom   33 type  2   force =    -0.00030434    0.00015135    0.00238196
     atom   34 type  2   force =    -0.00032448   -0.00015582   -0.00237361
     atom   35 type  2   force =    -0.00029174   -0.00026784   -0.00240982
     atom   36 type  2   force =    -0.00027796    0.00026709    0.00240294
     atom   37 type  1   force =    -0.00020687    0.00030682   -0.00116976
     atom   38 type  1   force =    -0.00021267   -0.00030634    0.00116857
     atom   39 type  1   force =     0.00021400    0.00029129    0.00105131
     atom   40 type  1   force =     0.00021961   -0.00029021   -0.00105162
     atom   41 type  1   force =     0.00002479    0.00043144    0.00047757
     atom   42 type  1   force =     0.00002154   -0.00043137   -0.00047693
     atom   43 type  1   force =    -0.00004258    0.00049421   -0.00033277
     atom   44 type  1   force =    -0.00003946   -0.00049430    0.00033245
     atom   45 type  1   force =     0.00074675    0.00078635   -0.00033082
     atom   46 type  1   force =     0.00074095   -0.00078417    0.00032873
     atom   47 type  1   force =    -0.00074497    0.00076808    0.00021136
     atom   48 type  1   force =    -0.00073924   -0.00076764   -0.00021188
     atom   49 type  1   force =    -0.00026737    0.00029198    0.00033148
     atom   50 type  1   force =    -0.00025653   -0.00029136   -0.00033121
     atom   51 type  1   force =     0.00025599    0.00031057   -0.00010311
     atom   52 type  1   force =     0.00024582   -0.00031065    0.00010282
     atom   53 type  1   force =     0.00022542    0.00054722    0.00015220
     atom   54 type  1   force =     0.00023183   -0.00054866   -0.00015223
     atom   55 type  1   force =    -0.00021366    0.00054015   -0.00008467
     atom   56 type  1   force =    -0.00022029   -0.00054071    0.00008467
     atom   57 type  1   force =    -0.00013126    0.00039540   -0.00052576
     atom   58 type  1   force =    -0.00014041   -0.00039509    0.00052595
     atom   59 type  1   force =     0.00011690    0.00038015    0.00062654
     atom   60 type  1   force =     0.00012726   -0.00038079   -0.00062649
     atom   61 type  1   force =     0.00014373   -0.00010118   -0.00062872
     atom   62 type  1   force =     0.00014427    0.00010217    0.00062938
     atom   63 type  1   force =    -0.00013822   -0.00011149    0.00064753
     atom   64 type  1   force =    -0.00013900    0.00011149   -0.00064810
     atom   65 type  1   force =     0.00044352    0.00083676   -0.00029784
     atom   66 type  1   force =     0.00043017   -0.00083829    0.00029846
     atom   67 type  1   force =     0.00016205    0.00052362    0.00068390
     atom   68 type  1   force =     0.00017715   -0.00052238   -0.00068184
     atom   69 type  1   force =    -0.00076519   -0.00048043   -0.00123679
     atom   70 type  1   force =    -0.00076338    0.00048116    0.00123730
     atom   71 type  1   force =     0.00077585   -0.00048246    0.00145837
     atom   72 type  1   force =     0.00077443    0.00048277   -0.00145816
     atom   73 type  3   force =     0.00016731    0.00036374    0.00080128
     atom   74 type  3   force =     0.00016740   -0.00036390   -0.00080142
     atom   75 type  3   force =    -0.00018231    0.00035316   -0.00061541
     atom   76 type  3   force =    -0.00018210   -0.00035271    0.00061518
     atom   77 type  3   force =     0.00019634   -0.00010935   -0.00011601
     atom   78 type  3   force =     0.00019593    0.00010918    0.00011577
     atom   79 type  3   force =    -0.00021577   -0.00011825    0.00010475
     atom   80 type  3   force =    -0.00021536    0.00011844   -0.00010527
     atom   81 type  3   force =    -0.00025860   -0.00013874    0.00036191
     atom   82 type  3   force =    -0.00025869    0.00013867   -0.00036201
     atom   83 type  3   force =     0.00026079   -0.00014122   -0.00036767
     atom   84 type  3   force =     0.00026106    0.00014095    0.00036731
     atom   85 type  3   force =     0.00005530    0.00094075   -0.00022461
     atom   86 type  3   force =     0.00005513   -0.00094059    0.00022432
     atom   87 type  3   force =    -0.00006596    0.00093795    0.00018801
     atom   88 type  3   force =    -0.00006592   -0.00093786   -0.00018845
     atom   89 type  3   force =     0.00069729    0.00015779   -0.00025766
     atom   90 type  3   force =     0.00069801   -0.00015748    0.00025718
     atom   91 type  3   force =    -0.00069591    0.00014974    0.00022923
     atom   92 type  3   force =    -0.00069658   -0.00014956   -0.00022950
     atom   93 type  3   force =     0.00022189   -0.00052455   -0.00012797
     atom   94 type  3   force =     0.00022213    0.00052466    0.00012702
     atom   95 type  3   force =    -0.00021514   -0.00052152    0.00010920
     atom   96 type  3   force =    -0.00021517    0.00052155   -0.00010938
     atom   97 type  3   force =    -0.00005606    0.00025164    0.00066250
     atom   98 type  3   force =    -0.00005576   -0.00025160   -0.00066313
     atom   99 type  3   force =     0.00004774    0.00025092   -0.00069222
     atom  100 type  3   force =     0.00004775   -0.00025094    0.00069182
     atom  101 type  3   force =    -0.00000485   -0.00031348    0.00032424
     atom  102 type  3   force =    -0.00000447    0.00031349   -0.00032440
     atom  103 type  3   force =     0.00000914   -0.00031484   -0.00036099
     atom  104 type  3   force =     0.00000903    0.00031458    0.00036073
     atom  105 type  3   force =    -0.00023763   -0.00044623    0.00026063
     atom  106 type  3   force =    -0.00023852    0.00044591   -0.00026072
     atom  107 type  3   force =     0.00024074   -0.00044415   -0.00028941
     atom  108 type  3   force =     0.00024146    0.00044369    0.00028912
     atom  109 type  3   force =    -0.00029067   -0.00007528   -0.00000983
     atom  110 type  3   force =    -0.00029082    0.00007534    0.00000958
     atom  111 type  3   force =     0.00029010   -0.00007450   -0.00000463
     atom  112 type  3   force =     0.00029029    0.00007466    0.00000439
     atom  113 type  3   force =    -0.00001860    0.00014834    0.00028036
     atom  114 type  3   force =    -0.00001878   -0.00014836   -0.00028053
     atom  115 type  3   force =     0.00001966    0.00014824   -0.00028805
     atom  116 type  3   force =     0.00001971   -0.00014822    0.00028771
     atom  117 type  3   force =     0.00029892   -0.00057280    0.00024757
     atom  118 type  3   force =     0.00029902    0.00057275   -0.00024786
     atom  119 type  3   force =    -0.00028856   -0.00056015   -0.00024468
     atom  120 type  3   force =    -0.00028869    0.00056010    0.00024450
     atom  121 type  3   force =     0.00011914    0.00045760   -0.00021490
     atom  122 type  3   force =     0.00011895   -0.00045761    0.00021471
     atom  123 type  3   force =    -0.00011274    0.00046112    0.00018100
     atom  124 type  3   force =    -0.00011305   -0.00046095   -0.00018104
     atom  125 type  3   force =    -0.00032870    0.00027801   -0.00006480
     atom  126 type  3   force =    -0.00032867   -0.00027798    0.00006461
     atom  127 type  3   force =     0.00033295    0.00029139    0.00004322
     atom  128 type  3   force =     0.00033319   -0.00029175   -0.00004291
     atom  129 type  3   force =    -0.00021236    0.00024957    0.00010111
     atom  130 type  3   force =    -0.00021242   -0.00024971   -0.00010137
     atom  131 type  3   force =     0.00021015    0.00025979   -0.00013464
     atom  132 type  3   force =     0.00021055   -0.00025967    0.00013449

     Total force =     0.011135     Total SCF correction =     0.000212


     Computing stress (Cartesian axis) and pressure

          total   stress  (Ry/bohr**3)                   (kbar)     P=   -5.65
  -0.00005664   0.00000000   0.00000001         -8.33      0.00      0.00
   0.00000000  -0.00003063   0.00000010          0.00     -4.51      0.01
   0.00000001   0.00000010  -0.00002792          0.00      0.01     -4.11


     Writing output data file scf.save
 
     init_run     :     70.50s CPU     73.89s WALL (       1 calls)
     electrons    :   2725.66s CPU   2854.68s WALL (       1 calls)
     forces       :     32.43s CPU     32.78s WALL (       1 calls)
     stress       :    273.99s CPU    274.50s WALL (       1 calls)

     Called by init_run:
     wfcinit      :     61.75s CPU     64.97s WALL (       1 calls)
     potinit      :      3.14s CPU      3.16s WALL (       1 calls)

     Called by electrons:
     c_bands      :   2456.58s CPU   2570.37s WALL (      16 calls)
     sum_band     :    248.84s CPU    261.96s WALL (      16 calls)
     v_of_rho     :      2.97s CPU      3.24s WALL (      17 calls)
     newd         :      6.41s CPU      8.25s WALL (      17 calls)
     PAW_pot      :      9.94s CPU      9.94s WALL (      17 calls)
     mix_rho      :      0.75s CPU      0.81s WALL (      16 calls)

     Called by c_bands:
     init_us_2    :     15.60s CPU     15.72s WALL (     280 calls)
     cegterg      :   2396.60s CPU   2510.20s WALL (     128 calls)

     Called by sum_band:
     sum_band:bec :      0.14s CPU      0.14s WALL (     128 calls)
     addusdens    :      6.74s CPU      8.53s WALL (      16 calls)

     Called by *egterg:
     h_psi        :   1327.77s CPU   1419.77s WALL (     620 calls)
     s_psi        :    262.14s CPU    262.17s WALL (     620 calls)
     g_psi        :      8.59s CPU      8.59s WALL (     484 calls)
     cdiaghg      :    165.57s CPU    165.59s WALL (     612 calls)

     Called by h_psi:
     h_psi:pot    :   1317.98s CPU   1409.76s WALL (     620 calls)
     h_psi:calbec :    252.48s CPU    253.28s WALL (     620 calls)
     vloc_psi     :    803.46s CPU    894.28s WALL (     620 calls)
     add_vuspsi   :    262.03s CPU    262.19s WALL (     620 calls)

     General routines
     calbec       :    370.18s CPU    371.19s WALL (     788 calls)
     fft          :      1.89s CPU      2.35s WALL (     245 calls)
     fftw         :    858.44s CPU    960.08s WALL (  216524 calls)
 
     Parallel routines
     fft_scatter  :    146.41s CPU    246.06s WALL (  216769 calls)
 
     PWSCF        : 52m 1.56s CPU    55m30.36s WALL

 
   This run was terminated on:   7:17:22  15Dec2017            

=------------------------------------------------------------------------------=
   JOB DONE.
=------------------------------------------------------------------------------=
