
     Program PWSCF v.6.1 (svn rev. 13369) starts on 13Nov2017 at 12:24: 3 

     This program is part of the open-source Quantum ESPRESSO suite
     for quantum simulation of materials; please cite
         "P. Giannozzi et al., J. Phys.:Condens. Matter 21 395502 (2009);
          URL http://www.quantum-espresso.org", 
     in publications or presentations arising from this work. More details at
     http://www.quantum-espresso.org/quote

     Parallel version (MPI), running on     8 processors
     R & G space division:  proc/nbgrp/npool/nimage =       8
     Waiting for input...
     Reading input from standard input

     Current dimensions of program PWSCF are:
     Max number of different atomic species (ntypx) = 10
     Max number of k-points (npk) =  40000
     Max angular momentum in pseudopotentials (lmaxx) =  3
               file C.pbe-n-kjpaw_psl.0.1.UPF: wavefunction(s)  2P renormalized
               file N.pbe-n-kjpaw_psl.0.1.UPF: wavefunction(s)  2P renormalized
               file H.pbe-kjpaw_psl.0.1.UPF: wavefunction(s)  1S renormalized
               file O.pbe-n-kjpaw_psl.0.1.UPF: wavefunction(s)  2P renormalized

     -------------------------------------
     Parameters for Dispersion Correction:
     -------------------------------------
       atom      VdW radius       C_6     

        C          2.744         60.710
        N          2.640         42.670
        H          1.892          4.857
        O          2.536         24.284

     Subspace diagonalization in iterative solution of the eigenvalue problem:
     a serial algorithm will be used

 
     Parallelization info
     --------------------
     sticks:   dense  smooth     PW     G-vecs:    dense   smooth      PW
     Min        1024    1024    266               132413   132413   17759
     Max        1025    1025    267               132414   132414   17763
     Sum        8195    8195   2131              1059307  1059307  142095
 


     bravais-lattice index     =            0
     lattice parameter (alat)  =      15.3264  a.u.
     unit-cell volume          =    7839.3961 (a.u.)^3
     number of atoms/cell      =          108
     number of atomic types    =            4
     number of electrons       =       440.00
     number of Kohn-Sham states=          264
     kinetic-energy cutoff     =     100.0000  Ry
     charge density cutoff     =     400.0000  Ry
     convergence threshold     =      1.0E-08
     mixing beta               =       0.5000
     number of iterations used =            8  plain     mixing
     Exchange-correlation      =  SLA  PW   PBX  PBC ( 1  4  3  4 0 0)

     celldm(1)=  15.326435  celldm(2)=   0.000000  celldm(3)=   0.000000
     celldm(4)=   0.000000  celldm(5)=   0.000000  celldm(6)=   0.000000

     crystal axes: (cart. coord. in units of alat)
               a(1) = (   1.000000   0.000000   0.000000 )  
               a(2) = (   0.000000   1.094114   0.000000 )  
               a(3) = (  -0.425499   0.000000   1.990200 )  

     reciprocal axes: (cart. coord. in units 2 pi/alat)
               b(1) = (  1.000000  0.000000  0.213797 )  
               b(2) = (  0.000000  0.913982  0.000000 )  
               b(3) = (  0.000000  0.000000  0.502462 )  


     PseudoPot. # 1 for  C read from file:
     /scratch/ahofstet/pseudo/C.pbe-n-kjpaw_psl.0.1.UPF
     MD5 check sum: 430fe95172b1e11ef3f8ed03bac87931
     Pseudo is Projector augmented-wave + core cor, Zval =  4.0
     Generated using "atomic" code by A. Dal Corso  v.5.0.99 svn rev. 10869
     Shape of augmentation charge: BESSEL
     Using radial grid of 1073 points,  4 beta functions with: 
                l(1) =   0
                l(2) =   0
                l(3) =   1
                l(4) =   1
     Q(r) pseudized with 0 coefficients 


     PseudoPot. # 2 for  N read from file:
     /scratch/ahofstet/pseudo/N.pbe-n-kjpaw_psl.0.1.UPF
     MD5 check sum: f73187c8b701007e77325f868c9291d7
     Pseudo is Projector augmented-wave + core cor, Zval =  5.0
     Generated using "atomic" code by A. Dal Corso  v.5.0.99 svn rev. 10869
     Shape of augmentation charge: PSQ
     Using radial grid of 1085 points,  4 beta functions with: 
                l(1) =   0
                l(2) =   0
                l(3) =   1
                l(4) =   1
     Q(r) pseudized with 0 coefficients 


     PseudoPot. # 3 for  H read from file:
     /scratch/ahofstet/pseudo/H.pbe-kjpaw_psl.0.1.UPF
     MD5 check sum: 94e484f906d9e9773b2f6e52662335b2
     Pseudo is Projector augmented-wave, Zval =  1.0
     Generated using "atomic" code by A. Dal Corso  v.5.0.99 svn rev. 10869
     Shape of augmentation charge: PSQ
     Using radial grid of  929 points,  2 beta functions with: 
                l(1) =   0
                l(2) =   0
     Q(r) pseudized with 0 coefficients 


     PseudoPot. # 4 for  O read from file:
     /scratch/ahofstet/pseudo/O.pbe-n-kjpaw_psl.0.1.UPF
     MD5 check sum: 3f94a2996a3169367d6eb21d9b593f20
     Pseudo is Projector augmented-wave + core cor, Zval =  6.0
     Generated using "atomic" code by A. Dal Corso  v.5.0.99 svn rev. 10869
     Shape of augmentation charge: BESSEL
     Using radial grid of 1095 points,  4 beta functions with: 
                l(1) =   0
                l(2) =   0
                l(3) =   1
                l(4) =   1
     Q(r) pseudized with 0 coefficients 


     atomic species   valence    mass     pseudopotential
        C              4.00    12.01070      C( 1.00)
        N              5.00    14.00670      N( 1.00)
        H              1.00     1.00794      H( 1.00)
        O              6.00    15.99940      O( 1.00)

      2 Sym. Ops., with inversion, found



   Cartesian axes

     site n.     atom                  positions (alat units)
         1           C   tau(   1) = (   0.0665376   0.0841899   1.1622699  )
         2           C   tau(   2) = (  -0.2047240   0.6312554   1.8230211  )
         3           C   tau(   3) = (   0.5079630   1.0099238   0.8279300  )
         4           C   tau(   4) = (   0.7792246   0.4628583   0.1671789  )
         5           C   tau(   5) = (   0.1156270   1.0125185   1.1584891  )
         6           C   tau(   6) = (  -0.2538340   0.4654744   1.8268035  )
         7           C   tau(   7) = (   0.4588735   0.0815952   0.8317109  )
         8           C   tau(   8) = (   0.8283346   0.6286393   0.1633965  )
         9           C   tau(   9) = (   0.0999641   0.9201056   1.0120460  )
        10           C   tau(  10) = (  -0.2382712   0.3730769   1.9732654  )
        11           C   tau(  11) = (   0.4745364   0.1740081   0.9781539  )
        12           C   tau(  12) = (   0.8127718   0.7210369   0.0169346  )
        13           C   tau(  13) = (   0.0263364   0.9922011   0.8722093  )
        14           C   tau(  14) = (   0.2608607   0.4451598   0.1229067  )
        15           C   tau(  15) = (   0.5481642   0.1019127   1.1179906  )
        16           C   tau(  16) = (   0.3136399   0.6489540   1.8672933  )
        17           C   tau(  17) = (  -0.0214723   0.0651695   0.8759628  )
        18           C   tau(  18) = (   0.3087333   0.6122259   0.1191395  )
        19           C   tau(  19) = (   0.5959729   1.0289442   1.1142371  )
        20           C   tau(  20) = (   0.2657673   0.4818878   1.8710604  )
        21           C   tau(  21) = (   0.0020269   0.1567058   1.0200258  )
        22           C   tau(  22) = (  -0.1402209   0.7037599   1.9652693  )
        23           C   tau(  23) = (   0.5724737   0.9374080   0.9701741  )
        24           C   tau(  24) = (   0.7147215   0.3903538   0.0249307  )
        25           C   tau(  25) = (   0.0815996   0.1803341   1.3193645  )
        26           C   tau(  26) = (  -0.2197667   0.7273877   1.6659045  )
        27           C   tau(  27) = (   0.4929010   0.9137796   0.6708355  )
        28           C   tau(  28) = (   0.7942672   0.3667260   0.3242954  )
        29           C   tau(  29) = (   0.1767489   0.9328242   1.3154200  )
        30           C   tau(  30) = (  -0.3149286   0.3857797   1.6698580  )
        31           C   tau(  31) = (   0.3977517   0.1612896   0.6747799  )
        32           C   tau(  32) = (   0.8894292   0.7083340   0.3203419  )
        33           C   tau(  33) = (   0.1727711   0.7499598   1.0088997  )
        34           C   tau(  34) = (  -0.3110971   0.2029385   1.9764152  )
        35           C   tau(  35) = (   0.4017295   0.3441539   0.9813002  )
        36           C   tau(  36) = (   0.8855977   0.8911752   0.0137847  )
        37           C   tau(  37) = (  -0.0092269   0.8907718   0.7204795  )
        38           C   tau(  38) = (   0.2964148   0.3437218   0.2746385  )
        39           C   tau(  39) = (   0.5837275   0.2033419   1.2697205  )
        40           C   tau(  40) = (   0.2780858   0.7503919   1.7155615  )
        41           C   tau(  41) = (  -0.0888547   0.1475632   0.7243643  )
        42           C   tau(  42) = (   0.3761083   0.6946039   0.2707562  )
        43           C   tau(  43) = (   0.6633552   0.9465505   1.2658357  )
        44           C   tau(  44) = (   0.1983923   0.3995098   1.7194437  )
        45           O   tau(  45) = (   0.0780246   0.1100357   1.4544991  )
        46           O   tau(  46) = (  -0.2161863   0.6571116   1.5308032  )
        47           O   tau(  47) = (   0.4964760   0.9840780   0.5357009  )
        48           O   tau(  48) = (   0.7906869   0.4370021   0.4593968  )
        49           O   tau(  49) = (   0.0997393   0.3406128   1.2994103  )
        50           O   tau(  50) = (  -0.2379268   0.8876797   1.6858810  )
        51           O   tau(  51) = (   0.4747612   0.7535010   0.6907897  )
        52           O   tau(  52) = (   0.8124274   0.2064340   0.3043190  )
        53           O   tau(  53) = (   0.3166353   0.9560063   1.3696892  )
        54           O   tau(  54) = (   0.5452051   0.4089420   1.6155956  )
        55           O   tau(  55) = (   0.2578653   0.1381074   0.6205108  )
        56           O   tau(  56) = (   0.0292955   0.6851718   0.3746043  )
        57           O   tau(  57) = (   0.0621853   0.8409594   1.3841890  )
        58           O   tau(  58) = (  -0.2003481   0.2939125   1.6011012  )
        59           O   tau(  59) = (   0.5123153   0.2531544   0.6060109  )
        60           O   tau(  60) = (   0.7748487   0.8002012   0.3890988  )
        61           O   tau(  61) = (   0.2938511   0.7175416   1.0964799  )
        62           O   tau(  62) = (   0.5678117   0.1705270   1.8888380  )
        63           O   tau(  63) = (   0.2806495   0.3765721   0.8937201  )
        64           O   tau(  64) = (   0.0066888   0.9235868   0.1013619  )
        65           O   tau(  65) = (   0.1024540   0.6447744   0.9080470  )
        66           O   tau(  66) = (   0.1847176   0.0977500   0.0870600  )
        67           O   tau(  67) = (   0.4720466   0.4493393   1.0821530  )
        68           O   tau(  68) = (   0.3897830   0.9963637   1.9031400  )
        69           O   tau(  69) = (   0.8498042   0.8372597   0.6987380  )
        70           O   tau(  70) = (   0.4373719   0.2901896   0.2963644  )
        71           O   tau(  71) = (  -0.2753036   0.2568540   1.2914619  )
        72           O   tau(  72) = (   0.1371286   0.8039241   1.6938355  )
        73           O   tau(  73) = (   0.1172302   0.8657431   0.6236505  )
        74           O   tau(  74) = (   0.1699578   0.3187012   0.3714737  )
        75           O   tau(  75) = (   0.4572704   0.2283706   1.3665495  )
        76           O   tau(  76) = (   0.4045428   0.7754125   1.6187263  )
        77           O   tau(  77) = (  -0.1067068   0.0726392   0.5927004  )
        78           O   tau(  78) = (   0.3939536   0.6196932   0.4023943  )
        79           O   tau(  79) = (   0.6812074   1.0214746   1.3974996  )
        80           O   tau(  80) = (   0.1805470   0.4744205   1.5878057  )
        81           O   tau(  81) = (  -0.1243904   0.3048626   0.7447756  )
        82           O   tau(  82) = (   0.4116428   0.8519154   0.2503337  )
        83           O   tau(  83) = (   0.6988910   0.7892512   1.2454244  )
        84           O   tau(  84) = (   0.1628577   0.2421984   1.7398663  )
        85           H   tau(  85) = (   0.1205054   0.3932353   1.4115894  )
        86           H   tau(  86) = (  -0.2587124   0.9402944   1.5737032  )
        87           H   tau(  87) = (   0.4539952   0.7008785   0.5786105  )
        88           H   tau(  88) = (   0.8332130   0.1538193   0.4164967  )
        89           H   tau(  89) = (   0.0930677   0.8179699   1.5047602  )
        90           H   tau(  90) = (  -0.2312376   0.2709171   1.4805287  )
        91           H   tau(  91) = (   0.4814329   0.2761438   0.4854397  )
        92           H   tau(  92) = (   0.8057382   0.8231966   0.5096712  )
        93           H   tau(  93) = (   0.1716610   0.5390466   0.9030346  )
        94           H   tau(  94) = (   0.1155304  -0.0080002   0.0920660  )
        95           H   tau(  95) = (   0.4028396   0.5550671   1.0871653  )
        96           H   tau(  96) = (   0.4589702   1.1021140   1.8981340  )
        97           H   tau(  97) = (   0.0827067   0.7916218   0.5259940  )
        98           H   tau(  98) = (   0.2044770   0.2445649   0.4691191  )
        99           H   tau(  99) = (   0.4917939   0.3024919   1.4642060  )
       100           H   tau( 100) = (   0.3700236   0.8495488   1.5210808  )
       101           H   tau( 101) = (   0.8357401   0.3531728   0.6356505  )
       102           H   tau( 102) = (   0.4514963   0.9002241   0.3594636  )
       103           H   tau( 103) = (  -0.2612396   0.7409409   1.3545495  )
       104           H   tau( 104) = (   0.1230043   0.1938897   1.6307363  )
       105           H   tau( 105) = (  -0.0335610   0.2858450   1.0227767  )
       106           H   tau( 106) = (  -0.1045914   0.8328903   1.9625135  )
       107           H   tau( 107) = (   0.6080616   0.8082687   0.9674233  )
       108           H   tau( 108) = (   0.6790920   0.2612234   0.0276864  )

     number of k points=     8
                       cart. coord. in units 2pi/alat
        k(    1) = (   0.0000000   0.0000000   0.0000000), wk =   0.1666667
        k(    2) = (   0.0000000   0.0000000  -0.2512310), wk =   0.1666667
        k(    3) = (   0.0000000  -0.4569909   0.0000000), wk =   0.1666667
        k(    4) = (   0.0000000  -0.4569909  -0.2512310), wk =   0.1666667
        k(    5) = (   0.3333333   0.0000000   0.0712658), wk =   0.3333333
        k(    6) = (   0.3333333   0.0000000  -0.1799653), wk =   0.3333333
        k(    7) = (   0.3333333  -0.4569909   0.0712658), wk =   0.3333333
        k(    8) = (   0.3333333  -0.4569909  -0.1799653), wk =   0.3333333

     Dense  grid:  1059307 G-vectors     FFT dimensions: ( 100, 108, 200)

     Estimated max dynamical RAM per process >    1429.52MB

     Estimated total allocated dynamical RAM >   11436.19MB

     Check: negative/imaginary core charge=   -0.000003    0.000000

     Initial potential from superposition of free atoms

     starting charge  439.99788, renormalised to  440.00000
     Starting wfc are  360 randomized atomic wfcs
     Checking if some PAW data can be deallocated... 

     total cpu time spent up to now is       88.9 secs

     per-process dynamical memory:   926.9 Mb

     Self-consistent Calculation

     iteration #  1     ecut=   100.00 Ry     beta=0.50
     Davidson diagonalization with overlap
     ethr =  1.00E-02,  avg # of iterations =  4.6

     total cpu time spent up to now is      407.8 secs

     total energy              =   -2504.18200737 Ry
     Harris-Foulkes estimate   =   -2510.45967866 Ry
     estimated scf accuracy    <      11.15539110 Ry

     iteration #  2     ecut=   100.00 Ry     beta=0.50
     Davidson diagonalization with overlap
     ethr =  2.54E-03,  avg # of iterations =  3.0

     total cpu time spent up to now is      599.0 secs

     total energy              =   -2506.18552536 Ry
     Harris-Foulkes estimate   =   -2507.20416779 Ry
     estimated scf accuracy    <       2.11410559 Ry

     iteration #  3     ecut=   100.00 Ry     beta=0.50
     Davidson diagonalization with overlap
     ethr =  4.80E-04,  avg # of iterations =  6.6

     total cpu time spent up to now is      833.4 secs

     total energy              =   -2506.70725119 Ry
     Harris-Foulkes estimate   =   -2506.89757908 Ry
     estimated scf accuracy    <       0.45839294 Ry

     iteration #  4     ecut=   100.00 Ry     beta=0.50
     Davidson diagonalization with overlap
     ethr =  1.04E-04,  avg # of iterations =  6.1

     total cpu time spent up to now is     1012.6 secs

     total energy              =   -2506.77984920 Ry
     Harris-Foulkes estimate   =   -2506.79544622 Ry
     estimated scf accuracy    <       0.05861178 Ry

     iteration #  5     ecut=   100.00 Ry     beta=0.50
     Davidson diagonalization with overlap
     ethr =  1.33E-05,  avg # of iterations =  7.6

     total cpu time spent up to now is     1365.7 secs

     total energy              =   -2506.80009540 Ry
     Harris-Foulkes estimate   =   -2506.81142316 Ry
     estimated scf accuracy    <       0.02901617 Ry

     iteration #  6     ecut=   100.00 Ry     beta=0.50
     Davidson diagonalization with overlap
     ethr =  6.59E-06,  avg # of iterations =  2.0

     total cpu time spent up to now is     1511.0 secs

     total energy              =   -2506.79855633 Ry
     Harris-Foulkes estimate   =   -2506.80257259 Ry
     estimated scf accuracy    <       0.00676639 Ry

     iteration #  7     ecut=   100.00 Ry     beta=0.50
     Davidson diagonalization with overlap
     ethr =  1.54E-06,  avg # of iterations =  7.4

     total cpu time spent up to now is     1864.0 secs

     total energy              =   -2506.80327405 Ry
     Harris-Foulkes estimate   =   -2506.80629182 Ry
     estimated scf accuracy    <       0.00859741 Ry

     iteration #  8     ecut=   100.00 Ry     beta=0.50
     Davidson diagonalization with overlap
     ethr =  1.54E-06,  avg # of iterations =  1.0

     total cpu time spent up to now is     2004.8 secs

     total energy              =   -2506.80234505 Ry
     Harris-Foulkes estimate   =   -2506.80364688 Ry
     estimated scf accuracy    <       0.00281864 Ry

     iteration #  9     ecut=   100.00 Ry     beta=0.50
     Davidson diagonalization with overlap
     ethr =  6.41E-07,  avg # of iterations =  6.6

     total cpu time spent up to now is     2286.0 secs

     total energy              =   -2506.80379144 Ry
     Harris-Foulkes estimate   =   -2506.80384471 Ry
     estimated scf accuracy    <       0.00032577 Ry

     iteration # 10     ecut=   100.00 Ry     beta=0.50
     Davidson diagonalization with overlap
     ethr =  7.40E-08,  avg # of iterations =  1.0

     total cpu time spent up to now is     2427.0 secs

     total energy              =   -2506.80371658 Ry
     Harris-Foulkes estimate   =   -2506.80379840 Ry
     estimated scf accuracy    <       0.00020626 Ry

     iteration # 11     ecut=   100.00 Ry     beta=0.50
     Davidson diagonalization with overlap
     ethr =  4.69E-08,  avg # of iterations =  3.2

     total cpu time spent up to now is     2606.5 secs

     total energy              =   -2506.80375216 Ry
     Harris-Foulkes estimate   =   -2506.80375418 Ry
     estimated scf accuracy    <       0.00000639 Ry

     iteration # 12     ecut=   100.00 Ry     beta=0.50
     Davidson diagonalization with overlap
     ethr =  1.45E-09,  avg # of iterations =  4.0

     total cpu time spent up to now is     2883.1 secs

     total energy              =   -2506.80375552 Ry
     Harris-Foulkes estimate   =   -2506.80375572 Ry
     estimated scf accuracy    <       0.00000051 Ry

     iteration # 13     ecut=   100.00 Ry     beta=0.50
     Davidson diagonalization with overlap
     ethr =  1.15E-10,  avg # of iterations =  4.0

     total cpu time spent up to now is     3079.9 secs

     total energy              =   -2506.80375568 Ry
     Harris-Foulkes estimate   =   -2506.80375569 Ry
     estimated scf accuracy    <       0.00000015 Ry

     iteration # 14     ecut=   100.00 Ry     beta=0.50
     Davidson diagonalization with overlap
     ethr =  3.50E-11,  avg # of iterations =  1.9

     total cpu time spent up to now is     3223.7 secs

     total energy              =   -2506.80375565 Ry
     Harris-Foulkes estimate   =   -2506.80375569 Ry
     estimated scf accuracy    <       0.00000010 Ry

     iteration # 15     ecut=   100.00 Ry     beta=0.50
     Davidson diagonalization with overlap
     ethr =  2.22E-11,  avg # of iterations =  3.0

     total cpu time spent up to now is     3391.8 secs

     End of self-consistent calculation

          k = 0.0000 0.0000 0.0000 (132473 PWs)   bands (ev):

   -21.2900 -21.2570 -21.1384 -21.1021 -21.0951 -21.0523 -20.9691 -20.9596
   -20.9575 -20.8904 -20.8870 -20.8669 -20.7619 -20.7563 -20.7145 -20.7051
   -20.6188 -20.5965 -20.5868 -20.5810 -18.9371 -18.9353 -18.8143 -18.8112
   -18.8016 -18.7974 -18.6730 -18.6729 -18.6566 -18.6537 -18.5800 -18.5773
   -18.4151 -18.4140 -18.4138 -18.4134 -18.3365 -18.3357 -18.3272 -18.3257
   -15.5659 -15.5219 -15.4862 -15.4473 -13.3517 -13.3211 -13.1993 -13.1808
   -13.1348 -13.0819 -13.0789 -13.0214 -10.9919 -10.9846 -10.6338 -10.6001
   -10.5654 -10.4749 -10.4175 -10.1873 -10.0200  -9.7850  -9.5457  -9.3765
    -9.1720  -9.1389  -8.7969  -8.7535  -8.6182  -8.6080  -8.3084  -8.2780
    -8.2272  -8.1666  -8.1454  -8.0866  -7.5634  -7.4974  -7.4920  -7.4192
    -7.0971  -6.9935  -6.8447  -6.7907  -6.6684  -6.5719  -6.3918  -6.3567
    -6.0561  -6.0276  -6.0108  -5.8885  -5.8766  -5.8691  -5.7979  -5.6356
    -5.5739  -5.4819  -5.4781  -5.3636  -5.3399  -5.2412  -5.2396  -5.2289
    -5.1709  -5.1561  -5.0789  -5.0786  -5.0595  -4.9850  -4.9640  -4.9497
    -4.9284  -4.9193  -4.8792  -4.7734  -4.7512  -4.7359  -4.6910  -4.6168
    -4.6057  -4.5874  -4.5408  -4.4921  -4.4877  -4.3661  -4.2873  -4.2789
    -4.2414  -4.2101  -4.1699  -4.0838  -4.0697  -4.0468  -4.0065  -3.9953
    -3.9205  -3.8661  -3.8354  -3.8147  -3.7506  -3.6423  -3.5735  -3.5398
    -3.4960  -3.4725  -3.4064  -3.3228  -3.2025  -3.1171  -3.0741  -2.9948
    -2.9842  -2.7402  -2.7130  -2.6753  -2.6592  -2.5771  -2.4270  -2.4096
    -2.2941  -2.2234  -2.0651  -1.9926  -1.9658  -1.9098  -1.8876  -1.8801
    -1.7998  -1.7547  -1.7335  -1.6892  -1.3445  -1.3364  -1.2161  -1.1975
    -1.1170  -1.0462  -1.0426  -0.9609  -0.9380  -0.9254  -0.9157  -0.8626
    -0.8481  -0.8037  -0.7475  -0.6586  -0.6574  -0.6315  -0.5739  -0.5687
    -0.5416  -0.4832  -0.4786  -0.4251  -0.4032  -0.3449  -0.2858  -0.2826
    -0.1780  -0.1326  -0.0848  -0.0733  -0.0665   0.0071   0.0496   0.0534
     0.0834   0.1178   0.1348   0.1477   0.1967   0.2342   0.2958   0.3062
     0.3390   0.3456   0.4022   0.4295   3.8197   3.8328   3.8631   3.9230
     4.0511   4.0892   4.2169   4.2580   5.0896   5.1491   5.2718   5.3026
     5.5379   5.6401   5.6514   5.6879   5.6998   5.7879   5.8068   5.8716
     6.8117   6.8143   6.8596   6.8605   6.9457   7.1426   7.1540   7.3332
     7.3498   7.4943   7.8276   8.3087   8.3174   8.6913   8.8601   8.9558
     9.0057   9.1140   9.1544   9.2433   9.3249   9.3815   9.4100   9.7232

          k = 0.0000 0.0000-0.2512 (132440 PWs)   bands (ev):

   -21.2761 -21.2752 -21.1150 -21.1149 -21.0819 -21.0817 -20.9665 -20.9664
   -20.9084 -20.9076 -20.8883 -20.8882 -20.7587 -20.7587 -20.7078 -20.7077
   -20.6076 -20.6076 -20.5839 -20.5839 -18.9368 -18.9356 -18.8131 -18.8129
   -18.7993 -18.7992 -18.6730 -18.6730 -18.6551 -18.6551 -18.5794 -18.5779
   -18.4146 -18.4145 -18.4136 -18.4136 -18.3361 -18.3361 -18.3265 -18.3264
   -15.5448 -15.5438 -15.4676 -15.4666 -13.2772 -13.2761 -13.2530 -13.2518
   -13.1096 -13.1085 -13.0526 -13.0514 -10.8340 -10.8329 -10.8230 -10.8218
   -10.4849 -10.4842 -10.3165 -10.3156  -9.8367  -9.8356  -9.6088  -9.6074
    -8.9074  -8.9068  -8.8942  -8.8937  -8.4766  -8.4752  -8.4445  -8.4431
    -8.2002  -8.1991  -8.1290  -8.1280  -7.5353  -7.5341  -7.4715  -7.4703
    -7.0423  -7.0415  -6.8574  -6.8565  -6.4849  -6.4845  -6.3615  -6.3610
    -6.1138  -6.1138  -6.0094  -6.0092  -5.8889  -5.8885  -5.5720  -5.5718
    -5.5300  -5.5298  -5.4791  -5.4788  -5.3607  -5.3603  -5.1841  -5.1836
    -5.1373  -5.1368  -5.1145  -5.1138  -5.0433  -5.0429  -4.9725  -4.9717
    -4.9100  -4.9096  -4.7708  -4.7707  -4.7390  -4.7390  -4.6562  -4.6561
    -4.6173  -4.6172  -4.4833  -4.4829  -4.3950  -4.3949  -4.3402  -4.3401
    -4.2704  -4.2703  -4.1258  -4.1256  -4.0448  -4.0441  -4.0055  -4.0053
    -3.9611  -3.9609  -3.8140  -3.8138  -3.6561  -3.6558  -3.5828  -3.5824
    -3.4457  -3.4452  -3.2976  -3.2976  -3.2484  -3.2483  -3.0009  -3.0003
    -2.7977  -2.7976  -2.6919  -2.6916  -2.5461  -2.5459  -2.4877  -2.4876
    -2.3391  -2.3388  -2.0210  -2.0205  -1.9615  -1.9614  -1.8646  -1.8642
    -1.7761  -1.7760  -1.7003  -1.7003  -1.3411  -1.3410  -1.2113  -1.2106
    -1.0714  -1.0711  -0.9812  -0.9806  -0.9569  -0.9565  -0.8666  -0.8666
    -0.8154  -0.8153  -0.7603  -0.7601  -0.6434  -0.6434  -0.5741  -0.5739
    -0.5036  -0.5035  -0.4671  -0.4670  -0.3769  -0.3765  -0.2879  -0.2873
    -0.1029  -0.1028  -0.0907  -0.0902  -0.0242  -0.0241   0.0785   0.0786
     0.1264   0.1266   0.1529   0.1533   0.2143   0.2144   0.2632   0.2633
     0.3197   0.3200   0.4090   0.4091   3.8857   3.8867   3.9396   3.9408
     3.9503   3.9516   4.2352   4.2365   5.1890   5.1902   5.2352   5.2364
     5.5723   5.5730   5.6591   5.6598   5.7574   5.7581   5.8415   5.8424
     6.8370   6.8377   6.8439   6.8444   7.1294   7.1300   7.2340   7.2347
     7.2524   7.2533   8.2779   8.2783   8.3697   8.3700   8.8161   8.8167
     9.1244   9.1254   9.2575   9.2578   9.3217   9.3222   9.5501   9.5502

          k = 0.0000-0.4570 0.0000 (132478 PWs)   bands (ev):

   -21.2685 -21.2675 -21.1028 -21.1026 -21.0854 -21.0853 -20.9637 -20.9637
   -20.9606 -20.9606 -20.9047 -20.9037 -20.6786 -20.6784 -20.6759 -20.6759
   -20.6370 -20.6368 -20.6177 -20.6175 -18.9373 -18.9362 -18.7980 -18.7973
   -18.7940 -18.7933 -18.6844 -18.6843 -18.6828 -18.6827 -18.5797 -18.5783
   -18.3875 -18.3871 -18.3866 -18.3861 -18.3497 -18.3497 -18.3481 -18.3481
   -15.5320 -15.5311 -15.4802 -15.4792 -13.2813 -13.2805 -13.2520 -13.2511
   -13.1163 -13.1152 -13.0367 -13.0357 -10.8144 -10.8135 -10.7927 -10.7918
   -10.5890 -10.5884 -10.2823 -10.2817  -9.9047  -9.9041  -9.5678  -9.5670
    -8.9010  -8.9008  -8.8047  -8.8044  -8.5468  -8.5463  -8.4681  -8.4675
    -8.1556  -8.1547  -8.0949  -8.0942  -7.5722  -7.5717  -7.4614  -7.4609
    -7.0705  -7.0699  -6.8914  -6.8912  -6.4008  -6.4005  -6.2442  -6.2441
    -6.1275  -6.1273  -6.0810  -6.0809  -5.8856  -5.8850  -5.6783  -5.6781
    -5.6401  -5.6399  -5.3107  -5.3106  -5.2801  -5.2801  -5.2321  -5.2318
    -5.1329  -5.1323  -5.0976  -5.0971  -5.0550  -5.0546  -4.9943  -4.9939
    -4.8896  -4.8895  -4.8019  -4.8018  -4.7781  -4.7779  -4.6843  -4.6840
    -4.5847  -4.5847  -4.4590  -4.4586  -4.3830  -4.3830  -4.3132  -4.3131
    -4.2619  -4.2616  -4.1804  -4.1798  -4.0605  -4.0604  -4.0087  -4.0085
    -3.9538  -3.9536  -3.8617  -3.8613  -3.6816  -3.6811  -3.5338  -3.5336
    -3.4512  -3.4511  -3.4010  -3.4009  -3.1594  -3.1593  -2.8512  -2.8509
    -2.8312  -2.8307  -2.7016  -2.7015  -2.6521  -2.6520  -2.4571  -2.4567
    -2.3303  -2.3297  -1.9905  -1.9897  -1.9373  -1.9371  -1.8794  -1.8794
    -1.7633  -1.7632  -1.7180  -1.7180  -1.3399  -1.3391  -1.2101  -1.2097
    -1.1296  -1.1289  -0.9887  -0.9882  -0.9386  -0.9385  -0.8643  -0.8642
    -0.8150  -0.8147  -0.7416  -0.7416  -0.6354  -0.6354  -0.5278  -0.5278
    -0.5111  -0.5109  -0.4981  -0.4980  -0.4282  -0.4279  -0.2247  -0.2246
    -0.1660  -0.1659  -0.1007  -0.1004  -0.0273  -0.0267   0.0715   0.0716
     0.1203   0.1203   0.1298   0.1300   0.2256   0.2257   0.2845   0.2845
     0.3436   0.3439   0.4040   0.4043   3.9370   3.9379   3.9617   3.9627
     4.0088   4.0099   4.1706   4.1718   5.0636   5.0645   5.3006   5.3017
     5.5596   5.5597   5.6733   5.6734   5.7324   5.7328   5.8584   5.8589
     6.7192   6.7199   6.9880   6.9888   7.1459   7.1461   7.3101   7.3102
     7.4880   7.4887   7.9889   7.9897   8.3245   8.3250   8.8129   8.8130
     8.9693   8.9695   9.2040   9.2040   9.4664   9.4668   9.5577   9.5577

          k = 0.0000-0.4570-0.2512 (132444 PWs)   bands (ev):

   -21.2678 -21.2668 -21.1161 -21.1158 -21.0705 -21.0703 -20.9640 -20.9639
   -20.9587 -20.9587 -20.9101 -20.9091 -20.6773 -20.6772 -20.6751 -20.6749
   -20.6334 -20.6332 -20.6221 -20.6218 -18.9373 -18.9362 -18.7980 -18.7973
   -18.7940 -18.7934 -18.6841 -18.6836 -18.6835 -18.6830 -18.5797 -18.5783
   -18.3874 -18.3870 -18.3867 -18.3862 -18.3492 -18.3491 -18.3486 -18.3486
   -15.5318 -15.5308 -15.4805 -15.4795 -13.2887 -13.2877 -13.2637 -13.2627
   -13.1013 -13.1004 -13.0270 -13.0260 -10.8719 -10.8707 -10.8564 -10.8553
   -10.4945 -10.4939 -10.2623 -10.2615  -9.7590  -9.7579  -9.5700  -9.5685
    -9.1065  -9.1058  -9.0115  -9.0108  -8.3800  -8.3791  -8.3569  -8.3559
    -8.1586  -8.1575  -8.1069  -8.1059  -7.5175  -7.5162  -7.4665  -7.4653
    -6.9939  -6.9931  -6.7333  -6.7326  -6.6435  -6.6432  -6.5493  -6.5487
    -6.1372  -6.1367  -5.8793  -5.8790  -5.7838  -5.7837  -5.6421  -5.6420
    -5.5835  -5.5832  -5.3858  -5.3855  -5.3617  -5.3616  -5.2498  -5.2491
    -5.1434  -5.1427  -5.0951  -5.0947  -4.9997  -4.9993  -4.9735  -4.9727
    -4.8665  -4.8661  -4.8028  -4.8026  -4.7761  -4.7760  -4.7210  -4.7206
    -4.5907  -4.5906  -4.4584  -4.4580  -4.4045  -4.4044  -4.3517  -4.3516
    -4.2238  -4.2238  -4.2234  -4.2232  -4.0462  -4.0460  -4.0032  -4.0026
    -3.9463  -3.9462  -3.8475  -3.8471  -3.6752  -3.6748  -3.5457  -3.5453
    -3.4435  -3.4431  -3.2394  -3.2390  -3.0488  -3.0487  -3.0021  -3.0018
    -2.9550  -2.9549  -2.7447  -2.7443  -2.5936  -2.5929  -2.5079  -2.5077
    -2.2994  -2.2988  -1.9769  -1.9758  -1.9114  -1.9111  -1.8894  -1.8892
    -1.7495  -1.7494  -1.7359  -1.7356  -1.3407  -1.3399  -1.2128  -1.2125
    -1.1278  -1.1271  -0.9763  -0.9755  -0.9320  -0.9317  -0.8598  -0.8596
    -0.8558  -0.8552  -0.6887  -0.6886  -0.6532  -0.6531  -0.5313  -0.5312
    -0.5101  -0.5097  -0.4968  -0.4963  -0.4578  -0.4577  -0.2201  -0.2199
    -0.1536  -0.1535  -0.0475  -0.0467  -0.0396  -0.0391  -0.0052  -0.0049
     0.1012   0.1016   0.1943   0.1946   0.2418   0.2422   0.2884   0.2886
     0.3295   0.3299   0.3925   0.3928   3.9169   3.9174   3.9264   3.9276
     4.0503   4.0507   4.1835   4.1845   5.0951   5.0964   5.2669   5.2684
     5.5945   5.5952   5.6071   5.6078   5.7783   5.7790   5.8411   5.8420
     6.7074   6.7080   6.9800   6.9806   7.2231   7.2241   7.2561   7.2570
     7.5278   7.5287   7.8708   7.8715   8.4365   8.4368   8.7945   8.7947
     9.0711   9.0717   9.1242   9.1247   9.3828   9.3835   9.5085   9.5087

          k = 0.3333 0.0000 0.0713 (132415 PWs)   bands (ev):

   -21.2792 -21.2644 -21.1200 -21.1091 -21.0817 -21.0646 -20.9678 -20.9583
   -20.9316 -20.9239 -20.9053 -20.8728 -20.7508 -20.7470 -20.7184 -20.7151
   -20.6068 -20.5975 -20.5913 -20.5866 -18.9369 -18.9356 -18.8092 -18.8075
   -18.7975 -18.7953 -18.6750 -18.6748 -18.6582 -18.6565 -18.5796 -18.5777
   -18.4181 -18.4177 -18.4103 -18.4102 -18.3459 -18.3453 -18.3166 -18.3159
   -15.5409 -15.5170 -15.4919 -15.4744 -13.3157 -13.2848 -13.2381 -13.2159
   -13.1190 -13.0933 -13.0694 -13.0394 -10.9174 -10.9074 -10.7438 -10.7188
   -10.5346 -10.4481 -10.3842 -10.2519  -9.9348  -9.7163  -9.6916  -9.5106
    -9.0575  -9.0016  -8.7846  -8.7514  -8.6150  -8.5571  -8.3734  -8.3526
    -8.2106  -8.1801  -8.1428  -8.1025  -7.5346  -7.5094  -7.4979  -7.4628
    -7.0971  -6.9807  -6.9039  -6.7510  -6.6498  -6.5114  -6.3960  -6.1964
    -6.1488  -6.0924  -6.0794  -5.9556  -5.9401  -5.9058  -5.6263  -5.5946
    -5.5916  -5.4956  -5.4926  -5.4783  -5.3595  -5.3341  -5.2396  -5.2174
    -5.1726  -5.1501  -5.1423  -5.1152  -5.0481  -5.0374  -5.0057  -5.0037
    -4.9619  -4.9511  -4.8898  -4.8362  -4.7231  -4.6875  -4.6310  -4.6009
    -4.5438  -4.5037  -4.4553  -4.4130  -4.3351  -4.3185  -4.2604  -4.2515
    -4.1786  -4.1104  -4.0995  -4.0596  -4.0298  -4.0073  -3.9935  -3.9787
    -3.9382  -3.9074  -3.8370  -3.8021  -3.7233  -3.6238  -3.6078  -3.5474
    -3.5174  -3.4113  -3.3764  -3.3181  -3.2799  -3.1501  -3.1146  -2.9920
    -2.8749  -2.7250  -2.7167  -2.7040  -2.6269  -2.5791  -2.4867  -2.4353
    -2.4184  -2.3584  -2.0899  -2.0179  -1.9692  -1.9490  -1.9018  -1.8790
    -1.8384  -1.8110  -1.7781  -1.7732  -1.2607  -1.2485  -1.2333  -1.2219
    -1.0930  -1.0715  -1.0567  -1.0513  -0.9635  -0.9584  -0.8703  -0.8391
    -0.8010  -0.7575  -0.7524  -0.6936  -0.6595  -0.6290  -0.5740  -0.5661
    -0.5384  -0.5059  -0.4281  -0.4203  -0.3439  -0.3393  -0.3214  -0.3132
    -0.1878  -0.1472  -0.0684  -0.0652  -0.0192  -0.0013   0.0446   0.0460
     0.0598   0.1177   0.1259   0.1637   0.1802   0.2102   0.2262   0.3362
     0.3578   0.3902   0.4044   0.4186   3.8750   3.8961   3.9167   3.9759
     4.0044   4.0471   4.1753   4.2007   5.1175   5.2225   5.2242   5.2928
     5.5091   5.5599   5.6558   5.6782   5.7518   5.7837   5.8242   5.8548
     6.8063   6.8315   6.8629   6.8831   7.1916   7.2033   7.2490   7.2917
     7.3414   7.7152   8.0640   8.1875   8.2465   8.4692   8.6342   8.8542
     9.0317   9.0332   9.2958   9.2979   9.3229   9.4646   9.5297   9.5838

          k = 0.3333 0.0000-0.1800 (132393 PWs)   bands (ev):

   -21.2829 -21.2594 -21.1225 -21.1153 -21.0704 -21.0651 -20.9664 -20.9631
   -20.9398 -20.9203 -20.9093 -20.8616 -20.7514 -20.7464 -20.7223 -20.7137
   -20.6108 -20.5937 -20.5919 -20.5857 -18.9372 -18.9354 -18.8099 -18.8067
   -18.7977 -18.7951 -18.6749 -18.6748 -18.6584 -18.6563 -18.5798 -18.5775
   -18.4181 -18.4177 -18.4104 -18.4102 -18.3466 -18.3446 -18.3163 -18.3163
   -15.5461 -15.5115 -15.5017 -15.4642 -13.3370 -13.3163 -13.2139 -13.1843
   -13.1301 -13.0814 -13.0779 -13.0296 -10.9729 -10.9645 -10.6588 -10.6394
   -10.5548 -10.4598 -10.4331 -10.1919  -9.9947  -9.7563  -9.6165  -9.4079
    -9.1649  -9.0805  -8.7343  -8.7190  -8.6588  -8.6332  -8.3149  -8.2985
    -8.2215  -8.1657  -8.1538  -8.0853  -7.5366  -7.5012  -7.4892  -7.4659
    -7.1018  -6.9560  -6.8967  -6.7453  -6.6469  -6.6189  -6.3949  -6.2671
    -6.1356  -6.0482  -5.9933  -5.9861  -5.8994  -5.8966  -5.7014  -5.6257
    -5.5660  -5.5354  -5.4898  -5.4566  -5.3299  -5.2731  -5.2566  -5.2185
    -5.1983  -5.1802  -5.1463  -5.0587  -5.0341  -5.0255  -4.9965  -4.9811
    -4.9756  -4.9409  -4.9056  -4.8984  -4.7585  -4.6772  -4.6068  -4.5777
    -4.5661  -4.5372  -4.4811  -4.3974  -4.3678  -4.3049  -4.2449  -4.1753
    -4.1676  -4.1172  -4.1020  -4.0619  -4.0325  -4.0092  -3.9765  -3.9535
    -3.9432  -3.8746  -3.8620  -3.8058  -3.7032  -3.6534  -3.5891  -3.5391
    -3.5086  -3.4824  -3.3742  -3.3741  -3.2393  -3.1860  -3.0890  -2.9542
    -2.9521  -2.7332  -2.7326  -2.6833  -2.6588  -2.5911  -2.5337  -2.4011
    -2.3409  -2.2852  -2.1198  -1.9866  -1.9710  -1.9491  -1.9049  -1.8881
    -1.8525  -1.8251  -1.8108  -1.7464  -1.2544  -1.2530  -1.2226  -1.2173
    -1.1074  -1.0794  -1.0595  -1.0398  -0.9480  -0.9332  -0.8557  -0.8477
    -0.7841  -0.7714  -0.7571  -0.6960  -0.6701  -0.6583  -0.5887  -0.5650
    -0.5336  -0.4916  -0.4720  -0.4428  -0.3475  -0.3283  -0.2960  -0.2902
    -0.1861  -0.1322  -0.1148  -0.0390  -0.0209  -0.0105   0.0575   0.0730
     0.0840   0.1237   0.1249   0.1373   0.1486   0.1868   0.2621   0.3195
     0.3223   0.3739   0.4236   0.4615   3.8325   3.8624   3.9149   3.9820
     4.0528   4.0811   4.1726   4.2076   5.0886   5.1705   5.2498   5.3320
     5.4991   5.5744   5.6334   5.7175   5.7248   5.8058   5.8120   5.8575
     6.7968   6.8430   6.8548   6.8770   7.1623   7.1791   7.3122   7.3396
     7.3668   7.5336   8.0553   8.2652   8.4190   8.4955   8.6401   8.7488
     8.9299   9.0361   9.2434   9.2475   9.3872   9.4278   9.5552   9.5760

          k = 0.3333-0.4570 0.0713 (132336 PWs)   bands (ev):

   -21.2677 -21.2666 -21.0998 -21.0994 -21.0589 -21.0586 -20.9837 -20.9837
   -20.9768 -20.9767 -20.9045 -20.9035 -20.6719 -20.6717 -20.6698 -20.6696
   -20.6398 -20.6396 -20.6254 -20.6251 -18.9373 -18.9361 -18.7937 -18.7930
   -18.7896 -18.7889 -18.6868 -18.6866 -18.6857 -18.6856 -18.5797 -18.5782
   -18.3905 -18.3900 -18.3898 -18.3893 -18.3460 -18.3459 -18.3453 -18.3451
   -15.5193 -15.5183 -15.4933 -15.4923 -13.2854 -13.2844 -13.2609 -13.2599
   -13.1099 -13.1090 -13.0263 -13.0253 -10.8599 -10.8587 -10.8445 -10.8434
   -10.5090 -10.5084 -10.2713 -10.2705  -9.7970  -9.7962  -9.5700  -9.5689
    -9.0481  -9.0478  -8.9848  -8.9844  -8.4121  -8.4115  -8.3726  -8.3720
    -8.1563  -8.1553  -8.1081  -8.1072  -7.5229  -7.5223  -7.4673  -7.4667
    -7.0110  -7.0103  -6.8217  -6.8213  -6.5555  -6.5553  -6.4900  -6.4896
    -6.1066  -6.1061  -5.9678  -5.9676  -5.7917  -5.7915  -5.6802  -5.6800
    -5.5935  -5.5931  -5.4298  -5.4297  -5.3486  -5.3484  -5.2575  -5.2569
    -5.1365  -5.1360  -5.0952  -5.0951  -5.0802  -5.0801  -5.0084  -5.0081
    -4.8909  -4.8907  -4.8515  -4.8510  -4.7580  -4.7579  -4.6673  -4.6672
    -4.5317  -4.5316  -4.4173  -4.4169  -4.3324  -4.3323  -4.2626  -4.2623
    -4.1651  -4.1648  -4.1288  -4.1287  -4.0096  -4.0093  -3.9782  -3.9780
    -3.9519  -3.9517  -3.8436  -3.8433  -3.6915  -3.6911  -3.5429  -3.5426
    -3.4540  -3.4536  -3.2488  -3.2485  -3.1311  -3.1309  -2.9725  -2.9724
    -2.9074  -2.9073  -2.7694  -2.7692  -2.6075  -2.6071  -2.5079  -2.5076
    -2.3799  -2.3793  -1.9982  -1.9973  -1.9452  -1.9450  -1.9074  -1.9070
    -1.8156  -1.8154  -1.8000  -1.7998  -1.3072  -1.3063  -1.1490  -1.1487
    -1.1001  -1.0998  -1.0088  -1.0082  -0.9691  -0.9691  -0.9198  -0.9194
    -0.7856  -0.7851  -0.7142  -0.7139  -0.6322  -0.6322  -0.5629  -0.5628
    -0.5128  -0.5124  -0.4924  -0.4920  -0.4047  -0.4042  -0.2504  -0.2499
    -0.1638  -0.1637  -0.0640  -0.0636  -0.0080  -0.0078   0.0633   0.0634
     0.0933   0.0934   0.1440   0.1443   0.2120   0.2121   0.2586   0.2586
     0.3796   0.3797   0.4007   0.4010   3.9329   3.9337   3.9353   3.9360
     4.0807   4.0814   4.1574   4.1584   5.0586   5.0598   5.3055   5.3068
     5.5519   5.5525   5.6442   5.6446   5.7792   5.7796   5.8402   5.8408
     6.7183   6.7189   6.9675   6.9681   7.1920   7.1926   7.2911   7.2917
     7.6781   7.6788   8.2485   8.2490   8.5151   8.5158   8.5981   8.5987
     9.0093   9.0097   9.1127   9.1129   9.2790   9.2794   9.4386   9.4391

          k = 0.3333-0.4570-0.1800 (132384 PWs)   bands (ev):

   -21.2679 -21.2669 -21.0943 -21.0940 -21.0653 -21.0651 -20.9841 -20.9840
   -20.9770 -20.9769 -20.9021 -20.9011 -20.6723 -20.6721 -20.6702 -20.6700
   -20.6423 -20.6421 -20.6227 -20.6225 -18.9373 -18.9361 -18.7937 -18.7930
   -18.7896 -18.7889 -18.6869 -18.6868 -18.6855 -18.6855 -18.5797 -18.5782
   -18.3903 -18.3902 -18.3896 -18.3895 -18.3460 -18.3459 -18.3452 -18.3452
   -15.5195 -15.5186 -15.4931 -15.4921 -13.2825 -13.2817 -13.2543 -13.2534
   -13.1161 -13.1151 -13.0323 -13.0313 -10.8350 -10.8337 -10.8094 -10.8082
   -10.5594 -10.5589 -10.2747 -10.2741  -9.8752  -9.8746  -9.5660  -9.5651
    -8.9593  -8.9590  -8.8712  -8.8708  -8.4945  -8.4943  -8.4294  -8.4291
    -8.1551  -8.1542  -8.0989  -8.0983  -7.5569  -7.5564  -7.4611  -7.4605
    -7.0460  -7.0454  -6.8733  -6.8730  -6.4487  -6.4483  -6.3663  -6.3662
    -6.1218  -6.1217  -6.0355  -6.0354  -5.8548  -5.8545  -5.6972  -5.6969
    -5.5855  -5.5852  -5.4125  -5.4122  -5.3087  -5.3086  -5.2489  -5.2483
    -5.1438  -5.1435  -5.1148  -5.1142  -5.0708  -5.0706  -5.0050  -5.0047
    -4.9023  -4.9021  -4.8617  -4.8615  -4.7823  -4.7822  -4.6278  -4.6276
    -4.5440  -4.5438  -4.4204  -4.4201  -4.3121  -4.3118  -4.2414  -4.2412
    -4.1748  -4.1743  -4.0910  -4.0909  -4.0414  -4.0410  -3.9750  -3.9746
    -3.9651  -3.9649  -3.8467  -3.8464  -3.7110  -3.7106  -3.5359  -3.5356
    -3.4647  -3.4646  -3.3119  -3.3116  -3.1691  -3.1688  -2.9105  -2.9103
    -2.8560  -2.8557  -2.7392  -2.7391  -2.6216  -2.6215  -2.5105  -2.5105
    -2.3874  -2.3868  -2.0046  -2.0039  -1.9450  -1.9447  -1.9167  -1.9165
    -1.8266  -1.8263  -1.7788  -1.7787  -1.3066  -1.3058  -1.1386  -1.1383
    -1.1087  -1.1086  -1.0413  -1.0410  -0.9563  -0.9561  -0.9204  -0.9201
    -0.8102  -0.8101  -0.6827  -0.6825  -0.6290  -0.6290  -0.5460  -0.5459
    -0.5136  -0.5132  -0.4885  -0.4881  -0.3868  -0.3864  -0.2802  -0.2799
    -0.1669  -0.1668  -0.0476  -0.0474  -0.0317  -0.0316   0.0486   0.0488
     0.0805   0.0807   0.1694   0.1698   0.2079   0.2081   0.2640   0.2641
     0.3706   0.3706   0.4133   0.4134   3.9330   3.9336   3.9570   3.9576
     4.0658   4.0667   4.1512   4.1523   5.0451   5.0462   5.3233   5.3245
     5.5399   5.5405   5.6652   5.6656   5.7561   5.7565   5.8521   5.8526
     6.7230   6.7236   6.9717   6.9724   7.1627   7.1631   7.3105   7.3110
     7.6867   7.6875   8.2355   8.2360   8.3831   8.3835   8.7828   8.7830
     9.0628   9.0632   9.0955   9.0960   9.2251   9.2254   9.3943   9.3945

     highest occupied, lowest unoccupied level (ev):     0.4615    3.8197

!    total energy              =   -2506.80375566 Ry
     Harris-Foulkes estimate   =   -2506.80375567 Ry
     estimated scf accuracy    <          8.4E-09 Ry

     total all-electron energy =     -9402.299810 Ry

     The total energy is the sum of the following terms:

     one-electron contribution =   -1394.14347775 Ry
     hartree contribution      =     881.03545333 Ry
     xc contribution           =    -495.21376957 Ry
     ewald contribution        =    -824.70179313 Ry
     Dispersion Correction     =      -0.50453188 Ry
     one-center paw contrib.   =    -673.27563666 Ry

     convergence has been achieved in  15 iterations

     Forces acting on atoms (cartesian axes, Ry/au):

     atom    1 type  1   force =     0.00109866    0.00004039    0.00061299
     atom    2 type  1   force =    -0.00108390   -0.00002909   -0.00067733
     atom    3 type  1   force =    -0.00109866   -0.00004039   -0.00061299
     atom    4 type  1   force =     0.00108390    0.00002909    0.00067733
     atom    5 type  1   force =    -0.00022646   -0.00065576    0.00056140
     atom    6 type  1   force =     0.00015383   -0.00064333   -0.00058610
     atom    7 type  1   force =     0.00022646    0.00065576   -0.00056140
     atom    8 type  1   force =    -0.00015383    0.00064333    0.00058610
     atom    9 type  1   force =     0.00007546   -0.00027815    0.00119586
     atom   10 type  1   force =     0.00000830   -0.00030221   -0.00119500
     atom   11 type  1   force =    -0.00007546    0.00027815   -0.00119586
     atom   12 type  1   force =    -0.00000830    0.00030221    0.00119500
     atom   13 type  1   force =     0.00019010   -0.00002979    0.00014090
     atom   14 type  1   force =    -0.00015772   -0.00000110   -0.00013457
     atom   15 type  1   force =    -0.00019010    0.00002979   -0.00014090
     atom   16 type  1   force =     0.00015772    0.00000110    0.00013457
     atom   17 type  1   force =     0.00081008    0.00094797   -0.00045213
     atom   18 type  1   force =    -0.00084844    0.00088849    0.00050906
     atom   19 type  1   force =    -0.00081008   -0.00094797    0.00045213
     atom   20 type  1   force =     0.00084844   -0.00088849   -0.00050906
     atom   21 type  1   force =    -0.00136023    0.00022145   -0.00100956
     atom   22 type  1   force =     0.00138761    0.00029722    0.00101652
     atom   23 type  1   force =     0.00136023   -0.00022145    0.00100956
     atom   24 type  1   force =    -0.00138761   -0.00029722   -0.00101652
     atom   25 type  1   force =    -0.00042310   -0.00111640    0.00034483
     atom   26 type  1   force =     0.00038269   -0.00062805    0.00046184
     atom   27 type  1   force =     0.00042310    0.00111640   -0.00034483
     atom   28 type  1   force =    -0.00038269    0.00062805   -0.00046184
     atom   29 type  1   force =     0.00002333    0.00031681    0.00027160
     atom   30 type  1   force =     0.00043038    0.00019754   -0.00005534
     atom   31 type  1   force =    -0.00002333   -0.00031681   -0.00027160
     atom   32 type  1   force =    -0.00043038   -0.00019754    0.00005534
     atom   33 type  1   force =     0.00012983   -0.00054050    0.00071189
     atom   34 type  1   force =    -0.00018352   -0.00056148   -0.00076063
     atom   35 type  1   force =    -0.00012983    0.00054050   -0.00071189
     atom   36 type  1   force =     0.00018352    0.00056148    0.00076063
     atom   37 type  1   force =     0.00029927   -0.00027574    0.00060019
     atom   38 type  1   force =    -0.00045174   -0.00024258   -0.00066440
     atom   39 type  1   force =    -0.00029927    0.00027574   -0.00060019
     atom   40 type  1   force =     0.00045174    0.00024258    0.00066440
     atom   41 type  1   force =     0.00065501   -0.00116837   -0.00052144
     atom   42 type  1   force =    -0.00069564   -0.00073611   -0.00008220
     atom   43 type  1   force =    -0.00065501    0.00116837    0.00052144
     atom   44 type  1   force =     0.00069564    0.00073611    0.00008220
     atom   45 type  4   force =    -0.00004159    0.00086586   -0.00118908
     atom   46 type  4   force =     0.00004651    0.00052011    0.00047471
     atom   47 type  4   force =     0.00004159   -0.00086586    0.00118908
     atom   48 type  4   force =    -0.00004651   -0.00052011   -0.00047471
     atom   49 type  4   force =     0.00029973    0.00068878    0.00004467
     atom   50 type  4   force =    -0.00027821    0.00052589   -0.00009452
     atom   51 type  4   force =    -0.00029973   -0.00068878   -0.00004467
     atom   52 type  4   force =     0.00027821   -0.00052589    0.00009452
     atom   53 type  4   force =     0.00036600   -0.00138120   -0.00042213
     atom   54 type  4   force =    -0.00083241   -0.00129895    0.00020885
     atom   55 type  4   force =    -0.00036600    0.00138120    0.00042213
     atom   56 type  4   force =     0.00083241    0.00129895   -0.00020885
     atom   57 type  4   force =     0.00015580    0.00088240   -0.00036789
     atom   58 type  4   force =    -0.00022446    0.00092745    0.00034841
     atom   59 type  4   force =    -0.00015580   -0.00088240    0.00036789
     atom   60 type  4   force =     0.00022446   -0.00092745   -0.00034841
     atom   61 type  4   force =    -0.00156495    0.00084335   -0.00060038
     atom   62 type  4   force =     0.00164534    0.00086140    0.00063292
     atom   63 type  4   force =     0.00156495   -0.00084335    0.00060038
     atom   64 type  4   force =    -0.00164534   -0.00086140   -0.00063292
     atom   65 type  4   force =     0.00033551   -0.00028437   -0.00057620
     atom   66 type  4   force =    -0.00032542   -0.00027203    0.00058506
     atom   67 type  4   force =    -0.00033551    0.00028437    0.00057620
     atom   68 type  4   force =     0.00032542    0.00027203   -0.00058506
     atom   69 type  4   force =    -0.00070573    0.00053236   -0.00272547
     atom   70 type  4   force =     0.00081732    0.00050550    0.00277516
     atom   71 type  4   force =     0.00070573   -0.00053236    0.00272547
     atom   72 type  4   force =    -0.00081732   -0.00050550   -0.00277516
     atom   73 type  4   force =    -0.00012911   -0.00035337    0.00041786
     atom   74 type  4   force =     0.00014249   -0.00032918   -0.00043630
     atom   75 type  4   force =     0.00012911    0.00035337   -0.00041786
     atom   76 type  4   force =    -0.00014249    0.00032918    0.00043630
     atom   77 type  4   force =    -0.00020232    0.00057331    0.00062707
     atom   78 type  4   force =     0.00025678    0.00029438   -0.00008845
     atom   79 type  4   force =     0.00020232   -0.00057331   -0.00062707
     atom   80 type  4   force =    -0.00025678   -0.00029438    0.00008845
     atom   81 type  4   force =    -0.00028582    0.00125750   -0.00036621
     atom   82 type  4   force =     0.00025287    0.00111049    0.00038410
     atom   83 type  4   force =     0.00028582   -0.00125750    0.00036621
     atom   84 type  4   force =    -0.00025287   -0.00111049   -0.00038410
     atom   85 type  3   force =     0.00009825    0.00046602   -0.00047717
     atom   86 type  3   force =    -0.00009623    0.00048207    0.00048659
     atom   87 type  3   force =    -0.00009825   -0.00046602    0.00047717
     atom   88 type  3   force =     0.00009623   -0.00048207   -0.00048659
     atom   89 type  3   force =    -0.00000619    0.00051440    0.00017204
     atom   90 type  3   force =     0.00002752    0.00050637   -0.00012832
     atom   91 type  3   force =     0.00000619   -0.00051440   -0.00017204
     atom   92 type  3   force =    -0.00002752   -0.00050637    0.00012832
     atom   93 type  3   force =    -0.00013056    0.00043504    0.00011222
     atom   94 type  3   force =     0.00014374    0.00042949   -0.00011807
     atom   95 type  3   force =     0.00013056   -0.00043504   -0.00011222
     atom   96 type  3   force =    -0.00014374   -0.00042949    0.00011807
     atom   97 type  3   force =     0.00051188   -0.00045915    0.00023890
     atom   98 type  3   force =    -0.00051462   -0.00047038   -0.00022238
     atom   99 type  3   force =    -0.00051188    0.00045915   -0.00023890
     atom  100 type  3   force =     0.00051462    0.00047038    0.00022238
     atom  101 type  3   force =    -0.00019520   -0.00045870    0.00060638
     atom  102 type  3   force =     0.00019857   -0.00042795   -0.00058846
     atom  103 type  3   force =     0.00019520    0.00045870   -0.00060638
     atom  104 type  3   force =    -0.00019857    0.00042795    0.00058846
     atom  105 type  3   force =    -0.00034435    0.00037952    0.00050344
     atom  106 type  3   force =     0.00032619    0.00035682   -0.00049395
     atom  107 type  3   force =     0.00034435   -0.00037952   -0.00050344
     atom  108 type  3   force =    -0.00032619   -0.00035682    0.00049395

     Total force =     0.011970     Total SCF correction =     0.000212


     Computing stress (Cartesian axis) and pressure

          total   stress  (Ry/bohr**3)                   (kbar)     P=   -4.56
  -0.00001149  -0.00000007  -0.00001367         -1.69     -0.01     -2.01
  -0.00000007  -0.00000956   0.00000008         -0.01     -1.41      0.01
  -0.00001367   0.00000008  -0.00007192         -2.01      0.01    -10.58


     Writing output data file scf.save
 
     init_run     :     85.11s CPU     88.14s WALL (       1 calls)
     electrons    :   3197.28s CPU   3303.18s WALL (       1 calls)
     forces       :     46.58s CPU     46.87s WALL (       1 calls)
     stress       :    218.26s CPU    218.80s WALL (       1 calls)

     Called by init_run:
     wfcinit      :     72.79s CPU     75.61s WALL (       1 calls)
     potinit      :      4.41s CPU      4.45s WALL (       1 calls)

     Called by electrons:
     c_bands      :   2928.82s CPU   3019.55s WALL (      15 calls)
     sum_band     :    253.11s CPU    266.44s WALL (      15 calls)
     v_of_rho     :      2.16s CPU      2.40s WALL (      16 calls)
     newd         :      6.04s CPU      7.50s WALL (      16 calls)
     PAW_pot      :      6.76s CPU      6.77s WALL (      16 calls)
     mix_rho      :      0.50s CPU      0.57s WALL (      15 calls)

     Called by c_bands:
     init_us_2    :     11.31s CPU     11.36s WALL (     264 calls)
     cegterg      :   2880.04s CPU   2970.71s WALL (     120 calls)

     Called by sum_band:
     sum_band:bec :      0.15s CPU      0.15s WALL (     120 calls)
     addusdens    :      6.25s CPU      7.67s WALL (      15 calls)

     Called by *egterg:
     h_psi        :   1360.53s CPU   1431.70s WALL (     625 calls)
     s_psi        :    373.51s CPU    373.59s WALL (     625 calls)
     g_psi        :      6.02s CPU      6.03s WALL (     497 calls)
     cdiaghg      :    243.14s CPU    243.21s WALL (     617 calls)

     Called by h_psi:
     h_psi:pot    :   1352.04s CPU   1423.06s WALL (     625 calls)
     h_psi:calbec :    365.11s CPU    365.67s WALL (     625 calls)
     vloc_psi     :    612.75s CPU    683.13s WALL (     625 calls)
     add_vuspsi   :    374.19s CPU    374.26s WALL (     625 calls)

     General routines
     calbec       :    532.51s CPU    533.31s WALL (     785 calls)
     fft          :      1.45s CPU      1.89s WALL (     232 calls)
     fftw         :    656.36s CPU    736.86s WALL (  212536 calls)
 
     Parallel routines
     fft_scatter  :    118.86s CPU    192.25s WALL (  212768 calls)
 
     PWSCF        :     0h59m CPU        1h 2m WALL

 
   This run was terminated on:  13:26:24  13Nov2017            

=------------------------------------------------------------------------------=
   JOB DONE.
=------------------------------------------------------------------------------=
