
     Program PWSCF v.6.1 (svn rev. 13369) starts on  4Nov2017 at  5:57:33 

     This program is part of the open-source Quantum ESPRESSO suite
     for quantum simulation of materials; please cite
         "P. Giannozzi et al., J. Phys.:Condens. Matter 21 395502 (2009);
          URL http://www.quantum-espresso.org", 
     in publications or presentations arising from this work. More details at
     http://www.quantum-espresso.org/quote

     Parallel version (MPI), running on     8 processors
     R & G space division:  proc/nbgrp/npool/nimage =       8
     Waiting for input...
     Reading input from standard input

     Current dimensions of program PWSCF are:
     Max number of different atomic species (ntypx) = 10
     Max number of k-points (npk) =  40000
     Max angular momentum in pseudopotentials (lmaxx) =  3
               file C.pbe-n-kjpaw_psl.0.1.UPF: wavefunction(s)  2P renormalized
               file N.pbe-n-kjpaw_psl.0.1.UPF: wavefunction(s)  2P renormalized
               file H.pbe-kjpaw_psl.0.1.UPF: wavefunction(s)  1S renormalized
               file O.pbe-n-kjpaw_psl.0.1.UPF: wavefunction(s)  2P renormalized

     -------------------------------------
     Parameters for Dispersion Correction:
     -------------------------------------
       atom      VdW radius       C_6     

        C          2.744         60.710
        N          2.640         42.670
        H          1.892          4.857
        O          2.536         24.284

     Subspace diagonalization in iterative solution of the eigenvalue problem:
     a serial algorithm will be used

 
     Parallelization info
     --------------------
     sticks:   dense  smooth     PW     G-vecs:    dense   smooth      PW
     Min        1028    1028    269               205794   205794   27509
     Max        1029    1029    270               205797   205797   27518
     Sum        8227    8227   2153              1646365  1646365  220097
 


     bravais-lattice index     =            0
     lattice parameter (alat)  =      13.4157  a.u.
     unit-cell volume          =   12186.6784 (a.u.)^3
     number of atoms/cell      =          192
     number of atomic types    =            4
     number of electrons       =       608.00
     number of Kohn-Sham states=          364
     kinetic-energy cutoff     =     100.0000  Ry
     charge density cutoff     =     400.0000  Ry
     convergence threshold     =      1.0E-08
     mixing beta               =       0.5000
     number of iterations used =            8  plain     mixing
     Exchange-correlation      =  SLA  PW   PBX  PBC ( 1  4  3  4 0 0)

     celldm(1)=  13.415733  celldm(2)=   0.000000  celldm(3)=   0.000000
     celldm(4)=   0.000000  celldm(5)=   0.000000  celldm(6)=   0.000000

     crystal axes: (cart. coord. in units of alat)
               a(1) = (   1.000000   0.000000   0.000000 )  
               a(2) = (   0.000000   1.436874   0.000000 )  
               a(3) = (   0.000000   0.000000   3.512558 )  

     reciprocal axes: (cart. coord. in units 2 pi/alat)
               b(1) = (  1.000000  0.000000  0.000000 )  
               b(2) = (  0.000000  0.695955  0.000000 )  
               b(3) = (  0.000000  0.000000  0.284693 )  


     PseudoPot. # 1 for  C read from file:
     /scratch/ahofstet/pseudo/C.pbe-n-kjpaw_psl.0.1.UPF
     MD5 check sum: 430fe95172b1e11ef3f8ed03bac87931
     Pseudo is Projector augmented-wave + core cor, Zval =  4.0
     Generated using "atomic" code by A. Dal Corso  v.5.0.99 svn rev. 10869
     Shape of augmentation charge: BESSEL
     Using radial grid of 1073 points,  4 beta functions with: 
                l(1) =   0
                l(2) =   0
                l(3) =   1
                l(4) =   1
     Q(r) pseudized with 0 coefficients 


     PseudoPot. # 2 for  N read from file:
     /scratch/ahofstet/pseudo/N.pbe-n-kjpaw_psl.0.1.UPF
     MD5 check sum: f73187c8b701007e77325f868c9291d7
     Pseudo is Projector augmented-wave + core cor, Zval =  5.0
     Generated using "atomic" code by A. Dal Corso  v.5.0.99 svn rev. 10869
     Shape of augmentation charge: PSQ
     Using radial grid of 1085 points,  4 beta functions with: 
                l(1) =   0
                l(2) =   0
                l(3) =   1
                l(4) =   1
     Q(r) pseudized with 0 coefficients 


     PseudoPot. # 3 for  H read from file:
     /scratch/ahofstet/pseudo/H.pbe-kjpaw_psl.0.1.UPF
     MD5 check sum: 94e484f906d9e9773b2f6e52662335b2
     Pseudo is Projector augmented-wave, Zval =  1.0
     Generated using "atomic" code by A. Dal Corso  v.5.0.99 svn rev. 10869
     Shape of augmentation charge: PSQ
     Using radial grid of  929 points,  2 beta functions with: 
                l(1) =   0
                l(2) =   0
     Q(r) pseudized with 0 coefficients 


     PseudoPot. # 4 for  O read from file:
     /scratch/ahofstet/pseudo/O.pbe-n-kjpaw_psl.0.1.UPF
     MD5 check sum: 3f94a2996a3169367d6eb21d9b593f20
     Pseudo is Projector augmented-wave + core cor, Zval =  6.0
     Generated using "atomic" code by A. Dal Corso  v.5.0.99 svn rev. 10869
     Shape of augmentation charge: BESSEL
     Using radial grid of 1095 points,  4 beta functions with: 
                l(1) =   0
                l(2) =   0
                l(3) =   1
                l(4) =   1
     Q(r) pseudized with 0 coefficients 


     atomic species   valence    mass     pseudopotential
        C              4.00    12.01070      C( 1.00)
        N              5.00    14.00670      N( 1.00)
        H              1.00     1.00794      H( 1.00)
        O              6.00    15.99940      O( 1.00)

      4 Sym. Ops., with inversion, found ( 2 have fractional translation)
          (note:  4 additional sym.ops. were found but ignored
           their fractional translations are incommensurate with FFT grid)


   Cartesian axes

     site n.     atom                  positions (alat units)
         1           O   tau(   1) = (   0.5214897   1.2233493   0.7332994  )
         2           O   tau(   2) = (   0.9785103   0.2135248   2.4895782  )
         3           O   tau(   3) = (   0.4785103   0.5049123   1.0229794  )
         4           O   tau(   4) = (   0.0214897   0.9319618   2.7792582  )
         5           O   tau(   5) = (   0.4785103   0.2135248   2.7792582  )
         6           O   tau(   6) = (   0.0214897   1.2233493   1.0229794  )
         7           O   tau(   7) = (   0.5214897   0.9319618   2.4895782  )
         8           O   tau(   8) = (   0.9785103   0.5049123   0.7332994  )
         9           H   tau(   9) = (   0.4796729   1.2698274   0.8593689  )
        10           H   tau(  10) = (   0.0203271   0.1670467   2.6156476  )
        11           H   tau(  11) = (   0.5203271   0.5513903   0.8969099  )
        12           H   tau(  12) = (   0.9796729   0.8854837   2.6531887  )
        13           H   tau(  13) = (   0.5203271   0.1670467   2.6531887  )
        14           H   tau(  14) = (   0.9796729   1.2698274   0.8969099  )
        15           H   tau(  15) = (   0.4796729   0.8854837   2.6156476  )
        16           H   tau(  16) = (   0.0203271   0.5513903   0.8593689  )
        17           O   tau(  17) = (   0.6169474   0.6119192   0.6839102  )
        18           O   tau(  18) = (   0.8830526   0.8249548   2.4401890  )
        19           O   tau(  19) = (   0.3830526   1.3303563   1.0723686  )
        20           O   tau(  20) = (   0.1169474   0.1065178   2.8286474  )
        21           O   tau(  21) = (   0.3830526   0.8249548   2.8286474  )
        22           O   tau(  22) = (   0.1169474   0.6119192   1.0723686  )
        23           O   tau(  23) = (   0.6169474   0.1065178   2.4401890  )
        24           O   tau(  24) = (   0.8830526   1.3303563   0.6839102  )
        25           H   tau(  25) = (   0.7515603   0.5728913   0.6798213  )
        26           H   tau(  26) = (   0.7484397   0.8639827   2.4361001  )
        27           H   tau(  27) = (   0.2484397   1.2913283   1.0764574  )
        28           H   tau(  28) = (   0.2515603   0.1455457   2.8327362  )
        29           H   tau(  29) = (   0.2484397   0.8639827   2.8327362  )
        30           H   tau(  30) = (   0.2515603   0.5728913   1.0764574  )
        31           H   tau(  31) = (   0.7515603   0.1455457   2.4361001  )
        32           H   tau(  32) = (   0.7484397   1.2913283   0.6798213  )
        33           N   tau(  33) = (   0.7404930   0.7447005   0.3179151  )
        34           N   tau(  34) = (   0.7595070   0.6921736   2.0741939  )
        35           N   tau(  35) = (   0.2595070   0.0262634   1.4383637  )
        36           N   tau(  36) = (   0.2404930   1.4106106   3.1946424  )
        37           N   tau(  37) = (   0.2595070   0.6921736   3.1946424  )
        38           N   tau(  38) = (   0.2404930   0.7447005   1.4383637  )
        39           N   tau(  39) = (   0.7404930   1.4106106   2.0741939  )
        40           N   tau(  40) = (   0.7595070   0.0262634   0.3179151  )
        41           N   tau(  41) = (   0.7372930   0.7336202   0.1453213  )
        42           N   tau(  42) = (   0.7627070   0.7032538   1.9016001  )
        43           N   tau(  43) = (   0.2627070   0.0151832   1.6109575  )
        44           N   tau(  44) = (   0.2372930   1.4216909   3.3672363  )
        45           N   tau(  45) = (   0.2627070   0.7032538   3.3672363  )
        46           N   tau(  46) = (   0.2372930   0.7336202   1.6109575  )
        47           N   tau(  47) = (   0.7372930   1.4216909   1.9016001  )
        48           N   tau(  48) = (   0.7627070   0.0151832   0.1453213  )
        49           N   tau(  49) = (   0.7524054   0.7160652   3.4980184  )
        50           N   tau(  50) = (   0.7475946   0.7208089   1.7417396  )
        51           N   tau(  51) = (   0.2475946  -0.0023718   1.7708180  )
        52           N   tau(  52) = (   0.2524054   1.4392459   0.0145392  )
        53           N   tau(  53) = (   0.2475946   0.7208089   0.0145392  )
        54           N   tau(  54) = (   0.2524054   0.7160652   1.7708180  )
        55           N   tau(  55) = (   0.7524054   1.4392459   1.7417396  )
        56           N   tau(  56) = (   0.7475946  -0.0023718   3.4980184  )
        57           N   tau(  57) = (   0.1892755   0.9920345   0.4125877  )
        58           N   tau(  58) = (   0.3107245   0.4448396   2.1688665  )
        59           N   tau(  59) = (   0.8107245   0.2735975   1.3436911  )
        60           N   tau(  60) = (   0.6892755   1.1632766   3.0999698  )
        61           N   tau(  61) = (   0.8107245   0.4448396   3.0999698  )
        62           N   tau(  62) = (   0.6892755   0.9920345   1.3436911  )
        63           N   tau(  63) = (   0.1892755   1.1632766   2.1688665  )
        64           N   tau(  64) = (   0.3107245   0.2735975   0.4125877  )
        65           N   tau(  65) = (   0.0807548   1.0506760   0.2925738  )
        66           N   tau(  66) = (   0.4192452   0.3861980   2.0488526  )
        67           N   tau(  67) = (   0.9192452   0.3322390   1.4637050  )
        68           N   tau(  68) = (   0.5807548   1.1046351   3.2199838  )
        69           N   tau(  69) = (   0.9192452   0.3861980   3.2199838  )
        70           N   tau(  70) = (   0.5807548   1.0506760   1.4637050  )
        71           N   tau(  71) = (   0.0807548   1.1046351   2.0488526  )
        72           N   tau(  72) = (   0.4192452   0.3322390   0.2925738  )
        73           N   tau(  73) = (  -0.0343986   1.0888585   0.1855301  )
        74           N   tau(  74) = (   0.5343986   0.3480156   1.9418089  )
        75           N   tau(  75) = (   1.0343986   0.3704214   1.5707487  )
        76           N   tau(  76) = (   0.4656014   1.0664526   3.3270275  )
        77           N   tau(  77) = (   1.0343986   0.3480156   3.3270275  )
        78           N   tau(  78) = (   0.4656014   1.0888585   1.5707487  )
        79           N   tau(  79) = (  -0.0343986   1.0664526   1.9418089  )
        80           N   tau(  80) = (   0.5343986   0.3704214   0.1855301  )
        81           C   tau(  81) = (   0.3822350   1.0902618   0.6722511  )
        82           C   tau(  82) = (   0.1177650   0.3466123   2.4285299  )
        83           C   tau(  83) = (   0.6177650   0.3718247   1.0840276  )
        84           C   tau(  84) = (   0.8822350   1.0650493   2.8403064  )
        85           C   tau(  85) = (   0.6177650   0.3466123   2.8403064  )
        86           C   tau(  86) = (   0.8822350   1.0902618   1.0840276  )
        87           C   tau(  87) = (   0.3822350   1.0650493   2.4285299  )
        88           C   tau(  88) = (   0.1177650   0.3718247   0.6722511  )
        89           H   tau(  89) = (   0.2463180   1.1289851   0.7367275  )
        90           H   tau(  90) = (   0.2536820   0.3078889   2.4930063  )
        91           H   tau(  91) = (   0.7536820   0.4105481   1.0195513  )
        92           H   tau(  92) = (   0.7463180   1.0263260   2.7758301  )
        93           H   tau(  93) = (   0.7536820   0.3078889   2.7758301  )
        94           H   tau(  94) = (   0.7463180   1.1289851   1.0195513  )
        95           H   tau(  95) = (   0.2463180   1.0263260   2.4930063  )
        96           H   tau(  96) = (   0.2536820   0.4105481   0.7367275  )
        97           C   tau(  97) = (   0.4310180   0.8881488   0.7299435  )
        98           C   tau(  98) = (   0.0689820   0.5487253   2.4862223  )
        99           C   tau(  99) = (   0.5689820   0.1697118   1.0263353  )
       100           C   tau( 100) = (   0.9310180   1.2671623   2.7826141  )
       101           C   tau( 101) = (   0.5689820   0.5487253   2.7826141  )
       102           C   tau( 102) = (   0.9310180   0.8881488   1.0263353  )
       103           C   tau( 103) = (   0.4310180   1.2671623   2.4862223  )
       104           C   tau( 104) = (   0.0689820   0.1697118   0.7299435  )
       105           H   tau( 105) = (   0.4589678   0.8834100   0.8821663  )
       106           H   tau( 106) = (   0.0410322   0.5534641   2.6384451  )
       107           H   tau( 107) = (   0.5410322   0.1649729   0.8741125  )
       108           H   tau( 108) = (   0.9589678   1.2719011   2.6303912  )
       109           H   tau( 109) = (   0.5410322   0.5534641   2.6303912  )
       110           H   tau( 110) = (   0.9589678   0.8834100   0.8741125  )
       111           H   tau( 111) = (   0.4589678   1.2719011   2.6384451  )
       112           H   tau( 112) = (   0.0410322   0.1649729   0.8821663  )
       113           H   tau( 113) = (   0.3071670   0.7988403   0.7017499  )
       114           H   tau( 114) = (   0.1928330   0.6380338   2.4580287  )
       115           H   tau( 115) = (   0.6928330   0.0804032   1.0545289  )
       116           H   tau( 116) = (   0.8071670   1.3564708   2.8108077  )
       117           H   tau( 117) = (   0.6928330   0.6380338   2.8108077  )
       118           H   tau( 118) = (   0.8071670   0.7988403   1.0545289  )
       119           H   tau( 119) = (   0.3071670   1.3564708   2.4580287  )
       120           H   tau( 120) = (   0.1928330   0.0804032   0.7017499  )
       121           C   tau( 121) = (   0.5991218   0.8048853   0.6244407  )
       122           C   tau( 122) = (   0.9008782   0.6319887   2.3807195  )
       123           C   tau( 123) = (   0.4008782   0.0864483   1.1318381  )
       124           C   tau( 124) = (   0.0991218   1.3504257   2.8881169  )
       125           C   tau( 125) = (   0.4008782   0.6319887   2.8881169  )
       126           C   tau( 126) = (   0.0991218   0.8048853   1.1318381  )
       127           C   tau( 127) = (   0.5991218   1.3504257   2.3807195  )
       128           C   tau( 128) = (   0.9008782   0.0864483   0.6244407  )
       129           H   tau( 129) = (   0.7286985   0.8827434   0.6602667  )
       130           H   tau( 130) = (   0.7713015   0.5541307   2.4165455  )
       131           H   tau( 131) = (   0.2713015   0.1643063   1.0960121  )
       132           H   tau( 132) = (   0.2286985   1.2725677   2.8522909  )
       133           H   tau( 133) = (   0.2713015   0.5541307   2.8522909  )
       134           H   tau( 134) = (   0.2286985   0.8827434   1.0960121  )
       135           H   tau( 135) = (   0.7286985   1.2725677   2.4165455  )
       136           H   tau( 136) = (   0.7713015   0.1643063   0.6602667  )
       137           C   tau( 137) = (   0.5694482   0.8198671   0.4113185  )
       138           C   tau( 138) = (   0.9305518   0.6170070   2.1675973  )
       139           C   tau( 139) = (   0.4305518   0.1014300   1.3449603  )
       140           C   tau( 140) = (   0.0694482   1.3354440   3.1012391  )
       141           C   tau( 141) = (   0.4305518   0.6170070   3.1012391  )
       142           C   tau( 142) = (   0.0694482   0.8198671   1.3449603  )
       143           C   tau( 143) = (   0.5694482   1.3354440   2.1675973  )
       144           C   tau( 144) = (   0.9305518   0.1014300   0.4113185  )
       145           H   tau( 145) = (   0.4479534   0.7310869   0.3731110  )
       146           H   tau( 146) = (   0.0520466   0.7057871   2.1293898  )
       147           H   tau( 147) = (   0.5520466   0.0126499   1.3831678  )
       148           H   tau( 148) = (   0.9479534   1.4242242   3.1394466  )
       149           H   tau( 149) = (   0.5520466   0.7057871   3.1394466  )
       150           H   tau( 150) = (   0.9479534   0.7310869   1.3831678  )
       151           H   tau( 151) = (   0.4479534   1.4242242   2.1293898  )
       152           H   tau( 152) = (   0.0520466   0.0126499   0.3731110  )
       153           C   tau( 153) = (   0.5304055   1.0245913   0.3525083  )
       154           C   tau( 154) = (   0.9695945   0.4122827   2.1087871  )
       155           C   tau( 155) = (   0.4695945   0.3061543   1.4037705  )
       156           C   tau( 156) = (   0.0304055   1.1307198   3.1600493  )
       157           C   tau( 157) = (   0.4695945   0.4122827   3.1600493  )
       158           C   tau( 158) = (   0.0304055   1.0245913   1.4037705  )
       159           C   tau( 159) = (   0.5304055   1.1307198   2.1087871  )
       160           C   tau( 160) = (   0.9695945   0.3061543   0.3525083  )
       161           H   tau( 161) = (   0.6547797   1.1128410   0.3822413  )
       162           H   tau( 162) = (   0.8452203   0.3240331   2.1385201  )
       163           H   tau( 163) = (   0.3452203   0.3944039   1.3740375  )
       164           H   tau( 164) = (   0.1547797   1.0424701   3.1303162  )
       165           H   tau( 165) = (   0.3452203   0.3240331   3.1303162  )
       166           H   tau( 166) = (   0.1547797   1.1128410   1.3740375  )
       167           H   tau( 167) = (   0.6547797   1.0424701   2.1385201  )
       168           H   tau( 168) = (   0.8452203   0.3944039   0.3822413  )
       169           H   tau( 169) = (   0.5048779   1.0315977   0.1998907  )
       170           H   tau( 170) = (   0.9951221   0.4052764   1.9561695  )
       171           H   tau( 171) = (   0.4951221   0.3131607   1.5563881  )
       172           H   tau( 172) = (   0.0048779   1.1237134   3.3126669  )
       173           H   tau( 173) = (   0.4951221   0.4052764   3.3126669  )
       174           H   tau( 174) = (   0.0048779   1.0315977   1.5563881  )
       175           H   tau( 175) = (   0.5048779   1.1237134   1.9561695  )
       176           H   tau( 176) = (   0.9951221   0.3131607   0.1998907  )
       177           C   tau( 177) = (   0.3597175   1.1049302   0.4574727  )
       178           C   tau( 178) = (   0.1402825   0.3319439   2.2137515  )
       179           C   tau( 179) = (   0.6402825   0.3864931   1.2988061  )
       180           C   tau( 180) = (   0.8597175   1.0503809   3.0550849  )
       181           C   tau( 181) = (   0.6402825   0.3319439   3.0550849  )
       182           C   tau( 182) = (   0.8597175   1.1049302   1.2988061  )
       183           C   tau( 183) = (   0.3597175   1.0503809   2.2137515  )
       184           C   tau( 184) = (   0.1402825   0.3864931   0.4574727  )
       185           H   tau( 185) = (   0.3385195   1.2535020   0.4186081  )
       186           H   tau( 186) = (   0.1614805   0.1833721   2.1748869  )
       187           H   tau( 187) = (   0.6614805   0.5350650   1.3376707  )
       188           H   tau( 188) = (   0.8385195   0.9018091   3.0939495  )
       189           H   tau( 189) = (   0.6614805   0.1833721   3.0939495  )
       190           H   tau( 190) = (   0.8385195   1.2535020   1.3376707  )
       191           H   tau( 191) = (   0.3385195   0.9018091   2.1748869  )
       192           H   tau( 192) = (   0.1614805   0.5350650   0.4186081  )

     number of k points=     4
                       cart. coord. in units 2pi/alat
        k(    1) = (   0.0000000   0.0000000   0.0000000), wk =   0.3333333
        k(    2) = (   0.0000000  -0.3479776   0.0000000), wk =   0.3333333
        k(    3) = (   0.3333333   0.0000000   0.0000000), wk =   0.6666667
        k(    4) = (   0.3333333  -0.3479776   0.0000000), wk =   0.6666667

     Dense  grid:  1646365 G-vectors     FFT dimensions: (  90, 125, 300)

     Estimated max dynamical RAM per process >    2463.65MB

     Estimated total allocated dynamical RAM >   19709.23MB

     Check: negative/imaginary core charge=   -0.000002    0.000000

     Initial potential from superposition of free atoms

     starting charge  607.99687, renormalised to  608.00000
     Starting wfc are  528 randomized atomic wfcs
     Checking if some PAW data can be deallocated... 

     total cpu time spent up to now is      101.9 secs

     per-process dynamical memory:  1343.2 Mb

     Self-consistent Calculation

     iteration #  1     ecut=   100.00 Ry     beta=0.50
     Davidson diagonalization with overlap
     ethr =  1.00E-02,  avg # of iterations =  4.0

     total cpu time spent up to now is      418.5 secs

     total energy              =   -2996.47220803 Ry
     Harris-Foulkes estimate   =   -3005.20434113 Ry
     estimated scf accuracy    <      16.97677837 Ry

     iteration #  2     ecut=   100.00 Ry     beta=0.50
     Davidson diagonalization with overlap
     ethr =  2.79E-03,  avg # of iterations =  4.0

     total cpu time spent up to now is      610.6 secs

     total energy              =   -2998.14186626 Ry
     Harris-Foulkes estimate   =   -2999.77865755 Ry
     estimated scf accuracy    <       3.26151681 Ry

     iteration #  3     ecut=   100.00 Ry     beta=0.50
     Davidson diagonalization with overlap
     ethr =  5.36E-04,  avg # of iterations =  7.2

     total cpu time spent up to now is      900.4 secs

     total energy              =   -2998.87119331 Ry
     Harris-Foulkes estimate   =   -3000.25511621 Ry
     estimated scf accuracy    <       4.27789344 Ry

     iteration #  4     ecut=   100.00 Ry     beta=0.50
     Davidson diagonalization with overlap
     ethr =  5.36E-04,  avg # of iterations =  2.0

     total cpu time spent up to now is     1060.6 secs

     total energy              =   -2999.39552528 Ry
     Harris-Foulkes estimate   =   -2999.52308753 Ry
     estimated scf accuracy    <       0.32898773 Ry

     iteration #  5     ecut=   100.00 Ry     beta=0.50
     Davidson diagonalization with overlap
     ethr =  5.41E-05,  avg # of iterations =  7.8

     total cpu time spent up to now is     1390.5 secs

     total energy              =   -2999.50448634 Ry
     Harris-Foulkes estimate   =   -2999.52960113 Ry
     estimated scf accuracy    <       0.07627249 Ry

     iteration #  6     ecut=   100.00 Ry     beta=0.50
     Davidson diagonalization with overlap
     ethr =  1.25E-05,  avg # of iterations =  2.0

     total cpu time spent up to now is     1546.9 secs

     total energy              =   -2999.50579054 Ry
     Harris-Foulkes estimate   =   -2999.51137497 Ry
     estimated scf accuracy    <       0.01296561 Ry

     iteration #  7     ecut=   100.00 Ry     beta=0.50
     Davidson diagonalization with overlap
     ethr =  2.13E-06,  avg # of iterations =  5.8

     total cpu time spent up to now is     1893.4 secs

     total energy              =   -2999.51192342 Ry
     Harris-Foulkes estimate   =   -2999.51446117 Ry
     estimated scf accuracy    <       0.00876840 Ry

     iteration #  8     ecut=   100.00 Ry     beta=0.50
     Davidson diagonalization with overlap
     ethr =  1.44E-06,  avg # of iterations =  2.0

     total cpu time spent up to now is     2051.0 secs

     total energy              =   -2999.51232208 Ry
     Harris-Foulkes estimate   =   -2999.51301345 Ry
     estimated scf accuracy    <       0.00179495 Ry

     iteration #  9     ecut=   100.00 Ry     beta=0.50
     Davidson diagonalization with overlap
     ethr =  2.95E-07,  avg # of iterations =  3.0

     total cpu time spent up to now is     2265.8 secs

     total energy              =   -2999.51273355 Ry
     Harris-Foulkes estimate   =   -2999.51277714 Ry
     estimated scf accuracy    <       0.00014768 Ry

     iteration # 10     ecut=   100.00 Ry     beta=0.50
     Davidson diagonalization with overlap
     ethr =  2.43E-08,  avg # of iterations =  4.0

     total cpu time spent up to now is     2525.5 secs

     total energy              =   -2999.51277079 Ry
     Harris-Foulkes estimate   =   -2999.51279440 Ry
     estimated scf accuracy    <       0.00006684 Ry

     iteration # 11     ecut=   100.00 Ry     beta=0.50
     Davidson diagonalization with overlap
     ethr =  1.10E-08,  avg # of iterations =  2.0

     total cpu time spent up to now is     2684.4 secs

     total energy              =   -2999.51277445 Ry
     Harris-Foulkes estimate   =   -2999.51277729 Ry
     estimated scf accuracy    <       0.00000917 Ry

     iteration # 12     ecut=   100.00 Ry     beta=0.50
     Davidson diagonalization with overlap
     ethr =  1.51E-09,  avg # of iterations =  4.0

     total cpu time spent up to now is     3003.4 secs

     total energy              =   -2999.51278197 Ry
     Harris-Foulkes estimate   =   -2999.51278297 Ry
     estimated scf accuracy    <       0.00000392 Ry

     iteration # 13     ecut=   100.00 Ry     beta=0.50
     Davidson diagonalization with overlap
     ethr =  6.45E-10,  avg # of iterations =  1.0

     total cpu time spent up to now is     3156.1 secs

     total energy              =   -2999.51278138 Ry
     Harris-Foulkes estimate   =   -2999.51278215 Ry
     estimated scf accuracy    <       0.00000257 Ry

     iteration # 14     ecut=   100.00 Ry     beta=0.50
     Davidson diagonalization with overlap
     ethr =  4.23E-10,  avg # of iterations =  3.0

     total cpu time spent up to now is     3346.9 secs

     total energy              =   -2999.51278177 Ry
     Harris-Foulkes estimate   =   -2999.51278189 Ry
     estimated scf accuracy    <       0.00000034 Ry

     iteration # 15     ecut=   100.00 Ry     beta=0.50
     Davidson diagonalization with overlap
     ethr =  5.64E-11,  avg # of iterations =  3.8

     total cpu time spent up to now is     3550.2 secs

     total energy              =   -2999.51278184 Ry
     Harris-Foulkes estimate   =   -2999.51278188 Ry
     estimated scf accuracy    <       0.00000010 Ry

     iteration # 16     ecut=   100.00 Ry     beta=0.50
     Davidson diagonalization with overlap
     ethr =  1.60E-11,  avg # of iterations =  3.8

     total cpu time spent up to now is     3750.6 secs

     total energy              =   -2999.51278186 Ry
     Harris-Foulkes estimate   =   -2999.51278187 Ry
     estimated scf accuracy    <       0.00000003 Ry

     iteration # 17     ecut=   100.00 Ry     beta=0.50
     Davidson diagonalization with overlap
     ethr =  4.41E-12,  avg # of iterations =  4.0

     total cpu time spent up to now is     3971.4 secs

     End of self-consistent calculation

          k = 0.0000 0.0000 0.0000 (205867 PWs)   bands (ev):

   -21.7851 -21.7850 -21.7618 -21.7618 -21.7493 -21.7493 -21.7483 -21.7483
   -21.7008 -21.7008 -21.6809 -21.6809 -21.6686 -21.6686 -21.6679 -21.6679
   -19.4864 -19.4863 -19.3955 -19.3955 -19.1728 -19.1728 -19.1307 -19.1306
   -19.0755 -19.0755 -19.0320 -19.0320 -18.8502 -18.8502 -18.7308 -18.7307
   -17.8369 -17.8350 -17.8330 -17.8327 -17.8306 -17.8302 -17.8295 -17.8283
   -17.7510 -17.7489 -17.7481 -17.7467 -17.7451 -17.7444 -17.7385 -17.7384
   -14.3817 -14.3742 -14.3479 -14.3405 -14.3358 -14.3341 -14.3012 -14.2994
   -12.5189 -12.5091 -12.4957 -12.4863 -12.4625 -12.4596 -12.3902 -12.3882
   -12.2175 -12.2097 -12.2030 -12.2018 -12.1955 -12.1887 -12.1083 -12.1074
    -9.6931  -9.6926  -9.5849  -9.5790  -9.5777  -9.5762  -9.5557  -9.5470
    -9.3298  -9.3190  -9.3153  -9.3015  -9.2111  -9.2058  -9.0733  -9.0666
    -8.4406  -8.4348  -8.3908  -8.3748  -8.1657  -8.1493  -8.0573  -8.0570
    -7.1642  -7.1089  -7.1052  -7.0504  -7.0430  -7.0340  -7.0261  -7.0054
    -6.9308  -6.9185  -6.8983  -6.8872  -6.8852  -6.8587  -6.7425  -6.7188
    -6.5236  -6.5226  -6.3971  -6.3963  -6.3391  -6.3231  -6.3036  -6.2715
    -6.2143  -6.1739  -6.1201  -6.1143  -6.0952  -6.0495  -6.0075  -6.0019
    -5.9442  -5.9200  -5.9158  -5.9145  -5.8859  -5.8817  -5.8773  -5.8500
    -5.8096  -5.7704  -5.7655  -5.7432  -5.7382  -5.6880  -5.6660  -5.6066
    -5.5807  -5.5725  -5.5683  -5.5677  -5.5623  -5.5428  -5.5022  -5.4977
    -5.4635  -5.3896  -5.3495  -5.3446  -5.3374  -5.3002  -5.2788  -5.2622
    -4.8621  -4.8404  -4.8080  -4.7897  -4.7551  -4.7141  -4.5927  -4.5720
    -4.3676  -4.3347  -4.3324  -4.3271  -4.2919  -4.2378  -4.2192  -4.2137
    -4.1990  -4.1674  -4.0958  -4.0793  -4.0674  -4.0657  -4.0653  -4.0392
    -4.0322  -4.0048  -3.9721  -3.9560  -3.9399  -3.9296  -3.9014  -3.8814
    -3.8565  -3.8316  -3.7597  -3.7100  -3.6163  -3.5737  -3.5142  -3.4993
    -3.4898  -3.4438  -3.4254  -3.4053  -3.3994  -3.3506  -3.2142  -3.2045
    -3.1945  -3.1752  -3.1562  -3.1362  -3.1023  -3.0991  -3.0945  -3.0689
    -3.0558  -3.0212  -2.9663  -2.9227  -2.7403  -2.7217  -2.6971  -2.6706
    -2.4897  -2.4852  -2.4328  -2.4214  -2.4043  -2.3985  -2.3460  -2.3372
    -2.2539  -2.2426  -2.1278  -2.1169  -1.9964  -1.9932  -1.8879  -1.8548
    -1.8312  -1.8086  -1.7723  -1.7719  -1.7619  -1.7443  -1.5339  -1.4974
    -1.3242  -1.3091  -1.2525  -1.2383  -1.2137  -1.2098  -0.8870  -0.8755
    -0.7918  -0.7741  -0.7038  -0.6709  -0.6653  -0.6226  -0.6208  -0.5687
    -0.5582  -0.5171  -0.5097  -0.5074  -0.4825  -0.4824  -0.4789  -0.4580
    -0.3470  -0.3070  -0.2229  -0.1974  -0.1854  -0.1661  -0.1305  -0.1225
    -0.0699  -0.0664   0.0390   0.0399   0.0554   0.0577   0.0929   0.1197
     0.2424   0.3241   0.3313   0.3657   0.4675   0.4839   0.4902   0.5111
     0.7448   0.7452   0.7824   0.7902   0.8766   0.8832   0.9074   0.9167
     4.7091   4.7630   4.7743   4.8001   4.8342   4.8374   4.8712   4.8772
     4.9120   4.9234   4.9587   4.9756   5.0598   5.0756   5.1226   5.1272
     5.7760   5.8035   5.9056   5.9121   6.0252   6.0271   6.0882   6.0904
     6.1517   6.1613   6.1687   6.1976   6.2237   6.2243   6.2442   6.2498
     6.7792   6.7819   6.8118   6.8497   7.1861   7.2663   7.3343   7.3459
     7.3931   7.4704   7.5246   7.6083   7.6168   7.6203   7.6279   7.6361
     7.7214   7.7398   7.8188   7.8288   8.0144   8.0656   8.0945   8.1072
     8.1734   8.2089   8.2239   8.4838

          k = 0.0000-0.3480 0.0000 (205774 PWs)   bands (ev):

   -21.7710 -21.7710 -21.7709 -21.7709 -21.7551 -21.7551 -21.7551 -21.7551
   -21.6811 -21.6811 -21.6811 -21.6811 -21.6741 -21.6741 -21.6741 -21.6741
   -19.4449 -19.4449 -19.4448 -19.4448 -19.1561 -19.1561 -19.1561 -19.1561
   -19.0494 -19.0494 -19.0494 -19.0494 -18.7868 -18.7868 -18.7867 -18.7867
   -17.8338 -17.8338 -17.8328 -17.8328 -17.8311 -17.8311 -17.8303 -17.8303
   -17.7482 -17.7482 -17.7470 -17.7470 -17.7429 -17.7429 -17.7423 -17.7423
   -14.3428 -14.3428 -14.3421 -14.3421 -14.3371 -14.3371 -14.3366 -14.3366
   -12.4820 -12.4820 -12.4748 -12.4748 -12.4574 -12.4574 -12.4506 -12.4506
   -12.2078 -12.2078 -12.2014 -12.2014 -12.1523 -12.1523 -12.1460 -12.1460
    -9.6111  -9.6111  -9.6070  -9.6070  -9.5854  -9.5854  -9.5803  -9.5803
    -9.2875  -9.2875  -9.2775  -9.2775  -9.2100  -9.2100  -9.1968  -9.1968
    -8.3163  -8.3163  -8.3057  -8.3057  -8.2153  -8.2153  -8.2026  -8.2026
    -7.1024  -7.1024  -7.0567  -7.0567  -7.0280  -7.0280  -6.9977  -6.9977
    -6.8615  -6.8615  -6.8527  -6.8527  -6.8516  -6.8516  -6.8341  -6.8341
    -6.4246  -6.4246  -6.4228  -6.4228  -6.4122  -6.4122  -6.4085  -6.4085
    -6.1214  -6.1214  -6.0888  -6.0888  -6.0379  -6.0379  -6.0311  -6.0311
    -5.9682  -5.9682  -5.9073  -5.9073  -5.8693  -5.8693  -5.8430  -5.8430
    -5.8320  -5.8320  -5.7791  -5.7791  -5.7349  -5.7349  -5.6842  -5.6842
    -5.5959  -5.5959  -5.5576  -5.5576  -5.4798  -5.4798  -5.4738  -5.4738
    -5.3965  -5.3965  -5.3948  -5.3948  -5.3341  -5.3341  -5.3266  -5.3266
    -4.7798  -4.7798  -4.7529  -4.7529  -4.6810  -4.6810  -4.6607  -4.6607
    -4.2873  -4.2873  -4.2476  -4.2476  -4.2423  -4.2423  -4.2096  -4.2096
    -4.1585  -4.1585  -4.1363  -4.1363  -4.1093  -4.1093  -4.0482  -4.0482
    -4.0253  -4.0253  -3.9734  -3.9734  -3.9567  -3.9567  -3.9049  -3.9049
    -3.8025  -3.8025  -3.7055  -3.7055  -3.6791  -3.6791  -3.6289  -3.6289
    -3.4590  -3.4590  -3.4026  -3.4026  -3.3806  -3.3806  -3.3506  -3.3506
    -3.1726  -3.1725  -3.1205  -3.1205  -3.1062  -3.1062  -3.0509  -3.0509
    -2.8518  -2.8518  -2.8292  -2.8292  -2.8094  -2.8094  -2.8014  -2.8014
    -2.4327  -2.4327  -2.4227  -2.4227  -2.3858  -2.3857  -2.3782  -2.3782
    -2.0889  -2.0889  -2.0807  -2.0807  -2.0313  -2.0313  -2.0117  -2.0117
    -1.8727  -1.8727  -1.8575  -1.8575  -1.7012  -1.7012  -1.6661  -1.6661
    -1.1933  -1.1933  -1.1547  -1.1547  -1.0314  -1.0314  -1.0244  -1.0244
    -0.7325  -0.7325  -0.7323  -0.7323  -0.6043  -0.6043  -0.5841  -0.5841
    -0.5764  -0.5764  -0.5277  -0.5277  -0.4768  -0.4768  -0.4560  -0.4560
    -0.2687  -0.2687  -0.2586  -0.2586  -0.2181  -0.2181  -0.1945  -0.1945
    -0.0158  -0.0158  -0.0007  -0.0007   0.0766   0.0766   0.1214   0.1214
     0.3600   0.3600   0.3796   0.3796   0.4186   0.4186   0.4196   0.4196
     0.8132   0.8132   0.8192   0.8192   0.8406   0.8406   0.8520   0.8520
     4.7446   4.7446   4.7828   4.7828   4.8245   4.8245   4.8612   4.8612
     4.9232   4.9232   4.9363   4.9363   5.1038   5.1038   5.1130   5.1130
     5.9078   5.9078   5.9179   5.9179   5.9720   5.9720   5.9781   5.9781
     6.1981   6.1981   6.2046   6.2046   6.2160   6.2161   6.2320   6.2320
     6.7840   6.7840   6.8182   6.8182   7.2523   7.2523   7.3179   7.3179
     7.5295   7.5295   7.5402   7.5402   7.6139   7.6139   7.6303   7.6303
     7.7736   7.7736   7.9545   7.9545   8.1545   8.1545   8.2317   8.2317
     8.2364   8.2364   8.2596   8.2596

          k = 0.3333 0.0000 0.0000 (205745 PWs)   bands (ev):

   -21.7755 -21.7754 -21.7632 -21.7631 -21.7476 -21.7476 -21.7474 -21.7474
   -21.6984 -21.6984 -21.6876 -21.6875 -21.6715 -21.6715 -21.6710 -21.6710
   -19.4382 -19.4382 -19.3474 -19.3474 -19.3128 -19.3127 -19.2208 -19.2207
   -18.9998 -18.9998 -18.8922 -18.8922 -18.8912 -18.8911 -18.7747 -18.7746
   -17.8522 -17.8504 -17.8500 -17.8494 -17.8365 -17.8359 -17.8357 -17.8356
   -17.7435 -17.7410 -17.7387 -17.7376 -17.7306 -17.7304 -17.7290 -17.7279
   -14.3697 -14.3646 -14.3518 -14.3508 -14.3223 -14.3187 -14.3044 -14.3040
   -12.5092 -12.5009 -12.4901 -12.4898 -12.4513 -12.4488 -12.4117 -12.4082
   -12.2164 -12.2150 -12.2025 -12.1983 -12.1679 -12.1635 -12.1232 -12.1215
    -9.6668  -9.6657  -9.6215  -9.6191  -9.5693  -9.5683  -9.5661  -9.5605
    -9.3497  -9.3456  -9.3380  -9.3301  -9.1748  -9.1731  -9.1095  -9.1057
    -8.4308  -8.4239  -8.4041  -8.3925  -8.1376  -8.1264  -8.0837  -8.0801
    -7.1672  -7.1509  -7.1458  -7.1266  -7.0287  -7.0265  -7.0041  -7.0025
    -6.9193  -6.9155  -6.8773  -6.8705  -6.8406  -6.8190  -6.7551  -6.7478
    -6.4866  -6.4842  -6.4312  -6.4305  -6.2311  -6.2275  -6.2176  -6.1837
    -6.1080  -6.0698  -6.0687  -6.0662  -6.0203  -6.0014  -5.9844  -5.9630
    -5.9328  -5.9288  -5.9279  -5.9171  -5.8972  -5.8889  -5.8629  -5.8556
    -5.8431  -5.7897  -5.7829  -5.7553  -5.7456  -5.7270  -5.6829  -5.6704
    -5.6694  -5.6560  -5.6497  -5.6461  -5.5576  -5.5376  -5.5363  -5.5061
    -5.4902  -5.4243  -5.4013  -5.3331  -5.3239  -5.3027  -5.2611  -5.2431
    -4.8284  -4.8247  -4.7956  -4.7772  -4.6759  -4.6687  -4.6313  -4.6101
    -4.3389  -4.3320  -4.3196  -4.2988  -4.2966  -4.2603  -4.2483  -4.2382
    -4.1476  -4.1390  -4.1269  -4.1038  -4.0405  -4.0284  -4.0234  -4.0069
    -4.0002  -3.9904  -3.9669  -3.9652  -3.9193  -3.9113  -3.8951  -3.8936
    -3.8930  -3.8551  -3.8335  -3.8211  -3.6158  -3.6146  -3.5986  -3.5241
    -3.5144  -3.4816  -3.4710  -3.4489  -3.2776  -3.2724  -3.1808  -3.1712
    -3.1656  -3.1596  -3.1564  -3.1507  -3.1216  -3.1205  -3.0979  -3.0921
    -3.0849  -3.0373  -3.0160  -3.0067  -2.8083  -2.7952  -2.7527  -2.7398
    -2.5734  -2.5705  -2.5170  -2.5097  -2.4668  -2.4582  -2.4116  -2.4042
    -2.2381  -2.2287  -2.1933  -2.1860  -2.0123  -2.0106  -1.9020  -1.8778
    -1.8772  -1.8495  -1.7890  -1.7868  -1.5413  -1.5390  -1.5311  -1.5098
    -1.4384  -1.4209  -1.3585  -1.3539  -0.9526  -0.9387  -0.8498  -0.8118
    -0.7320  -0.7137  -0.6929  -0.6856  -0.6637  -0.5867  -0.5664  -0.5549
    -0.5476  -0.5346  -0.5124  -0.4956  -0.4919  -0.4801  -0.4705  -0.4555
    -0.2898  -0.2766  -0.2358  -0.2319  -0.1328  -0.1302  -0.1283  -0.1154
    -0.0079  -0.0026   0.0414   0.0481   0.0491   0.0529   0.1302   0.1416
     0.4478   0.4527   0.4540   0.4616   0.6209   0.6258   0.6276   0.6290
     0.6854   0.6884   0.7343   0.7411   0.8431   0.8493   0.8654   0.8728
     4.6245   4.6545   4.7005   4.7083   4.7842   4.7995   4.8017   4.8276
     4.8671   4.8916   4.9238   4.9297   5.0240   5.0396   5.0853   5.0899
     5.8525   5.8713   5.9167   5.9261   5.9354   5.9542   5.9677   5.9932
     6.0628   6.0735   6.0843   6.0904   6.1312   6.1315   6.1479   6.1521
     6.7365   6.7744   6.9768   6.9967   7.0170   7.0562   7.2172   7.2244
     7.2696   7.3322   7.4115   7.4236   7.4765   7.5014   7.5888   7.5983
     7.6956   7.6962   7.7681   7.7941   8.0227   8.0594   8.1634   8.1960
     8.2721   8.3717   8.3748   8.4578

          k = 0.3333-0.3480 0.0000 (205812 PWs)   bands (ev):

   -21.7641 -21.7641 -21.7641 -21.7641 -21.7558 -21.7558 -21.7557 -21.7557
   -21.6844 -21.6844 -21.6844 -21.6844 -21.6768 -21.6768 -21.6768 -21.6768
   -19.3973 -19.3973 -19.3972 -19.3972 -19.2741 -19.2741 -19.2741 -19.2741
   -18.9387 -18.9387 -18.9387 -18.9387 -18.8287 -18.8287 -18.8286 -18.8286
   -17.8452 -17.8452 -17.8440 -17.8439 -17.8429 -17.8429 -17.8416 -17.8416
   -17.7366 -17.7365 -17.7360 -17.7360 -17.7330 -17.7330 -17.7327 -17.7327
   -14.3380 -14.3380 -14.3377 -14.3377 -14.3341 -14.3341 -14.3338 -14.3338
   -12.4764 -12.4764 -12.4685 -12.4685 -12.4641 -12.4641 -12.4561 -12.4561
   -12.1896 -12.1896 -12.1859 -12.1859 -12.1615 -12.1615 -12.1581 -12.1581
    -9.6119  -9.6119  -9.6083  -9.6083  -9.6003  -9.6003  -9.5959  -9.5959
    -9.2740  -9.2740  -9.2694  -9.2694  -9.2353  -9.2353  -9.2267  -9.2267
    -8.2923  -8.2923  -8.2823  -8.2823  -8.2403  -8.2403  -8.2296  -8.2296
    -7.1222  -7.1221  -7.0902  -7.0902  -7.0838  -7.0838  -7.0576  -7.0576
    -6.8137  -6.8137  -6.8118  -6.8118  -6.7994  -6.7994  -6.7969  -6.7969
    -6.3601  -6.3601  -6.3476  -6.3476  -6.3417  -6.3417  -6.3408  -6.3408
    -6.0880  -6.0880  -6.0692  -6.0692  -6.0461  -6.0461  -6.0260  -6.0260
    -5.9272  -5.9272  -5.8973  -5.8973  -5.8648  -5.8648  -5.8600  -5.8600
    -5.8271  -5.8271  -5.8180  -5.8180  -5.7436  -5.7436  -5.7242  -5.7242
    -5.6254  -5.6254  -5.5861  -5.5861  -5.5765  -5.5765  -5.5484  -5.5484
    -5.4092  -5.4092  -5.3931  -5.3931  -5.3123  -5.3123  -5.2999  -5.2999
    -4.7592  -4.7592  -4.7202  -4.7202  -4.7190  -4.7190  -4.6752  -4.6752
    -4.2613  -4.2613  -4.2507  -4.2507  -4.2212  -4.2212  -4.2062  -4.2062
    -4.1757  -4.1757  -4.1437  -4.1437  -4.1031  -4.1031  -4.0682  -4.0682
    -3.9629  -3.9629  -3.9549  -3.9549  -3.9024  -3.9024  -3.8939  -3.8939
    -3.7812  -3.7812  -3.7199  -3.7199  -3.7061  -3.7061  -3.6735  -3.6735
    -3.4607  -3.4607  -3.4266  -3.4266  -3.4247  -3.4247  -3.3801  -3.3801
    -3.1479  -3.1479  -3.1206  -3.1206  -3.1055  -3.1055  -3.0805  -3.0805
    -2.8757  -2.8757  -2.8589  -2.8589  -2.8567  -2.8567  -2.8396  -2.8396
    -2.4786  -2.4786  -2.4719  -2.4719  -2.4541  -2.4541  -2.4451  -2.4451
    -2.1289  -2.1289  -2.1196  -2.1196  -2.1009  -2.1009  -2.0968  -2.0968
    -1.8298  -1.8298  -1.8145  -1.8145  -1.7443  -1.7443  -1.7268  -1.7268
    -1.0908  -1.0908  -1.0691  -1.0691  -1.0116  -1.0116  -0.9964  -0.9964
    -0.6960  -0.6960  -0.6914  -0.6914  -0.6188  -0.6188  -0.6004  -0.6004
    -0.5214  -0.5214  -0.5075  -0.5074  -0.4790  -0.4790  -0.4770  -0.4770
    -0.2256  -0.2256  -0.2142  -0.2142  -0.1970  -0.1970  -0.1796  -0.1796
     0.0135   0.0135   0.0272   0.0272   0.0950   0.0950   0.1133   0.1133
     0.5150   0.5150   0.5230   0.5230   0.5435   0.5435   0.5466   0.5466
     0.7803   0.7803   0.7861   0.7861   0.8113   0.8113   0.8192   0.8192
     4.6602   4.6602   4.6767   4.6767   4.8097   4.8098   4.8240   4.8240
     4.8859   4.8859   4.9018   4.9018   5.0550   5.0550   5.0563   5.0563
     5.9034   5.9034   5.9175   5.9176   5.9717   5.9717   5.9801   5.9801
     6.0711   6.0711   6.0768   6.0768   6.1208   6.1208   6.1209   6.1209
     6.8242   6.8242   6.8632   6.8632   7.0635   7.0635   7.1540   7.1540
     7.3538   7.3538   7.3970   7.3970   7.4245   7.4245   7.5302   7.5302
     7.8299   7.8299   7.9905   7.9905   8.0614   8.0614   8.1348   8.1348
     8.3610   8.3610   8.4545   8.4545

     highest occupied, lowest unoccupied level (ev):     0.9167    4.6245

!    total energy              =   -2999.51278186 Ry
     Harris-Foulkes estimate   =   -2999.51278187 Ry
     estimated scf accuracy    <          7.1E-09 Ry

     total all-electron energy =    -11416.082036 Ry

     The total energy is the sum of the following terms:

     one-electron contribution =   -1538.89062544 Ry
     hartree contribution      =    1002.46470443 Ry
     xc contribution           =    -633.30211902 Ry
     ewald contribution        =    -959.96712431 Ry
     Dispersion Correction     =      -0.93639453 Ry
     one-center paw contrib.   =    -868.88122300 Ry

     convergence has been achieved in  17 iterations

     Forces acting on atoms (cartesian axes, Ry/au):

     atom    1 type  4   force =     0.00074994    0.00007580    0.00119190
     atom    2 type  4   force =    -0.00074994   -0.00007580    0.00119190
     atom    3 type  4   force =    -0.00074936    0.00007590   -0.00119184
     atom    4 type  4   force =     0.00074936   -0.00007590   -0.00119184
     atom    5 type  4   force =    -0.00074994   -0.00007580   -0.00119190
     atom    6 type  4   force =     0.00074994    0.00007580   -0.00119190
     atom    7 type  4   force =     0.00074936   -0.00007590    0.00119184
     atom    8 type  4   force =    -0.00074936    0.00007590    0.00119184
     atom    9 type  3   force =    -0.00033301    0.00002824   -0.00010045
     atom   10 type  3   force =     0.00033301   -0.00002824   -0.00010045
     atom   11 type  3   force =     0.00033302    0.00002837    0.00010048
     atom   12 type  3   force =    -0.00033302   -0.00002837    0.00010048
     atom   13 type  3   force =     0.00033301   -0.00002824    0.00010045
     atom   14 type  3   force =    -0.00033301    0.00002824    0.00010045
     atom   15 type  3   force =    -0.00033302   -0.00002837   -0.00010048
     atom   16 type  3   force =     0.00033302    0.00002837   -0.00010048
     atom   17 type  4   force =     0.00196527    0.00151987   -0.00081017
     atom   18 type  4   force =    -0.00196527   -0.00151987   -0.00081017
     atom   19 type  4   force =    -0.00196521    0.00152101    0.00081133
     atom   20 type  4   force =     0.00196521   -0.00152101    0.00081133
     atom   21 type  4   force =    -0.00196527   -0.00151987    0.00081017
     atom   22 type  4   force =     0.00196527    0.00151987    0.00081017
     atom   23 type  4   force =     0.00196521   -0.00152101   -0.00081133
     atom   24 type  4   force =    -0.00196521    0.00152101   -0.00081133
     atom   25 type  3   force =    -0.00183316    0.00055056   -0.00049317
     atom   26 type  3   force =     0.00183316   -0.00055056   -0.00049317
     atom   27 type  3   force =     0.00183309    0.00055043    0.00049319
     atom   28 type  3   force =    -0.00183309   -0.00055043    0.00049319
     atom   29 type  3   force =     0.00183316   -0.00055056    0.00049317
     atom   30 type  3   force =    -0.00183316    0.00055056    0.00049317
     atom   31 type  3   force =    -0.00183309   -0.00055043   -0.00049319
     atom   32 type  3   force =     0.00183309    0.00055043   -0.00049319
     atom   33 type  2   force =    -0.00020073   -0.00026397   -0.00039768
     atom   34 type  2   force =     0.00020073    0.00026397   -0.00039768
     atom   35 type  2   force =     0.00019980   -0.00026418    0.00039661
     atom   36 type  2   force =    -0.00019980    0.00026418    0.00039661
     atom   37 type  2   force =     0.00020073    0.00026397    0.00039768
     atom   38 type  2   force =    -0.00020073   -0.00026397    0.00039768
     atom   39 type  2   force =    -0.00019980    0.00026418   -0.00039661
     atom   40 type  2   force =     0.00019980   -0.00026418   -0.00039661
     atom   41 type  2   force =     0.00019177   -0.00056534    0.00134147
     atom   42 type  2   force =    -0.00019177    0.00056534    0.00134147
     atom   43 type  2   force =    -0.00019158   -0.00056524   -0.00134015
     atom   44 type  2   force =     0.00019158    0.00056524   -0.00134015
     atom   45 type  2   force =    -0.00019177    0.00056534   -0.00134147
     atom   46 type  2   force =     0.00019177   -0.00056534   -0.00134147
     atom   47 type  2   force =     0.00019158    0.00056524    0.00134015
     atom   48 type  2   force =    -0.00019158   -0.00056524    0.00134015
     atom   49 type  2   force =     0.00079774    0.00091942   -0.00079408
     atom   50 type  2   force =    -0.00079774   -0.00091942   -0.00079408
     atom   51 type  2   force =    -0.00079760    0.00091962    0.00079287
     atom   52 type  2   force =     0.00079760   -0.00091962    0.00079287
     atom   53 type  2   force =    -0.00079774   -0.00091942    0.00079408
     atom   54 type  2   force =     0.00079774    0.00091942    0.00079408
     atom   55 type  2   force =     0.00079760   -0.00091962   -0.00079287
     atom   56 type  2   force =    -0.00079760    0.00091962   -0.00079287
     atom   57 type  2   force =    -0.00134876   -0.00295065    0.00308811
     atom   58 type  2   force =     0.00134876    0.00295065    0.00308811
     atom   59 type  2   force =     0.00134936   -0.00295067   -0.00308773
     atom   60 type  2   force =    -0.00134936    0.00295067   -0.00308773
     atom   61 type  2   force =     0.00134876    0.00295065   -0.00308811
     atom   62 type  2   force =    -0.00134876   -0.00295065   -0.00308811
     atom   63 type  2   force =    -0.00134936    0.00295067    0.00308773
     atom   64 type  2   force =     0.00134936   -0.00295067    0.00308773
     atom   65 type  2   force =    -0.00534013    0.00250378   -0.00545134
     atom   66 type  2   force =     0.00534013   -0.00250378   -0.00545134
     atom   67 type  2   force =     0.00534016    0.00250435    0.00545125
     atom   68 type  2   force =    -0.00534016   -0.00250435    0.00545125
     atom   69 type  2   force =     0.00534013   -0.00250378    0.00545134
     atom   70 type  2   force =    -0.00534013    0.00250378    0.00545134
     atom   71 type  2   force =    -0.00534016   -0.00250435   -0.00545125
     atom   72 type  2   force =     0.00534016    0.00250435   -0.00545125
     atom   73 type  2   force =     0.00827078   -0.00038446   -0.00075868
     atom   74 type  2   force =    -0.00827078    0.00038446   -0.00075868
     atom   75 type  2   force =    -0.00827035   -0.00038436    0.00075883
     atom   76 type  2   force =     0.00827035    0.00038436    0.00075883
     atom   77 type  2   force =    -0.00827078    0.00038446    0.00075868
     atom   78 type  2   force =     0.00827078   -0.00038446    0.00075868
     atom   79 type  2   force =     0.00827035    0.00038436   -0.00075883
     atom   80 type  2   force =    -0.00827035   -0.00038436   -0.00075883
     atom   81 type  1   force =    -0.00146788    0.00052339    0.00078890
     atom   82 type  1   force =     0.00146788   -0.00052339    0.00078890
     atom   83 type  1   force =     0.00146766    0.00053154   -0.00078943
     atom   84 type  1   force =    -0.00146766   -0.00053154   -0.00078943
     atom   85 type  1   force =     0.00146788   -0.00052339   -0.00078890
     atom   86 type  1   force =    -0.00146788    0.00052339   -0.00078890
     atom   87 type  1   force =    -0.00146766   -0.00053154    0.00078943
     atom   88 type  1   force =     0.00146766    0.00053154    0.00078943
     atom   89 type  3   force =     0.00114737   -0.00107404   -0.00053354
     atom   90 type  3   force =    -0.00114737    0.00107404   -0.00053354
     atom   91 type  3   force =    -0.00114740   -0.00107391    0.00053356
     atom   92 type  3   force =     0.00114740    0.00107391    0.00053356
     atom   93 type  3   force =    -0.00114737    0.00107404    0.00053354
     atom   94 type  3   force =     0.00114737   -0.00107404    0.00053354
     atom   95 type  3   force =     0.00114740    0.00107391   -0.00053356
     atom   96 type  3   force =    -0.00114740   -0.00107391   -0.00053356
     atom   97 type  1   force =    -0.00057264    0.00022888   -0.00044394
     atom   98 type  1   force =     0.00057264   -0.00022888   -0.00044394
     atom   99 type  1   force =     0.00057308    0.00021093    0.00044474
     atom  100 type  1   force =    -0.00057308   -0.00021093    0.00044474
     atom  101 type  1   force =     0.00057264   -0.00022888    0.00044394
     atom  102 type  1   force =    -0.00057264    0.00022888    0.00044394
     atom  103 type  1   force =    -0.00057308   -0.00021093   -0.00044474
     atom  104 type  1   force =     0.00057308    0.00021093   -0.00044474
     atom  105 type  3   force =     0.00052086    0.00000846    0.00072799
     atom  106 type  3   force =    -0.00052086   -0.00000846    0.00072799
     atom  107 type  3   force =    -0.00052089    0.00000818   -0.00072790
     atom  108 type  3   force =     0.00052089   -0.00000818   -0.00072790
     atom  109 type  3   force =    -0.00052086   -0.00000846   -0.00072799
     atom  110 type  3   force =     0.00052086    0.00000846   -0.00072799
     atom  111 type  3   force =     0.00052089   -0.00000818    0.00072790
     atom  112 type  3   force =    -0.00052089    0.00000818    0.00072790
     atom  113 type  3   force =    -0.00035268   -0.00019575    0.00050005
     atom  114 type  3   force =     0.00035268    0.00019575    0.00050005
     atom  115 type  3   force =     0.00035275   -0.00019584   -0.00050002
     atom  116 type  3   force =    -0.00035275    0.00019584   -0.00050002
     atom  117 type  3   force =     0.00035268    0.00019575   -0.00050005
     atom  118 type  3   force =    -0.00035268   -0.00019575   -0.00050005
     atom  119 type  3   force =    -0.00035275    0.00019584    0.00050002
     atom  120 type  3   force =     0.00035275   -0.00019584    0.00050002
     atom  121 type  1   force =     0.00058661    0.00003909    0.00051275
     atom  122 type  1   force =    -0.00058661   -0.00003909    0.00051275
     atom  123 type  1   force =    -0.00058763    0.00004629   -0.00051307
     atom  124 type  1   force =     0.00058763   -0.00004629   -0.00051307
     atom  125 type  1   force =    -0.00058661   -0.00003909   -0.00051275
     atom  126 type  1   force =     0.00058661    0.00003909   -0.00051275
     atom  127 type  1   force =     0.00058763   -0.00004629    0.00051307
     atom  128 type  1   force =    -0.00058763    0.00004629    0.00051307
     atom  129 type  3   force =     0.00080995   -0.00012689    0.00065643
     atom  130 type  3   force =    -0.00080995    0.00012689    0.00065643
     atom  131 type  3   force =    -0.00080963   -0.00012728   -0.00065641
     atom  132 type  3   force =     0.00080963    0.00012728   -0.00065641
     atom  133 type  3   force =    -0.00080995    0.00012689   -0.00065643
     atom  134 type  3   force =     0.00080995   -0.00012689   -0.00065643
     atom  135 type  3   force =     0.00080963    0.00012728    0.00065641
     atom  136 type  3   force =    -0.00080963   -0.00012728    0.00065641
     atom  137 type  1   force =    -0.00115863    0.00112965    0.00061499
     atom  138 type  1   force =     0.00115863   -0.00112965    0.00061499
     atom  139 type  1   force =     0.00115855    0.00111093   -0.00061474
     atom  140 type  1   force =    -0.00115855   -0.00111093   -0.00061474
     atom  141 type  1   force =     0.00115863   -0.00112965   -0.00061499
     atom  142 type  1   force =    -0.00115863    0.00112965   -0.00061499
     atom  143 type  1   force =    -0.00115855   -0.00111093    0.00061474
     atom  144 type  1   force =     0.00115855    0.00111093    0.00061474
     atom  145 type  3   force =    -0.00077634   -0.00010393   -0.00061869
     atom  146 type  3   force =     0.00077634    0.00010393   -0.00061869
     atom  147 type  3   force =     0.00077622   -0.00010431    0.00061873
     atom  148 type  3   force =    -0.00077622    0.00010431    0.00061873
     atom  149 type  3   force =     0.00077634    0.00010393    0.00061869
     atom  150 type  3   force =    -0.00077634   -0.00010393    0.00061869
     atom  151 type  3   force =    -0.00077622    0.00010431   -0.00061873
     atom  152 type  3   force =     0.00077622   -0.00010431   -0.00061873
     atom  153 type  1   force =     0.00215960    0.00151095    0.00347325
     atom  154 type  1   force =    -0.00215960   -0.00151095    0.00347325
     atom  155 type  1   force =    -0.00216004    0.00149254   -0.00347317
     atom  156 type  1   force =     0.00216004   -0.00149254   -0.00347317
     atom  157 type  1   force =    -0.00215960   -0.00151095   -0.00347325
     atom  158 type  1   force =     0.00215960    0.00151095   -0.00347325
     atom  159 type  1   force =     0.00216004   -0.00149254    0.00347317
     atom  160 type  1   force =    -0.00216004    0.00149254    0.00347317
     atom  161 type  3   force =    -0.00396875   -0.00149478    0.00113020
     atom  162 type  3   force =     0.00396875    0.00149478    0.00113020
     atom  163 type  3   force =     0.00396887   -0.00149499   -0.00113020
     atom  164 type  3   force =    -0.00396887    0.00149499   -0.00113020
     atom  165 type  3   force =     0.00396875    0.00149478   -0.00113020
     atom  166 type  3   force =    -0.00396875   -0.00149478   -0.00113020
     atom  167 type  3   force =    -0.00396887    0.00149499    0.00113020
     atom  168 type  3   force =     0.00396887   -0.00149499    0.00113020
     atom  169 type  3   force =     0.00026687   -0.00022493   -0.00034861
     atom  170 type  3   force =    -0.00026687    0.00022493   -0.00034861
     atom  171 type  3   force =    -0.00026688   -0.00022531    0.00034853
     atom  172 type  3   force =     0.00026688    0.00022531    0.00034853
     atom  173 type  3   force =    -0.00026687    0.00022493    0.00034861
     atom  174 type  3   force =     0.00026687   -0.00022493    0.00034861
     atom  175 type  3   force =     0.00026688    0.00022531   -0.00034853
     atom  176 type  3   force =    -0.00026688   -0.00022531   -0.00034853
     atom  177 type  1   force =     0.00078028   -0.00158502   -0.00121473
     atom  178 type  1   force =    -0.00078028    0.00158502   -0.00121473
     atom  179 type  1   force =    -0.00077980   -0.00158694    0.00121520
     atom  180 type  1   force =     0.00077980    0.00158694    0.00121520
     atom  181 type  1   force =    -0.00078028    0.00158502    0.00121473
     atom  182 type  1   force =     0.00078028   -0.00158502    0.00121473
     atom  183 type  1   force =     0.00077980    0.00158694   -0.00121520
     atom  184 type  1   force =    -0.00077980   -0.00158694   -0.00121520
     atom  185 type  3   force =     0.00076818    0.00057111    0.00010007
     atom  186 type  3   force =    -0.00076818   -0.00057111    0.00010007
     atom  187 type  3   force =    -0.00076822    0.00057152   -0.00010025
     atom  188 type  3   force =     0.00076822   -0.00057152   -0.00010025
     atom  189 type  3   force =    -0.00076818   -0.00057111   -0.00010007
     atom  190 type  3   force =     0.00076818    0.00057111   -0.00010007
     atom  191 type  3   force =     0.00076822   -0.00057152    0.00010025
     atom  192 type  3   force =    -0.00076822    0.00057152    0.00010025

     Total force =     0.042743     Total SCF correction =     0.000214


     Computing stress (Cartesian axis) and pressure

          total   stress  (Ry/bohr**3)                   (kbar)     P=   -7.04
  -0.00002921  -0.00000000   0.00000000         -4.30     -0.00      0.00
  -0.00000000  -0.00004837   0.00000000         -0.00     -7.12      0.00
   0.00000000   0.00000000  -0.00006591          0.00      0.00     -9.70


     Writing output data file scf.save
 
     init_run     :     97.38s CPU    101.21s WALL (       1 calls)
     electrons    :   3725.21s CPU   3869.84s WALL (       1 calls)
     forces       :     50.87s CPU     51.50s WALL (       1 calls)
     stress       :    430.45s CPU    431.15s WALL (       1 calls)

     Called by init_run:
     wfcinit      :     83.92s CPU     87.42s WALL (       1 calls)
     potinit      :      4.72s CPU      4.78s WALL (       1 calls)

     Called by electrons:
     c_bands      :   3366.08s CPU   3487.67s WALL (      17 calls)
     sum_band     :    326.63s CPU    345.47s WALL (      17 calls)
     v_of_rho     :      4.33s CPU      4.79s WALL (      18 calls)
     newd         :     12.17s CPU     15.87s WALL (      18 calls)
     PAW_pot      :     14.70s CPU     14.72s WALL (      18 calls)
     mix_rho      :      1.17s CPU      1.29s WALL (      17 calls)

     Called by c_bands:
     init_us_2    :     17.40s CPU     17.51s WALL (     148 calls)
     cegterg      :   3296.43s CPU   3417.94s WALL (      68 calls)

     Called by sum_band:
     sum_band:bec :      0.19s CPU      0.19s WALL (      68 calls)
     addusdens    :     12.22s CPU     15.70s WALL (      17 calls)

     Called by *egterg:
     h_psi        :   1696.39s CPU   1792.72s WALL (     325 calls)
     s_psi        :    425.86s CPU    426.16s WALL (     325 calls)
     g_psi        :      9.36s CPU      9.38s WALL (     253 calls)
     cdiaghg      :    213.92s CPU    214.02s WALL (     321 calls)

     Called by h_psi:
     h_psi:pot    :   1685.42s CPU   1781.55s WALL (     325 calls)
     h_psi:calbec :    413.87s CPU    414.55s WALL (     325 calls)
     vloc_psi     :    845.82s CPU    940.92s WALL (     325 calls)
     add_vuspsi   :    425.73s CPU    426.08s WALL (     325 calls)

     General routines
     calbec       :    601.14s CPU    602.11s WALL (     413 calls)
     fft          :      2.54s CPU      3.28s WALL (     258 calls)
     fftw         :    904.90s CPU   1014.68s WALL (  164276 calls)
 
     Parallel routines
     fft_scatter  :    134.16s CPU    243.78s WALL (  164534 calls)
 
     PWSCF        :     1h12m CPU        1h15m WALL

 
   This run was terminated on:   7:12:42   4Nov2017            

=------------------------------------------------------------------------------=
   JOB DONE.
=------------------------------------------------------------------------------=
