
     Program PWSCF v.6.1 (svn rev. 13369) starts on 10Dec2017 at  7:15:39 

     This program is part of the open-source Quantum ESPRESSO suite
     for quantum simulation of materials; please cite
         "P. Giannozzi et al., J. Phys.:Condens. Matter 21 395502 (2009);
          URL http://www.quantum-espresso.org", 
     in publications or presentations arising from this work. More details at
     http://www.quantum-espresso.org/quote

     Parallel version (MPI), running on     8 processors
     R & G space division:  proc/nbgrp/npool/nimage =       8
     Waiting for input...
     Reading input from standard input

     Current dimensions of program PWSCF are:
     Max number of different atomic species (ntypx) = 10
     Max number of k-points (npk) =  40000
     Max angular momentum in pseudopotentials (lmaxx) =  3
               file C.pbe-n-kjpaw_psl.0.1.UPF: wavefunction(s)  2P renormalized
               file N.pbe-n-kjpaw_psl.0.1.UPF: wavefunction(s)  2P renormalized
               file H.pbe-kjpaw_psl.0.1.UPF: wavefunction(s)  1S renormalized
               file O.pbe-n-kjpaw_psl.0.1.UPF: wavefunction(s)  2P renormalized

     -------------------------------------
     Parameters for Dispersion Correction:
     -------------------------------------
       atom      VdW radius       C_6     

        C          2.744         60.710
        N          2.640         42.670
        H          1.892          4.857
        O          2.536         24.284

     Subspace diagonalization in iterative solution of the eigenvalue problem:
     a serial algorithm will be used

 
     Parallelization info
     --------------------
     sticks:   dense  smooth     PW     G-vecs:    dense   smooth      PW
     Min         564     564    150                44292    44292    6100
     Max         565     565    151                44296    44296    6103
     Sum        4517    4517   1201               354347   354347   48817
 


     bravais-lattice index     =            0
     lattice parameter (alat)  =      11.4956  a.u.
     unit-cell volume          =    2622.8217 (a.u.)^3
     number of atoms/cell      =           40
     number of atomic types    =            4
     number of electrons       =       136.00
     number of Kohn-Sham states=           81
     kinetic-energy cutoff     =     100.0000  Ry
     charge density cutoff     =     400.0000  Ry
     convergence threshold     =      1.0E-08
     mixing beta               =       0.5000
     number of iterations used =            8  plain     mixing
     Exchange-correlation      =  SLA  PW   PBX  PBC ( 1  4  3  4 0 0)

     celldm(1)=  11.495582  celldm(2)=   0.000000  celldm(3)=   0.000000
     celldm(4)=   0.000000  celldm(5)=   0.000000  celldm(6)=   0.000000

     crystal axes: (cart. coord. in units of alat)
               a(1) = (   1.000000   0.000000   0.000000 )  
               a(2) = (  -0.325039   1.073329   0.000000 )  
               a(3) = (  -0.045196  -0.036494   1.608581 )  

     reciprocal axes: (cart. coord. in units 2 pi/alat)
               b(1) = (  1.000000  0.302832  0.034967 )  
               b(2) = (  0.000000  0.931681  0.021137 )  
               b(3) = (  0.000000  0.000000  0.621666 )  


     PseudoPot. # 1 for  C read from file:
     /scratch/ahofstet/pseudo/C.pbe-n-kjpaw_psl.0.1.UPF
     MD5 check sum: 430fe95172b1e11ef3f8ed03bac87931
     Pseudo is Projector augmented-wave + core cor, Zval =  4.0
     Generated using "atomic" code by A. Dal Corso  v.5.0.99 svn rev. 10869
     Shape of augmentation charge: BESSEL
     Using radial grid of 1073 points,  4 beta functions with: 
                l(1) =   0
                l(2) =   0
                l(3) =   1
                l(4) =   1
     Q(r) pseudized with 0 coefficients 


     PseudoPot. # 2 for  N read from file:
     /scratch/ahofstet/pseudo/N.pbe-n-kjpaw_psl.0.1.UPF
     MD5 check sum: f73187c8b701007e77325f868c9291d7
     Pseudo is Projector augmented-wave + core cor, Zval =  5.0
     Generated using "atomic" code by A. Dal Corso  v.5.0.99 svn rev. 10869
     Shape of augmentation charge: PSQ
     Using radial grid of 1085 points,  4 beta functions with: 
                l(1) =   0
                l(2) =   0
                l(3) =   1
                l(4) =   1
     Q(r) pseudized with 0 coefficients 


     PseudoPot. # 3 for  H read from file:
     /scratch/ahofstet/pseudo/H.pbe-kjpaw_psl.0.1.UPF
     MD5 check sum: 94e484f906d9e9773b2f6e52662335b2
     Pseudo is Projector augmented-wave, Zval =  1.0
     Generated using "atomic" code by A. Dal Corso  v.5.0.99 svn rev. 10869
     Shape of augmentation charge: PSQ
     Using radial grid of  929 points,  2 beta functions with: 
                l(1) =   0
                l(2) =   0
     Q(r) pseudized with 0 coefficients 


     PseudoPot. # 4 for  O read from file:
     /scratch/ahofstet/pseudo/O.pbe-n-kjpaw_psl.0.1.UPF
     MD5 check sum: 3f94a2996a3169367d6eb21d9b593f20
     Pseudo is Projector augmented-wave + core cor, Zval =  6.0
     Generated using "atomic" code by A. Dal Corso  v.5.0.99 svn rev. 10869
     Shape of augmentation charge: BESSEL
     Using radial grid of 1095 points,  4 beta functions with: 
                l(1) =   0
                l(2) =   0
                l(3) =   1
                l(4) =   1
     Q(r) pseudized with 0 coefficients 


     atomic species   valence    mass     pseudopotential
        C              4.00    12.01070      C( 1.00)
        N              5.00    14.00670      N( 1.00)
        H              1.00     1.00794      H( 1.00)
        O              6.00    15.99940      O( 1.00)

      2 Sym. Ops., with inversion, found



   Cartesian axes

     site n.     atom                  positions (alat units)
         1           O   tau(   1) = (   0.6770356   0.2366151   1.6128038  )
         2           O   tau(   2) = (  -0.0472703   0.8002203  -0.0042226  )
         3           H   tau(   3) = (   0.6638955   0.3893589   1.5407038  )
         4           H   tau(   4) = (  -0.0341303   0.6474765   0.0678775  )
         5           O   tau(   5) = (   0.0099549   0.4238743   0.1823755  )
         6           O   tau(   6) = (   0.6198103   0.6129610   1.4262058  )
         7           O   tau(   7) = (   0.1462229   0.3179264   0.6379180  )
         8           O   tau(   8) = (   0.4835423   0.7189089   0.9706633  )
         9           O   tau(   9) = (   0.4045901   0.1961179   0.4196227  )
        10           O   tau(  10) = (   0.2251751   0.8407175   1.1889586  )
        11           N   tau(  11) = (   0.2167666   0.1932708   0.4950443  )
        12           N   tau(  12) = (   0.4129986   0.8435646   1.1135369  )
        13           C   tau(  13) = (   0.9046962   0.0528970   0.2648639  )
        14           C   tau(  14) = (  -0.2749310   0.9839384   1.3437174  )
        15           C   tau(  15) = (   0.0678140   0.0148875   0.4235825  )
        16           C   tau(  16) = (   0.5619512   1.0219478   1.1849987  )
        17           C   tau(  17) = (  -0.2334083   0.8866467   0.5331541  )
        18           C   tau(  18) = (   0.8631735   0.1501887   1.0754272  )
        19           C   tau(  19) = (   0.6137329   0.7220105   0.4816373  )
        20           C   tau(  20) = (   0.0160323   0.3148249   1.1269440  )
        21           H   tau(  21) = (   0.6266170   0.5639758   0.5648204  )
        22           H   tau(  22) = (   0.0031483   0.4728596   1.0437608  )
        23           C   tau(  23) = (   0.4499930   0.7538637   0.3250098  )
        24           C   tau(  24) = (   0.1797722   0.2829716   1.2835715  )
        25           H   tau(  25) = (   0.3363626   0.6207850   0.2881360  )
        26           H   tau(  26) = (   0.2934026   0.4160504   1.3204452  )
        27           C   tau(  27) = (   0.4341515   0.9540444   0.2156515  )
        28           C   tau(  28) = (   0.1956138   0.0827910   1.3929298  )
        29           H   tau(  29) = (   0.3086143   0.9798972   0.0911867  )
        30           H   tau(  30) = (   0.3211509   0.0569382   1.5173945  )
        31           C   tau(  31) = (   0.8839154   0.2668794   0.1478638  )
        32           C   tau(  32) = (  -0.2541502   0.7699560   1.4607175  )
        33           C   tau(  33) = (  -0.0585735   0.8453166   0.7022721  )
        34           C   tau(  34) = (   0.6883387   0.1915188   0.9063092  )
        35           H   tau(  35) = (   0.1006249   0.9135999   0.6520905  )
        36           H   tau(  36) = (   0.5291403   0.1232354   0.9564907  )
        37           H   tau(  37) = (  -0.1037716   0.9176837   0.8616831  )
        38           H   tau(  38) = (   0.7335368   0.1191517   0.7468982  )
        39           H   tau(  39) = (  -0.0372485   0.6681512   0.7259548  )
        40           H   tau(  40) = (   0.6670137   0.3686842   0.8826265  )

     number of k points=    10
                       cart. coord. in units 2pi/alat
        k(    1) = (   0.0000000   0.0000000   0.0000000), wk =   0.1111111
        k(    2) = (   0.0000000   0.0000000  -0.3108329), wk =   0.1111111
        k(    3) = (   0.0000000   0.3105603   0.0070456), wk =   0.2222222
        k(    4) = (   0.0000000   0.3105603  -0.3037873), wk =   0.2222222
        k(    5) = (   0.3333333   0.1009441   0.0116558), wk =   0.2222222
        k(    6) = (   0.3333333   0.1009441  -0.2991772), wk =   0.2222222
        k(    7) = (   0.3333333   0.4115043   0.0187014), wk =   0.2222222
        k(    8) = (   0.3333333   0.4115043  -0.2921315), wk =   0.2222222
        k(    9) = (   0.3333333  -0.2096162   0.0046101), wk =   0.2222222
        k(   10) = (   0.3333333  -0.2096162  -0.3062228), wk =   0.2222222

     Dense  grid:   354347 G-vectors     FFT dimensions: (  75,  90, 120)

     Estimated max dynamical RAM per process >     180.16MB

     Estimated total allocated dynamical RAM >    1441.25MB

     Check: negative/imaginary core charge=   -0.000002    0.000000

     Initial potential from superposition of free atoms

     starting charge  135.99917, renormalised to  136.00000
     Starting wfc are  118 randomized atomic wfcs
     Checking if some PAW data can be deallocated... 

     total cpu time spent up to now is       11.8 secs

     per-process dynamical memory:   200.0 Mb

     Self-consistent Calculation

     iteration #  1     ecut=   100.00 Ry     beta=0.50
     Davidson diagonalization with overlap
     ethr =  1.00E-02,  avg # of iterations =  3.0

     total cpu time spent up to now is       31.6 secs

     total energy              =    -700.13379948 Ry
     Harris-Foulkes estimate   =    -702.57543834 Ry
     estimated scf accuracy    <       4.43402776 Ry

     iteration #  2     ecut=   100.00 Ry     beta=0.50
     Davidson diagonalization with overlap
     ethr =  3.26E-03,  avg # of iterations =  3.0

     total cpu time spent up to now is       44.3 secs

     total energy              =    -700.57513966 Ry
     Harris-Foulkes estimate   =    -700.98879444 Ry
     estimated scf accuracy    <       0.82350023 Ry

     iteration #  3     ecut=   100.00 Ry     beta=0.50
     Davidson diagonalization with overlap
     ethr =  6.06E-04,  avg # of iterations =  7.1

     total cpu time spent up to now is       67.2 secs

     total energy              =    -701.01197670 Ry
     Harris-Foulkes estimate   =    -701.17870581 Ry
     estimated scf accuracy    <       0.40997946 Ry

     iteration #  4     ecut=   100.00 Ry     beta=0.50
     Davidson diagonalization with overlap
     ethr =  3.01E-04,  avg # of iterations =  1.2

     total cpu time spent up to now is       78.1 secs

     total energy              =    -700.99753706 Ry
     Harris-Foulkes estimate   =    -701.04856720 Ry
     estimated scf accuracy    <       0.08823789 Ry

     iteration #  5     ecut=   100.00 Ry     beta=0.50
     Davidson diagonalization with overlap
     ethr =  6.49E-05,  avg # of iterations =  5.9

     total cpu time spent up to now is      101.0 secs

     total energy              =    -701.06386955 Ry
     Harris-Foulkes estimate   =    -701.10128517 Ry
     estimated scf accuracy    <       0.13751111 Ry

     iteration #  6     ecut=   100.00 Ry     beta=0.50
     Davidson diagonalization with overlap
     ethr =  6.49E-05,  avg # of iterations =  2.0

     total cpu time spent up to now is      112.5 secs

     total energy              =    -701.05391174 Ry
     Harris-Foulkes estimate   =    -701.07407791 Ry
     estimated scf accuracy    <       0.05726320 Ry

     iteration #  7     ecut=   100.00 Ry     beta=0.50
     Davidson diagonalization with overlap
     ethr =  4.21E-05,  avg # of iterations =  3.3

     total cpu time spent up to now is      125.8 secs

     total energy              =    -701.06052351 Ry
     Harris-Foulkes estimate   =    -701.06317854 Ry
     estimated scf accuracy    <       0.00469551 Ry

     iteration #  8     ecut=   100.00 Ry     beta=0.50
     Davidson diagonalization with overlap
     ethr =  3.45E-06,  avg # of iterations =  7.4

     total cpu time spent up to now is      149.5 secs

     total energy              =    -701.06336370 Ry
     Harris-Foulkes estimate   =    -701.06389112 Ry
     estimated scf accuracy    <       0.00125040 Ry

     iteration #  9     ecut=   100.00 Ry     beta=0.50
     Davidson diagonalization with overlap
     ethr =  9.19E-07,  avg # of iterations =  1.3

     total cpu time spent up to now is      160.4 secs

     total energy              =    -701.06330932 Ry
     Harris-Foulkes estimate   =    -701.06344459 Ry
     estimated scf accuracy    <       0.00024633 Ry

     iteration # 10     ecut=   100.00 Ry     beta=0.50
     Davidson diagonalization with overlap
     ethr =  1.81E-07,  avg # of iterations =  4.5

     total cpu time spent up to now is      180.5 secs

     total energy              =    -701.06353678 Ry
     Harris-Foulkes estimate   =    -701.06360755 Ry
     estimated scf accuracy    <       0.00021261 Ry

     iteration # 11     ecut=   100.00 Ry     beta=0.50
     Davidson diagonalization with overlap
     ethr =  1.56E-07,  avg # of iterations =  1.0

     total cpu time spent up to now is      191.2 secs

     total energy              =    -701.06349148 Ry
     Harris-Foulkes estimate   =    -701.06354280 Ry
     estimated scf accuracy    <       0.00008563 Ry

     iteration # 12     ecut=   100.00 Ry     beta=0.50
     Davidson diagonalization with overlap
     ethr =  6.30E-08,  avg # of iterations =  4.0

     total cpu time spent up to now is      209.3 secs

     total energy              =    -701.06353968 Ry
     Harris-Foulkes estimate   =    -701.06355054 Ry
     estimated scf accuracy    <       0.00003196 Ry

     iteration # 13     ecut=   100.00 Ry     beta=0.50
     Davidson diagonalization with overlap
     ethr =  2.35E-08,  avg # of iterations =  1.0

     total cpu time spent up to now is      220.0 secs

     total energy              =    -701.06353434 Ry
     Harris-Foulkes estimate   =    -701.06354067 Ry
     estimated scf accuracy    <       0.00001274 Ry

     iteration # 14     ecut=   100.00 Ry     beta=0.50
     Davidson diagonalization with overlap
     ethr =  9.37E-09,  avg # of iterations =  4.0

     total cpu time spent up to now is      237.1 secs

     total energy              =    -701.06354059 Ry
     Harris-Foulkes estimate   =    -701.06354076 Ry
     estimated scf accuracy    <       0.00000118 Ry

     iteration # 15     ecut=   100.00 Ry     beta=0.50
     Davidson diagonalization with overlap
     ethr =  8.70E-10,  avg # of iterations =  1.0

     total cpu time spent up to now is      247.9 secs

     total energy              =    -701.06354023 Ry
     Harris-Foulkes estimate   =    -701.06354063 Ry
     estimated scf accuracy    <       0.00000087 Ry

     iteration # 16     ecut=   100.00 Ry     beta=0.50
     Davidson diagonalization with overlap
     ethr =  6.41E-10,  avg # of iterations =  3.0

     total cpu time spent up to now is      261.6 secs

     total energy              =    -701.06354040 Ry
     Harris-Foulkes estimate   =    -701.06354041 Ry
     estimated scf accuracy    <       0.00000002 Ry

     iteration # 17     ecut=   100.00 Ry     beta=0.50
     Davidson diagonalization with overlap
     ethr =  1.72E-11,  avg # of iterations =  4.0

     total cpu time spent up to now is      279.9 secs

     End of self-consistent calculation

          k = 0.0000 0.0000 0.0000 ( 44305 PWs)   bands (ev):

   -24.2714 -24.2697 -21.2618 -20.8754 -19.8461 -19.8444 -18.9723 -18.5546
   -15.3421 -15.3101 -13.1499 -13.1384 -12.9895 -12.7973 -11.2635 -11.0069
   -10.0163  -9.9606  -9.5757  -9.2434  -8.3814  -8.2229  -7.6146  -7.5876
    -6.9622  -6.7476  -6.6665  -6.4002  -6.0902  -6.0879  -5.9867  -5.9053
    -5.5024  -5.2243  -4.6497  -4.6382  -4.5253  -4.5033  -4.4063  -4.2785
    -4.1447  -3.6453  -3.3683  -3.3154  -3.0855  -2.6825  -2.6530  -2.5965
    -2.2149  -2.2090  -2.1122  -1.8228  -1.8209  -1.7093  -1.4211  -1.2031
    -1.0843  -0.9916  -0.6456  -0.5794  -0.4652  -0.3841  -0.2861  -0.2096
     0.1271   0.3805   0.6566   0.7251   3.5460   3.6120   4.0949   4.2814
     5.2436   5.4230   6.6956   6.9432   7.0734   8.1956   8.2782   8.6689
     8.8148

          k = 0.0000 0.0000-0.3108 ( 44318 PWs)   bands (ev):

   -24.2713 -24.2698 -21.2618 -20.8754 -19.8461 -19.8445 -18.9723 -18.5546
   -15.3368 -15.3157 -13.1530 -13.1382 -12.9424 -12.8495 -11.1752 -11.0880
   -10.0142  -9.9531  -9.6233  -9.1981  -8.4165  -8.1861  -7.6547  -7.5518
    -6.8858  -6.7909  -6.7060  -6.3476  -6.1779  -6.0618  -6.0314  -5.8626
    -5.5171  -5.2219  -4.6515  -4.6388  -4.5226  -4.5024  -4.3718  -4.2862
    -4.0222  -3.7396  -3.4676  -3.3552  -3.1076  -2.6816  -2.5373  -2.4498
    -2.3666  -2.1989  -1.9823  -1.9186  -1.7705  -1.7592  -1.3806  -1.2847
    -1.0401  -0.9449  -0.7554  -0.5340  -0.4822  -0.3664  -0.2817  -0.2218
     0.1488   0.3413   0.6563   0.7261   3.5471   3.6011   4.1479   4.2220
     5.2414   5.4638   6.7187   6.9281   7.4281   7.5389   8.3528   8.5728
     9.1285

          k = 0.0000 0.3106 0.0070 ( 44314 PWs)   bands (ev):

   -24.2709 -24.2701 -21.2543 -20.8843 -19.8459 -19.8448 -18.9714 -18.5554
   -15.3455 -15.3326 -13.1240 -13.1119 -12.9109 -12.8436 -11.1827 -11.0658
   -10.0114  -9.9702  -9.7405  -9.2622  -8.3645  -8.2056  -7.6620  -7.5548
    -6.9610  -6.7481  -6.7236  -6.4096  -6.1808  -6.0709  -6.0313  -5.6477
    -5.4426  -5.2241  -4.8436  -4.6164  -4.5750  -4.3458  -4.3039  -4.2208
    -3.8756  -3.6335  -3.5153  -3.3721  -3.1553  -2.7898  -2.6324  -2.5471
    -2.3091  -2.0896  -2.0655  -1.9022  -1.7882  -1.7566  -1.4430  -1.2217
    -1.0591  -0.8907  -0.6311  -0.6121  -0.5074  -0.4732  -0.2734  -0.1673
     0.0008   0.2988   0.6452   0.7140   3.5325   3.6134   4.1920   4.2730
     5.2613   5.4147   6.7452   6.8299   7.4725   7.9783   8.5007   8.7224
     8.8894

          k = 0.0000 0.3106-0.3038 ( 44277 PWs)   bands (ev):

   -24.2708 -24.2701 -21.2543 -20.8843 -19.8461 -19.8447 -18.9714 -18.5554
   -15.3467 -15.3314 -13.1224 -13.1151 -12.9177 -12.8341 -11.1930 -11.0576
    -9.9999  -9.9795  -9.7236  -9.2987  -8.3213  -8.2240  -7.6396  -7.5861
    -6.8608  -6.8428  -6.7485  -6.4235  -6.1492  -6.0514  -6.0289  -5.6701
    -5.4279  -5.2305  -4.8322  -4.6029  -4.5669  -4.3536  -4.3270  -4.2121
    -3.8790  -3.7422  -3.5019  -3.3396  -3.1878  -2.7974  -2.6059  -2.3458
    -2.3020  -2.1589  -2.0721  -1.9244  -1.8122  -1.7516  -1.4462  -1.2010
    -1.0437  -0.8866  -0.7226  -0.5577  -0.5288  -0.4468  -0.2698  -0.1811
    -0.0216   0.2784   0.6255   0.7409   3.5456   3.6043   4.1387   4.3008
     5.2679   5.4780   6.6855   6.8877   7.7056   7.8364   8.2708   8.6056
     8.8580

          k = 0.3333 0.1009 0.0117 ( 44326 PWs)   bands (ev):

   -24.2706 -24.2697 -21.2605 -20.8770 -19.8459 -19.8450 -18.9748 -18.5535
   -15.3554 -15.3207 -13.1191 -13.1012 -12.9734 -12.8053 -11.2200 -11.0910
    -9.9859  -9.9251  -9.6717  -9.2959  -8.3495  -8.2375  -7.7146  -7.6407
    -6.8123  -6.7830  -6.6657  -6.4277  -6.1470  -6.0583  -5.9981  -5.7101
    -5.4032  -5.1886  -4.7386  -4.6360  -4.5486  -4.4905  -4.3643  -4.2554
    -3.8952  -3.8051  -3.5941  -3.3614  -3.1425  -2.7630  -2.5978  -2.4941
    -2.2947  -2.0392  -1.9702  -1.9497  -1.8390  -1.7938  -1.3310  -1.1680
    -1.0303  -1.0037  -0.5947  -0.5578  -0.5085  -0.4018  -0.2810  -0.1713
     0.1460   0.4537   0.4898   0.6009   3.5301   3.6075   4.1044   4.2776
     5.3084   5.3606   6.4466   6.9043   7.5036   8.0883   8.4017   8.7264
     8.9145

          k = 0.3333 0.1009-0.2992 ( 44300 PWs)   bands (ev):

   -24.2706 -24.2697 -21.2605 -20.8770 -19.8460 -19.8449 -18.9748 -18.5535
   -15.3491 -15.3273 -13.1182 -13.1061 -12.9407 -12.8364 -11.2317 -11.0670
    -9.9928  -9.9294  -9.7015  -9.2601  -8.3922  -8.1864  -7.7684  -7.5757
    -6.8350  -6.7739  -6.6846  -6.4354  -6.1599  -6.0580  -5.9928  -5.6628
    -5.4260  -5.1741  -4.7180  -4.6431  -4.5938  -4.5038  -4.3164  -4.2450
    -3.9756  -3.8771  -3.4785  -3.3088  -3.2213  -2.7620  -2.6022  -2.3255
    -2.2672  -2.1426  -2.0645  -1.9607  -1.8238  -1.7411  -1.3222  -1.1907
    -1.0777  -0.9081  -0.6497  -0.5456  -0.4930  -0.4173  -0.2681  -0.1921
     0.2366   0.3531   0.4760   0.6032   3.5529   3.5964   4.1451   4.2213
     5.2270   5.4981   6.4468   6.8748   7.7009   8.0008   8.2517   8.5586
     8.8615

          k = 0.3333 0.4115 0.0187 ( 44285 PWs)   bands (ev):

   -24.2703 -24.2699 -21.2541 -20.8846 -19.8460 -19.8451 -18.9726 -18.5559
   -15.3487 -15.3342 -13.1247 -13.1028 -12.9118 -12.8447 -11.2014 -11.0557
   -10.0172  -9.9523  -9.7350  -9.2735  -8.3375  -8.1922  -7.7882  -7.5779
    -6.8074  -6.7659  -6.6816  -6.4285  -6.1601  -6.0431  -5.9852  -5.6610
    -5.4510  -5.2129  -4.9294  -4.6347  -4.6022  -4.3665  -4.3050  -4.2343
    -3.8978  -3.7857  -3.4632  -3.3611  -3.2347  -2.7995  -2.6055  -2.4634
    -2.3165  -2.0908  -1.9642  -1.9146  -1.8113  -1.7227  -1.3604  -1.1376
    -1.0599  -0.8850  -0.6137  -0.5729  -0.4828  -0.4637  -0.2667  -0.1918
     0.0277   0.3955   0.5123   0.6003   3.5251   3.6044   4.1529   4.2841
     5.2711   5.3440   6.6266   6.8256   7.7083   8.1202   8.4906   8.7218
     8.7793

          k = 0.3333 0.4115-0.2921 ( 44276 PWs)   bands (ev):

   -24.2703 -24.2699 -21.2541 -20.8846 -19.8461 -19.8449 -18.9726 -18.5559
   -15.3512 -15.3316 -13.1213 -13.1077 -12.9138 -12.8408 -11.1565 -11.1087
   -10.0011  -9.9617  -9.7244  -9.2806  -8.3271  -8.2394  -7.6816  -7.6518
    -6.8288  -6.7476  -6.6664  -6.3977  -6.1767  -6.0638  -6.0039  -5.6734
    -5.4316  -5.2123  -4.8967  -4.6185  -4.5634  -4.3841  -4.3141  -4.2509
    -3.9389  -3.8772  -3.5801  -3.2888  -3.1338  -2.7821  -2.6097  -2.3239
    -2.2503  -2.0965  -2.0007  -1.9467  -1.8502  -1.7867  -1.3646  -1.1639
    -0.9957  -0.8950  -0.6529  -0.5612  -0.5184  -0.4165  -0.2769  -0.1799
     0.1009   0.2973   0.4854   0.6187   3.5538   3.5999   4.0879   4.3191
     5.2178   5.4768   6.5332   6.8990   7.6997   8.1607   8.5797   8.6461
     8.8482

          k = 0.3333-0.2096 0.0046 ( 44269 PWs)   bands (ev):

   -24.2707 -24.2695 -21.2554 -20.8831 -19.8463 -19.8447 -18.9712 -18.5576
   -15.3398 -15.3239 -13.1570 -13.1293 -12.9083 -12.8655 -11.1606 -11.0675
   -10.0455  -9.9592  -9.6528  -9.2105  -8.3688  -8.1838  -7.7572  -7.5878
    -6.8067  -6.6928  -6.6458  -6.3528  -6.1758  -6.0255  -5.9892  -5.8605
    -5.5555  -5.2438  -4.9354  -4.6688  -4.5414  -4.4194  -4.3159  -4.2769
    -4.0778  -3.7968  -3.4522  -3.3562  -3.1000  -2.6816  -2.6067  -2.4344
    -2.3843  -2.0277  -1.9448  -1.8626  -1.7978  -1.7400  -1.3347  -1.1787
    -1.0522  -0.9270  -0.6368  -0.5899  -0.4426  -0.3760  -0.2767  -0.2269
     0.0346   0.4353   0.5307   0.6164   3.5398   3.5890   4.1105   4.3167
     5.2297   5.3085   6.7885   6.8576   7.6407   7.9286   8.1538   8.7975
     8.8920

          k = 0.3333-0.2096-0.3062 ( 44277 PWs)   bands (ev):

   -24.2707 -24.2696 -21.2554 -20.8831 -19.8463 -19.8448 -18.9712 -18.5576
   -15.3382 -15.3254 -13.1532 -13.1350 -12.9322 -12.8361 -11.2085 -11.0220
   -10.0448  -9.9683  -9.6279  -9.2368  -8.3468  -8.2100  -7.7159  -7.6068
    -6.8374  -6.7154  -6.6135  -6.3696  -6.1281  -6.0304  -5.9884  -5.8655
    -5.5536  -5.2456  -4.9058  -4.6478  -4.5459  -4.4337  -4.3368  -4.2712
    -4.1369  -3.9249  -3.3778  -3.2847  -3.0860  -2.6792  -2.6607  -2.3291
    -2.2247  -2.0845  -2.0590  -1.8989  -1.8233  -1.7130  -1.3406  -1.1821
    -1.0595  -0.8818  -0.6578  -0.5877  -0.4316  -0.3860  -0.2754  -0.2385
     0.1151   0.3212   0.5152   0.6349   3.5647   3.5929   4.0522   4.3385
     5.1728   5.4475   6.6808   6.9397   7.6579   7.9562   8.1363   8.5683
     8.9380

     highest occupied, lowest unoccupied level (ev):     0.7409    3.5251

!    total energy              =    -701.06354041 Ry
     Harris-Foulkes estimate   =    -701.06354041 Ry
     estimated scf accuracy    <          5.3E-09 Ry

     total all-electron energy =     -2658.661844 Ry

     The total energy is the sum of the following terms:

     one-electron contribution =    -356.19668737 Ry
     hartree contribution      =     232.08357004 Ry
     xc contribution           =    -145.93454242 Ry
     ewald contribution        =    -231.65792314 Ry
     Dispersion Correction     =      -0.18867709 Ry
     one-center paw contrib.   =    -199.16928043 Ry

     convergence has been achieved in  17 iterations

     Forces acting on atoms (cartesian axes, Ry/au):

     atom    1 type  4   force =    -0.00207033    0.00213723    0.00005225
     atom    2 type  4   force =     0.00207033   -0.00213723   -0.00005225
     atom    3 type  3   force =    -0.00043347   -0.00102228    0.00053256
     atom    4 type  3   force =     0.00043347    0.00102228   -0.00053256
     atom    5 type  4   force =    -0.00020774    0.00261901    0.00391343
     atom    6 type  4   force =     0.00020774   -0.00261901   -0.00391343
     atom    7 type  4   force =     0.00086756    0.00124311   -0.00055586
     atom    8 type  4   force =    -0.00086756   -0.00124311    0.00055586
     atom    9 type  4   force =    -0.00099735    0.00082206   -0.00415466
     atom   10 type  4   force =     0.00099735   -0.00082206    0.00415466
     atom   11 type  2   force =     0.00255617   -0.00078030    0.00362892
     atom   12 type  2   force =    -0.00255617    0.00078030   -0.00362892
     atom   13 type  1   force =    -0.00074557    0.00466339   -0.00343463
     atom   14 type  1   force =     0.00074557   -0.00466339    0.00343463
     atom   15 type  1   force =    -0.00307822   -0.00764520    0.00600890
     atom   16 type  1   force =     0.00307822    0.00764520   -0.00600890
     atom   17 type  1   force =    -0.00153231    0.00442319   -0.00119902
     atom   18 type  1   force =     0.00153231   -0.00442319    0.00119902
     atom   19 type  1   force =     0.00414312   -0.00133735   -0.00454806
     atom   20 type  1   force =    -0.00414312    0.00133735    0.00454806
     atom   21 type  3   force =    -0.00045736   -0.00017989    0.00031888
     atom   22 type  3   force =     0.00045736    0.00017989   -0.00031888
     atom   23 type  1   force =     0.00083807    0.00174211   -0.00028360
     atom   24 type  1   force =    -0.00083807   -0.00174211    0.00028360
     atom   25 type  3   force =    -0.00096201   -0.00008711   -0.00063600
     atom   26 type  3   force =     0.00096201    0.00008711    0.00063600
     atom   27 type  1   force =     0.00023301    0.00042651    0.00087929
     atom   28 type  1   force =    -0.00023301   -0.00042651   -0.00087929
     atom   29 type  3   force =     0.00007724   -0.00119618    0.00052192
     atom   30 type  3   force =    -0.00007724    0.00119618   -0.00052192
     atom   31 type  1   force =    -0.00249503   -0.00918875   -0.00055558
     atom   32 type  1   force =     0.00249503    0.00918875    0.00055558
     atom   33 type  1   force =     0.00142708    0.00137139   -0.00081242
     atom   34 type  1   force =    -0.00142708   -0.00137139    0.00081242
     atom   35 type  3   force =     0.00050964    0.00085182   -0.00009408
     atom   36 type  3   force =    -0.00050964   -0.00085182    0.00009408
     atom   37 type  3   force =    -0.00006124    0.00124558    0.00037824
     atom   38 type  3   force =     0.00006124   -0.00124558   -0.00037824
     atom   39 type  3   force =    -0.00010409    0.00024489    0.00028843
     atom   40 type  3   force =     0.00010409   -0.00024489   -0.00028843

     Total force =     0.027647     Total SCF correction =     0.000141


     Computing stress (Cartesian axis) and pressure

          total   stress  (Ry/bohr**3)                   (kbar)     P=   -1.55
  -0.00000268   0.00000790   0.00000538         -0.39      1.16      0.79
   0.00000790  -0.00002503   0.00002034          1.16     -3.68      2.99
   0.00000538   0.00002034  -0.00000390          0.79      2.99     -0.57


     Writing output data file scf.save
 
     init_run     :     10.94s CPU     11.22s WALL (       1 calls)
     electrons    :    259.55s CPU    268.12s WALL (       1 calls)
     forces       :      5.77s CPU      5.81s WALL (       1 calls)
     stress       :     18.17s CPU     18.18s WALL (       1 calls)

     Called by init_run:
     wfcinit      :      5.63s CPU      5.85s WALL (       1 calls)
     potinit      :      1.89s CPU      1.90s WALL (       1 calls)

     Called by electrons:
     c_bands      :    224.10s CPU    231.52s WALL (      17 calls)
     sum_band     :     29.18s CPU     30.15s WALL (      17 calls)
     v_of_rho     :      0.96s CPU      1.05s WALL (      18 calls)
     newd         :      1.88s CPU      1.93s WALL (      18 calls)
     PAW_pot      :      3.09s CPU      3.10s WALL (      18 calls)
     mix_rho      :      0.25s CPU      0.26s WALL (      17 calls)

     Called by c_bands:
     init_us_2    :      2.55s CPU      2.56s WALL (     370 calls)
     cegterg      :    214.87s CPU    222.24s WALL (     170 calls)

     Called by sum_band:
     sum_band:bec :      0.03s CPU      0.03s WALL (     170 calls)
     addusdens    :      2.01s CPU      2.04s WALL (      17 calls)

     Called by *egterg:
     h_psi        :    144.18s CPU    149.94s WALL (     747 calls)
     s_psi        :     14.69s CPU     14.69s WALL (     747 calls)
     g_psi        :      1.20s CPU      1.20s WALL (     567 calls)
     cdiaghg      :     13.14s CPU     13.14s WALL (     737 calls)

     Called by h_psi:
     h_psi:pot    :    143.00s CPU    148.74s WALL (     747 calls)
     h_psi:calbec :     13.72s CPU     13.80s WALL (     747 calls)
     vloc_psi     :    114.76s CPU    120.41s WALL (     747 calls)
     add_vuspsi   :     14.52s CPU     14.53s WALL (     747 calls)

     General routines
     calbec       :     21.46s CPU     21.59s WALL (     967 calls)
     fft          :      0.96s CPU      1.10s WALL (     258 calls)
     fftw         :    124.05s CPU    130.26s WALL (   94408 calls)
 
     Parallel routines
     fft_scatter  :     28.67s CPU     32.14s WALL (   94666 calls)
 
     PWSCF        :  4m57.59s CPU     5m 7.37s WALL

 
   This run was terminated on:   7:20:46  10Dec2017            

=------------------------------------------------------------------------------=
   JOB DONE.
=------------------------------------------------------------------------------=
