
     Program PWSCF v.6.1 (svn rev. 13369) starts on  5Dec2017 at  4:48:57 

     This program is part of the open-source Quantum ESPRESSO suite
     for quantum simulation of materials; please cite
         "P. Giannozzi et al., J. Phys.:Condens. Matter 21 395502 (2009);
          URL http://www.quantum-espresso.org", 
     in publications or presentations arising from this work. More details at
     http://www.quantum-espresso.org/quote

     Parallel version (MPI), running on     8 processors
     R & G space division:  proc/nbgrp/npool/nimage =       8
     Waiting for input...
     Reading input from standard input

     Current dimensions of program PWSCF are:
     Max number of different atomic species (ntypx) = 10
     Max number of k-points (npk) =  40000
     Max angular momentum in pseudopotentials (lmaxx) =  3
               file C.pbe-n-kjpaw_psl.0.1.UPF: wavefunction(s)  2P renormalized
               file N.pbe-n-kjpaw_psl.0.1.UPF: wavefunction(s)  2P renormalized
               file H.pbe-kjpaw_psl.0.1.UPF: wavefunction(s)  1S renormalized
               file O.pbe-n-kjpaw_psl.0.1.UPF: wavefunction(s)  2P renormalized

     -------------------------------------
     Parameters for Dispersion Correction:
     -------------------------------------
       atom      VdW radius       C_6     

        C          2.744         60.710
        N          2.640         42.670
        H          1.892          4.857
        O          2.536         24.284

     Subspace diagonalization in iterative solution of the eigenvalue problem:
     a serial algorithm will be used

 
     Parallelization info
     --------------------
     sticks:   dense  smooth     PW     G-vecs:    dense   smooth      PW
     Min         704     704    187                47978    47978    6607
     Max         705     705    188                47979    47979    6611
     Sum        5633    5633   1503               383829   383829   52879
 


     bravais-lattice index     =            0
     lattice parameter (alat)  =      12.9221  a.u.
     unit-cell volume          =    2841.5366 (a.u.)^3
     number of atoms/cell      =           46
     number of atomic types    =            4
     number of electrons       =       132.00
     number of Kohn-Sham states=           79
     kinetic-energy cutoff     =     100.0000  Ry
     charge density cutoff     =     400.0000  Ry
     convergence threshold     =      1.0E-08
     mixing beta               =       0.5000
     number of iterations used =            8  plain     mixing
     Exchange-correlation      =  SLA  PW   PBX  PBC ( 1  4  3  4 0 0)

     celldm(1)=  12.922136  celldm(2)=   0.000000  celldm(3)=   0.000000
     celldm(4)=   0.000000  celldm(5)=   0.000000  celldm(6)=   0.000000

     crystal axes: (cart. coord. in units of alat)
               a(1) = (   1.000000   0.000000   0.000000 )  
               a(2) = (   0.331463   1.059448   0.000000 )  
               a(3) = (   0.256942   0.166161   1.242999 )  

     reciprocal axes: (cart. coord. in units 2 pi/alat)
               b(1) = (  1.000000 -0.312864 -0.164888 )  
               b(2) = (  0.000000  0.943888 -0.126177 )  
               b(3) = (  0.000000  0.000000  0.804506 )  


     PseudoPot. # 1 for  C read from file:
     /scratch/ahofstet/pseudo/C.pbe-n-kjpaw_psl.0.1.UPF
     MD5 check sum: 430fe95172b1e11ef3f8ed03bac87931
     Pseudo is Projector augmented-wave + core cor, Zval =  4.0
     Generated using "atomic" code by A. Dal Corso  v.5.0.99 svn rev. 10869
     Shape of augmentation charge: BESSEL
     Using radial grid of 1073 points,  4 beta functions with: 
                l(1) =   0
                l(2) =   0
                l(3) =   1
                l(4) =   1
     Q(r) pseudized with 0 coefficients 


     PseudoPot. # 2 for  N read from file:
     /scratch/ahofstet/pseudo/N.pbe-n-kjpaw_psl.0.1.UPF
     MD5 check sum: f73187c8b701007e77325f868c9291d7
     Pseudo is Projector augmented-wave + core cor, Zval =  5.0
     Generated using "atomic" code by A. Dal Corso  v.5.0.99 svn rev. 10869
     Shape of augmentation charge: PSQ
     Using radial grid of 1085 points,  4 beta functions with: 
                l(1) =   0
                l(2) =   0
                l(3) =   1
                l(4) =   1
     Q(r) pseudized with 0 coefficients 


     PseudoPot. # 3 for  H read from file:
     /scratch/ahofstet/pseudo/H.pbe-kjpaw_psl.0.1.UPF
     MD5 check sum: 94e484f906d9e9773b2f6e52662335b2
     Pseudo is Projector augmented-wave, Zval =  1.0
     Generated using "atomic" code by A. Dal Corso  v.5.0.99 svn rev. 10869
     Shape of augmentation charge: PSQ
     Using radial grid of  929 points,  2 beta functions with: 
                l(1) =   0
                l(2) =   0
     Q(r) pseudized with 0 coefficients 


     PseudoPot. # 4 for  O read from file:
     /scratch/ahofstet/pseudo/O.pbe-n-kjpaw_psl.0.1.UPF
     MD5 check sum: 3f94a2996a3169367d6eb21d9b593f20
     Pseudo is Projector augmented-wave + core cor, Zval =  6.0
     Generated using "atomic" code by A. Dal Corso  v.5.0.99 svn rev. 10869
     Shape of augmentation charge: BESSEL
     Using radial grid of 1095 points,  4 beta functions with: 
                l(1) =   0
                l(2) =   0
                l(3) =   1
                l(4) =   1
     Q(r) pseudized with 0 coefficients 


     atomic species   valence    mass     pseudopotential
        C              4.00    12.01070      C( 1.00)
        N              5.00    14.00670      N( 1.00)
        H              1.00     1.00794      H( 1.00)
        O              6.00    15.99940      O( 1.00)

      2 Sym. Ops., with inversion, found



   Cartesian axes

     site n.     atom                  positions (alat units)
         1           O   tau(   1) = (   0.5451558   0.3241491   0.5604605  )
         2           O   tau(   2) = (   1.0432485   0.9014603   0.6825381  )
         3           O   tau(   3) = (   0.5327728   0.2442942   0.2440971  )
         4           O   tau(   4) = (   1.0556316   0.9813152   0.9989014  )
         5           C   tau(   5) = (   0.5383038   0.3774618   0.3633720  )
         6           C   tau(   6) = (   1.0501005   0.8481476   0.8796265  )
         7           C   tau(   7) = (   0.5354722   0.5837116   0.3204388  )
         8           C   tau(   8) = (   1.0529322   0.6418978   0.9225598  )
         9           H   tau(   9) = (   0.5309052   0.6203545   0.1657367  )
        10           H   tau(  10) = (   1.0574991   0.6052549   1.0772619  )
        11           C   tau(  11) = (   0.5369692   0.7242907   0.4610948  )
        12           C   tau(  12) = (   1.0514352   0.5013187   0.7819038  )
        13           C   tau(  13) = (   0.5478258   0.6636520   0.6640058  )
        14           C   tau(  14) = (   1.0405785   0.5619574   0.5789928  )
        15           C   tau(  15) = (   0.5545972   0.7941298   0.8227977  )
        16           C   tau(  16) = (   1.0338071   0.4314796   0.4202008  )
        17           H   tau(  17) = (   0.5521951   0.9510573   0.7942153  )
        18           H   tau(  18) = (   1.0362093   0.2745521   0.4487833  )
        19           C   tau(  19) = (   0.5669312   0.7257881   1.0135183  )
        20           C   tau(  20) = (   1.0214732   0.4998213   0.2294802  )
        21           H   tau(  21) = (   0.5711319   0.8293407   1.1343524  )
        22           H   tau(  22) = (   1.0172724   0.3962687   0.1086462  )
        23           C   tau(  23) = (   0.5765728   0.5243235   1.0505329  )
        24           C   tau(  24) = (   1.0118316   0.7012859   0.1924657  )
        25           H   tau(  25) = (   0.5974374   0.4712314   1.1997370  )
        26           H   tau(  26) = (   0.9909669   0.7543780   0.0432615  )
        27           C   tau(  27) = (   0.5685903   0.3911869   0.8970584  )
        28           C   tau(  28) = (   1.0198141   0.8344225   0.3459401  )
        29           H   tau(  29) = (   0.5798562   0.2337761   0.9219039  )
        30           H   tau(  30) = (   1.0085481   0.9918333   0.3210946  )
        31           C   tau(  31) = (   0.5530858   0.4617735   0.7063580  )
        32           C   tau(  32) = (   1.0353186   0.7638359   0.5366406  )
        33           C   tau(  33) = (   0.5282871   0.9389498   0.4121838  )
        34           C   tau(  34) = (   1.0601173   0.2866596   0.8308148  )
        35           H   tau(  35) = (   0.6583023   1.0101243   0.4746181  )
        36           H   tau(  36) = (   0.9301021   0.2154851   0.7683805  )
        37           H   tau(  37) = (   0.4030004   1.0016694   0.4922541  )
        38           H   tau(  38) = (   1.1854039   0.2239400   0.7507444  )
        39           C   tau(  39) = (   0.5123684   0.9893463   0.1954241  )
        40           C   tau(  40) = (   1.0760359   0.2362631   1.0475745  )
        41           H   tau(  41) = (   0.6370568   0.9326659   0.1114644  )
        42           H   tau(  42) = (   0.9513475   0.2929435   1.1315341  )
        43           H   tau(  43) = (   0.1801440   0.0893766   0.1774897  )
        44           H   tau(  44) = (   1.4082604   1.1362328   1.0655088  )
        45           H   tau(  45) = (   0.3766475   0.9305876   0.1323526  )
        46           H   tau(  46) = (   1.2117569   0.2950218   1.1106460  )

     number of k points=    10
                       cart. coord. in units 2pi/alat
        k(    1) = (   0.0000000   0.0000000   0.0000000), wk =   0.1111111
        k(    2) = (   0.0000000   0.0000000  -0.4022531), wk =   0.1111111
        k(    3) = (   0.0000000   0.3146292  -0.0420589), wk =   0.2222222
        k(    4) = (   0.0000000   0.3146292  -0.4443120), wk =   0.2222222
        k(    5) = (   0.3333333  -0.1042879  -0.0549627), wk =   0.2222222
        k(    6) = (   0.3333333  -0.1042879  -0.4572158), wk =   0.2222222
        k(    7) = (   0.3333333   0.2103414  -0.0970217), wk =   0.2222222
        k(    8) = (   0.3333333   0.2103414  -0.4992748), wk =   0.2222222
        k(    9) = (   0.3333333  -0.4189171  -0.0129038), wk =   0.2222222
        k(   10) = (   0.3333333  -0.4189171  -0.4151569), wk =   0.2222222

     Dense  grid:   383829 G-vectors     FFT dimensions: (  90,  96, 108)

     Estimated max dynamical RAM per process >     193.14MB

     Estimated total allocated dynamical RAM >    1545.10MB

     Check: negative/imaginary core charge=   -0.000002    0.000000

     Initial potential from superposition of free atoms

     starting charge  131.99889, renormalised to  132.00000
     Starting wfc are  124 randomized atomic wfcs
     Checking if some PAW data can be deallocated... 

     total cpu time spent up to now is       13.7 secs

     per-process dynamical memory:   190.5 Mb

     Self-consistent Calculation

     iteration #  1     ecut=   100.00 Ry     beta=0.50
     Davidson diagonalization with overlap
     ethr =  1.00E-02,  avg # of iterations =  4.0

     total cpu time spent up to now is       38.4 secs

     total energy              =    -595.23358018 Ry
     Harris-Foulkes estimate   =    -597.89847298 Ry
     estimated scf accuracy    <       5.03497297 Ry

     iteration #  2     ecut=   100.00 Ry     beta=0.50
     Davidson diagonalization with overlap
     ethr =  3.81E-03,  avg # of iterations =  2.0

     total cpu time spent up to now is       51.4 secs

     total energy              =    -595.23404996 Ry
     Harris-Foulkes estimate   =    -595.70249549 Ry
     estimated scf accuracy    <       0.85234180 Ry

     iteration #  3     ecut=   100.00 Ry     beta=0.50
     Davidson diagonalization with overlap
     ethr =  6.46E-04,  avg # of iterations =  5.0

     total cpu time spent up to now is       79.1 secs

     total energy              =    -595.99531713 Ry
     Harris-Foulkes estimate   =    -596.49034715 Ry
     estimated scf accuracy    <       1.48460347 Ry

     iteration #  4     ecut=   100.00 Ry     beta=0.50
     Davidson diagonalization with overlap
     ethr =  6.46E-04,  avg # of iterations =  2.7

     total cpu time spent up to now is       92.3 secs

     total energy              =    -595.85337256 Ry
     Harris-Foulkes estimate   =    -596.08267958 Ry
     estimated scf accuracy    <       0.45695442 Ry

     iteration #  5     ecut=   100.00 Ry     beta=0.50
     Davidson diagonalization with overlap
     ethr =  3.46E-04,  avg # of iterations =  5.4

     total cpu time spent up to now is      115.5 secs

     total energy              =    -596.08510511 Ry
     Harris-Foulkes estimate   =    -596.10654325 Ry
     estimated scf accuracy    <       0.09464895 Ry

     iteration #  6     ecut=   100.00 Ry     beta=0.50
     Davidson diagonalization with overlap
     ethr =  7.17E-05,  avg # of iterations =  1.9

     total cpu time spent up to now is      128.3 secs

     total energy              =    -596.06498208 Ry
     Harris-Foulkes estimate   =    -596.08887296 Ry
     estimated scf accuracy    <       0.04594645 Ry

     iteration #  7     ecut=   100.00 Ry     beta=0.50
     Davidson diagonalization with overlap
     ethr =  3.48E-05,  avg # of iterations =  3.4

     total cpu time spent up to now is      146.0 secs

     total energy              =    -596.07886166 Ry
     Harris-Foulkes estimate   =    -596.07903555 Ry
     estimated scf accuracy    <       0.00141458 Ry

     iteration #  8     ecut=   100.00 Ry     beta=0.50
     Davidson diagonalization with overlap
     ethr =  1.07E-06,  avg # of iterations =  5.0

     total cpu time spent up to now is      173.3 secs

     total energy              =    -596.07937358 Ry
     Harris-Foulkes estimate   =    -596.07992086 Ry
     estimated scf accuracy    <       0.00201530 Ry

     iteration #  9     ecut=   100.00 Ry     beta=0.50
     Davidson diagonalization with overlap
     ethr =  1.07E-06,  avg # of iterations =  3.6

     total cpu time spent up to now is      186.5 secs

     total energy              =    -596.07888911 Ry
     Harris-Foulkes estimate   =    -596.07943599 Ry
     estimated scf accuracy    <       0.00103017 Ry

     iteration # 10     ecut=   100.00 Ry     beta=0.50
     Davidson diagonalization with overlap
     ethr =  7.80E-07,  avg # of iterations =  4.5

     total cpu time spent up to now is      206.9 secs

     total energy              =    -596.07930425 Ry
     Harris-Foulkes estimate   =    -596.07934510 Ry
     estimated scf accuracy    <       0.00011766 Ry

     iteration # 11     ecut=   100.00 Ry     beta=0.50
     Davidson diagonalization with overlap
     ethr =  8.91E-08,  avg # of iterations =  2.4

     total cpu time spent up to now is      219.9 secs

     total energy              =    -596.07928603 Ry
     Harris-Foulkes estimate   =    -596.07931114 Ry
     estimated scf accuracy    <       0.00004861 Ry

     iteration # 12     ecut=   100.00 Ry     beta=0.50
     Davidson diagonalization with overlap
     ethr =  3.68E-08,  avg # of iterations =  3.5

     total cpu time spent up to now is      240.2 secs

     total energy              =    -596.07931051 Ry
     Harris-Foulkes estimate   =    -596.07931347 Ry
     estimated scf accuracy    <       0.00000594 Ry

     iteration # 13     ecut=   100.00 Ry     beta=0.50
     Davidson diagonalization with overlap
     ethr =  4.50E-09,  avg # of iterations =  2.7

     total cpu time spent up to now is      253.4 secs

     total energy              =    -596.07931067 Ry
     Harris-Foulkes estimate   =    -596.07931111 Ry
     estimated scf accuracy    <       0.00000096 Ry

     iteration # 14     ecut=   100.00 Ry     beta=0.50
     Davidson diagonalization with overlap
     ethr =  7.28E-10,  avg # of iterations =  4.0

     total cpu time spent up to now is      279.2 secs

     total energy              =    -596.07931201 Ry
     Harris-Foulkes estimate   =    -596.07931226 Ry
     estimated scf accuracy    <       0.00000096 Ry

     iteration # 15     ecut=   100.00 Ry     beta=0.50
     Davidson diagonalization with overlap
     ethr =  7.26E-10,  avg # of iterations =  1.0

     total cpu time spent up to now is      291.6 secs

     total energy              =    -596.07931175 Ry
     Harris-Foulkes estimate   =    -596.07931203 Ry
     estimated scf accuracy    <       0.00000051 Ry

     iteration # 16     ecut=   100.00 Ry     beta=0.50
     Davidson diagonalization with overlap
     ethr =  3.85E-10,  avg # of iterations =  3.0

     total cpu time spent up to now is      311.2 secs

     total energy              =    -596.07931195 Ry
     Harris-Foulkes estimate   =    -596.07931197 Ry
     estimated scf accuracy    <       0.00000007 Ry

     iteration # 17     ecut=   100.00 Ry     beta=0.50
     Davidson diagonalization with overlap
     ethr =  4.98E-11,  avg # of iterations =  1.0

     total cpu time spent up to now is      323.6 secs

     total energy              =    -596.07931194 Ry
     Harris-Foulkes estimate   =    -596.07931196 Ry
     estimated scf accuracy    <       0.00000002 Ry

     iteration # 18     ecut=   100.00 Ry     beta=0.50
     Davidson diagonalization with overlap
     ethr =  1.85E-11,  avg # of iterations =  4.0

     total cpu time spent up to now is      346.1 secs

     End of self-consistent calculation

          k = 0.0000 0.0000 0.0000 ( 47999 PWs)   bands (ev):

   -21.2886 -21.2730 -19.0160 -19.0149 -15.2122 -15.0220 -14.2194 -14.0333
   -12.3367 -12.2455 -12.1900 -12.1039 -11.9160 -11.9123  -9.7739  -9.7733
    -9.4689  -9.4597  -8.8757  -8.7693  -7.7536  -7.6745  -7.2049  -7.1865
    -6.3839  -6.3273  -5.4983  -5.4811  -5.4457  -4.9926  -4.9145  -4.8269
    -4.5494  -4.4600  -4.2643  -4.2622  -4.1403  -4.1163  -3.8194  -3.6963
    -3.5776  -3.5533  -3.0301  -2.8666  -2.7129  -2.6617  -2.5596  -2.4358
    -2.3177  -2.1345  -2.1143  -2.0581  -1.9045  -1.8007  -1.7571  -1.3552
    -1.3237  -1.2762  -0.7555  -0.6911   0.0810   0.1141   0.3908   0.4348
     0.6555   0.9969   3.9073   4.1007   5.2152   5.3502   5.5315   5.7664
     6.6627   7.4137   7.5254   7.6000   7.7221   8.0818   8.2610

          k = 0.0000 0.0000-0.4023 ( 47988 PWs)   bands (ev):

   -21.2884 -21.2730 -19.0175 -19.0147 -15.1954 -15.0258 -14.2396 -14.0312
   -12.3105 -12.2199 -12.1804 -12.1277 -11.9364 -11.9112  -9.8635  -9.7790
    -9.4918  -9.4261  -8.8470  -8.7925  -7.7077  -7.6641  -7.1247  -7.0842
    -6.4882  -6.4085  -5.4948  -5.3917  -5.3905  -5.0349  -4.8968  -4.7309
    -4.6415  -4.4559  -4.2874  -4.2009  -4.1812  -4.1300  -3.8822  -3.7669
    -3.6956  -3.5761  -3.0624  -2.7668  -2.7197  -2.6250  -2.4580  -2.4529
    -2.2614  -2.2188  -2.1344  -2.0297  -1.8710  -1.7309  -1.7062  -1.5053
    -1.3913  -1.3776  -0.7679  -0.6164   0.1763   0.2107   0.3825   0.4488
     0.6732   0.8971   3.8912   4.1388   5.2647   5.3274   5.4842   5.7449
     6.7370   6.8872   7.4599   7.5871   7.8266   8.3301   8.4977

          k = 0.0000 0.3146-0.0421 ( 48003 PWs)   bands (ev):

   -21.2847 -21.2768 -19.0179 -19.0131 -15.2060 -15.0277 -14.2347 -14.0364
   -12.3363 -12.2266 -12.1808 -12.1140 -11.9241 -11.8590  -9.8908  -9.7280
    -9.4972  -9.4600  -8.8459  -8.7465  -7.7553  -7.6628  -7.2237  -7.1577
    -6.4112  -6.3075  -5.5633  -5.5199  -5.4479  -5.0788  -4.8534  -4.8274
    -4.6107  -4.3844  -4.3264  -4.2204  -4.0324  -3.9360  -3.8433  -3.7716
    -3.6722  -3.5249  -3.0086  -2.8974  -2.6957  -2.6801  -2.4563  -2.3861
    -2.2983  -2.1686  -2.1332  -2.0107  -1.8843  -1.8367  -1.7131  -1.4313
    -1.3362  -1.3046  -0.7875  -0.6925   0.0616   0.0700   0.3762   0.4286
     0.6280   0.9992   3.9728   4.1284   5.2390   5.3545   5.5491   5.7805
     6.9411   7.3896   7.4990   7.5251   7.6445   7.8119   8.2217

          k = 0.0000 0.3146-0.4443 ( 48015 PWs)   bands (ev):

   -21.2845 -21.2768 -19.0185 -19.0138 -15.1908 -15.0324 -14.2467 -14.0312
   -12.3511 -12.2291 -12.1733 -12.1116 -11.9291 -11.8550  -9.8407  -9.7524
    -9.5225  -9.4530  -8.8182  -8.7994  -7.7803  -7.6827  -7.1524  -7.1183
    -6.4913  -6.4003  -5.5523  -5.4414  -5.3619  -4.9355  -4.8128  -4.7718
    -4.5754  -4.4060  -4.3552  -4.2273  -4.0422  -3.9699  -3.9304  -3.8152
    -3.7061  -3.5581  -3.0341  -2.8707  -2.7579  -2.6556  -2.4919  -2.3899
    -2.2990  -2.2568  -2.0895  -2.0067  -1.9075  -1.7929  -1.6980  -1.4449
    -1.3886  -1.3670  -0.7733  -0.6514   0.1081   0.2010   0.3670   0.4484
     0.6544   0.8955   3.9638   4.1835   5.2700   5.3330   5.4985   5.7621
     6.8705   7.1991   7.2656   7.6279   7.7449   8.0910   8.4020

          k = 0.3333-0.1043-0.0550 ( 47988 PWs)   bands (ev):

   -21.2862 -21.2753 -19.0165 -19.0143 -15.1659 -15.0703 -14.1801 -14.0801
   -12.3006 -12.2295 -12.2100 -12.1262 -11.9351 -11.9058  -9.7989  -9.7538
    -9.4771  -9.4540  -8.8672  -8.7774  -7.7429  -7.7030  -7.2191  -7.1868
    -6.3910  -6.3204  -5.5067  -5.4351  -5.2594  -4.9997  -4.8639  -4.8423
    -4.5924  -4.5046  -4.3551  -4.2286  -4.0718  -3.9767  -3.8182  -3.7263
    -3.6320  -3.5195  -3.0358  -2.8985  -2.7289  -2.6969  -2.5511  -2.4531
    -2.2644  -2.2335  -2.1259  -2.0265  -1.8411  -1.7998  -1.7207  -1.4461
    -1.3391  -1.2989  -0.8358  -0.6887   0.0657   0.1248   0.3052   0.3814
     0.6760   0.8801   3.9009   4.0356   5.2118   5.2994   5.4838   5.6237
     6.9057   7.2201   7.4573   7.7731   8.0049   8.1728   8.3909

          k = 0.3333-0.1043-0.4572 ( 47960 PWs)   bands (ev):

   -21.2860 -21.2753 -19.0179 -19.0142 -15.1548 -15.0668 -14.1933 -14.0878
   -12.2920 -12.2204 -12.1761 -12.1491 -11.9344 -11.9105  -9.8500  -9.8078
    -9.4924  -9.4203  -8.8455  -8.8069  -7.7142  -7.6610  -7.1444  -7.0644
    -6.5272  -6.3903  -5.4234  -5.3841  -5.2489  -5.0338  -4.8623  -4.8245
    -4.6172  -4.4860  -4.3023  -4.2741  -4.0696  -4.0101  -3.8787  -3.7540
    -3.7090  -3.5848  -3.0631  -2.8644  -2.6629  -2.6268  -2.4795  -2.3978
    -2.2886  -2.2680  -2.1513  -2.0483  -1.8688  -1.7564  -1.6590  -1.5248
    -1.4480  -1.4018  -0.7811  -0.6958   0.1708   0.2130   0.3100   0.3708
     0.6436   0.8945   3.8923   4.0393   5.1893   5.2897   5.4973   5.6274
     6.9587   7.2302   7.4464   7.5118   7.7693   8.0953   8.5860

          k = 0.3333 0.2103-0.0970 ( 48000 PWs)   bands (ev):

   -21.2858 -21.2755 -19.0172 -19.0136 -15.1667 -15.0692 -14.1901 -14.0858
   -12.2829 -12.2087 -12.2044 -12.1262 -11.9515 -11.8840  -9.8552  -9.7683
    -9.5050  -9.4509  -8.8225  -8.7748  -7.7258  -7.6797  -7.2216  -7.1612
    -6.4288  -6.2912  -5.5039  -5.4853  -5.3007  -5.0767  -4.8865  -4.8329
    -4.6758  -4.5295  -4.2268  -4.1853  -4.0274  -3.9313  -3.8557  -3.7289
    -3.6862  -3.4774  -3.0436  -2.9371  -2.7240  -2.6548  -2.4556  -2.3667
    -2.2570  -2.1348  -2.1009  -2.0636  -1.8681  -1.8351  -1.7137  -1.5046
    -1.3498  -1.3054  -0.8692  -0.7170   0.0214   0.0790   0.3165   0.3867
     0.6527   0.8752   3.8844   4.0837   5.1888   5.3046   5.4608   5.6500
     7.0720   7.3182   7.4896   7.6656   7.9639   8.1420   8.3255

          k = 0.3333 0.2103-0.4993 ( 48014 PWs)   bands (ev):

   -21.2856 -21.2754 -19.0179 -19.0142 -15.1579 -15.0656 -14.1975 -14.0886
   -12.2927 -12.2406 -12.1820 -12.1331 -11.9360 -11.8778  -9.8210  -9.7725
    -9.5108  -9.4635  -8.8392  -8.7810  -7.7825  -7.6825  -7.1472  -7.1372
    -6.4850  -6.4106  -5.4487  -5.3765  -5.2868  -4.9546  -4.8554  -4.6964
    -4.6130  -4.5369  -4.2309  -4.2066  -4.0839  -3.9978  -3.9110  -3.7817
    -3.6663  -3.5441  -3.1156  -2.9186  -2.7522  -2.6829  -2.4640  -2.3937
    -2.3179  -2.2388  -2.1453  -2.0337  -1.8065  -1.7376  -1.6665  -1.5129
    -1.4123  -1.3540  -0.8462  -0.7264   0.0810   0.1755   0.3180   0.3928
     0.6358   0.8886   3.8914   4.0899   5.1568   5.2595   5.4888   5.6485
     7.0314   7.3453   7.4209   7.6660   7.8728   8.4874   8.5088

          k = 0.3333-0.4189-0.0129 ( 47992 PWs)   bands (ev):

   -21.2830 -21.2783 -19.0176 -19.0132 -15.1599 -15.0760 -14.1949 -14.0825
   -12.2975 -12.2095 -12.1687 -12.1610 -11.9343 -11.8799  -9.8834  -9.7403
    -9.5067  -9.4490  -8.8226  -8.7690  -7.7814  -7.6481  -7.2143  -7.1719
    -6.4036  -6.3287  -5.5423  -5.4418  -5.3136  -5.0806  -4.8689  -4.8543
    -4.5560  -4.4447  -4.2411  -4.1531  -4.1104  -4.0422  -3.8274  -3.7500
    -3.6142  -3.5652  -3.0391  -2.9180  -2.7200  -2.6480  -2.4905  -2.3801
    -2.2632  -2.1662  -2.0894  -2.0100  -1.8538  -1.8280  -1.7205  -1.5006
    -1.3435  -1.3180  -0.8490  -0.7351   0.0252   0.0723   0.3036   0.3819
     0.6532   0.8716   3.9340   4.0692   5.1935   5.3137   5.5044   5.6380
     7.1845   7.2246   7.4834   7.6836   7.8544   8.1190   8.1882

          k = 0.3333-0.4189-0.4152 ( 47958 PWs)   bands (ev):

   -21.2829 -21.2782 -19.0183 -19.0138 -15.1511 -15.0724 -14.2001 -14.0872
   -12.3158 -12.2344 -12.1689 -12.1370 -11.9270 -11.8717  -9.8221  -9.7773
    -9.5230  -9.4473  -8.8341  -8.7918  -7.7589  -7.7139  -7.1510  -7.1238
    -6.4897  -6.4290  -5.4557  -5.3481  -5.3028  -4.9755  -4.8432  -4.7567
    -4.5008  -4.4448  -4.2196  -4.1937  -4.1393  -4.0608  -3.9201  -3.8217
    -3.6637  -3.5514  -3.0665  -2.9364  -2.7129  -2.6673  -2.5115  -2.3835
    -2.3113  -2.2122  -2.1318  -2.0612  -1.8442  -1.7682  -1.6672  -1.5151
    -1.4127  -1.3359  -0.8017  -0.7576   0.0788   0.1870   0.3127   0.3810
     0.6321   0.8790   3.9393   4.0788   5.1651   5.2881   5.5160   5.6370
     7.1241   7.2792   7.4590   7.6773   7.8210   8.1555   8.3670

     highest occupied, lowest unoccupied level (ev):     0.9992    3.8844

!    total energy              =    -596.07931195 Ry
     Harris-Foulkes estimate   =    -596.07931196 Ry
     estimated scf accuracy    <          8.0E-09 Ry

     total all-electron energy =     -2302.277026 Ry

     The total energy is the sum of the following terms:

     one-electron contribution =    -317.10990634 Ry
     hartree contribution      =     208.60620906 Ry
     xc contribution           =    -134.86361834 Ry
     ewald contribution        =    -168.04476310 Ry
     Dispersion Correction     =      -0.22711116 Ry
     one-center paw contrib.   =    -184.44012209 Ry

     convergence has been achieved in  18 iterations

     Forces acting on atoms (cartesian axes, Ry/au):

     atom    1 type  4   force =     0.00065139   -0.00011652   -0.00147112
     atom    2 type  4   force =    -0.00065139    0.00011652    0.00147112
     atom    3 type  4   force =     0.00231866   -0.00149658    0.00090066
     atom    4 type  4   force =    -0.00231866    0.00149658   -0.00090066
     atom    5 type  1   force =    -0.00114876    0.00083199    0.00251790
     atom    6 type  1   force =     0.00114876   -0.00083199   -0.00251790
     atom    7 type  1   force =    -0.00142400   -0.00303480   -0.00329304
     atom    8 type  1   force =     0.00142400    0.00303480    0.00329304
     atom    9 type  3   force =    -0.00025627    0.00059503    0.00016628
     atom   10 type  3   force =     0.00025627   -0.00059503   -0.00016628
     atom   11 type  1   force =    -0.00033041    0.00705244    0.00099362
     atom   12 type  1   force =     0.00033041   -0.00705244   -0.00099362
     atom   13 type  1   force =    -0.00150057   -0.00234648   -0.00177113
     atom   14 type  1   force =     0.00150057    0.00234648    0.00177113
     atom   15 type  1   force =    -0.00029890    0.00535071    0.00032137
     atom   16 type  1   force =     0.00029890   -0.00535071   -0.00032137
     atom   17 type  3   force =    -0.00133546   -0.00185049    0.00088847
     atom   18 type  3   force =     0.00133546    0.00185049   -0.00088847
     atom   19 type  1   force =     0.00085819   -0.00093350    0.00012217
     atom   20 type  1   force =    -0.00085819    0.00093350   -0.00012217
     atom   21 type  3   force =     0.00148567    0.00094875    0.00151032
     atom   22 type  3   force =    -0.00148567   -0.00094875   -0.00151032
     atom   23 type  1   force =     0.00083133    0.00001722    0.00343014
     atom   24 type  1   force =    -0.00083133   -0.00001722   -0.00343014
     atom   25 type  3   force =    -0.00194829    0.00099841   -0.00176093
     atom   26 type  3   force =     0.00194829   -0.00099841    0.00176093
     atom   27 type  1   force =     0.00087238   -0.00224749    0.00014470
     atom   28 type  1   force =    -0.00087238    0.00224749   -0.00014470
     atom   29 type  3   force =     0.00032549    0.00141314   -0.00000052
     atom   30 type  3   force =    -0.00032549   -0.00141314    0.00000052
     atom   31 type  1   force =    -0.00045045   -0.00030898   -0.00423234
     atom   32 type  1   force =     0.00045045    0.00030898    0.00423234
     atom   33 type  1   force =    -0.00161843   -0.00336936   -0.00198163
     atom   34 type  1   force =     0.00161843    0.00336936    0.00198163
     atom   35 type  3   force =     0.00407071    0.00194936    0.00129896
     atom   36 type  3   force =    -0.00407071   -0.00194936   -0.00129896
     atom   37 type  3   force =    -0.00087610   -0.00066205    0.00126292
     atom   38 type  3   force =     0.00087610    0.00066205   -0.00126292
     atom   39 type  1   force =    -0.00086784   -0.00007849    0.00121617
     atom   40 type  1   force =     0.00086784    0.00007849   -0.00121617
     atom   41 type  3   force =    -0.00022181   -0.00055432    0.00014865
     atom   42 type  3   force =     0.00022181    0.00055432   -0.00014865
     atom   43 type  3   force =    -0.00010448   -0.00074219    0.00000670
     atom   44 type  3   force =     0.00010448    0.00074219   -0.00000670
     atom   45 type  3   force =     0.00063072   -0.00038919    0.00026108
     atom   46 type  3   force =    -0.00063072    0.00038919   -0.00026108

     Total force =     0.021841     Total SCF correction =     0.000168


     Computing stress (Cartesian axis) and pressure

          total   stress  (Ry/bohr**3)                   (kbar)     P=   -4.97
  -0.00003945   0.00000661   0.00000165         -5.80      0.97      0.24
   0.00000661  -0.00003232   0.00001853          0.97     -4.75      2.73
   0.00000165   0.00001853  -0.00002969          0.24      2.73     -4.37


     Writing output data file scf.save
 
     init_run     :     12.74s CPU     13.02s WALL (       1 calls)
     electrons    :    322.77s CPU    332.52s WALL (       1 calls)
     forces       :      6.16s CPU      6.20s WALL (       1 calls)
     stress       :     15.85s CPU     15.86s WALL (       1 calls)

     Called by init_run:
     wfcinit      :      7.54s CPU      7.76s WALL (       1 calls)
     potinit      :      1.89s CPU      1.90s WALL (       1 calls)

     Called by electrons:
     c_bands      :    281.68s CPU    290.35s WALL (      18 calls)
     sum_band     :     34.06s CPU     34.98s WALL (      18 calls)
     v_of_rho     :      1.13s CPU      1.22s WALL (      19 calls)
     newd         :      1.97s CPU      2.01s WALL (      19 calls)
     PAW_pot      :      3.55s CPU      3.55s WALL (      19 calls)
     mix_rho      :      0.26s CPU      0.27s WALL (      18 calls)

     Called by c_bands:
     init_us_2    :      2.65s CPU      2.66s WALL (     390 calls)
     cegterg      :    272.63s CPU    281.22s WALL (     180 calls)

     Called by sum_band:
     sum_band:bec :      0.03s CPU      0.03s WALL (     180 calls)
     addusdens    :      2.05s CPU      2.11s WALL (      18 calls)

     Called by *egterg:
     h_psi        :    177.32s CPU    183.54s WALL (     781 calls)
     s_psi        :     24.98s CPU     24.99s WALL (     781 calls)
     g_psi        :      1.10s CPU      1.10s WALL (     591 calls)
     cdiaghg      :     11.73s CPU     11.76s WALL (     771 calls)

     Called by h_psi:
     h_psi:pot    :    175.87s CPU    182.06s WALL (     781 calls)
     h_psi:calbec :     24.75s CPU     24.85s WALL (     781 calls)
     vloc_psi     :    126.11s CPU    132.18s WALL (     781 calls)
     add_vuspsi   :     25.01s CPU     25.02s WALL (     781 calls)

     General routines
     calbec       :     35.32s CPU     35.45s WALL (    1011 calls)
     fft          :      0.74s CPU      0.90s WALL (     271 calls)
     fftw         :    133.80s CPU    140.30s WALL (   99118 calls)
 
     Parallel routines
     fft_scatter  :     29.91s CPU     33.51s WALL (   99389 calls)
 
     PWSCF        :  6m 0.89s CPU     6m11.80s WALL

 
   This run was terminated on:   4:55: 9   5Dec2017            

=------------------------------------------------------------------------------=
   JOB DONE.
=------------------------------------------------------------------------------=
