
     Program PWSCF v.6.1 (svn rev. 13369) starts on  3Nov2017 at 21:43: 6 

     This program is part of the open-source Quantum ESPRESSO suite
     for quantum simulation of materials; please cite
         "P. Giannozzi et al., J. Phys.:Condens. Matter 21 395502 (2009);
          URL http://www.quantum-espresso.org", 
     in publications or presentations arising from this work. More details at
     http://www.quantum-espresso.org/quote

     Parallel version (MPI), running on     8 processors
     R & G space division:  proc/nbgrp/npool/nimage =       8
     Waiting for input...
     Reading input from standard input

     Current dimensions of program PWSCF are:
     Max number of different atomic species (ntypx) = 10
     Max number of k-points (npk) =  40000
     Max angular momentum in pseudopotentials (lmaxx) =  3
               file C.pbe-n-kjpaw_psl.0.1.UPF: wavefunction(s)  2P renormalized
               file N.pbe-n-kjpaw_psl.0.1.UPF: wavefunction(s)  2P renormalized
               file H.pbe-kjpaw_psl.0.1.UPF: wavefunction(s)  1S renormalized
               file O.pbe-n-kjpaw_psl.0.1.UPF: wavefunction(s)  2P renormalized

     -------------------------------------
     Parameters for Dispersion Correction:
     -------------------------------------
       atom      VdW radius       C_6     

        C          2.744         60.710
        N          2.640         42.670
        H          1.892          4.857
        O          2.536         24.284

     Subspace diagonalization in iterative solution of the eigenvalue problem:
     a serial algorithm will be used

 
     Parallelization info
     --------------------
     sticks:   dense  smooth     PW     G-vecs:    dense   smooth      PW
     Min        1125    1125    297                98201    98201   13310
     Max        1128    1128    298                98202    98202   13311
     Sum        9003    9003   2379               785609   785609  106485
 


     bravais-lattice index     =            0
     lattice parameter (alat)  =      19.7835  a.u.
     unit-cell volume          =    5815.2039 (a.u.)^3
     number of atoms/cell      =          104
     number of atomic types    =            4
     number of electrons       =       320.00
     number of Kohn-Sham states=          192
     kinetic-energy cutoff     =     100.0000  Ry
     charge density cutoff     =     400.0000  Ry
     convergence threshold     =      1.0E-08
     mixing beta               =       0.5000
     number of iterations used =            8  plain     mixing
     Exchange-correlation      =  SLA  PW   PBX  PBC ( 1  4  3  4 0 0)

     celldm(1)=  19.783543  celldm(2)=   0.000000  celldm(3)=   0.000000
     celldm(4)=   0.000000  celldm(5)=   0.000000  celldm(6)=   0.000000

     crystal axes: (cart. coord. in units of alat)
               a(1) = (   1.000000   0.000000   0.000000 )  
               a(2) = (   0.000000   0.723851   0.000000 )  
               a(3) = (  -0.088036   0.000000   1.037536 )  

     reciprocal axes: (cart. coord. in units 2 pi/alat)
               b(1) = (  1.000000  0.000000  0.084851 )  
               b(2) = (  0.000000  1.381499  0.000000 )  
               b(3) = (  0.000000  0.000000  0.963822 )  


     PseudoPot. # 1 for  C read from file:
     /scratch/ahofstet/pseudo/C.pbe-n-kjpaw_psl.0.1.UPF
     MD5 check sum: 430fe95172b1e11ef3f8ed03bac87931
     Pseudo is Projector augmented-wave + core cor, Zval =  4.0
     Generated using "atomic" code by A. Dal Corso  v.5.0.99 svn rev. 10869
     Shape of augmentation charge: BESSEL
     Using radial grid of 1073 points,  4 beta functions with: 
                l(1) =   0
                l(2) =   0
                l(3) =   1
                l(4) =   1
     Q(r) pseudized with 0 coefficients 


     PseudoPot. # 2 for  N read from file:
     /scratch/ahofstet/pseudo/N.pbe-n-kjpaw_psl.0.1.UPF
     MD5 check sum: f73187c8b701007e77325f868c9291d7
     Pseudo is Projector augmented-wave + core cor, Zval =  5.0
     Generated using "atomic" code by A. Dal Corso  v.5.0.99 svn rev. 10869
     Shape of augmentation charge: PSQ
     Using radial grid of 1085 points,  4 beta functions with: 
                l(1) =   0
                l(2) =   0
                l(3) =   1
                l(4) =   1
     Q(r) pseudized with 0 coefficients 


     PseudoPot. # 3 for  H read from file:
     /scratch/ahofstet/pseudo/H.pbe-kjpaw_psl.0.1.UPF
     MD5 check sum: 94e484f906d9e9773b2f6e52662335b2
     Pseudo is Projector augmented-wave, Zval =  1.0
     Generated using "atomic" code by A. Dal Corso  v.5.0.99 svn rev. 10869
     Shape of augmentation charge: PSQ
     Using radial grid of  929 points,  2 beta functions with: 
                l(1) =   0
                l(2) =   0
     Q(r) pseudized with 0 coefficients 


     PseudoPot. # 4 for  O read from file:
     /scratch/ahofstet/pseudo/O.pbe-n-kjpaw_psl.0.1.UPF
     MD5 check sum: 3f94a2996a3169367d6eb21d9b593f20
     Pseudo is Projector augmented-wave + core cor, Zval =  6.0
     Generated using "atomic" code by A. Dal Corso  v.5.0.99 svn rev. 10869
     Shape of augmentation charge: BESSEL
     Using radial grid of 1095 points,  4 beta functions with: 
                l(1) =   0
                l(2) =   0
                l(3) =   1
                l(4) =   1
     Q(r) pseudized with 0 coefficients 


     atomic species   valence    mass     pseudopotential
        C              4.00    12.01070      C( 1.00)
        N              5.00    14.00670      N( 1.00)
        H              1.00     1.00794      H( 1.00)
        O              6.00    15.99940      O( 1.00)

      2 Sym. Ops., with inversion, found
          (note:  2 additional sym.ops. were found but ignored
           their fractional translations are incommensurate with FFT grid)


   Cartesian axes

     site n.     atom                  positions (alat units)
         1           C   tau(   1) = (   0.2185390   0.7023397   0.8276525  )
         2           C   tau(   2) = (   0.6494066   0.3404140   0.7286521  )
         3           C   tau(   3) = (   0.6934248   0.0215117   0.2098839  )
         4           C   tau(   4) = (   0.2625571   0.3834373   0.3088843  )
         5           O   tau(   5) = (   0.1979231   0.7055696   0.6955745  )
         6           O   tau(   6) = (   0.6700226   0.3436439   0.8607301  )
         7           O   tau(   7) = (   0.7140407   0.0182818   0.3419619  )
         8           O   tau(   8) = (   0.2419412   0.3802074   0.1768063  )
         9           C   tau(   9) = (   0.0662920   0.7243556   0.6582593  )
        10           C   tau(  10) = (   0.8016536   0.3624299   0.8980453  )
        11           C   tau(  11) = (   0.8456717  -0.0005043   0.3792771  )
        12           C   tau(  12) = (   0.1103101   0.3614214   0.1394911  )
        13           C   tau(  13) = (  -0.0181870   0.6248408   0.7197033  )
        14           C   tau(  14) = (   0.8861327   0.2629151   0.8366013  )
        15           C   tau(  15) = (   0.9301508   0.0990106   0.3178331  )
        16           C   tau(  16) = (   0.0258311   0.4609363   0.2009351  )
        17           O   tau(  17) = (  -0.0033476   0.6296608   0.8571107  )
        18           O   tau(  18) = (   0.8712932   0.2677351   0.6991938  )
        19           O   tau(  19) = (   0.9153114   0.0941906   0.1804256  )
        20           O   tau(  20) = (   0.0406705   0.4561163   0.3383426  )
        21           C   tau(  21) = (   0.1226742   0.6084827   0.8977279  )
        22           C   tau(  22) = (   0.7452714   0.2465571   0.6585767  )
        23           C   tau(  23) = (   0.7892895   0.1153686   0.1398085  )
        24           C   tau(  24) = (   0.1666923   0.4772943   0.3789597  )
        25           O   tau(  25) = (   0.1520266   0.4794336   0.8735579  )
        26           O   tau(  26) = (   0.7159190   0.1175079   0.6827467  )
        27           O   tau(  27) = (   0.7599372   0.2444178   0.1639785  )
        28           O   tau(  28) = (   0.1960447   0.6063435   0.3547897  )
        29           C   tau(  29) = (   0.2851795   0.4481506   0.8955052  )
        30           C   tau(  30) = (   0.5827662   0.0862249   0.6607994  )
        31           C   tau(  31) = (   0.6267843   0.2757008   0.1420312  )
        32           C   tau(  32) = (   0.3291976   0.6376265   0.3767370  )
        33           C   tau(  33) = (   0.3691039   0.5329264   0.8145092  )
        34           C   tau(  34) = (   0.4988418   0.1710008   0.7417954  )
        35           C   tau(  35) = (   0.5428599   0.1909249   0.2230272  )
        36           C   tau(  36) = (   0.4131220   0.5528506   0.2957410  )
        37           O   tau(  37) = (   0.3461081   0.6651475   0.8469839  )
        38           O   tau(  38) = (   0.5218375   0.3032218   0.7093207  )
        39           O   tau(  39) = (   0.5658556   0.0587038   0.1905525  )
        40           O   tau(  40) = (   0.3901263   0.4206295   0.3282157  )
        41           O   tau(  41) = (   0.2055088   0.1041890   0.8737474  )
        42           O   tau(  42) = (   0.6624369   0.4661147   0.6825572  )
        43           O   tau(  43) = (   0.7064550   0.6196624   0.1637890  )
        44           O   tau(  44) = (   0.2495269   0.2577367   0.3549792  )
        45           C   tau(  45) = (   0.2152653   0.1132030   1.0113280  )
        46           C   tau(  46) = (   0.6526803   0.4751287   0.5449766  )
        47           C   tau(  47) = (   0.6966985   0.6106483   0.0262084  )
        48           C   tau(  48) = (   0.2592834   0.2487227   0.4925598  )
        49           C   tau(  49) = (   0.1995662   0.0329767   0.0335784  )
        50           C   tau(  50) = (   0.7564157   0.3949024   0.4851898  )
        51           C   tau(  51) = (   0.7123975   0.6908746   1.0039580  )
        52           C   tau(  52) = (   0.1555481   0.3289490   0.5523466  )
        53           O   tau(  53) = (   0.1258905   0.6255947   1.0305282  )
        54           O   tau(  54) = (   0.7420551   0.2636691   0.5257764  )
        55           O   tau(  55) = (   0.7860732   0.0982566   0.0070082  )
        56           O   tau(  56) = (   0.1699086   0.4601823   0.5117600  )
        57           H   tau(  57) = (   0.0348484   0.0972126   0.6849166  )
        58           H   tau(  58) = (   0.8330972   0.4591383   0.8713880  )
        59           H   tau(  59) = (   0.8771154   0.6266388   0.3526198  )
        60           H   tau(  60) = (   0.0788665   0.2647131   0.1661484  )
        61           H   tau(  61) = (   0.0659116   0.7134946   0.5539449  )
        62           H   tau(  62) = (   0.8020340   0.3515689   1.0023597  )
        63           H   tau(  63) = (   0.8460521   0.0103567   0.4835915  )
        64           H   tau(  64) = (   0.1099298   0.3722824   0.0351767  )
        65           H   tau(  65) = (   0.0055264   0.5286752   0.6848352  )
        66           H   tau(  66) = (   0.8624192   0.1667495   0.8714694  )
        67           H   tau(  67) = (   0.9064373   0.1951762   0.3527012  )
        68           H   tau(  68) = (   0.0495445   0.5571019   0.1660670  )
        69           H   tau(  69) = (   0.8806017   0.6457085   0.7017196  )
        70           H   tau(  70) = (  -0.0126560   0.2837828   0.8545850  )
        71           H   tau(  71) = (   0.0313621   0.0781429   0.3358168  )
        72           H   tau(  72) = (   0.9246198   0.4400685   0.1829514  )
        73           H   tau(  73) = (   0.3066947   0.4592591   0.9979548  )
        74           H   tau(  74) = (   0.5612509   0.0973334   0.5583498  )
        75           H   tau(  75) = (   0.6052690   0.2645923   0.0395816  )
        76           H   tau(  76) = (   0.3507128   0.6265180   0.4791866  )
        77           H   tau(  77) = (   0.2957537   0.3476431   0.8675382  )
        78           H   tau(  78) = (   0.5721920   0.7095688   0.6887664  )
        79           H   tau(  79) = (   0.6162101   0.3762083   0.1699982  )
        80           H   tau(  80) = (   0.3397718   0.0142826   0.3487700  )
        81           H   tau(  81) = (   0.3492420   0.5175113   0.7123884  )
        82           H   tau(  82) = (   0.5187036   0.1555856   0.8439162  )
        83           H   tau(  83) = (   0.5627217   0.2063401   0.3251480  )
        84           H   tau(  84) = (   0.3932602   0.5682657   0.1936202  )
        85           H   tau(  85) = (   0.4705857   0.5150042   0.8327365  )
        86           H   tau(  86) = (   0.3973599   0.1530785   0.7235681  )
        87           H   tau(  87) = (   0.4413781   0.2088472   0.2047999  )
        88           H   tau(  88) = (   0.5146038   0.5707728   0.3139683  )
        89           H   tau(  89) = (   0.3984242   0.0805702   0.0048462  )
        90           H   tau(  90) = (   0.5575577   0.4424959   0.5139220  )
        91           H   tau(  91) = (   0.5135395   0.6432811   1.0326902  )
        92           H   tau(  92) = (   0.3544061   0.2813554   0.5236144  )
        93           H   tau(  93) = (   0.2034992   0.2147438   1.0347818  )
        94           H   tau(  94) = (   0.6644465   0.5766695   0.5215228  )
        95           H   tau(  95) = (   0.7084646   0.5091076   0.0027546  )
        96           H   tau(  96) = (   0.2475173   0.1471819   0.5160136  )
        97           H   tau(  97) = (   0.1042329   0.0681959   0.0066728  )
        98           H   tau(  98) = (   0.8517490   0.4301215   0.5120954  )
        99           H   tau(  99) = (   0.8077309   0.6556555   1.0308636  )
       100           H   tau( 100) = (   0.0602148   0.2937298   0.5254410  )
       101           H   tau( 101) = (   0.2071570   0.0310512   0.1381773  )
       102           H   tau( 102) = (   0.7488249   0.3929769   0.3805909  )
       103           H   tau( 103) = (   0.7048068   0.6928002   0.8993591  )
       104           H   tau( 104) = (   0.1631389   0.3308745   0.6569455  )

     number of k points=     8
                       cart. coord. in units 2pi/alat
        k(    1) = (   0.0000000   0.0000000   0.0000000), wk =   0.1666667
        k(    2) = (   0.0000000   0.0000000  -0.4819108), wk =   0.1666667
        k(    3) = (   0.0000000   0.4604997   0.0000000), wk =   0.3333333
        k(    4) = (   0.0000000   0.4604997  -0.4819108), wk =   0.3333333
        k(    5) = (  -0.5000000   0.0000000  -0.0424256), wk =   0.1666667
        k(    6) = (  -0.5000000   0.0000000  -0.5243364), wk =   0.1666667
        k(    7) = (  -0.5000000   0.4604997  -0.0424256), wk =   0.3333333
        k(    8) = (  -0.5000000   0.4604997  -0.5243364), wk =   0.3333333

     Dense  grid:   785609 G-vectors     FFT dimensions: ( 125,  96, 135)

     Estimated max dynamical RAM per process >     790.67MB

     Estimated total allocated dynamical RAM >    6325.40MB

     Check: negative/imaginary core charge=   -0.000003    0.000000

     Initial potential from superposition of free atoms

     starting charge  319.99818, renormalised to  320.00000
     Starting wfc are  272 randomized atomic wfcs
     Checking if some PAW data can be deallocated... 

     total cpu time spent up to now is       41.9 secs

     per-process dynamical memory:   553.2 Mb

     Self-consistent Calculation

     iteration #  1     ecut=   100.00 Ry     beta=0.50
     Davidson diagonalization with overlap
     ethr =  1.00E-02,  avg # of iterations =  3.5

     total cpu time spent up to now is      150.8 secs

     total energy              =   -1645.26408336 Ry
     Harris-Foulkes estimate   =   -1649.35303717 Ry
     estimated scf accuracy    <       8.46691626 Ry

     iteration #  2     ecut=   100.00 Ry     beta=0.50
     Davidson diagonalization with overlap
     ethr =  2.65E-03,  avg # of iterations =  2.0

     total cpu time spent up to now is      212.4 secs

     total energy              =   -1646.09443160 Ry
     Harris-Foulkes estimate   =   -1646.37074023 Ry
     estimated scf accuracy    <       0.81370779 Ry

     iteration #  3     ecut=   100.00 Ry     beta=0.50
     Davidson diagonalization with overlap
     ethr =  2.54E-04,  avg # of iterations =  7.1

     total cpu time spent up to now is      338.8 secs

     total energy              =   -1646.45400304 Ry
     Harris-Foulkes estimate   =   -1646.61473652 Ry
     estimated scf accuracy    <       0.36136683 Ry

     iteration #  4     ecut=   100.00 Ry     beta=0.50
     Davidson diagonalization with overlap
     ethr =  1.13E-04,  avg # of iterations =  1.4

     total cpu time spent up to now is      393.8 secs

     total energy              =   -1646.44842851 Ry
     Harris-Foulkes estimate   =   -1646.48115068 Ry
     estimated scf accuracy    <       0.07066113 Ry

     iteration #  5     ecut=   100.00 Ry     beta=0.50
     Davidson diagonalization with overlap
     ethr =  2.21E-05,  avg # of iterations =  5.0

     total cpu time spent up to now is      522.0 secs

     total energy              =   -1646.47577214 Ry
     Harris-Foulkes estimate   =   -1646.57209000 Ry
     estimated scf accuracy    <       0.19799401 Ry

     iteration #  6     ecut=   100.00 Ry     beta=0.50
     Davidson diagonalization with overlap
     ethr =  2.21E-05,  avg # of iterations =  4.8

     total cpu time spent up to now is      624.7 secs

     total energy              =   -1646.50808161 Ry
     Harris-Foulkes estimate   =   -1646.50887879 Ry
     estimated scf accuracy    <       0.00207704 Ry

     iteration #  7     ecut=   100.00 Ry     beta=0.50
     Davidson diagonalization with overlap
     c_bands:  1 eigenvalues not converged
     ethr =  6.49E-07,  avg # of iterations =  6.4

     total cpu time spent up to now is      706.1 secs

     total energy              =   -1646.50867462 Ry
     Harris-Foulkes estimate   =   -1646.50857372 Ry
     estimated scf accuracy    <       0.00026079 Ry

     iteration #  8     ecut=   100.00 Ry     beta=0.50
     Davidson diagonalization with overlap
     ethr =  8.15E-08,  avg # of iterations =  4.0

     total cpu time spent up to now is      793.2 secs

     total energy              =   -1646.50850258 Ry
     Harris-Foulkes estimate   =   -1646.50876144 Ry
     estimated scf accuracy    <       0.00052025 Ry

     iteration #  9     ecut=   100.00 Ry     beta=0.50
     Davidson diagonalization with overlap
     ethr =  8.15E-08,  avg # of iterations =  5.2

     total cpu time spent up to now is      877.5 secs

     total energy              =   -1646.50858389 Ry
     Harris-Foulkes estimate   =   -1646.50858899 Ry
     estimated scf accuracy    <       0.00000793 Ry

     iteration # 10     ecut=   100.00 Ry     beta=0.50
     Davidson diagonalization with overlap
     ethr =  2.48E-09,  avg # of iterations =  4.0

     total cpu time spent up to now is      998.1 secs

     total energy              =   -1646.50858804 Ry
     Harris-Foulkes estimate   =   -1646.50860566 Ry
     estimated scf accuracy    <       0.00002936 Ry

     iteration # 11     ecut=   100.00 Ry     beta=0.50
     Davidson diagonalization with overlap
     ethr =  2.48E-09,  avg # of iterations =  4.0

     total cpu time spent up to now is     1102.8 secs

     total energy              =   -1646.50859588 Ry
     Harris-Foulkes estimate   =   -1646.50859676 Ry
     estimated scf accuracy    <       0.00000159 Ry

     iteration # 12     ecut=   100.00 Ry     beta=0.50
     Davidson diagonalization with overlap
     ethr =  4.95E-10,  avg # of iterations =  3.0

     total cpu time spent up to now is     1162.1 secs

     total energy              =   -1646.50859599 Ry
     Harris-Foulkes estimate   =   -1646.50859606 Ry
     estimated scf accuracy    <       0.00000011 Ry

     iteration # 13     ecut=   100.00 Ry     beta=0.50
     Davidson diagonalization with overlap
     ethr =  3.41E-11,  avg # of iterations =  4.0

     total cpu time spent up to now is     1287.2 secs

     total energy              =   -1646.50859626 Ry
     Harris-Foulkes estimate   =   -1646.50859638 Ry
     estimated scf accuracy    <       0.00000035 Ry

     iteration # 14     ecut=   100.00 Ry     beta=0.50
     Davidson diagonalization with overlap
     ethr =  3.41E-11,  avg # of iterations =  3.0

     total cpu time spent up to now is     1346.5 secs

     total energy              =   -1646.50859624 Ry
     Harris-Foulkes estimate   =   -1646.50859627 Ry
     estimated scf accuracy    <       0.00000012 Ry

     iteration # 15     ecut=   100.00 Ry     beta=0.50
     Davidson diagonalization with overlap
     ethr =  3.41E-11,  avg # of iterations =  4.5

     total cpu time spent up to now is     1434.0 secs

     End of self-consistent calculation

          k = 0.0000 0.0000 0.0000 ( 98195 PWs)   bands (ev):

   -21.4353 -21.4211 -21.4160 -21.4091 -20.3453 -20.3443 -20.3403 -20.3337
   -19.0164 -19.0097 -18.9884 -18.9874 -18.9874 -18.9801 -18.9746 -18.9637
   -18.2090 -18.2069 -18.2064 -18.2055 -18.2020 -18.1956 -18.1845 -18.1836
   -12.8664 -12.7668 -12.7643 -12.7262 -11.4834 -11.4552 -11.4439 -11.4197
   -11.3995 -11.3619 -11.3581 -11.3505 -10.3682 -10.3662 -10.3659 -10.2951
    -9.4943  -9.4616  -9.4165  -9.3608  -8.7722  -8.7127  -8.6917  -8.6892
    -8.6839  -8.6689  -8.5992  -8.5849  -6.8470  -6.6466  -6.5872  -6.5676
    -6.3656  -6.3401  -6.3005  -6.2899  -6.2440  -6.2425  -6.2107  -6.1997
    -6.1550  -6.1421  -6.0902  -6.0645  -5.9452  -5.7886  -5.7831  -5.7778
    -5.6044  -5.4949  -5.4825  -5.4501  -4.7075  -4.5852  -4.5487  -4.5443
    -4.5114  -4.4098  -4.3631  -4.2695  -3.9241  -3.9180  -3.8452  -3.8447
    -3.8376  -3.6929  -3.6714  -3.6097  -3.5891  -3.5197  -3.4690  -3.4479
    -3.4107  -3.3956  -3.3074  -3.1801  -2.8876  -2.8361  -2.8285  -2.7583
    -2.7518  -2.7514  -2.7143  -2.6870  -2.6712  -2.6406  -2.6291  -2.5931
    -2.4969  -2.4893  -2.4712  -2.4655  -2.0630  -2.0044  -1.9999  -1.9949
    -1.9646  -1.9610  -1.8986  -1.8893  -1.0870  -1.0235  -0.9147  -0.9039
    -0.9013  -0.8652  -0.7974  -0.7849  -0.7678  -0.6496  -0.5994  -0.4851
    -0.4198  -0.3628  -0.3097  -0.2906  -0.2816  -0.2599  -0.2583  -0.2448
    -0.2060  -0.2010  -0.0685  -0.0419   0.5842   0.5966   0.6006   0.6858
     0.7017   0.7281   0.7469   0.7535   1.2204   1.3827   1.4577   1.5735
     7.1169   7.3867   7.4003   7.4935   7.5265   7.5608   7.8215   7.8294
     7.9458   8.1209   8.1914   8.1953   8.2412   8.3401   8.3427   8.3472
     8.4897   8.5110   8.5888   8.6650   8.7560   8.7849   8.9987   9.0083
     9.1229   9.1484   9.1941   9.4516   9.4539   9.4788   9.4792   9.5508

          k = 0.0000 0.0000-0.4819 ( 98204 PWs)   bands (ev):

   -21.4260 -21.4260 -21.4149 -21.4149 -20.3432 -20.3432 -20.3385 -20.3385
   -19.0016 -19.0016 -18.9965 -18.9965 -18.9854 -18.9854 -18.9707 -18.9707
   -18.2067 -18.2067 -18.2046 -18.2046 -18.1939 -18.1939 -18.1913 -18.1913
   -12.8036 -12.8036 -12.7614 -12.7614 -11.4453 -11.4453 -11.4263 -11.4263
   -11.3842 -11.3842 -11.3781 -11.3781 -10.3745 -10.3745 -10.3220 -10.3220
    -9.4803  -9.4803  -9.3884  -9.3884  -8.7497  -8.7496  -8.6923  -8.6923
    -8.6671  -8.6671  -8.5895  -8.5895  -6.7639  -6.7639  -6.5748  -6.5748
    -6.3581  -6.3581  -6.2772  -6.2772  -6.2132  -6.2132  -6.1984  -6.1984
    -6.1585  -6.1585  -6.0986  -6.0986  -5.8630  -5.8630  -5.6851  -5.6851
    -5.6221  -5.6221  -5.5257  -5.5257  -4.6756  -4.6756  -4.5495  -4.5495
    -4.4207  -4.4207  -4.3423  -4.3423  -3.9255  -3.9255  -3.8086  -3.8086
    -3.7448  -3.7447  -3.6190  -3.6190  -3.5665  -3.5665  -3.4784  -3.4784
    -3.4040  -3.4040  -3.2265  -3.2265  -2.8225  -2.8225  -2.7898  -2.7898
    -2.7383  -2.7383  -2.6992  -2.6992  -2.6598  -2.6598  -2.6145  -2.6145
    -2.5686  -2.5686  -2.4500  -2.4500  -2.0441  -2.0441  -2.0085  -2.0085
    -1.9339  -1.9339  -1.9061  -1.9061  -0.9966  -0.9966  -0.9353  -0.9353
    -0.8639  -0.8639  -0.8161  -0.8161  -0.7408  -0.7408  -0.5790  -0.5790
    -0.3816  -0.3816  -0.3092  -0.3092  -0.2533  -0.2533  -0.2319  -0.2319
    -0.2200  -0.2199  -0.0423  -0.0423   0.5830   0.5830   0.6534   0.6534
     0.7223   0.7223   0.7401   0.7401   1.3058   1.3058   1.5159   1.5159
     7.1494   7.1494   7.4994   7.4994   7.5873   7.5873   7.8534   7.8534
     7.9667   7.9668   8.1738   8.1738   8.2579   8.2579   8.3645   8.3645
     8.5340   8.5340   8.6656   8.6656   8.8283   8.8283   9.0716   9.0716
     9.1595   9.1595   9.2185   9.2185   9.3937   9.3937   9.5246   9.5246

          k = 0.0000 0.4605 0.0000 ( 98258 PWs)   bands (ev):

   -21.4298 -21.4224 -21.4140 -21.4108 -20.3474 -20.3467 -20.3392 -20.3362
   -19.0137 -19.0103 -18.9958 -18.9937 -18.9873 -18.9797 -18.9770 -18.9685
   -18.2089 -18.2089 -18.2006 -18.1983 -18.1947 -18.1916 -18.1850 -18.1843
   -12.8236 -12.7712 -12.7425 -12.7219 -11.4858 -11.4709 -11.4501 -11.4473
   -11.3959 -11.3909 -11.3490 -11.3404 -10.3963 -10.3951 -10.3799 -10.3439
    -9.4661  -9.4487  -9.4299  -9.3960  -8.7289  -8.6994  -8.6832  -8.6611
    -8.6525  -8.6346  -8.6305  -8.5919  -6.7743  -6.6335  -6.6269  -6.5938
    -6.3385  -6.3269  -6.2818  -6.2788  -6.2553  -6.2111  -6.1958  -6.1906
    -6.1767  -6.1748  -6.1124  -6.0606  -5.8771  -5.8248  -5.8132  -5.7491
    -5.5859  -5.5318  -5.4922  -5.4630  -4.7492  -4.6592  -4.5507  -4.4899
    -4.4843  -4.4173  -4.3509  -4.3164  -3.9543  -3.9034  -3.8902  -3.8315
    -3.8097  -3.7566  -3.7052  -3.5803  -3.5730  -3.4753  -3.4642  -3.4340
    -3.4047  -3.3957  -3.2882  -3.2429  -2.8311  -2.8152  -2.7834  -2.7737
    -2.7720  -2.7503  -2.7452  -2.7384  -2.6786  -2.6624  -2.6174  -2.6153
    -2.5250  -2.4694  -2.4134  -2.4127  -2.0350  -2.0084  -2.0070  -1.9912
    -1.9843  -1.9652  -1.8967  -1.8699  -1.0405  -0.9673  -0.9426  -0.8870
    -0.8861  -0.8368  -0.8362  -0.8302  -0.8039  -0.7704  -0.5358  -0.5032
    -0.3662  -0.3539  -0.3427  -0.2816  -0.2535  -0.2483  -0.2239  -0.2174
    -0.1946  -0.1501  -0.1346  -0.0917   0.5805   0.5805   0.6431   0.6668
     0.6940   0.7329   0.7349   0.7432   1.3071   1.3959   1.4100   1.4983
     7.2118   7.3557   7.3783   7.5798   7.6327   7.6984   7.7101   7.8299
     7.8513   8.0193   8.0416   8.1444   8.2049   8.2823   8.3699   8.4100
     8.5004   8.5797   8.5976   8.6251   8.7407   8.7720   8.8175   8.9666
     9.1456   9.1686   9.1843   9.3600   9.4187   9.4463   9.4868   9.4913

          k = 0.0000 0.4605-0.4819 ( 98198 PWs)   bands (ev):

   -21.4224 -21.4224 -21.4161 -21.4161 -20.3440 -20.3440 -20.3407 -20.3407
   -19.0050 -19.0050 -19.0006 -19.0006 -18.9827 -18.9827 -18.9749 -18.9749
   -18.2025 -18.2025 -18.2002 -18.2002 -18.1927 -18.1927 -18.1906 -18.1906
   -12.7796 -12.7796 -12.7520 -12.7520 -11.4697 -11.4696 -11.4263 -11.4263
   -11.4062 -11.4062 -11.3619 -11.3619 -10.4012 -10.4012 -10.3554 -10.3554
    -9.4607  -9.4607  -9.4103  -9.4103  -8.7133  -8.7133  -8.6691  -8.6691
    -8.6550  -8.6550  -8.6020  -8.6020  -6.7096  -6.7096  -6.6104  -6.6104
    -6.3131  -6.3131  -6.2713  -6.2713  -6.2401  -6.2401  -6.1956  -6.1956
    -6.1618  -6.1618  -6.1231  -6.1231  -5.8137  -5.8137  -5.7046  -5.7046
    -5.6479  -5.6479  -5.5371  -5.5371  -4.6650  -4.6650  -4.5693  -4.5693
    -4.4286  -4.4286  -4.3305  -4.3305  -3.9511  -3.9511  -3.7974  -3.7974
    -3.7356  -3.7356  -3.6549  -3.6549  -3.5155  -3.5155  -3.4706  -3.4706
    -3.3981  -3.3981  -3.2881  -3.2881  -2.8795  -2.8795  -2.7732  -2.7732
    -2.7323  -2.7323  -2.6852  -2.6852  -2.6695  -2.6695  -2.6260  -2.6260
    -2.5159  -2.5159  -2.4520  -2.4520  -2.0307  -2.0307  -1.9825  -1.9825
    -1.9404  -1.9404  -1.9088  -1.9087  -0.9861  -0.9861  -0.9126  -0.9126
    -0.8789  -0.8789  -0.8474  -0.8474  -0.7340  -0.7340  -0.5842  -0.5842
    -0.3727  -0.3727  -0.3068  -0.3068  -0.2376  -0.2376  -0.2150  -0.2150
    -0.1774  -0.1774  -0.1003  -0.1003   0.5787   0.5787   0.6611   0.6611
     0.7108   0.7108   0.7318   0.7318   1.3545   1.3545   1.4581   1.4581
     7.2555   7.2555   7.5195   7.5195   7.6601   7.6601   7.7503   7.7503
     7.9938   7.9938   8.0707   8.0707   8.2056   8.2056   8.3453   8.3453
     8.5007   8.5007   8.6483   8.6483   8.7212   8.7212   9.0155   9.0155
     9.1596   9.1596   9.2732   9.2732   9.4035   9.4035   9.4910   9.4910

          k =-0.5000 0.0000-0.0424 ( 98172 PWs)   bands (ev):

   -21.4284 -21.4282 -21.4128 -21.4123 -20.3474 -20.3421 -20.3383 -20.3356
   -19.0170 -19.0107 -18.9894 -18.9861 -18.9839 -18.9765 -18.9724 -18.9717
   -18.2088 -18.2084 -18.2069 -18.2064 -18.1976 -18.1971 -18.1853 -18.1830
   -12.8317 -12.8034 -12.7645 -12.7256 -11.4883 -11.4583 -11.4100 -11.4026
   -11.4019 -11.3917 -11.3657 -11.3572 -10.3742 -10.3570 -10.3437 -10.3146
    -9.4725  -9.4441  -9.4232  -9.3988  -8.7676  -8.7177  -8.7162  -8.6965
    -8.6597  -8.6291  -8.6197  -8.5909  -6.7505  -6.7147  -6.6695  -6.5655
    -6.3445  -6.3241  -6.3119  -6.2866  -6.2301  -6.2231  -6.2203  -6.2182
    -6.1501  -6.1100  -6.0983  -6.0905  -5.8520  -5.8308  -5.7209  -5.7202
    -5.6444  -5.6008  -5.5346  -5.4362  -4.7781  -4.5593  -4.5340  -4.4923
    -4.4660  -4.4630  -4.3504  -4.3460  -3.9278  -3.8212  -3.8058  -3.8022
    -3.7854  -3.6941  -3.6815  -3.6402  -3.6099  -3.5442  -3.5283  -3.4238
    -3.4196  -3.4066  -3.2320  -3.2300  -2.9062  -2.8593  -2.8531  -2.7901
    -2.7827  -2.7502  -2.7341  -2.7065  -2.6879  -2.6400  -2.6144  -2.5865
    -2.5214  -2.4410  -2.4245  -2.3496  -2.1007  -2.0628  -2.0218  -1.9710
    -1.9490  -1.9435  -1.8872  -1.8805  -1.0059  -0.9772  -0.9770  -0.9732
    -0.8575  -0.8325  -0.8042  -0.8027  -0.7491  -0.7139  -0.5803  -0.5513
    -0.4973  -0.3270  -0.3039  -0.2725  -0.2671  -0.2625  -0.2336  -0.2297
    -0.2194  -0.1875  -0.1067  -0.0322   0.6250   0.6259   0.6334   0.6621
     0.6903   0.7027   0.7133   0.7341   1.2645   1.4302   1.4568   1.5148
     7.2127   7.2367   7.4360   7.4893   7.5909   7.6273   7.6779   7.7991
     7.9231   8.0875   8.1065   8.1509   8.2574   8.2812   8.2909   8.4414
     8.4886   8.5091   8.6023   8.6624   8.8413   8.8982   8.9450   9.0295
     9.1249   9.3374   9.3376   9.3942   9.4020   9.4909   9.5063   9.5746

          k =-0.5000 0.0000-0.5243 ( 98160 PWs)   bands (ev):

   -21.4207 -21.4207 -21.4203 -21.4203 -20.3429 -20.3429 -20.3387 -20.3387
   -19.0013 -19.0013 -18.9987 -18.9987 -18.9786 -18.9786 -18.9756 -18.9756
   -18.2077 -18.2077 -18.2031 -18.2031 -18.1957 -18.1957 -18.1899 -18.1899
   -12.8105 -12.8105 -12.7528 -12.7528 -11.4703 -11.4703 -11.4178 -11.4178
   -11.3892 -11.3892 -11.3600 -11.3600 -10.3594 -10.3594 -10.3358 -10.3358
    -9.4539  -9.4539  -9.4166  -9.4166  -8.7517  -8.7517  -8.6975  -8.6975
    -8.6471  -8.6471  -8.5997  -8.5997  -6.7324  -6.7324  -6.6162  -6.6162
    -6.3330  -6.3330  -6.2795  -6.2795  -6.2461  -6.2461  -6.2130  -6.2130
    -6.1324  -6.1323  -6.1068  -6.1068  -5.7779  -5.7779  -5.6954  -5.6954
    -5.6732  -5.6732  -5.5347  -5.5347  -4.7266  -4.7266  -4.5122  -4.5122
    -4.4361  -4.4361  -4.3343  -4.3343  -3.8843  -3.8843  -3.8135  -3.8135
    -3.6691  -3.6691  -3.6610  -3.6610  -3.6289  -3.6289  -3.4703  -3.4703
    -3.3279  -3.3279  -3.2840  -3.2840  -2.8636  -2.8636  -2.7986  -2.7986
    -2.7341  -2.7341  -2.7143  -2.7143  -2.6828  -2.6828  -2.6213  -2.6213
    -2.5094  -2.5094  -2.3977  -2.3977  -2.0727  -2.0727  -2.0311  -2.0311
    -1.9233  -1.9233  -1.8949  -1.8949  -1.0035  -1.0035  -0.9218  -0.9218
    -0.8378  -0.8378  -0.7751  -0.7751  -0.7191  -0.7191  -0.6859  -0.6859
    -0.4370  -0.4370  -0.2887  -0.2887  -0.2578  -0.2578  -0.2261  -0.2261
    -0.1511  -0.1511  -0.0768  -0.0768   0.6240   0.6240   0.6532   0.6532
     0.6743   0.6744   0.7394   0.7394   1.3573   1.3573   1.4803   1.4803
     7.1974   7.1974   7.3806   7.3806   7.6678   7.6678   7.7286   7.7286
     7.9358   7.9358   8.1545   8.1545   8.3165   8.3165   8.4549   8.4549
     8.5615   8.5615   8.6348   8.6348   8.8181   8.8181   8.9689   8.9689
     9.2809   9.2810   9.3270   9.3270   9.4429   9.4429   9.5463   9.5676

          k =-0.5000 0.4605-0.0424 ( 98172 PWs)   bands (ev):

   -21.4259 -21.4259 -21.4127 -21.4124 -20.3482 -20.3457 -20.3386 -20.3371
   -19.0136 -19.0128 -18.9957 -18.9938 -18.9836 -18.9824 -18.9723 -18.9715
   -18.2096 -18.2089 -18.2002 -18.2001 -18.1923 -18.1921 -18.1852 -18.1842
   -12.7929 -12.7754 -12.7552 -12.7388 -11.4839 -11.4592 -11.4532 -11.4351
   -11.4056 -11.3780 -11.3588 -11.3558 -10.3916 -10.3814 -10.3750 -10.3602
    -9.4541  -9.4477  -9.4346  -9.4153  -8.7221  -8.7001  -8.6904  -8.6710
    -8.6337  -8.6312  -8.6178  -8.6125  -6.6980  -6.6784  -6.6684  -6.5841
    -6.3563  -6.3312  -6.2637  -6.2404  -6.2308  -6.2159  -6.1901  -6.1858
    -6.1554  -6.1425  -6.1252  -6.1089  -5.8524  -5.8141  -5.8095  -5.7657
    -5.6315  -5.5874  -5.4946  -5.4912  -4.6982  -4.6502  -4.6128  -4.4837
    -4.4438  -4.4017  -4.3978  -4.3373  -3.9748  -3.8709  -3.8426  -3.8243
    -3.7616  -3.7304  -3.6863  -3.6285  -3.5401  -3.4866  -3.4658  -3.4464
    -3.4434  -3.3631  -3.3281  -3.2294  -2.8560  -2.8423  -2.8249  -2.7942
    -2.7885  -2.7631  -2.7416  -2.7152  -2.6519  -2.6322  -2.5572  -2.5509
    -2.5221  -2.4851  -2.4550  -2.4226  -2.0628  -2.0260  -2.0070  -2.0004
    -1.9834  -1.9564  -1.9030  -1.8394  -0.9840  -0.9703  -0.9392  -0.9385
    -0.8730  -0.8719  -0.8355  -0.8191  -0.7763  -0.7506  -0.5586  -0.5541
    -0.4155  -0.3258  -0.3005  -0.2967  -0.2826  -0.2461  -0.2461  -0.1681
    -0.1645  -0.1398  -0.1395  -0.1144   0.6023   0.6118   0.6571   0.6644
     0.6939   0.7096   0.7169   0.7333   1.3072   1.3972   1.4381   1.4572
     7.3403   7.3476   7.4675   7.4993   7.6632   7.6904   7.7239   7.7812
     7.8354   7.8428   8.0496   8.1180   8.1549   8.1947   8.3243   8.3347
     8.4515   8.4938   8.5712   8.7230   8.8765   8.9564   9.0062   9.1157
     9.1915   9.1969   9.2878   9.3215   9.3555   9.4088   9.4707   9.5377

          k =-0.5000 0.4605-0.5243 ( 98178 PWs)   bands (ev):

   -21.4194 -21.4194 -21.4192 -21.4192 -20.3435 -20.3435 -20.3412 -20.3412
   -19.0044 -19.0044 -19.0032 -19.0032 -18.9786 -18.9786 -18.9768 -18.9768
   -18.2034 -18.2034 -18.1997 -18.1997 -18.1933 -18.1933 -18.1897 -18.1897
   -12.7889 -12.7889 -12.7420 -12.7420 -11.4712 -11.4712 -11.4449 -11.4449
   -11.3908 -11.3908 -11.3581 -11.3581 -10.3844 -10.3844 -10.3708 -10.3708
    -9.4477  -9.4477  -9.4274  -9.4274  -8.7019  -8.7019  -8.6910  -8.6910
    -8.6253  -8.6253  -8.6197  -8.6197  -6.6852  -6.6851  -6.6195  -6.6195
    -6.3165  -6.3165  -6.2902  -6.2902  -6.2370  -6.2370  -6.1920  -6.1920
    -6.1427  -6.1427  -6.1069  -6.1069  -5.8184  -5.8184  -5.7386  -5.7386
    -5.6208  -5.6208  -5.5751  -5.5751  -4.6698  -4.6698  -4.5799  -4.5798
    -4.4445  -4.4445  -4.2978  -4.2978  -3.8945  -3.8945  -3.8069  -3.8069
    -3.7406  -3.7406  -3.6703  -3.6703  -3.5727  -3.5727  -3.4603  -3.4603
    -3.3663  -3.3663  -3.2819  -3.2819  -2.8421  -2.8421  -2.7656  -2.7656
    -2.7523  -2.7523  -2.7145  -2.7145  -2.6682  -2.6682  -2.6211  -2.6211
    -2.5139  -2.5139  -2.4418  -2.4418  -2.0410  -2.0409  -2.0041  -2.0041
    -1.9462  -1.9462  -1.8880  -1.8880  -1.0098  -1.0098  -0.9268  -0.9268
    -0.8437  -0.8437  -0.7913  -0.7913  -0.7126  -0.7126  -0.6750  -0.6750
    -0.3841  -0.3841  -0.3112  -0.3112  -0.2347  -0.2347  -0.1940  -0.1940
    -0.1622  -0.1622  -0.1086  -0.1086   0.6061   0.6061   0.6502   0.6502
     0.6980   0.6980   0.7322   0.7322   1.3576   1.3576   1.4493   1.4493
     7.3452   7.3452   7.4970   7.4970   7.6475   7.6475   7.7143   7.7143
     7.9116   7.9116   7.9864   7.9864   8.1538   8.1538   8.3189   8.3189
     8.5703   8.5703   8.7624   8.7624   8.8379   8.8379   9.0446   9.0446
     9.1449   9.1449   9.3028   9.3028   9.3882   9.3882   9.4953   9.4954

     highest occupied, lowest unoccupied level (ev):     1.5735    7.1169

!    total energy              =   -1646.50859627 Ry
     Harris-Foulkes estimate   =   -1646.50859627 Ry
     estimated scf accuracy    <          6.8E-09 Ry

     total all-electron energy =     -6107.285052 Ry

     The total energy is the sum of the following terms:

     one-electron contribution =   -1037.95436106 Ry
     hartree contribution      =     653.06895632 Ry
     xc contribution           =    -345.51239099 Ry
     ewald contribution        =    -474.52894657 Ry
     Dispersion Correction     =      -0.48344032 Ry
     one-center paw contrib.   =    -441.09841364 Ry

     convergence has been achieved in  15 iterations

     Forces acting on atoms (cartesian axes, Ry/au):

     atom    1 type  1   force =    -0.00019451   -0.00110361    0.00019798
     atom    2 type  1   force =     0.00019471   -0.00110309   -0.00021882
     atom    3 type  1   force =     0.00019451    0.00110361   -0.00019798
     atom    4 type  1   force =    -0.00019471    0.00110309    0.00021882
     atom    5 type  4   force =     0.00037477    0.00063238    0.00005460
     atom    6 type  4   force =    -0.00037499    0.00063260   -0.00005614
     atom    7 type  4   force =    -0.00037477   -0.00063238   -0.00005460
     atom    8 type  4   force =     0.00037499   -0.00063260    0.00005614
     atom    9 type  1   force =     0.00056756    0.00022251    0.00045134
     atom   10 type  1   force =    -0.00056738    0.00022278   -0.00046694
     atom   11 type  1   force =    -0.00056756   -0.00022251   -0.00045134
     atom   12 type  1   force =     0.00056738   -0.00022278    0.00046694
     atom   13 type  1   force =     0.00008550    0.00019281    0.00059249
     atom   14 type  1   force =    -0.00008431    0.00019257   -0.00061837
     atom   15 type  1   force =    -0.00008550   -0.00019281   -0.00059249
     atom   16 type  1   force =     0.00008431   -0.00019257    0.00061837
     atom   17 type  4   force =     0.00025823   -0.00107350    0.00008494
     atom   18 type  4   force =    -0.00025947   -0.00107335   -0.00008834
     atom   19 type  4   force =    -0.00025823    0.00107350   -0.00008494
     atom   20 type  4   force =     0.00025947    0.00107335    0.00008834
     atom   21 type  1   force =    -0.00063742    0.00221018   -0.00038995
     atom   22 type  1   force =     0.00063831    0.00221015    0.00036840
     atom   23 type  1   force =     0.00063742   -0.00221018    0.00038995
     atom   24 type  1   force =    -0.00063831   -0.00221015   -0.00036840
     atom   25 type  4   force =     0.00265363    0.00090313    0.00058706
     atom   26 type  4   force =    -0.00265388    0.00090303   -0.00058479
     atom   27 type  4   force =    -0.00265363   -0.00090313   -0.00058706
     atom   28 type  4   force =     0.00265388   -0.00090303    0.00058479
     atom   29 type  1   force =    -0.00222442    0.00003225   -0.00051725
     atom   30 type  1   force =     0.00222449    0.00003249    0.00052201
     atom   31 type  1   force =     0.00222442   -0.00003225    0.00051725
     atom   32 type  1   force =    -0.00222449   -0.00003249   -0.00052201
     atom   33 type  1   force =    -0.00037091   -0.00108453   -0.00008787
     atom   34 type  1   force =     0.00037114   -0.00108409    0.00009276
     atom   35 type  1   force =     0.00037091    0.00108453    0.00008787
     atom   36 type  1   force =    -0.00037114    0.00108409   -0.00009276
     atom   37 type  4   force =    -0.00172051    0.00012827    0.00009507
     atom   38 type  4   force =     0.00172016    0.00012776   -0.00009593
     atom   39 type  4   force =     0.00172051   -0.00012827   -0.00009507
     atom   40 type  4   force =    -0.00172016   -0.00012776    0.00009593
     atom   41 type  4   force =     0.00170290    0.00072722   -0.00013614
     atom   42 type  4   force =    -0.00170239    0.00072634    0.00013815
     atom   43 type  4   force =    -0.00170290   -0.00072722    0.00013614
     atom   44 type  4   force =     0.00170239   -0.00072634   -0.00013815
     atom   45 type  1   force =     0.00001669    0.00032462   -0.00067523
     atom   46 type  1   force =    -0.00001726    0.00032523    0.00069575
     atom   47 type  1   force =    -0.00001669   -0.00032462    0.00067523
     atom   48 type  1   force =     0.00001726   -0.00032523   -0.00069575
     atom   49 type  1   force =    -0.00074337   -0.00121206    0.00003185
     atom   50 type  1   force =     0.00074314   -0.00121218   -0.00001732
     atom   51 type  1   force =     0.00074337    0.00121206   -0.00003185
     atom   52 type  1   force =    -0.00074314    0.00121218    0.00001732
     atom   53 type  4   force =    -0.00016217    0.00015170    0.00023038
     atom   54 type  4   force =     0.00016189    0.00015246   -0.00023195
     atom   55 type  4   force =     0.00016217   -0.00015170   -0.00023038
     atom   56 type  4   force =    -0.00016189   -0.00015246    0.00023195
     atom   57 type  3   force =     0.00061555   -0.00026264   -0.00101297
     atom   58 type  3   force =    -0.00061550   -0.00026260    0.00101282
     atom   59 type  3   force =    -0.00061555    0.00026264    0.00101297
     atom   60 type  3   force =     0.00061550    0.00026260   -0.00101282
     atom   61 type  3   force =     0.00004727   -0.00023198    0.00033229
     atom   62 type  3   force =    -0.00004737   -0.00023195   -0.00033339
     atom   63 type  3   force =    -0.00004727    0.00023198   -0.00033229
     atom   64 type  3   force =     0.00004737    0.00023195    0.00033339
     atom   65 type  3   force =    -0.00009793   -0.00000615   -0.00013813
     atom   66 type  3   force =     0.00009798   -0.00000599    0.00013767
     atom   67 type  3   force =     0.00009793    0.00000615    0.00013813
     atom   68 type  3   force =    -0.00009798    0.00000599   -0.00013767
     atom   69 type  3   force =     0.00036616    0.00014581   -0.00034362
     atom   70 type  3   force =    -0.00036651    0.00014575    0.00034339
     atom   71 type  3   force =    -0.00036616   -0.00014581    0.00034362
     atom   72 type  3   force =     0.00036651   -0.00014575   -0.00034339
     atom   73 type  3   force =    -0.00020946   -0.00023673    0.00008771
     atom   74 type  3   force =     0.00020944   -0.00023675   -0.00008747
     atom   75 type  3   force =     0.00020946    0.00023673   -0.00008771
     atom   76 type  3   force =    -0.00020944    0.00023675    0.00008747
     atom   77 type  3   force =    -0.00004760   -0.00036439    0.00015637
     atom   78 type  3   force =     0.00004760   -0.00036443   -0.00015630
     atom   79 type  3   force =     0.00004760    0.00036439   -0.00015637
     atom   80 type  3   force =    -0.00004760    0.00036443    0.00015630
     atom   81 type  3   force =     0.00051485    0.00055403    0.00011241
     atom   82 type  3   force =    -0.00051489    0.00055409   -0.00011204
     atom   83 type  3   force =    -0.00051485   -0.00055403   -0.00011241
     atom   84 type  3   force =     0.00051489   -0.00055409    0.00011204
     atom   85 type  3   force =    -0.00074218    0.00006782    0.00005028
     atom   86 type  3   force =     0.00074219    0.00006784   -0.00005048
     atom   87 type  3   force =     0.00074218   -0.00006782   -0.00005028
     atom   88 type  3   force =    -0.00074219   -0.00006784    0.00005048
     atom   89 type  3   force =    -0.00009516    0.00044827   -0.00004186
     atom   90 type  3   force =     0.00009538    0.00044838    0.00004205
     atom   91 type  3   force =     0.00009516   -0.00044827    0.00004186
     atom   92 type  3   force =    -0.00009538   -0.00044838   -0.00004205
     atom   93 type  3   force =    -0.00016687   -0.00064539    0.00080119
     atom   94 type  3   force =     0.00016683   -0.00064544   -0.00080095
     atom   95 type  3   force =     0.00016687    0.00064539   -0.00080119
     atom   96 type  3   force =    -0.00016683    0.00064544    0.00080095
     atom   97 type  3   force =    -0.00022789   -0.00022906    0.00060762
     atom   98 type  3   force =     0.00022791   -0.00022906   -0.00060749
     atom   99 type  3   force =     0.00022789    0.00022906   -0.00060762
     atom  100 type  3   force =    -0.00022791    0.00022906    0.00060749
     atom  101 type  3   force =     0.00013048    0.00011627   -0.00008300
     atom  102 type  3   force =    -0.00013036    0.00011640    0.00008396
     atom  103 type  3   force =    -0.00013048   -0.00011627    0.00008300
     atom  104 type  3   force =     0.00013036   -0.00011640   -0.00008396

     Total force =     0.012415     Total SCF correction =     0.000241


     Computing stress (Cartesian axis) and pressure

          total   stress  (Ry/bohr**3)                   (kbar)     P=   -7.87
  -0.00005497  -0.00000000  -0.00000706         -8.09     -0.00     -1.04
  -0.00000000  -0.00005311  -0.00000000         -0.00     -7.81     -0.00
  -0.00000706  -0.00000000  -0.00005251         -1.04     -0.00     -7.72


     Writing output data file scf.save
 
     init_run     :     39.55s CPU     41.30s WALL (       1 calls)
     electrons    :   1327.23s CPU   1392.29s WALL (       1 calls)
     forces       :     20.35s CPU     20.56s WALL (       1 calls)
     stress       :    124.99s CPU    125.44s WALL (       1 calls)

     Called by init_run:
     wfcinit      :     28.26s CPU     29.87s WALL (       1 calls)
     potinit      :      3.96s CPU      4.00s WALL (       1 calls)

     Called by electrons:
     c_bands      :   1202.85s CPU   1258.42s WALL (      15 calls)
     sum_band     :    110.43s CPU    118.50s WALL (      15 calls)
     v_of_rho     :      1.82s CPU      1.99s WALL (      16 calls)
     newd         :      4.32s CPU      5.47s WALL (      16 calls)
     PAW_pot      :      7.07s CPU      7.08s WALL (      16 calls)
     mix_rho      :      0.45s CPU      0.50s WALL (      15 calls)

     Called by c_bands:
     init_us_2    :      8.28s CPU      8.31s WALL (     264 calls)
     cegterg      :   1172.61s CPU   1228.14s WALL (     120 calls)

     Called by sum_band:
     sum_band:bec :      0.08s CPU      0.08s WALL (     120 calls)
     addusdens    :      4.44s CPU      5.54s WALL (      15 calls)

     Called by *egterg:
     h_psi        :    642.39s CPU    687.09s WALL (     623 calls)
     s_psi        :    117.41s CPU    117.45s WALL (     623 calls)
     g_psi        :      5.14s CPU      5.14s WALL (     495 calls)
     cdiaghg      :     82.73s CPU     82.75s WALL (     615 calls)

     Called by h_psi:
     h_psi:pot    :    636.86s CPU    681.45s WALL (     623 calls)
     h_psi:calbec :    114.03s CPU    114.34s WALL (     623 calls)
     vloc_psi     :    405.50s CPU    449.74s WALL (     623 calls)
     add_vuspsi   :    117.32s CPU    117.37s WALL (     623 calls)

     General routines
     calbec       :    160.03s CPU    160.46s WALL (     783 calls)
     fft          :      1.21s CPU      1.51s WALL (     232 calls)
     fftw         :    427.77s CPU    475.69s WALL (  171826 calls)
 
     Parallel routines
     fft_scatter  :     90.22s CPU    128.47s WALL (  172058 calls)
 
     PWSCF        : 25m22.68s CPU    27m14.02s WALL

 
   This run was terminated on:  22:10:21   3Nov2017            

=------------------------------------------------------------------------------=
   JOB DONE.
=------------------------------------------------------------------------------=
