
     Program PWSCF v.6.1 (svn rev. 13369) starts on 13Nov2017 at 12:24: 3 

     This program is part of the open-source Quantum ESPRESSO suite
     for quantum simulation of materials; please cite
         "P. Giannozzi et al., J. Phys.:Condens. Matter 21 395502 (2009);
          URL http://www.quantum-espresso.org", 
     in publications or presentations arising from this work. More details at
     http://www.quantum-espresso.org/quote

     Parallel version (MPI), running on     8 processors
     R & G space division:  proc/nbgrp/npool/nimage =       8
     Waiting for input...
     Reading input from standard input

     Current dimensions of program PWSCF are:
     Max number of different atomic species (ntypx) = 10
     Max number of k-points (npk) =  40000
     Max angular momentum in pseudopotentials (lmaxx) =  3
               file C.pbe-n-kjpaw_psl.0.1.UPF: wavefunction(s)  2P renormalized
               file N.pbe-n-kjpaw_psl.0.1.UPF: wavefunction(s)  2P renormalized
               file H.pbe-kjpaw_psl.0.1.UPF: wavefunction(s)  1S renormalized
               file O.pbe-n-kjpaw_psl.0.1.UPF: wavefunction(s)  2P renormalized

     -------------------------------------
     Parameters for Dispersion Correction:
     -------------------------------------
       atom      VdW radius       C_6     

        C          2.744         60.710
        N          2.640         42.670
        H          1.892          4.857
        O          2.536         24.284

     Subspace diagonalization in iterative solution of the eigenvalue problem:
     a serial algorithm will be used

 
     Parallelization info
     --------------------
     sticks:   dense  smooth     PW     G-vecs:    dense   smooth      PW
     Min        1005    1005    264               102749   102749   13882
     Max        1006    1006    266               102752   102752   13884
     Sum        8047    8047   2115               822007   822007  111069
 


     bravais-lattice index     =            0
     lattice parameter (alat)  =      18.7914  a.u.
     unit-cell volume          =    6084.9079 (a.u.)^3
     number of atoms/cell      =           92
     number of atomic types    =            4
     number of electrons       =       288.00
     number of Kohn-Sham states=          172
     kinetic-energy cutoff     =     100.0000  Ry
     charge density cutoff     =     400.0000  Ry
     convergence threshold     =      1.0E-08
     mixing beta               =       0.5000
     number of iterations used =            8  plain     mixing
     Exchange-correlation      =  SLA  PW   PBX  PBC ( 1  4  3  4 0 0)

     celldm(1)=  18.791437  celldm(2)=   0.000000  celldm(3)=   0.000000
     celldm(4)=   0.000000  celldm(5)=   0.000000  celldm(6)=   0.000000

     crystal axes: (cart. coord. in units of alat)
               a(1) = (   1.000000   0.000000   0.000000 )  
               a(2) = (   0.000000   0.716714   0.000000 )  
               a(3) = (   0.000000   0.000000   1.279465 )  

     reciprocal axes: (cart. coord. in units 2 pi/alat)
               b(1) = (  1.000000  0.000000  0.000000 )  
               b(2) = (  0.000000  1.395257  0.000000 )  
               b(3) = (  0.000000  0.000000  0.781577 )  


     PseudoPot. # 1 for  C read from file:
     /scratch/ahofstet/pseudo/C.pbe-n-kjpaw_psl.0.1.UPF
     MD5 check sum: 430fe95172b1e11ef3f8ed03bac87931
     Pseudo is Projector augmented-wave + core cor, Zval =  4.0
     Generated using "atomic" code by A. Dal Corso  v.5.0.99 svn rev. 10869
     Shape of augmentation charge: BESSEL
     Using radial grid of 1073 points,  4 beta functions with: 
                l(1) =   0
                l(2) =   0
                l(3) =   1
                l(4) =   1
     Q(r) pseudized with 0 coefficients 


     PseudoPot. # 2 for  N read from file:
     /scratch/ahofstet/pseudo/N.pbe-n-kjpaw_psl.0.1.UPF
     MD5 check sum: f73187c8b701007e77325f868c9291d7
     Pseudo is Projector augmented-wave + core cor, Zval =  5.0
     Generated using "atomic" code by A. Dal Corso  v.5.0.99 svn rev. 10869
     Shape of augmentation charge: PSQ
     Using radial grid of 1085 points,  4 beta functions with: 
                l(1) =   0
                l(2) =   0
                l(3) =   1
                l(4) =   1
     Q(r) pseudized with 0 coefficients 


     PseudoPot. # 3 for  H read from file:
     /scratch/ahofstet/pseudo/H.pbe-kjpaw_psl.0.1.UPF
     MD5 check sum: 94e484f906d9e9773b2f6e52662335b2
     Pseudo is Projector augmented-wave, Zval =  1.0
     Generated using "atomic" code by A. Dal Corso  v.5.0.99 svn rev. 10869
     Shape of augmentation charge: PSQ
     Using radial grid of  929 points,  2 beta functions with: 
                l(1) =   0
                l(2) =   0
     Q(r) pseudized with 0 coefficients 


     PseudoPot. # 4 for  O read from file:
     /scratch/ahofstet/pseudo/O.pbe-n-kjpaw_psl.0.1.UPF
     MD5 check sum: 3f94a2996a3169367d6eb21d9b593f20
     Pseudo is Projector augmented-wave + core cor, Zval =  6.0
     Generated using "atomic" code by A. Dal Corso  v.5.0.99 svn rev. 10869
     Shape of augmentation charge: BESSEL
     Using radial grid of 1095 points,  4 beta functions with: 
                l(1) =   0
                l(2) =   0
                l(3) =   1
                l(4) =   1
     Q(r) pseudized with 0 coefficients 


     atomic species   valence    mass     pseudopotential
        C              4.00    12.01070      C( 1.00)
        N              5.00    14.00670      N( 1.00)
        H              1.00     1.00794      H( 1.00)
        O              6.00    15.99940      O( 1.00)

      4 Sym. Ops. (no inversion) found ( 3 have fractional translation)



   Cartesian axes

     site n.     atom                  positions (alat units)
         1           O   tau(   1) = (   0.8887321   0.6342466   0.4549216  )
         2           O   tau(   2) = (   0.1112679   0.0824669   1.0946541  )
         3           O   tau(   3) = (   0.6112679   0.6342466   1.0946541  )
         4           O   tau(   4) = (   0.3887321   0.0824669   0.4549216  )
         5           O   tau(   5) = (   0.6637906   0.6017875   0.4739467  )
         6           O   tau(   6) = (   0.3362094   0.1149261   1.1136792  )
         7           O   tau(   7) = (   0.8362094   0.6017875   1.1136792  )
         8           O   tau(   8) = (   0.1637906   0.1149261   0.4739467  )
         9           O   tau(   9) = (   0.8273202   0.4217828   0.9261736  )
        10           O   tau(  10) = (   0.1726798   0.2949308   0.2864410  )
        11           O   tau(  11) = (   0.6726798   0.4217828   0.2864410  )
        12           O   tau(  12) = (   0.3273202   0.2949308   0.9261736  )
        13           N   tau(  13) = (   0.5994469   0.4032635   0.9322282  )
        14           N   tau(  14) = (   0.4005531   0.3134501   0.2924957  )
        15           N   tau(  15) = (   0.9005531   0.4032635   0.2924957  )
        16           N   tau(  16) = (   0.0994469   0.3134501   0.9322282  )
        17           C   tau(  17) = (   0.7623606   0.0536675   0.6065608  )
        18           C   tau(  18) = (   0.2376394   0.6630461   1.2462933  )
        19           C   tau(  19) = (   0.7376394   0.0536675   1.2462933  )
        20           C   tau(  20) = (   0.2623606   0.6630461   0.6065608  )
        21           C   tau(  21) = (   0.8776674   0.1435140   0.6642387  )
        22           C   tau(  22) = (   0.1223326   0.5731996   0.0245062  )
        23           C   tau(  23) = (   0.6223326   0.1435140   0.0245062  )
        24           C   tau(  24) = (   0.3776674   0.5731996   0.6642387  )
        25           C   tau(  25) = (   0.7859326   0.2706823   0.6474083  )
        26           C   tau(  26) = (   0.2140674   0.4460313   0.0076758  )
        27           C   tau(  27) = (   0.7140674   0.2706823   0.0076758  )
        28           C   tau(  28) = (   0.2859326   0.4460313   0.6474083  )
        29           C   tau(  29) = (   0.7279709   0.2499330   0.7941954  )
        30           C   tau(  30) = (   0.2720291   0.4667806   0.1544629  )
        31           C   tau(  31) = (   0.7720291   0.2499330   0.1544629  )
        32           C   tau(  32) = (   0.2279709   0.4667806   0.7941954  )
        33           C   tau(  33) = (   0.8209917   0.1221865   0.8099522  )
        34           C   tau(  34) = (   0.1790083   0.5945271   0.1702197  )
        35           C   tau(  35) = (   0.6790083   0.1221865   0.1702197  )
        36           C   tau(  36) = (   0.3209917   0.5945271   0.8099522  )
        37           C   tau(  37) = (   0.7041474   0.0329048   0.7532108  )
        38           C   tau(  38) = (   0.2958526   0.6838087   0.1134783  )
        39           C   tau(  39) = (   0.7958526   0.0329048   0.1134783  )
        40           C   tau(  40) = (   0.2041474   0.6838087   0.7532108  )
        41           C   tau(  41) = (   0.6122515   0.1599155   0.7359219  )
        42           C   tau(  42) = (   0.3877485   0.5567981   0.0961894  )
        43           C   tau(  43) = (   0.8877485   0.1599155   0.0961894  )
        44           C   tau(  44) = (   0.1122515   0.5567981   0.7359219  )
        45           C   tau(  45) = (   0.6693791   0.1817031   0.5906711  )
        46           C   tau(  46) = (   0.3306209   0.5350105   1.2304036  )
        47           C   tau(  47) = (   0.8306209   0.1817031   1.2304036  )
        48           C   tau(  48) = (   0.1693791   0.5350105   0.5906711  )
        49           C   tau(  49) = (   0.7784596   0.6631584   0.5046737  )
        50           C   tau(  50) = (   0.2215404   0.0535552   1.1444062  )
        51           C   tau(  51) = (   0.7215404   0.6631584   1.1444062  )
        52           C   tau(  52) = (   0.2784596   0.0535552   0.5046737  )
        53           C   tau(  53) = (   0.7199178   0.3627867   0.8900973  )
        54           C   tau(  54) = (   0.2800822   0.3539269   0.2503648  )
        55           C   tau(  55) = (   0.7800822   0.3627867   0.2503648  )
        56           C   tau(  56) = (   0.2199178   0.3539269   0.8900973  )
        57           H   tau(  57) = (   0.6763756   0.5306962   0.3994252  )
        58           H   tau(  58) = (   0.3236244   0.1860174   1.0391577  )
        59           H   tau(  59) = (   0.8236244   0.5306962   1.0391577  )
        60           H   tau(  60) = (   0.1763756   0.1860174   0.3994252  )
        61           H   tau(  61) = (   0.5949758   0.4872857   0.9938350  )
        62           H   tau(  62) = (   0.4050242   0.2294279   0.3541025  )
        63           H   tau(  63) = (   0.9050242   0.4872857   0.3541025  )
        64           H   tau(  64) = (   0.0949758   0.2294279   0.9938350  )
        65           H   tau(  65) = (   0.5123524   0.3536122   0.9083512  )
        66           H   tau(  66) = (   0.4876476   0.3631014   0.2686187  )
        67           H   tau(  67) = (   0.9876476   0.3536122   0.2686187  )
        68           H   tau(  68) = (   0.0123524   0.3631014   0.9083512  )
        69           H   tau(  69) = (   0.9825352   0.1351737   0.6326311  )
        70           H   tau(  70) = (   0.0174648   0.5815398   1.2723636  )
        71           H   tau(  71) = (   0.5174648   0.1351737   1.2723636  )
        72           H   tau(  72) = (   0.4825352   0.5815398   0.6326311  )
        73           H   tau(  73) = (   0.8173705   0.3685846   0.6078274  )
        74           H   tau(  74) = (   0.1826295   0.3481290   1.2475599  )
        75           H   tau(  75) = (   0.6826295   0.3685846   1.2475599  )
        76           H   tau(  76) = (   0.3173705   0.3481290   0.6078274  )
        77           H   tau(  77) = (   0.8809589   0.0992597   0.8994188  )
        78           H   tau(  78) = (   0.1190411   0.6174539   0.2596863  )
        79           H   tau(  79) = (   0.6190411   0.0992597   0.2596863  )
        80           H   tau(  80) = (   0.3809589   0.6174539   0.8994188  )
        81           H   tau(  81) = (   0.6721772   0.6527239   0.7947373  )
        82           H   tau(  82) = (   0.3278228   0.0639897   0.1550048  )
        83           H   tau(  83) = (   0.8278228   0.6527239   0.1550048  )
        84           H   tau(  84) = (   0.1721772   0.0639897   0.7947373  )
        85           H   tau(  85) = (   0.5061286   0.1668462   0.7645972  )
        86           H   tau(  86) = (   0.4938714   0.5498674   0.1248647  )
        87           H   tau(  87) = (   0.9938714   0.1668462   0.1248647  )
        88           H   tau(  88) = (   0.0061286   0.5498674   0.7645972  )
        89           H   tau(  89) = (   0.6089612   0.2029819   0.5015423  )
        90           H   tau(  90) = (   0.3910388   0.5137317   1.1412748  )
        91           H   tau(  91) = (   0.8910388   0.2029819   1.1412748  )
        92           H   tau(  92) = (   0.1089612   0.5137317   0.5015423  )

     number of k points=     8
                       cart. coord. in units 2pi/alat
        k(    1) = (   0.0000000   0.0000000   0.0000000), wk =   0.1666667
        k(    2) = (   0.0000000   0.0000000  -0.3907883), wk =   0.1666667
        k(    3) = (   0.0000000   0.4650858   0.0000000), wk =   0.3333333
        k(    4) = (   0.0000000   0.4650858  -0.3907883), wk =   0.3333333
        k(    5) = (  -0.5000000   0.0000000   0.0000000), wk =   0.1666667
        k(    6) = (  -0.5000000   0.0000000  -0.3907883), wk =   0.1666667
        k(    7) = (  -0.5000000   0.4650858   0.0000000), wk =   0.3333333
        k(    8) = (  -0.5000000   0.4650858  -0.3907883), wk =   0.3333333

     Dense  grid:   822007 G-vectors     FFT dimensions: ( 120,  90, 160)

     Estimated max dynamical RAM per process >     751.47MB

     Estimated total allocated dynamical RAM >    6011.76MB

     Check: negative/imaginary core charge=   -0.000002    0.000000

     Initial potential from superposition of free atoms

     starting charge  287.99795, renormalised to  288.00000
     Starting wfc are  260 randomized atomic wfcs
     Checking if some PAW data can be deallocated... 

     total cpu time spent up to now is       41.6 secs

     per-process dynamical memory:   518.5 Mb

     Self-consistent Calculation

     iteration #  1     ecut=   100.00 Ry     beta=0.50
     Davidson diagonalization with overlap
     ethr =  1.00E-02,  avg # of iterations =  3.0

     total cpu time spent up to now is      157.4 secs

     total energy              =   -1390.19901919 Ry
     Harris-Foulkes estimate   =   -1395.19891508 Ry
     estimated scf accuracy    <       9.32611158 Ry

     iteration #  2     ecut=   100.00 Ry     beta=0.50
     Davidson diagonalization with overlap
     ethr =  3.24E-03,  avg # of iterations =  3.0

     total cpu time spent up to now is      230.4 secs

     total energy              =   -1391.38918017 Ry
     Harris-Foulkes estimate   =   -1391.82581152 Ry
     estimated scf accuracy    <       0.99555098 Ry

     iteration #  3     ecut=   100.00 Ry     beta=0.50
     Davidson diagonalization with overlap
     ethr =  3.46E-04,  avg # of iterations =  5.2

     total cpu time spent up to now is      370.1 secs

     total energy              =   -1391.96865169 Ry
     Harris-Foulkes estimate   =   -1392.26831380 Ry
     estimated scf accuracy    <       0.72448754 Ry

     iteration #  4     ecut=   100.00 Ry     beta=0.50
     Davidson diagonalization with overlap
     ethr =  2.52E-04,  avg # of iterations =  7.5

     total cpu time spent up to now is      445.0 secs

     total energy              =   -1391.96864346 Ry
     Harris-Foulkes estimate   =   -1392.04203239 Ry
     estimated scf accuracy    <       0.13707604 Ry

     iteration #  5     ecut=   100.00 Ry     beta=0.50
     Davidson diagonalization with overlap
     ethr =  4.76E-05,  avg # of iterations =  6.2

     total cpu time spent up to now is      586.1 secs

     total energy              =   -1392.05509853 Ry
     Harris-Foulkes estimate   =   -1392.13959665 Ry
     estimated scf accuracy    <       0.23665991 Ry

     iteration #  6     ecut=   100.00 Ry     beta=0.50
     Davidson diagonalization with overlap
     ethr =  4.76E-05,  avg # of iterations =  3.2

     total cpu time spent up to now is      649.2 secs

     total energy              =   -1392.02860629 Ry
     Harris-Foulkes estimate   =   -1392.06692164 Ry
     estimated scf accuracy    <       0.07457648 Ry

     iteration #  7     ecut=   100.00 Ry     beta=0.50
     Davidson diagonalization with overlap
     ethr =  2.59E-05,  avg # of iterations =  6.1

     total cpu time spent up to now is      775.4 secs

     total energy              =   -1392.06865552 Ry
     Harris-Foulkes estimate   =   -1392.07485031 Ry
     estimated scf accuracy    <       0.01853462 Ry

     iteration #  8     ecut=   100.00 Ry     beta=0.50
     Davidson diagonalization with overlap
     ethr =  6.44E-06,  avg # of iterations =  1.2

     total cpu time spent up to now is      834.6 secs

     total energy              =   -1392.06543509 Ry
     Harris-Foulkes estimate   =   -1392.06931804 Ry
     estimated scf accuracy    <       0.00685643 Ry

     iteration #  9     ecut=   100.00 Ry     beta=0.50
     Davidson diagonalization with overlap
     ethr =  2.38E-06,  avg # of iterations =  5.0

     total cpu time spent up to now is      958.7 secs

     total energy              =   -1392.07020116 Ry
     Harris-Foulkes estimate   =   -1392.07061322 Ry
     estimated scf accuracy    <       0.00327387 Ry

     iteration # 10     ecut=   100.00 Ry     beta=0.50
     Davidson diagonalization with overlap
     ethr =  1.14E-06,  avg # of iterations =  1.0

     total cpu time spent up to now is     1017.6 secs

     total energy              =   -1392.06896132 Ry
     Harris-Foulkes estimate   =   -1392.07021923 Ry
     estimated scf accuracy    <       0.00251360 Ry

     iteration # 11     ecut=   100.00 Ry     beta=0.50
     Davidson diagonalization with overlap
     ethr =  8.73E-07,  avg # of iterations =  4.0

     total cpu time spent up to now is     1102.7 secs

     total energy              =   -1392.06961892 Ry
     Harris-Foulkes estimate   =   -1392.06962771 Ry
     estimated scf accuracy    <       0.00003662 Ry

     iteration # 12     ecut=   100.00 Ry     beta=0.50
     Davidson diagonalization with overlap
     ethr =  1.27E-08,  avg # of iterations =  4.1

     total cpu time spent up to now is     1222.1 secs

     total energy              =   -1392.06963423 Ry
     Harris-Foulkes estimate   =   -1392.06964616 Ry
     estimated scf accuracy    <       0.00002686 Ry

     iteration # 13     ecut=   100.00 Ry     beta=0.50
     Davidson diagonalization with overlap
     ethr =  9.33E-09,  avg # of iterations =  1.0

     total cpu time spent up to now is     1281.0 secs

     total energy              =   -1392.06963000 Ry
     Harris-Foulkes estimate   =   -1392.06963546 Ry
     estimated scf accuracy    <       0.00000719 Ry

     iteration # 14     ecut=   100.00 Ry     beta=0.50
     Davidson diagonalization with overlap
     ethr =  2.50E-09,  avg # of iterations =  4.0

     total cpu time spent up to now is     1409.7 secs

     total energy              =   -1392.06963460 Ry
     Harris-Foulkes estimate   =   -1392.06964513 Ry
     estimated scf accuracy    <       0.00002352 Ry

     iteration # 15     ecut=   100.00 Ry     beta=0.50
     Davidson diagonalization with overlap
     ethr =  2.50E-09,  avg # of iterations =  4.9

     total cpu time spent up to now is     1513.7 secs

     total energy              =   -1392.06963794 Ry
     Harris-Foulkes estimate   =   -1392.06963816 Ry
     estimated scf accuracy    <       0.00000033 Ry

     iteration # 16     ecut=   100.00 Ry     beta=0.50
     Davidson diagonalization with overlap
     ethr =  1.16E-10,  avg # of iterations =  5.0

     total cpu time spent up to now is     1630.2 secs

     total energy              =   -1392.06963808 Ry
     Harris-Foulkes estimate   =   -1392.06963814 Ry
     estimated scf accuracy    <       0.00000011 Ry

     iteration # 17     ecut=   100.00 Ry     beta=0.50
     Davidson diagonalization with overlap
     ethr =  3.93E-11,  avg # of iterations =  1.0

     total cpu time spent up to now is     1689.1 secs

     total energy              =   -1392.06963807 Ry
     Harris-Foulkes estimate   =   -1392.06963809 Ry
     estimated scf accuracy    <       0.00000002 Ry

     iteration # 18     ecut=   100.00 Ry     beta=0.50
     Davidson diagonalization with overlap
     ethr =  7.00E-12,  avg # of iterations =  4.0

     total cpu time spent up to now is     1814.3 secs

     total energy              =   -1392.06963810 Ry
     Harris-Foulkes estimate   =   -1392.06963811 Ry
     estimated scf accuracy    <       0.00000003 Ry

     iteration # 19     ecut=   100.00 Ry     beta=0.50
     Davidson diagonalization with overlap
     ethr =  7.00E-12,  avg # of iterations =  1.0

     total cpu time spent up to now is     1873.3 secs

     total energy              =   -1392.06963810 Ry
     Harris-Foulkes estimate   =   -1392.06963810 Ry
     estimated scf accuracy    <       0.00000002 Ry

     iteration # 20     ecut=   100.00 Ry     beta=0.50
     Davidson diagonalization with overlap
     ethr =  5.58E-12,  avg # of iterations =  4.0

     total cpu time spent up to now is     1971.3 secs

     End of self-consistent calculation

          k = 0.0000 0.0000 0.0000 (102793 PWs)   bands (ev):

   -20.8009 -20.7984 -20.7876 -20.7854 -19.7191 -19.7137 -19.6639 -19.6591
   -18.5229 -18.5217 -18.5029 -18.5009 -17.5734 -17.5689 -17.5666 -17.5614
   -16.2634 -16.2613 -16.0693 -16.0685 -12.5705 -12.5600 -12.4174 -12.4154
   -11.8466 -11.8315 -11.8273 -11.8258 -11.8231 -11.8028 -11.7595 -11.7488
   -10.5939 -10.5590 -10.0236  -9.9978  -9.1353  -8.9130  -8.5816  -8.3396
    -7.8689  -7.7401  -7.6485  -7.6194  -7.5615  -7.5555  -7.4725  -7.4173
    -7.4055  -7.3398  -7.2999  -7.1699  -7.1621  -7.1531  -6.9402  -6.8791
    -6.8358  -6.6773  -6.5313  -6.4846  -6.2580  -6.0123  -5.6413  -5.5465
    -5.2991  -5.1395  -5.1196  -5.1151  -5.0531  -5.0307  -4.9787  -4.8774
    -4.8701  -4.7897  -4.7790  -4.6510  -4.5584  -4.5323  -4.4811  -4.4490
    -4.4064  -4.3169  -4.2951  -4.2811  -4.2510  -4.1859  -4.1690  -4.1374
    -4.1119  -4.0478  -4.0014  -3.9295  -3.8995  -3.8515  -3.8453  -3.7952
    -3.5420  -3.5276  -3.3300  -3.3205  -2.9247  -2.7922  -2.5723  -2.3768
    -1.4657  -1.2663  -1.1740  -1.0782  -1.0729  -1.0407  -0.9855  -0.9070
    -0.5966  -0.5111  -0.5037  -0.4993  -0.4423  -0.4369  -0.3883  -0.3863
    -0.3766  -0.3747  -0.3470  -0.3415  -0.3367  -0.3340  -0.2629  -0.2605
    -0.2530  -0.1882  -0.1682  -0.0856  -0.0629  -0.0483   0.0167   0.0352
     0.0684   0.0691   0.0881   0.2993   0.3154   0.4724   0.6488   0.6656
     4.7408   4.9308   5.0033   5.0732   5.1057   5.2717   5.3488   5.4078
     5.9872   6.1640   6.1759   6.6268   6.6541   6.7804   6.7937   7.1016
     7.1091   7.2488   7.2899   7.3346   7.7152   7.8441   7.9877   8.0617
     8.1170   8.3662   8.4222   8.5020

          k = 0.0000 0.0000-0.3908 (102828 PWs)   bands (ev):

   -20.7996 -20.7996 -20.7865 -20.7865 -19.7164 -19.7164 -19.6615 -19.6615
   -18.5223 -18.5223 -18.5019 -18.5019 -17.5700 -17.5700 -17.5652 -17.5652
   -16.2624 -16.2624 -16.0689 -16.0689 -12.4986 -12.4986 -12.4921 -12.4921
   -11.8348 -11.8348 -11.8285 -11.8285 -11.8156 -11.8156 -11.7546 -11.7546
   -10.3502 -10.3502 -10.3129 -10.3129  -8.8103  -8.8103  -8.5836  -8.5836
    -7.8022  -7.8022  -7.6405  -7.6405  -7.5156  -7.5156  -7.4867  -7.4867
    -7.3903  -7.3903  -7.2437  -7.2437  -7.1559  -7.1559  -6.8628  -6.8628
    -6.7968  -6.7968  -6.6277  -6.6277  -5.8357  -5.8357  -5.7723  -5.7723
    -5.1085  -5.1085  -5.1014  -5.1014  -5.0713  -5.0713  -5.0106  -5.0106
    -4.8972  -4.8972  -4.7236  -4.7236  -4.4471  -4.4471  -4.3819  -4.3819
    -4.3746  -4.3746  -4.3158  -4.3158  -4.2000  -4.2000  -4.1262  -4.1262
    -4.1216  -4.1216  -3.9925  -3.9925  -3.9478  -3.9478  -3.8540  -3.8540
    -3.4141  -3.4141  -3.4030  -3.4030  -2.8661  -2.8661  -2.4568  -2.4568
    -1.3249  -1.3249  -1.1071  -1.1071  -1.0661  -1.0661  -0.9449  -0.9449
    -0.5643  -0.5643  -0.5057  -0.5057  -0.4781  -0.4781  -0.4420  -0.4420
    -0.3778  -0.3778  -0.3759  -0.3759  -0.3223  -0.3223  -0.3087  -0.3087
    -0.1599  -0.1599  -0.1210  -0.1210  -0.0466  -0.0466   0.0508   0.0508
     0.0551   0.0551   0.2421   0.2421   0.4989   0.4989   0.5510   0.5510
     4.8256   4.8256   4.9891   4.9891   5.2867   5.2867   5.3560   5.3560
     6.1809   6.1809   6.2520   6.2520   6.6773   6.6773   6.8607   6.8607
     7.0975   7.0975   7.6087   7.6087   7.6515   7.6515   7.9059   7.9059
     8.3338   8.3338   8.5027   8.5027

          k = 0.0000 0.4651 0.0000 (102723 PWs)   bands (ev):

   -20.7984 -20.7981 -20.7872 -20.7872 -19.7177 -19.7148 -19.6633 -19.6603
   -18.5230 -18.5221 -18.5020 -18.5010 -17.5736 -17.5691 -17.5678 -17.5636
   -16.2635 -16.2621 -16.0705 -16.0682 -12.5209 -12.5198 -12.4657 -12.4587
   -11.8490 -11.8377 -11.8257 -11.8243 -11.8230 -11.8102 -11.7607 -11.7599
   -10.4633 -10.4361 -10.2106 -10.1725  -8.9478  -8.7639  -8.6854  -8.4661
    -7.8030  -7.7557  -7.5972  -7.5892  -7.5581  -7.5196  -7.4585  -7.4400
    -7.4374  -7.3827  -7.2645  -7.1975  -7.0975  -7.0907  -6.9589  -6.9419
    -6.8688  -6.6808  -6.6502  -6.5575  -5.9958  -5.8981  -5.7413  -5.5969
    -5.1904  -5.1412  -5.1187  -5.1067  -5.0580  -5.0239  -4.9885  -4.9616
    -4.9283  -4.8158  -4.7101  -4.6395  -4.5254  -4.4434  -4.4427  -4.3891
    -4.3589  -4.3389  -4.3160  -4.2839  -4.2420  -4.1996  -4.1837  -4.1398
    -4.1284  -4.1006  -4.0307  -3.9981  -3.9749  -3.9687  -3.9110  -3.8535
    -3.4698  -3.4680  -3.4398  -3.4302  -2.8253  -2.8029  -2.5605  -2.4847
    -1.3742  -1.2244  -1.1604  -1.0809  -1.0617  -1.0413  -0.9934  -0.9547
    -0.5660  -0.5646  -0.5131  -0.5048  -0.4787  -0.4661  -0.4480  -0.4328
    -0.4282  -0.4005  -0.3966  -0.3424  -0.3244  -0.3095  -0.2942  -0.2920
    -0.1969  -0.1190  -0.0949  -0.0827  -0.0453   0.0137   0.0530   0.0910
     0.1275   0.1505   0.1578   0.2360   0.4190   0.5028   0.5341   0.6053
     4.8755   4.9588   5.0145   5.0406   5.2138   5.2979   5.3231   5.4311
     6.0542   6.1075   6.2380   6.5356   6.7569   6.7740   6.9037   6.9850
     7.0524   7.1943   7.2303   7.6228   7.8122   7.8863   8.0481   8.0581
     8.0858   8.2252   8.3059   8.3496

          k = 0.0000 0.4651-0.3908 (102674 PWs)   bands (ev):

   -20.7983 -20.7983 -20.7872 -20.7872 -19.7164 -19.7164 -19.6617 -19.6617
   -18.5225 -18.5225 -18.5015 -18.5015 -17.5729 -17.5729 -17.5641 -17.5641
   -16.2628 -16.2628 -16.0694 -16.0694 -12.5489 -12.5489 -12.4292 -12.4292
   -11.8366 -11.8366 -11.8256 -11.8256 -11.8227 -11.8227 -11.7604 -11.7604
   -10.5403 -10.5403 -10.0622 -10.0622  -9.0034  -9.0034  -8.4738  -8.4738
    -7.7905  -7.7905  -7.5499  -7.5499  -7.5223  -7.5223  -7.4859  -7.4859
    -7.4122  -7.4122  -7.2453  -7.2453  -7.0834  -7.0834  -6.9645  -6.9645
    -6.7761  -6.7761  -6.5457  -6.5457  -6.0708  -6.0708  -5.6032  -5.6032
    -5.1528  -5.1528  -5.1230  -5.1230  -5.0825  -5.0825  -4.9643  -4.9643
    -4.8346  -4.8346  -4.6678  -4.6678  -4.5335  -4.5335  -4.4353  -4.4353
    -4.2688  -4.2688  -4.2465  -4.2465  -4.2288  -4.2288  -4.1129  -4.1129
    -4.0974  -4.0974  -4.0529  -4.0529  -4.0134  -4.0134  -3.9439  -3.9439
    -3.4837  -3.4837  -3.4077  -3.4077  -2.7880  -2.7880  -2.5527  -2.5527
    -1.3380  -1.3380  -1.1108  -1.1108  -1.0493  -1.0493  -0.9708  -0.9708
    -0.5453  -0.5453  -0.5078  -0.5078  -0.4448  -0.4448  -0.4156  -0.4156
    -0.3783  -0.3783  -0.3699  -0.3699  -0.3469  -0.3469  -0.2665  -0.2665
    -0.2285  -0.2285  -0.0719  -0.0719   0.0086   0.0086   0.0772   0.0772
     0.1277   0.1277   0.1457   0.1457   0.4129   0.4129   0.6258   0.6258
     4.8996   4.8996   5.0981   5.0981   5.1882   5.1882   5.4084   5.4084
     6.1315   6.1315   6.3257   6.3257   6.6945   6.6945   6.9515   6.9515
     7.0278   7.0278   7.4217   7.4217   7.8709   7.8709   8.0377   8.0377
     8.1484   8.1484   8.3613   8.3613

          k =-0.5000 0.0000 0.0000 (102836 PWs)   bands (ev):

   -20.7942 -20.7942 -20.7919 -20.7919 -19.6919 -19.6919 -19.6868 -19.6868
   -18.5130 -18.5130 -18.5113 -18.5113 -17.5711 -17.5711 -17.5639 -17.5639
   -16.1674 -16.1674 -16.1658 -16.1658 -12.5652 -12.5652 -12.4165 -12.4165
   -11.8411 -11.8411 -11.8213 -11.8213 -11.7902 -11.7902 -11.7825 -11.7825
   -10.5730 -10.5730 -10.0085 -10.0085  -9.0205  -9.0205  -8.4362  -8.4362
    -7.6901  -7.6901  -7.6126  -7.6126  -7.5552  -7.5552  -7.4711  -7.4711
    -7.4194  -7.4194  -7.3206  -7.3206  -7.0915  -7.0915  -7.0001  -7.0001
    -6.8370  -6.8370  -6.5006  -6.5006  -6.1903  -6.1903  -5.5893  -5.5893
    -5.1546  -5.1546  -5.1071  -5.1071  -5.0653  -5.0653  -4.9134  -4.9134
    -4.8471  -4.8471  -4.7042  -4.7042  -4.4881  -4.4881  -4.4328  -4.4328
    -4.4050  -4.4050  -4.2215  -4.2215  -4.1614  -4.1614  -4.1039  -4.1039
    -4.0628  -4.0628  -4.0334  -4.0334  -3.9445  -3.9445  -3.8370  -3.8370
    -3.5177  -3.5177  -3.3104  -3.3104  -2.7028  -2.7028  -2.6209  -2.6209
    -1.3343  -1.3343  -1.1298  -1.1298  -1.0311  -1.0311  -1.0134  -1.0134
    -0.5859  -0.5859  -0.4569  -0.4569  -0.4420  -0.4420  -0.4189  -0.4189
    -0.3780  -0.3780  -0.3350  -0.3350  -0.3051  -0.3051  -0.2942  -0.2942
    -0.2359  -0.2359  -0.1013  -0.1013  -0.0469  -0.0469   0.0341   0.0341
     0.0422   0.0422   0.1400   0.1400   0.3761   0.3761   0.6796   0.6796
     4.8327   4.8327   5.0760   5.0760   5.1475   5.1475   5.3780   5.3780
     6.0334   6.0334   6.5134   6.5134   6.8051   6.8051   6.9037   6.9037
     7.1743   7.1743   7.3153   7.3153   7.7524   7.7524   7.8648   7.8648
     8.0941   8.0941   8.3480   8.3480

          k =-0.5000 0.0000-0.3908 (102840 PWs)   bands (ev):

   -20.7931 -20.7931 -20.7931 -20.7931 -19.6894 -19.6894 -19.6894 -19.6894
   -18.5122 -18.5122 -18.5122 -18.5122 -17.5675 -17.5675 -17.5675 -17.5675
   -16.1666 -16.1666 -16.1666 -16.1666 -12.4954 -12.4954 -12.4954 -12.4954
   -11.8303 -11.8303 -11.8303 -11.8303 -11.7875 -11.7875 -11.7875 -11.7875
   -10.3288 -10.3288 -10.3288 -10.3288  -8.6856  -8.6856  -8.6856  -8.6856
    -7.6430  -7.6430  -7.6430  -7.6430  -7.5196  -7.5196  -7.5196  -7.5196
    -7.3805  -7.3805  -7.3805  -7.3805  -7.0440  -7.0440  -7.0440  -7.0440
    -6.7406  -6.7406  -6.7406  -6.7406  -5.8132  -5.8132  -5.8132  -5.8132
    -5.1077  -5.1077  -5.1077  -5.1077  -5.0126  -5.0126  -5.0126  -5.0126
    -4.8068  -4.8068  -4.8068  -4.8068  -4.3813  -4.3813  -4.3813  -4.3813
    -4.2978  -4.2978  -4.2978  -4.2978  -4.1836  -4.1836  -4.1836  -4.1836
    -4.0496  -4.0496  -4.0496  -4.0496  -3.9296  -3.9296  -3.9296  -3.9296
    -3.3955  -3.3955  -3.3955  -3.3955  -2.6543  -2.6543  -2.6543  -2.6543
    -1.2105  -1.2105  -1.2105  -1.2105  -1.0194  -1.0194  -1.0194  -1.0194
    -0.5607  -0.5607  -0.5607  -0.5607  -0.4378  -0.4378  -0.4378  -0.4378
    -0.3831  -0.3831  -0.3831  -0.3831  -0.3080  -0.3080  -0.3080  -0.3080
    -0.1446  -0.1446  -0.1446  -0.1446   0.0317   0.0317   0.0317   0.0317
     0.0785   0.0785   0.0785   0.0785   0.5390   0.5390   0.5390   0.5390
     4.9106   4.9106   4.9106   4.9106   5.3125   5.3125   5.3125   5.3125
     6.2570   6.2570   6.2570   6.2570   6.7717   6.7717   6.7717   6.7717
     7.3332   7.3332   7.3332   7.3332   7.7293   7.7293   7.7293   7.7293
     8.2971   8.2971   8.2971   8.2971

          k =-0.5000 0.4651 0.0000 (102712 PWs)   bands (ev):

   -20.7928 -20.7928 -20.7927 -20.7927 -19.6910 -19.6910 -19.6880 -19.6880
   -18.5126 -18.5126 -18.5115 -18.5115 -17.5706 -17.5706 -17.5662 -17.5662
   -16.1680 -16.1680 -16.1661 -16.1661 -12.5205 -12.5205 -12.4621 -12.4621
   -11.8525 -11.8525 -11.8312 -11.8312 -11.7848 -11.7848 -11.7777 -11.7777
   -10.4488 -10.4488 -10.1885 -10.1885  -8.8400  -8.8400  -8.5571  -8.5571
    -7.6604  -7.6604  -7.6064  -7.6064  -7.5487  -7.5487  -7.4835  -7.4835
    -7.4108  -7.4108  -7.3099  -7.3099  -7.0848  -7.0848  -7.0100  -7.0100
    -6.8215  -6.8215  -6.6211  -6.6211  -5.9436  -5.9436  -5.6904  -5.6904
    -5.1676  -5.1676  -5.0875  -5.0875  -5.0443  -5.0443  -4.9371  -4.9371
    -4.8284  -4.8284  -4.7088  -4.7088  -4.4674  -4.4674  -4.4078  -4.4078
    -4.3334  -4.3334  -4.3035  -4.3035  -4.2457  -4.2457  -4.1934  -4.1934
    -4.0754  -4.0754  -3.9952  -3.9952  -3.9416  -3.9416  -3.8489  -3.8489
    -3.4585  -3.4585  -3.4521  -3.4521  -2.6719  -2.6719  -2.6582  -2.6582
    -1.2612  -1.2612  -1.1506  -1.1506  -1.0224  -1.0224  -1.0065  -1.0065
    -0.5939  -0.5939  -0.5289  -0.5289  -0.4734  -0.4734  -0.4298  -0.4298
    -0.4093  -0.4093  -0.3613  -0.3613  -0.3229  -0.3229  -0.2864  -0.2864
    -0.2082  -0.2082  -0.0912  -0.0912   0.0123   0.0123   0.0616   0.0616
     0.1123   0.1123   0.1758   0.1758   0.4675   0.4675   0.5743   0.5743
     4.9588   4.9588   5.0039   5.0039   5.2649   5.2649   5.3840   5.3840
     6.0226   6.0226   6.3349   6.3349   6.8323   6.8323   7.0396   7.0396
     7.3192   7.3192   7.4631   7.4631   7.7294   7.7294   7.7777   7.7777
     8.1292   8.1292   8.3936   8.3936

          k =-0.5000 0.4651-0.3908 (102780 PWs)   bands (ev):

   -20.7934 -20.7934 -20.7921 -20.7921 -19.6918 -19.6918 -19.6872 -19.6872
   -18.5128 -18.5128 -18.5113 -18.5113 -17.5718 -17.5718 -17.5651 -17.5651
   -16.1680 -16.1680 -16.1661 -16.1661 -12.5488 -12.5488 -12.4293 -12.4293
   -11.8425 -11.8425 -11.8405 -11.8405 -11.7834 -11.7834 -11.7799 -11.7799
   -10.5377 -10.5377 -10.0609 -10.0609  -8.9714  -8.9714  -8.4700  -8.4700
    -7.6644  -7.6644  -7.5819  -7.5819  -7.5270  -7.5270  -7.5044  -7.5044
    -7.4032  -7.4032  -7.3323  -7.3323  -7.0685  -7.0685  -7.0483  -7.0483
    -6.8183  -6.8183  -6.5479  -6.5479  -6.0873  -6.0873  -5.6087  -5.6087
    -5.1465  -5.1465  -5.1112  -5.1112  -5.0889  -5.0889  -4.9029  -4.9029
    -4.8029  -4.8029  -4.7258  -4.7258  -4.4740  -4.4740  -4.4399  -4.4399
    -4.3279  -4.3279  -4.2348  -4.2348  -4.2224  -4.2224  -4.1245  -4.1245
    -4.1057  -4.1057  -4.0377  -4.0377  -3.9342  -3.9342  -3.9139  -3.9139
    -3.4834  -3.4834  -3.4108  -3.4108  -2.6985  -2.6985  -2.6403  -2.6403
    -1.3012  -1.3012  -1.1323  -1.1323  -1.0253  -1.0253  -1.0113  -1.0113
    -0.5922  -0.5922  -0.4786  -0.4786  -0.4335  -0.4335  -0.4331  -0.4331
    -0.3819  -0.3819  -0.3730  -0.3730  -0.3178  -0.3178  -0.3172  -0.3172
    -0.2193  -0.2193  -0.0943  -0.0943   0.0088   0.0088   0.0548   0.0548
     0.1350   0.1350   0.1402   0.1402   0.4007   0.4007   0.6306   0.6306
     4.9264   4.9264   5.1022   5.1022   5.1870   5.1870   5.4124   5.4124
     6.0909   6.0909   6.2709   6.2709   6.7910   6.7910   6.9193   6.9193
     7.3856   7.3856   7.4154   7.4154   7.6746   7.6746   7.8100   7.8100
     8.2335   8.2335   8.3528   8.3528

     highest occupied, lowest unoccupied level (ev):     0.6796    4.7408

!    total energy              =   -1392.06963810 Ry
     Harris-Foulkes estimate   =   -1392.06963810 Ry
     estimated scf accuracy    <          1.5E-09 Ry

     total all-electron energy =     -5333.991452 Ry

     The total energy is the sum of the following terms:

     one-electron contribution =    -810.45342438 Ry
     hartree contribution      =     518.64293380 Ry
     xc contribution           =    -302.11426034 Ry
     ewald contribution        =    -384.41946825 Ry
     Dispersion Correction     =      -0.40381318 Ry
     one-center paw contrib.   =    -413.32160575 Ry

     convergence has been achieved in  20 iterations

     Forces acting on atoms (cartesian axes, Ry/au):

     atom    1 type  4   force =    -0.00027006    0.00036197   -0.00104437
     atom    2 type  4   force =     0.00027006   -0.00036197   -0.00104437
     atom    3 type  4   force =     0.00027006    0.00036197   -0.00104437
     atom    4 type  4   force =    -0.00027006   -0.00036197   -0.00104437
     atom    5 type  4   force =     0.00066863    0.00054705    0.00089261
     atom    6 type  4   force =    -0.00066863   -0.00054705    0.00089261
     atom    7 type  4   force =    -0.00066863    0.00054705    0.00089261
     atom    8 type  4   force =     0.00066863   -0.00054705    0.00089261
     atom    9 type  4   force =     0.00093968   -0.00059256   -0.00072084
     atom   10 type  4   force =    -0.00093968    0.00059256   -0.00072084
     atom   11 type  4   force =    -0.00093968   -0.00059256   -0.00072084
     atom   12 type  4   force =     0.00093968    0.00059256   -0.00072084
     atom   13 type  2   force =     0.00132322    0.00000482    0.00063600
     atom   14 type  2   force =    -0.00132322   -0.00000482    0.00063600
     atom   15 type  2   force =    -0.00132322    0.00000482    0.00063600
     atom   16 type  2   force =     0.00132322   -0.00000482    0.00063600
     atom   17 type  1   force =    -0.00028297    0.00169547    0.00130302
     atom   18 type  1   force =     0.00028297   -0.00169547    0.00130302
     atom   19 type  1   force =     0.00028297    0.00169547    0.00130302
     atom   20 type  1   force =    -0.00028297   -0.00169547    0.00130302
     atom   21 type  1   force =    -0.00095346   -0.00042839    0.00015900
     atom   22 type  1   force =     0.00095346    0.00042839    0.00015900
     atom   23 type  1   force =     0.00095346   -0.00042839    0.00015900
     atom   24 type  1   force =    -0.00095346    0.00042839    0.00015900
     atom   25 type  1   force =     0.00162580    0.00013426   -0.00069462
     atom   26 type  1   force =    -0.00162580   -0.00013426   -0.00069462
     atom   27 type  1   force =    -0.00162580    0.00013426   -0.00069462
     atom   28 type  1   force =     0.00162580   -0.00013426   -0.00069462
     atom   29 type  1   force =     0.00133105   -0.00147460   -0.00093426
     atom   30 type  1   force =    -0.00133105    0.00147460   -0.00093426
     atom   31 type  1   force =    -0.00133105   -0.00147460   -0.00093426
     atom   32 type  1   force =     0.00133105    0.00147460   -0.00093426
     atom   33 type  1   force =     0.00083998    0.00023436   -0.00001806
     atom   34 type  1   force =    -0.00083998   -0.00023436   -0.00001806
     atom   35 type  1   force =    -0.00083998    0.00023436   -0.00001806
     atom   36 type  1   force =     0.00083998   -0.00023436   -0.00001806
     atom   37 type  1   force =    -0.00224175   -0.00105014    0.00085285
     atom   38 type  1   force =     0.00224175    0.00105014    0.00085285
     atom   39 type  1   force =     0.00224175   -0.00105014    0.00085285
     atom   40 type  1   force =    -0.00224175    0.00105014    0.00085285
     atom   41 type  1   force =     0.00065131   -0.00003335   -0.00047869
     atom   42 type  1   force =    -0.00065131    0.00003335   -0.00047869
     atom   43 type  1   force =    -0.00065131   -0.00003335   -0.00047869
     atom   44 type  1   force =     0.00065131    0.00003335   -0.00047869
     atom   45 type  1   force =    -0.00130764   -0.00040611    0.00081716
     atom   46 type  1   force =     0.00130764    0.00040611    0.00081716
     atom   47 type  1   force =     0.00130764   -0.00040611    0.00081716
     atom   48 type  1   force =    -0.00130764    0.00040611    0.00081716
     atom   49 type  1   force =     0.00114312   -0.00326211   -0.00085506
     atom   50 type  1   force =    -0.00114312    0.00326211   -0.00085506
     atom   51 type  1   force =    -0.00114312   -0.00326211   -0.00085506
     atom   52 type  1   force =     0.00114312    0.00326211   -0.00085506
     atom   53 type  1   force =    -0.00034546    0.00304152    0.00067264
     atom   54 type  1   force =     0.00034546   -0.00304152    0.00067264
     atom   55 type  1   force =     0.00034546    0.00304152    0.00067264
     atom   56 type  1   force =    -0.00034546   -0.00304152    0.00067264
     atom   57 type  3   force =     0.00013881    0.00070719   -0.00034112
     atom   58 type  3   force =    -0.00013881   -0.00070719   -0.00034112
     atom   59 type  3   force =    -0.00013881    0.00070719   -0.00034112
     atom   60 type  3   force =     0.00013881   -0.00070719   -0.00034112
     atom   61 type  3   force =     0.00018787   -0.00001803    0.00049041
     atom   62 type  3   force =    -0.00018787    0.00001803    0.00049041
     atom   63 type  3   force =    -0.00018787   -0.00001803    0.00049041
     atom   64 type  3   force =     0.00018787    0.00001803    0.00049041
     atom   65 type  3   force =    -0.00257229   -0.00057004   -0.00092459
     atom   66 type  3   force =     0.00257229    0.00057004   -0.00092459
     atom   67 type  3   force =     0.00257229   -0.00057004   -0.00092459
     atom   68 type  3   force =    -0.00257229    0.00057004   -0.00092459
     atom   69 type  3   force =     0.00041485    0.00035591    0.00051390
     atom   70 type  3   force =    -0.00041485   -0.00035591    0.00051390
     atom   71 type  3   force =    -0.00041485    0.00035591    0.00051390
     atom   72 type  3   force =     0.00041485   -0.00035591    0.00051390
     atom   73 type  3   force =     0.00029446   -0.00101479   -0.00012418
     atom   74 type  3   force =    -0.00029446    0.00101479   -0.00012418
     atom   75 type  3   force =    -0.00029446   -0.00101479   -0.00012418
     atom   76 type  3   force =     0.00029446    0.00101479   -0.00012418
     atom   77 type  3   force =    -0.00016419   -0.00054235    0.00059606
     atom   78 type  3   force =     0.00016419    0.00054235    0.00059606
     atom   79 type  3   force =     0.00016419   -0.00054235    0.00059606
     atom   80 type  3   force =    -0.00016419    0.00054235    0.00059606
     atom   81 type  3   force =     0.00005636    0.00150684   -0.00056838
     atom   82 type  3   force =    -0.00005636   -0.00150684   -0.00056838
     atom   83 type  3   force =    -0.00005636    0.00150684   -0.00056838
     atom   84 type  3   force =     0.00005636   -0.00150684   -0.00056838
     atom   85 type  3   force =    -0.00030470   -0.00061267    0.00024098
     atom   86 type  3   force =     0.00030470    0.00061267    0.00024098
     atom   87 type  3   force =     0.00030470   -0.00061267    0.00024098
     atom   88 type  3   force =    -0.00030470    0.00061267    0.00024098
     atom   89 type  3   force =    -0.00028889    0.00014821   -0.00047047
     atom   90 type  3   force =     0.00028889   -0.00014821   -0.00047047
     atom   91 type  3   force =     0.00028889    0.00014821   -0.00047047
     atom   92 type  3   force =    -0.00028889   -0.00014821   -0.00047047

     Total force =     0.016532     Total SCF correction =     0.000091


     Computing stress (Cartesian axis) and pressure

          total   stress  (Ry/bohr**3)                   (kbar)     P=   -4.03
  -0.00002157   0.00000000   0.00000000         -3.17      0.00      0.00
   0.00000000  -0.00003070   0.00000000          0.00     -4.52      0.00
   0.00000000   0.00000000  -0.00002993          0.00      0.00     -4.40


     Writing output data file scf.save
 
     init_run     :     39.13s CPU     40.89s WALL (       1 calls)
     electrons    :   1854.19s CPU   1929.95s WALL (       1 calls)
     forces       :     18.64s CPU     18.84s WALL (       1 calls)
     stress       :     81.59s CPU     82.01s WALL (       1 calls)

     Called by init_run:
     wfcinit      :     33.69s CPU     35.21s WALL (       1 calls)
     potinit      :      1.98s CPU      2.03s WALL (       1 calls)

     Called by electrons:
     c_bands      :   1687.03s CPU   1751.40s WALL (      20 calls)
     sum_band     :    151.88s CPU    161.63s WALL (      20 calls)
     v_of_rho     :      2.22s CPU      2.47s WALL (      21 calls)
     newd         :      4.76s CPU      6.05s WALL (      21 calls)
     PAW_pot      :      7.68s CPU      7.68s WALL (      21 calls)
     mix_rho      :      0.53s CPU      0.57s WALL (      20 calls)

     Called by c_bands:
     init_us_2    :      8.52s CPU      8.55s WALL (     344 calls)
     cegterg      :   1652.68s CPU   1716.97s WALL (     160 calls)

     Called by sum_band:
     sum_band:bec :      0.10s CPU      0.10s WALL (     160 calls)
     addusdens    :      4.89s CPU      6.17s WALL (      20 calls)

     Called by *egterg:
     h_psi        :    870.91s CPU    922.35s WALL (     765 calls)
     s_psi        :    203.73s CPU    203.77s WALL (     765 calls)
     g_psi        :      4.65s CPU      4.65s WALL (     597 calls)
     cdiaghg      :     83.80s CPU     83.80s WALL (     757 calls)

     Called by h_psi:
     h_psi:pot    :    864.79s CPU    916.15s WALL (     765 calls)
     h_psi:calbec :    196.52s CPU    196.87s WALL (     765 calls)
     vloc_psi     :    464.24s CPU    515.22s WALL (     765 calls)
     add_vuspsi   :    204.02s CPU    204.05s WALL (     765 calls)

     General routines
     calbec       :    274.57s CPU    275.07s WALL (     965 calls)
     fft          :      1.39s CPU      1.88s WALL (     297 calls)
     fftw         :    494.75s CPU    550.48s WALL (  197562 calls)
 
     Parallel routines
     fft_scatter  :    104.62s CPU    150.42s WALL (  197859 calls)
 
     PWSCF        : 33m23.52s CPU    35m32.00s WALL

 
   This run was terminated on:  12:59:35  13Nov2017            

=------------------------------------------------------------------------------=
   JOB DONE.
=------------------------------------------------------------------------------=
