
     Program PWSCF v.6.1 (svn rev. 13369) starts on 12Dec2017 at  1: 8:19 

     This program is part of the open-source Quantum ESPRESSO suite
     for quantum simulation of materials; please cite
         "P. Giannozzi et al., J. Phys.:Condens. Matter 21 395502 (2009);
          URL http://www.quantum-espresso.org", 
     in publications or presentations arising from this work. More details at
     http://www.quantum-espresso.org/quote

     Parallel version (MPI), running on     8 processors
     R & G space division:  proc/nbgrp/npool/nimage =       8
     Waiting for input...
     Reading input from standard input

     Current dimensions of program PWSCF are:
     Max number of different atomic species (ntypx) = 10
     Max number of k-points (npk) =  40000
     Max angular momentum in pseudopotentials (lmaxx) =  3
               file C.pbe-n-kjpaw_psl.0.1.UPF: wavefunction(s)  2P renormalized
               file N.pbe-n-kjpaw_psl.0.1.UPF: wavefunction(s)  2P renormalized
               file H.pbe-kjpaw_psl.0.1.UPF: wavefunction(s)  1S renormalized
               file O.pbe-n-kjpaw_psl.0.1.UPF: wavefunction(s)  2P renormalized

     -------------------------------------
     Parameters for Dispersion Correction:
     -------------------------------------
       atom      VdW radius       C_6     

        C          2.744         60.710
        N          2.640         42.670
        H          1.892          4.857
        O          2.536         24.284

     Subspace diagonalization in iterative solution of the eigenvalue problem:
     a serial algorithm will be used

 
     Parallelization info
     --------------------
     sticks:   dense  smooth     PW     G-vecs:    dense   smooth      PW
     Min        2512    2512    656               224304   224304   30038
     Max        2514    2514    657               224305   224305   30043
     Sum       20105   20105   5249              1794437  1794437  240317
 


     bravais-lattice index     =            0
     lattice parameter (alat)  =      25.1428  a.u.
     unit-cell volume          =   13285.2645 (a.u.)^3
     number of atoms/cell      =          192
     number of atomic types    =            4
     number of electrons       =       736.00
     number of Kohn-Sham states=          441
     kinetic-energy cutoff     =     100.0000  Ry
     charge density cutoff     =     400.0000  Ry
     convergence threshold     =      1.0E-08
     mixing beta               =       0.5000
     number of iterations used =            8  plain     mixing
     Exchange-correlation      =  SLA  PW   PBX  PBC ( 1  4  3  4 0 0)

     celldm(1)=  25.142806  celldm(2)=   0.000000  celldm(3)=   0.000000
     celldm(4)=   0.000000  celldm(5)=   0.000000  celldm(6)=   0.000000

     crystal axes: (cart. coord. in units of alat)
               a(1) = (   1.000000   0.000000   0.000000 )  
               a(2) = (   0.000000   1.000000   0.000000 )  
               a(3) = (   0.000000   0.000000   0.835851 )  

     reciprocal axes: (cart. coord. in units 2 pi/alat)
               b(1) = (  1.000000  0.000000  0.000000 )  
               b(2) = (  0.000000  1.000000  0.000000 )  
               b(3) = (  0.000000  0.000000  1.196385 )  


     PseudoPot. # 1 for  C read from file:
     /scratch/ahofstet/pseudo/C.pbe-n-kjpaw_psl.0.1.UPF
     MD5 check sum: 430fe95172b1e11ef3f8ed03bac87931
     Pseudo is Projector augmented-wave + core cor, Zval =  4.0
     Generated using "atomic" code by A. Dal Corso  v.5.0.99 svn rev. 10869
     Shape of augmentation charge: BESSEL
     Using radial grid of 1073 points,  4 beta functions with: 
                l(1) =   0
                l(2) =   0
                l(3) =   1
                l(4) =   1
     Q(r) pseudized with 0 coefficients 


     PseudoPot. # 2 for  N read from file:
     /scratch/ahofstet/pseudo/N.pbe-n-kjpaw_psl.0.1.UPF
     MD5 check sum: f73187c8b701007e77325f868c9291d7
     Pseudo is Projector augmented-wave + core cor, Zval =  5.0
     Generated using "atomic" code by A. Dal Corso  v.5.0.99 svn rev. 10869
     Shape of augmentation charge: PSQ
     Using radial grid of 1085 points,  4 beta functions with: 
                l(1) =   0
                l(2) =   0
                l(3) =   1
                l(4) =   1
     Q(r) pseudized with 0 coefficients 


     PseudoPot. # 3 for  H read from file:
     /scratch/ahofstet/pseudo/H.pbe-kjpaw_psl.0.1.UPF
     MD5 check sum: 94e484f906d9e9773b2f6e52662335b2
     Pseudo is Projector augmented-wave, Zval =  1.0
     Generated using "atomic" code by A. Dal Corso  v.5.0.99 svn rev. 10869
     Shape of augmentation charge: PSQ
     Using radial grid of  929 points,  2 beta functions with: 
                l(1) =   0
                l(2) =   0
     Q(r) pseudized with 0 coefficients 


     PseudoPot. # 4 for  O read from file:
     /scratch/ahofstet/pseudo/O.pbe-n-kjpaw_psl.0.1.UPF
     MD5 check sum: 3f94a2996a3169367d6eb21d9b593f20
     Pseudo is Projector augmented-wave + core cor, Zval =  6.0
     Generated using "atomic" code by A. Dal Corso  v.5.0.99 svn rev. 10869
     Shape of augmentation charge: BESSEL
     Using radial grid of 1095 points,  4 beta functions with: 
                l(1) =   0
                l(2) =   0
                l(3) =   1
                l(4) =   1
     Q(r) pseudized with 0 coefficients 


     atomic species   valence    mass     pseudopotential
        C              4.00    12.01070      C( 1.00)
        N              5.00    14.00670      N( 1.00)
        H              1.00     1.00794      H( 1.00)
        O              6.00    15.99940      O( 1.00)

      2 Sym. Ops., with inversion, found



   Cartesian axes

     site n.     atom                  positions (alat units)
         1           N   tau(   1) = (   0.3735195   0.3033473   0.0575197  )
         2           N   tau(   2) = (   0.8735019   0.8033475   0.4754425  )
         3           N   tau(   3) = (   0.4466545   0.6235069   0.2664813  )
         4           N   tau(   4) = (   0.9466499   0.1235154   0.6844065  )
         5           N   tau(   5) = (   0.1264983   0.6966528   0.4754417  )
         6           N   tau(   6) = (   0.6264791   0.1966502   0.0575191  )
         7           N   tau(   7) = (   0.0533471   0.3764899   0.6844050  )
         8           N   tau(   8) = (   0.5533484   0.8764888   0.2664821  )
         9           N   tau(   9) = (   0.6264805   0.6966527   0.7783315  )
        10           N   tau(  10) = (   0.1264981   0.1966525   0.3604087  )
        11           N   tau(  11) = (   0.0533501   0.8764846   0.1514447  )
        12           N   tau(  12) = (   0.5533455   0.3764931   0.5693699  )
        13           N   tau(  13) = (   0.8735017   0.3033472   0.3604095  )
        14           N   tau(  14) = (   0.3735209   0.8033498   0.7783321  )
        15           N   tau(  15) = (   0.4466516   0.1235112   0.5693691  )
        16           N   tau(  16) = (   0.9466529   0.6235101   0.1514462  )
        17           N   tau(  17) = (   0.2449146   0.1044583   0.0366809  )
        18           N   tau(  18) = (   0.7449067   0.6044635   0.4546061  )
        19           N   tau(  19) = (   0.6455478   0.4949098   0.2456422  )
        20           N   tau(  20) = (   0.1455300   0.9949134   0.6635702  )
        21           N   tau(  21) = (   0.2550946   0.8955388   0.4546074  )
        22           N   tau(  22) = (   0.7550869   0.3955381   0.0366805  )
        23           N   tau(  23) = (   0.8544721   0.5051000   0.6635708  )
        24           N   tau(  24) = (   0.3544511   0.0050808   0.2456421  )
        25           N   tau(  25) = (   0.7550854   0.8955417   0.7991703  )
        26           N   tau(  26) = (   0.2550933   0.3955365   0.3812450  )
        27           N   tau(  27) = (   0.8544700   0.0050866   0.1722810  )
        28           N   tau(  28) = (   0.3544522   0.5050902   0.5902090  )
        29           N   tau(  29) = (   0.7449054   0.1044612   0.3812438  )
        30           N   tau(  30) = (   0.2449131   0.6044619   0.7991707  )
        31           N   tau(  31) = (   0.6455489   0.9949192   0.5902091  )
        32           N   tau(  32) = (   0.1455279   0.4949000   0.1722804  )
        33           O   tau(  33) = (   0.3680481   0.2707264   0.1439124  )
        34           O   tau(  34) = (   0.8680382   0.7707259   0.5618356  )
        35           O   tau(  35) = (   0.4792716   0.6180400   0.3528757  )
        36           O   tau(  36) = (   0.9792757   0.1180470   0.7707979  )
        37           O   tau(  37) = (   0.1319605   0.7292777   0.5618357  )
        38           O   tau(  38) = (   0.6319547   0.2292680   0.1439144  )
        39           O   tau(  39) = (   0.0207232   0.3819564   0.7707978  )
        40           O   tau(  40) = (   0.5207313   0.8819589   0.3528769  )
        41           O   tau(  41) = (   0.6319519   0.7292736   0.6919388  )
        42           O   tau(  42) = (   0.1319618   0.2292741   0.2740156  )
        43           O   tau(  43) = (   0.0207243   0.8819530   0.0650533  )
        44           O   tau(  44) = (   0.5207284   0.3819600   0.4829755  )
        45           O   tau(  45) = (   0.8680395   0.2707223   0.2740154  )
        46           O   tau(  46) = (   0.3680453   0.7707320   0.6919368  )
        47           O   tau(  47) = (   0.4792687   0.1180411   0.4829743  )
        48           O   tau(  48) = (   0.9792768   0.6180436   0.0650534  )
        49           O   tau(  49) = (   0.4431660   0.3553295   0.0255701  )
        50           O   tau(  50) = (   0.9431490   0.8553241   0.4434870  )
        51           O   tau(  51) = (   0.3946807   0.6931560   0.2345254  )
        52           O   tau(  52) = (   0.8946649   0.1931596   0.6524577  )
        53           O   tau(  53) = (   0.0568557   0.6446727   0.4434877  )
        54           O   tau(  54) = (   0.5568293   0.1446756   0.0255700  )
        55           O   tau(  55) = (   0.1053282   0.3068447   0.6524536  )
        56           O   tau(  56) = (   0.6053235   0.8068400   0.2345285  )
        57           O   tau(  57) = (   0.5568340   0.6446705   0.8102811  )
        58           O   tau(  58) = (   0.0568510   0.1446759   0.3923642  )
        59           O   tau(  59) = (   0.1053351   0.8068404   0.1833935  )
        60           O   tau(  60) = (   0.6053193   0.3068440   0.6013258  )
        61           O   tau(  61) = (   0.9431443   0.3553273   0.3923635  )
        62           O   tau(  62) = (   0.4431707   0.8553244   0.8102812  )
        63           O   tau(  63) = (   0.3946765   0.1931600   0.6013227  )
        64           O   tau(  64) = (   0.8946718   0.6931553   0.1833976  )
        65           O   tau(  65) = (   0.1809501   0.0440049   0.0657663  )
        66           O   tau(  66) = (   0.6809513   0.5440031   0.4836962  )
        67           O   tau(  67) = (   0.7060057   0.4309503   0.2747312  )
        68           O   tau(  68) = (   0.2059860   0.9309525   0.6926582  )
        69           O   tau(  69) = (   0.3190470   0.9560002   0.4836964  )
        70           O   tau(  70) = (   0.8190499   0.4559895   0.0657667  )
        71           O   tau(  71) = (   0.7940156   0.5690579   0.6926588  )
        72           O   tau(  72) = (   0.2939937   0.0690408   0.2747290  )
        73           O   tau(  73) = (   0.8190499   0.9559951   0.7700849  )
        74           O   tau(  74) = (   0.3190487   0.4559969   0.3521550  )
        75           O   tau(  75) = (   0.7940140   0.0690475   0.1431930  )
        76           O   tau(  76) = (   0.2939943   0.5690497   0.5611200  )
        77           O   tau(  77) = (   0.6809530   0.0439998   0.3521548  )
        78           O   tau(  78) = (   0.1809501   0.5440105   0.7700845  )
        79           O   tau(  79) = (   0.7060063   0.9309592   0.5611222  )
        80           O   tau(  80) = (   0.2059844   0.4309421   0.1431924  )
        81           O   tau(  81) = (   0.3326039   0.0828238   0.0169953  )
        82           O   tau(  82) = (   0.8325967   0.5828384   0.4349154  )
        83           O   tau(  83) = (   0.6671750   0.5825991   0.2259551  )
        84           O   tau(  84) = (   0.1671619   0.0826020   0.6438809  )
        85           O   tau(  85) = (   0.1674021   0.9171616   0.4349172  )
        86           O   tau(  86) = (   0.6673964   0.4171735   0.0169929  )
        87           O   tau(  87) = (   0.8328413   0.4174095   0.6438805  )
        88           O   tau(  88) = (   0.3328230   0.9173902   0.2259556  )
        89           O   tau(  89) = (   0.6673961   0.9171762   0.8188559  )
        90           O   tau(  90) = (   0.1674033   0.4171616   0.4009358  )
        91           O   tau(  91) = (   0.8328381   0.9173980   0.1919702  )
        92           O   tau(  92) = (   0.3328250   0.4174009   0.6098961  )
        93           O   tau(  93) = (   0.8325979   0.0828384   0.4009340  )
        94           O   tau(  94) = (   0.3326036   0.5828265   0.8188583  )
        95           O   tau(  95) = (   0.6671770   0.0826098   0.6098956  )
        96           O   tau(  96) = (   0.1671587   0.5825905   0.1919707  )
        97           C   tau(  97) = (   0.2898992   0.2804869   0.8198110  )
        98           C   tau(  98) = (   0.7898698   0.7804945   0.4018872  )
        99           C   tau(  99) = (   0.4695107   0.5398781   0.1929252  )
       100           C   tau( 100) = (   0.9695069   0.0398918   0.6108474  )
       101           C   tau( 101) = (   0.2101305   0.7195095   0.4018872  )
       102           C   tau( 102) = (   0.7101006   0.2195076   0.8198112  )
       103           C   tau( 103) = (   0.0304919   0.4601172   0.6108478  )
       104           C   tau( 104) = (   0.5304901   0.9601144   0.1929247  )
       105           C   tau( 105) = (   0.7101008   0.7195131   0.0160402  )
       106           C   tau( 106) = (   0.2101302   0.2195055   0.4339640  )
       107           C   tau( 107) = (   0.0304931   0.9601082   0.2250038  )
       108           C   tau( 108) = (   0.5304893   0.4601219   0.6429260  )
       109           C   tau( 109) = (   0.7898695   0.2804905   0.4339640  )
       110           C   tau( 110) = (   0.2898994   0.7804924   0.0160400  )
       111           C   tau( 111) = (   0.4695099   0.0398856   0.6429264  )
       112           C   tau( 112) = (   0.9695081   0.5398828   0.2250034  )
       113           C   tau( 113) = (   0.2105874   0.2123327   0.0262658  )
       114           C   tau( 114) = (   0.7105631   0.7123373   0.4441930  )
       115           C   tau( 115) = (   0.5376776   0.4605707   0.2352283  )
       116           C   tau( 116) = (   0.0376523   0.9605802   0.6531556  )
       117           C   tau( 117) = (   0.2894381   0.7876667   0.4441939  )
       118           C   tau( 118) = (   0.7894134   0.2876609   0.0262643  )
       119           C   tau( 119) = (   0.9623508   0.5394341   0.6531562  )
       120           C   tau( 120) = (   0.4623213   0.0394174   0.2352281  )
       121           C   tau( 121) = (   0.7894126   0.7876673   0.8095854  )
       122           C   tau( 122) = (   0.2894369   0.2876627   0.3916582  )
       123           C   tau( 123) = (   0.9623477   0.0394198   0.1826956  )
       124           C   tau( 124) = (   0.4623224   0.5394293   0.6006229  )
       125           C   tau( 125) = (   0.7105619   0.2123333   0.3916573  )
       126           C   tau( 126) = (   0.2105866   0.7123391   0.8095868  )
       127           C   tau( 127) = (   0.5376787   0.9605826   0.6006230  )
       128           C   tau( 128) = (   0.0376492   0.4605659   0.1826950  )
       129           H   tau( 129) = (   0.2571966   0.3539667   0.8009173  )
       130           H   tau( 130) = (   0.7571801   0.8539801   0.3829952  )
       131           H   tau( 131) = (   0.3960281   0.5071795   0.1740353  )
       132           H   tau( 132) = (   0.8960241   0.0071979   0.5919517  )
       133           H   tau( 133) = (   0.2428202   0.6460256   0.3829919  )
       134           H   tau( 134) = (   0.7428020   0.1460258   0.8009201  )
       135           H   tau( 135) = (   0.1039765   0.4928064   0.5919513  )
       136           H   tau( 136) = (   0.6039710   0.9928162   0.1740349  )
       137           H   tau( 137) = (   0.7428034   0.6460333   0.0349339  )
       138           H   tau( 138) = (   0.2428199   0.1460199   0.4528560  )
       139           H   tau( 139) = (   0.1039759   0.9928021   0.2438995  )
       140           H   tau( 140) = (   0.6039719   0.4928205   0.6618159  )
       141           H   tau( 141) = (   0.7571798   0.3539744   0.4528593  )
       142           H   tau( 142) = (   0.2571980   0.8539742   0.0349311  )
       143           H   tau( 143) = (   0.3960290   0.0071838   0.6618163  )
       144           H   tau( 144) = (   0.8960235   0.5071936   0.2438999  )
       145           H   tau( 145) = (   0.3267839   0.2501900   0.7526896  )
       146           H   tau( 146) = (   0.8267574   0.7501997   0.3347664  )
       147           H   tau( 147) = (   0.4998008   0.5767668   0.1258028  )
       148           H   tau( 148) = (   0.9998082   0.0767753   0.5437276  )
       149           H   tau( 149) = (   0.1732421   0.7498091   0.3347683  )
       150           H   tau( 150) = (   0.6732165   0.2498004   0.7526882  )
       151           H   tau( 151) = (   0.0001891   0.4232334   0.5437287  )
       152           H   tau( 152) = (   0.5002003   0.9232259   0.1258019  )
       153           H   tau( 153) = (   0.6732161   0.7498100   0.0831616  )
       154           H   tau( 154) = (   0.1732426   0.2498003   0.5010848  )
       155           H   tau( 155) = (   0.0001918   0.9232247   0.2921236  )
       156           H   tau( 156) = (   0.5001992   0.4232332   0.7100484  )
       157           H   tau( 157) = (   0.8267579   0.2501909   0.5010829  )
       158           H   tau( 158) = (   0.3267835   0.7501996   0.0831630  )
       159           H   tau( 159) = (   0.4997997   0.0767741   0.7100493  )
       160           H   tau( 160) = (   0.9998109   0.5767666   0.2921225  )
       161           H   tau( 161) = (   0.1450928   0.2105700   0.8119494  )
       162           H   tau( 162) = (   0.6450717   0.7105703   0.3940245  )
       163           H   tau( 163) = (   0.5394382   0.3950778   0.1850599  )
       164           H   tau( 164) = (   0.0394215   0.8950874   0.6029875  )
       165           H   tau( 165) = (   0.3549296   0.7894345   0.3940253  )
       166           H   tau( 166) = (   0.8549072   0.2894236   0.8119476  )
       167           H   tau( 167) = (   0.9605822   0.6049260   0.6029875  )
       168           H   tau( 168) = (   0.4605597   0.1049112   0.1850606  )
       169           H   tau( 169) = (   0.8549072   0.7894300   0.0239018  )
       170           H   tau( 170) = (   0.3549283   0.2894297   0.4418267  )
       171           H   tau( 171) = (   0.9605785   0.1049126   0.2328636  )
       172           H   tau( 172) = (   0.4605618   0.6049222   0.6507913  )
       173           H   tau( 173) = (   0.6450704   0.2105655   0.4418259  )
       174           H   tau( 174) = (   0.1450928   0.7105764   0.0239036  )
       175           H   tau( 175) = (   0.5394403   0.8950888   0.6507906  )
       176           H   tau( 176) = (   0.0394178   0.3950740   0.2328636  )
       177           H   tau( 177) = (   0.1861918   0.2346432   0.1017269  )
       178           H   tau( 178) = (   0.6861769   0.7346449   0.5196570  )
       179           H   tau( 179) = (   0.5153662   0.4361809   0.3106908  )
       180           H   tau( 180) = (   0.0153457   0.9361877   0.7286181  )
       181           H   tau( 181) = (   0.3138241   0.7653595   0.5196582  )
       182           H   tau( 182) = (   0.8138089   0.2653508   0.1017255  )
       183           H   tau( 183) = (   0.9846574   0.5638207   0.7286203  )
       184           H   tau( 184) = (   0.4846324   0.0638118   0.3106895  )
       185           H   tau( 185) = (   0.8138082   0.7653568   0.7341243  )
       186           H   tau( 186) = (   0.3138231   0.2653551   0.3161942  )
       187           H   tau( 187) = (   0.9846543   0.0638123   0.1072330  )
       188           H   tau( 188) = (   0.4846338   0.5638191   0.5251604  )
       189           H   tau( 189) = (   0.6861759   0.2346405   0.3161930  )
       190           H   tau( 190) = (   0.1861911   0.7346492   0.7341257  )
       191           H   tau( 191) = (   0.5153676   0.9361882   0.5251616  )
       192           H   tau( 192) = (   0.0153426   0.4361793   0.1072309  )

     number of k points=     8
                       cart. coord. in units 2pi/alat
        k(    1) = (   0.0000000   0.0000000   0.0000000), wk =   0.2500000
        k(    2) = (   0.0000000   0.0000000  -0.5981926), wk =   0.2500000
        k(    3) = (   0.0000000  -0.5000000   0.0000000), wk =   0.2500000
        k(    4) = (   0.0000000  -0.5000000  -0.5981926), wk =   0.2500000
        k(    5) = (  -0.5000000  -0.5000000   0.0000000), wk =   0.2500000
        k(    6) = (  -0.5000000  -0.5000000  -0.5981926), wk =   0.2500000
        k(    7) = (  -0.5000000   0.0000000   0.0000000), wk =   0.2500000
        k(    8) = (  -0.5000000   0.0000000   0.5981926), wk =   0.2500000

     Dense  grid:  1794437 G-vectors     FFT dimensions: ( 162, 162, 135)

     Estimated max dynamical RAM per process >    3934.39MB

     Estimated total allocated dynamical RAM >   31475.09MB

     Check: negative/imaginary core charge=   -0.000003    0.000000

     Initial potential from superposition of free atoms

     starting charge  735.99773, renormalised to  736.00000
     Starting wfc are  576 randomized atomic wfcs
     Checking if some PAW data can be deallocated... 

     total cpu time spent up to now is      237.0 secs

     Self-consistent Calculation

     iteration #  1     ecut=   100.00 Ry     beta=0.50
     Davidson diagonalization with overlap
     ethr =  1.00E-02,  avg # of iterations =  3.8

     total cpu time spent up to now is     1080.8 secs

     total energy              =   -4224.68515951 Ry
     Harris-Foulkes estimate   =   -4235.66915121 Ry
     estimated scf accuracy    <      19.77719502 Ry

     iteration #  2     ecut=   100.00 Ry     beta=0.50
     Davidson diagonalization with overlap
     ethr =  2.69E-03,  avg # of iterations =  3.0

     total cpu time spent up to now is     1736.2 secs

     total energy              =   -4228.40805447 Ry
     Harris-Foulkes estimate   =   -4231.58946922 Ry
     estimated scf accuracy    <       7.17422853 Ry

     iteration #  3     ecut=   100.00 Ry     beta=0.50
     Davidson diagonalization with overlap
     ethr =  9.75E-04,  avg # of iterations =  3.0

     total cpu time spent up to now is     2240.1 secs

     total energy              =   -4229.76502537 Ry
     Harris-Foulkes estimate   =   -4229.91257154 Ry
     estimated scf accuracy    <       0.49668432 Ry

     iteration #  4     ecut=   100.00 Ry     beta=0.50
     Davidson diagonalization with overlap
     ethr =  6.75E-05,  avg # of iterations =  8.2

     total cpu time spent up to now is     3257.2 secs

     total energy              =   -4229.89908142 Ry
     Harris-Foulkes estimate   =   -4229.97885332 Ry
     estimated scf accuracy    <       0.18418884 Ry

     iteration #  5     ecut=   100.00 Ry     beta=0.50
     Davidson diagonalization with overlap
     ethr =  2.50E-05,  avg # of iterations =  4.2

     total cpu time spent up to now is     3831.4 secs

     total energy              =   -4229.92001365 Ry
     Harris-Foulkes estimate   =   -4229.97393684 Ry
     estimated scf accuracy    <       0.18148108 Ry

     iteration #  6     ecut=   100.00 Ry     beta=0.50
     Davidson diagonalization with overlap
     ethr =  2.47E-05,  avg # of iterations =  2.0

     total cpu time spent up to now is     4291.0 secs

     total energy              =   -4229.94472673 Ry
     Harris-Foulkes estimate   =   -4229.94570091 Ry
     estimated scf accuracy    <       0.00310858 Ry

     iteration #  7     ecut=   100.00 Ry     beta=0.50
     Davidson diagonalization with overlap
     ethr =  4.22E-07,  avg # of iterations =  4.9

     total cpu time spent up to now is     5357.0 secs

     total energy              =   -4229.94709279 Ry
     Harris-Foulkes estimate   =   -4229.94820220 Ry
     estimated scf accuracy    <       0.00378763 Ry

     iteration #  8     ecut=   100.00 Ry     beta=0.50
     Davidson diagonalization with overlap
     ethr =  4.22E-07,  avg # of iterations =  2.0

     total cpu time spent up to now is     5824.6 secs

     total energy              =   -4229.94737967 Ry
     Harris-Foulkes estimate   =   -4229.94756980 Ry
     estimated scf accuracy    <       0.00060556 Ry

     iteration #  9     ecut=   100.00 Ry     beta=0.50
     Davidson diagonalization with overlap
     ethr =  8.23E-08,  avg # of iterations =  3.0

     total cpu time spent up to now is     6419.6 secs

     total energy              =   -4229.94751959 Ry
     Harris-Foulkes estimate   =   -4229.94754403 Ry
     estimated scf accuracy    <       0.00008855 Ry

     iteration # 10     ecut=   100.00 Ry     beta=0.50
     Davidson diagonalization with overlap
     ethr =  1.20E-08,  avg # of iterations =  3.0

     total cpu time spent up to now is     6955.1 secs

     total energy              =   -4229.94752744 Ry
     Harris-Foulkes estimate   =   -4229.94754286 Ry
     estimated scf accuracy    <       0.00004473 Ry

     iteration # 11     ecut=   100.00 Ry     beta=0.50
     Davidson diagonalization with overlap
     ethr =  6.08E-09,  avg # of iterations =  2.0

     total cpu time spent up to now is     7437.6 secs

     total energy              =   -4229.94753598 Ry
     Harris-Foulkes estimate   =   -4229.94753766 Ry
     estimated scf accuracy    <       0.00000661 Ry

     iteration # 12     ecut=   100.00 Ry     beta=0.50
     Davidson diagonalization with overlap
     ethr =  8.97E-10,  avg # of iterations =  3.0

     total cpu time spent up to now is     8016.1 secs

     total energy              =   -4229.94753770 Ry
     Harris-Foulkes estimate   =   -4229.94753791 Ry
     estimated scf accuracy    <       0.00000100 Ry

     iteration # 13     ecut=   100.00 Ry     beta=0.50
     Davidson diagonalization with overlap
     ethr =  1.36E-10,  avg # of iterations =  3.0

     total cpu time spent up to now is     8554.6 secs

     total energy              =   -4229.94753784 Ry
     Harris-Foulkes estimate   =   -4229.94753793 Ry
     estimated scf accuracy    <       0.00000029 Ry

     iteration # 14     ecut=   100.00 Ry     beta=0.50
     Davidson diagonalization with overlap
     ethr =  3.92E-11,  avg # of iterations =  2.1

     total cpu time spent up to now is     9052.3 secs

     total energy              =   -4229.94753790 Ry
     Harris-Foulkes estimate   =   -4229.94753791 Ry
     estimated scf accuracy    <       0.00000009 Ry

     iteration # 15     ecut=   100.00 Ry     beta=0.50
     Davidson diagonalization with overlap
     ethr =  1.24E-11,  avg # of iterations =  2.8

     total cpu time spent up to now is     9548.5 secs

     End of self-consistent calculation

          k = 0.0000 0.0000 0.0000 (224299 PWs)   bands (ev):

   -24.5459 -24.5196 -24.5196 -24.5194 -24.5115 -24.5115 -24.4995 -24.4995
   -24.4938 -24.4854 -24.4853 -24.4850 -24.4850 -24.4836 -24.4627 -24.4627
   -24.4432 -24.4219 -24.4192 -24.4192 -24.4088 -24.4088 -24.4049 -24.4049
   -24.3981 -24.3981 -24.3961 -24.3961 -24.3847 -24.3766 -24.3727 -24.3727
   -20.0767 -20.0767 -20.0750 -20.0728 -20.0728 -20.0703 -20.0702 -20.0702
   -20.0667 -20.0667 -20.0656 -20.0656 -20.0544 -20.0534 -20.0534 -20.0488
   -20.0400 -20.0203 -20.0203 -20.0155 -20.0093 -20.0093 -20.0065 -20.0065
   -20.0019 -19.9999 -19.9999 -19.9997 -19.9997 -19.9997 -19.9900 -19.9900
   -14.6602 -14.6432 -14.6244 -14.6244 -14.6134 -14.6134 -14.6084 -14.6084
   -14.6058 -14.6037 -14.6037 -14.6026 -14.6026 -14.5833 -14.5833 -14.5326
   -12.5818 -12.5489 -12.5489 -12.5370 -12.5370 -12.5269 -12.5269 -12.5205
   -12.5205 -12.5009 -12.4996 -12.4971 -12.4971 -12.4934 -12.4934 -12.4850
    -9.6912  -9.4199  -9.4199  -9.4154  -9.4154  -9.4072  -9.4072  -9.3645
    -9.3394  -9.3394  -9.3286  -9.3286  -9.2987  -9.2678  -9.2678  -9.1915
    -8.1854  -8.1324  -8.1324  -8.1083  -8.1082  -8.0993  -8.0993  -8.0580
    -8.0014  -8.0014  -7.9446  -7.9446  -7.9391  -7.9391  -7.9378  -7.8670
    -7.6302  -7.5572  -7.5572  -7.5396  -7.5395  -7.4980  -7.4529  -7.4179
    -7.3756  -7.3756  -7.3539  -7.3539  -7.3539  -7.3538  -7.2984  -7.2397
    -7.2397  -7.2071  -7.2071  -7.1879  -7.1879  -7.1689  -7.1689  -7.1640
    -7.1612  -7.1612  -7.1333  -7.1258  -7.1257  -7.0572  -7.0427  -7.0427
    -6.8451  -6.8191  -6.7552  -6.7551  -6.6683  -6.6683  -6.6584  -6.6584
    -6.6561  -6.6561  -6.6258  -6.6258  -6.5991  -6.5845  -6.5845  -6.5801
    -6.4885  -6.4885  -6.4361  -6.4361  -6.4052  -6.3981  -6.3981  -6.3682
    -6.3682  -6.3548  -6.3548  -6.3527  -6.3375  -6.3375  -6.3220  -6.3041
    -6.2787  -6.2772  -6.2772  -6.2618  -6.2254  -6.2221  -6.2056  -6.2056
    -6.1944  -6.1944  -6.1867  -6.1867  -6.1854  -6.1854  -6.1658  -6.1658
    -5.9522  -5.9522  -5.9042  -5.8892  -5.8892  -5.8679  -5.8679  -5.8296
    -5.8296  -5.7817  -5.7665  -5.7665  -5.7310  -5.7310  -5.7302  -5.7302
    -4.1926  -4.1631  -4.1631  -4.1514  -4.1490  -4.1490  -4.1031  -4.1030
    -4.0827  -4.0827  -4.0804  -4.0370  -4.0370  -4.0358  -4.0358  -3.9866
    -3.9109  -3.7698  -3.7648  -3.7648  -3.7203  -3.7203  -3.6769  -3.6769
    -3.6593  -3.6593  -3.6468  -3.6468  -3.6137  -3.6131  -3.6131  -3.6066
    -3.1427  -3.1415  -3.1415  -3.1057  -3.0921  -3.0921  -3.0839  -3.0839
    -3.0417  -3.0417  -3.0372  -3.0039  -3.0039  -2.9927  -2.9650  -2.9650
    -1.5788  -1.5208  -1.5208  -1.5045  -1.5045  -1.4882  -1.4733  -1.4659
    -1.4659  -1.4273  -1.4272  -1.4001  -1.4000  -1.3984  -1.3958  -1.3958
    -1.3863  -1.3696  -1.3622  -1.3622  -1.2669  -1.2476  -1.2476  -1.2373
    -1.2373  -1.2281  -1.2281  -1.2125  -1.2125  -1.1825  -1.1825  -1.1467
    -1.0511  -0.9421  -0.9403  -0.9403  -0.9398  -0.9361  -0.9361  -0.9126
    -0.9024  -0.9023  -0.8927  -0.8927  -0.8533  -0.8533  -0.8389  -0.8389
    -0.8295  -0.8223  -0.8223  -0.7604  -0.7367  -0.7366  -0.6894  -0.6894
    -0.6882  -0.6882  -0.6806  -0.6573  -0.6573  -0.6107  -0.6107  -0.5898
    -0.4466  -0.4317  -0.4187  -0.4187  -0.4131  -0.4131  -0.4019  -0.4017
    -0.4017  -0.3944  -0.3944  -0.3870  -0.3870  -0.3815  -0.3705  -0.3705
    -0.3608  -0.3608  -0.3466  -0.3466  -0.3295  -0.3228  -0.2954  -0.2841
    -0.2841  -0.2839  -0.2839  -0.2694  -0.2410  -0.2410  -0.2020  -0.2020
     3.3167   3.3167   3.3251   3.3251   3.3320   3.3446   3.3482   3.3482
     3.3724   3.3760   3.3760   3.4029   3.4247   3.4247   3.4425   3.4425
     3.4651   3.4651   3.4663   3.4663   3.4840   3.4885   3.4941   3.5071
     3.5071   3.5354   3.5354   3.5640   3.5640   3.5782   3.5782   3.5966
     6.7546   7.3905   7.3905   7.5133   7.5133   7.6901   7.7372   7.7497
     7.7497   7.7743   7.7743   7.8863   7.8921   7.8921   7.9820   8.0606
     8.0631   8.0631   8.0860   8.0860   8.1416   8.1416   8.1553   8.1619
     8.1619   8.2312   8.2312   8.2525   8.2964   8.3922   8.3923   8.4111
     8.4588   8.4588   8.5734   8.5734   8.6384   8.6384   8.6513   8.6513
     8.7475

          k = 0.0000 0.0000-0.5982 (224194 PWs)   bands (ev):

   -24.5346 -24.5345 -24.5126 -24.5125 -24.5087 -24.5087 -24.5085 -24.5085
   -24.4976 -24.4976 -24.4878 -24.4878 -24.4680 -24.4680 -24.4679 -24.4678
   -24.4378 -24.4377 -24.4178 -24.4177 -24.4065 -24.4065 -24.4063 -24.4063
   -24.3955 -24.3953 -24.3863 -24.3862 -24.3814 -24.3814 -24.3812 -24.3812
   -20.0748 -20.0748 -20.0748 -20.0748 -20.0733 -20.0733 -20.0700 -20.0699
   -20.0662 -20.0662 -20.0662 -20.0662 -20.0546 -20.0546 -20.0492 -20.0491
   -20.0345 -20.0345 -20.0165 -20.0164 -20.0053 -20.0053 -20.0050 -20.0050
   -20.0049 -20.0048 -20.0029 -20.0028 -19.9932 -19.9931 -19.9931 -19.9930
   -14.6511 -14.6510 -14.6289 -14.6289 -14.6184 -14.6184 -14.6184 -14.6183
   -14.6062 -14.6061 -14.5887 -14.5886 -14.5886 -14.5886 -14.5567 -14.5566
   -12.5683 -12.5682 -12.5418 -12.5417 -12.5415 -12.5413 -12.5106 -12.5105
   -12.5054 -12.5053 -12.5051 -12.5049 -12.4973 -12.4972 -12.4880 -12.4879
    -9.6102  -9.6101  -9.3909  -9.3908  -9.3908  -9.3907  -9.3898  -9.3897
    -9.3558  -9.3556  -9.2880  -9.2879  -9.2879  -9.2878  -9.2398  -9.2397
    -8.1460  -8.1459  -8.1459  -8.1458  -8.1193  -8.1193  -8.0302  -8.0301
    -7.9912  -7.9911  -7.9911  -7.9910  -7.9329  -7.9328  -7.8960  -7.8959
    -7.5232  -7.5232  -7.4965  -7.4965  -7.4830  -7.4830  -7.4829  -7.4829
    -7.4794  -7.4794  -7.4409  -7.4408  -7.3003  -7.3002  -7.2887  -7.2886
    -7.2886  -7.2886  -7.2041  -7.2041  -7.1782  -7.1782  -7.1782  -7.1781
    -7.1582  -7.1581  -7.0505  -7.0505  -7.0505  -7.0505  -6.9833  -6.9832
    -6.8667  -6.8664  -6.7455  -6.7453  -6.6667  -6.6666  -6.6598  -6.6598
    -6.6596  -6.6596  -6.6136  -6.6136  -6.6134  -6.6134  -6.5670  -6.5667
    -6.4427  -6.4426  -6.4426  -6.4425  -6.4405  -6.4403  -6.3951  -6.3949
    -6.3688  -6.3688  -6.3687  -6.3686  -6.3482  -6.3480  -6.3045  -6.3045
    -6.2949  -6.2948  -6.2525  -6.2524  -6.2061  -6.2060  -6.2004  -6.2003
    -6.2003  -6.2002  -6.1798  -6.1797  -6.1624  -6.1624  -6.1623  -6.1622
    -5.9799  -5.9798  -5.9123  -5.9122  -5.8800  -5.8798  -5.8798  -5.8797
    -5.8302  -5.8301  -5.7341  -5.7340  -5.7340  -5.7339  -5.7065  -5.7064
    -4.1803  -4.1803  -4.1296  -4.1296  -4.1165  -4.1164  -4.1164  -4.1163
    -4.1080  -4.1080  -4.0731  -4.0730  -4.0730  -4.0729  -4.0017  -4.0016
    -3.8086  -3.8086  -3.7580  -3.7579  -3.7014  -3.7013  -3.6933  -3.6932
    -3.6931  -3.6931  -3.6316  -3.6316  -3.6314  -3.6314  -3.5888  -3.5888
    -3.1293  -3.1292  -3.1153  -3.1152  -3.1152  -3.1151  -3.1068  -3.1068
    -3.0236  -3.0234  -3.0084  -3.0084  -2.9853  -2.9853  -2.9852  -2.9852
    -1.5389  -1.5388  -1.4977  -1.4976  -1.4774  -1.4774  -1.4773  -1.4772
    -1.4437  -1.4435  -1.4260  -1.4260  -1.4260  -1.4259  -1.3956  -1.3956
    -1.3946  -1.3946  -1.3245  -1.3245  -1.2693  -1.2693  -1.2422  -1.2421
    -1.2421  -1.2420  -1.1980  -1.1980  -1.1979  -1.1979  -1.1747  -1.1747
    -1.0269  -1.0269  -0.9809  -0.9807  -0.9228  -0.9227  -0.9157  -0.9155
    -0.9082  -0.9082  -0.9081  -0.9081  -0.8348  -0.8347  -0.8346  -0.8346
    -0.8346  -0.8346  -0.7488  -0.7487  -0.7280  -0.7280  -0.6994  -0.6993
    -0.6993  -0.6992  -0.6340  -0.6339  -0.6339  -0.6339  -0.6177  -0.6177
    -0.4436  -0.4435  -0.4391  -0.4391  -0.4167  -0.4166  -0.4101  -0.4100
    -0.4099  -0.4099  -0.3870  -0.3868  -0.3581  -0.3581  -0.3580  -0.3580
    -0.3265  -0.3264  -0.3248  -0.3247  -0.3223  -0.3223  -0.3223  -0.3223
    -0.2905  -0.2904  -0.2894  -0.2893  -0.2243  -0.2243  -0.2242  -0.2242
     3.2986   3.2986   3.3179   3.3180   3.3180   3.3182   3.3605   3.3606
     3.3921   3.3921   3.4168   3.4169   3.4169   3.4171   3.4264   3.4264
     3.4505   3.4506   3.4719   3.4720   3.4847   3.4847   3.4848   3.4848
     3.5422   3.5423   3.5727   3.5728   3.5755   3.5755   3.5756   3.5757
     7.0911   7.0911   7.5341   7.5341   7.6946   7.6947   7.7505   7.7505
     7.7506   7.7506   7.8632   7.8633   7.8707   7.8709   7.8709   7.8711
     7.8754   7.8756   8.1001   8.1001   8.1265   8.1265   8.1519   8.1519
     8.1520   8.1520   8.1621   8.1623   8.2893   8.2895   8.4697   8.4697
     8.4698   8.4698   8.6253   8.6253   8.6254   8.6254   8.6752   8.6760
     8.7293

          k = 0.0000-0.5000 0.0000 (224344 PWs)   bands (ev):

   -24.5363 -24.5362 -24.5208 -24.5208 -24.5033 -24.5033 -24.4998 -24.4998
   -24.4971 -24.4970 -24.4883 -24.4883 -24.4734 -24.4734 -24.4678 -24.4678
   -24.4276 -24.4276 -24.4227 -24.4227 -24.4074 -24.4074 -24.4051 -24.4051
   -24.3991 -24.3990 -24.3985 -24.3984 -24.3771 -24.3770 -24.3740 -24.3739
   -20.0781 -20.0781 -20.0743 -20.0743 -20.0730 -20.0730 -20.0698 -20.0698
   -20.0667 -20.0667 -20.0595 -20.0595 -20.0569 -20.0569 -20.0527 -20.0526
   -20.0291 -20.0291 -20.0141 -20.0141 -20.0126 -20.0126 -20.0114 -20.0113
   -20.0021 -20.0021 -19.9988 -19.9988 -19.9930 -19.9930 -19.9922 -19.9922
   -14.6452 -14.6451 -14.6353 -14.6352 -14.6102 -14.6102 -14.6093 -14.6093
   -14.6079 -14.6077 -14.6062 -14.6060 -14.5913 -14.5913 -14.5519 -14.5517
   -12.5696 -12.5696 -12.5382 -12.5382 -12.5318 -12.5317 -12.5209 -12.5208
   -12.5094 -12.5094 -12.4994 -12.4994 -12.4970 -12.4970 -12.4910 -12.4909
    -9.6087  -9.6086  -9.3923  -9.3923  -9.3806  -9.3805  -9.3747  -9.3747
    -9.3727  -9.3726  -9.3112  -9.3112  -9.2796  -9.2795  -9.2349  -9.2348
    -8.1697  -8.1697  -8.1242  -8.1242  -8.0660  -8.0659  -8.0471  -8.0471
    -8.0290  -8.0290  -7.9828  -7.9828  -7.9462  -7.9462  -7.8846  -7.8846
    -7.5908  -7.5907  -7.5231  -7.5231  -7.4657  -7.4657  -7.4622  -7.4622
    -7.4166  -7.4166  -7.3877  -7.3876  -7.3423  -7.3423  -7.3098  -7.3098
    -7.2285  -7.2285  -7.2185  -7.2185  -7.1866  -7.1865  -7.1805  -7.1805
    -7.1134  -7.1134  -7.0923  -7.0923  -7.0846  -7.0846  -7.0250  -7.0250
    -6.7921  -6.7921  -6.7703  -6.7703  -6.6809  -6.6808  -6.6639  -6.6639
    -6.6610  -6.6610  -6.6278  -6.6278  -6.6085  -6.6085  -6.5821  -6.5821
    -6.4669  -6.4668  -6.4426  -6.4425  -6.4345  -6.4345  -6.3760  -6.3760
    -6.3595  -6.3595  -6.3524  -6.3524  -6.3433  -6.3432  -6.2976  -6.2975
    -6.2759  -6.2759  -6.2580  -6.2580  -6.2224  -6.2224  -6.2134  -6.2133
    -6.2114  -6.2114  -6.1888  -6.1887  -6.1748  -6.1748  -6.1504  -6.1503
    -5.9348  -5.9347  -5.9344  -5.9344  -5.8805  -5.8805  -5.8552  -5.8551
    -5.7824  -5.7824  -5.7509  -5.7508  -5.7482  -5.7481  -5.7304  -5.7304
    -4.1877  -4.1876  -4.1518  -4.1517  -4.1234  -4.1233  -4.1141  -4.1141
    -4.1028  -4.1028  -4.0603  -4.0603  -4.0515  -4.0514  -3.9893  -3.9892
    -3.8610  -3.8610  -3.7461  -3.7461  -3.7086  -3.7086  -3.6871  -3.6870
    -3.6634  -3.6634  -3.6360  -3.6359  -3.6239  -3.6239  -3.6057  -3.6057
    -3.1469  -3.1469  -3.1364  -3.1363  -3.0874  -3.0873  -3.0533  -3.0533
    -3.0433  -3.0432  -3.0231  -3.0231  -3.0030  -3.0030  -2.9755  -2.9755
    -1.5584  -1.5583  -1.5127  -1.5127  -1.4829  -1.4829  -1.4681  -1.4681
    -1.4536  -1.4536  -1.4280  -1.4279  -1.4120  -1.4120  -1.3870  -1.3870
    -1.3588  -1.3587  -1.3331  -1.3331  -1.2976  -1.2976  -1.2491  -1.2490
    -1.2170  -1.2170  -1.2115  -1.2115  -1.2109  -1.2109  -1.1504  -1.1503
    -1.0063  -1.0063  -0.9486  -0.9486  -0.9480  -0.9480  -0.9285  -0.9285
    -0.8847  -0.8847  -0.8571  -0.8571  -0.8477  -0.8476  -0.8182  -0.8182
    -0.8164  -0.8164  -0.7690  -0.7690  -0.7560  -0.7559  -0.7082  -0.7082
    -0.7072  -0.7071  -0.6732  -0.6731  -0.6472  -0.6472  -0.6110  -0.6109
    -0.4375  -0.4375  -0.4347  -0.4347  -0.4186  -0.4185  -0.4080  -0.4080
    -0.4074  -0.4073  -0.3920  -0.3920  -0.3741  -0.3741  -0.3673  -0.3673
    -0.3431  -0.3431  -0.3249  -0.3249  -0.3106  -0.3106  -0.3059  -0.3059
    -0.2970  -0.2969  -0.2717  -0.2716  -0.2317  -0.2317  -0.2167  -0.2166
     3.3121   3.3121   3.3249   3.3249   3.3356   3.3357   3.3437   3.3438
     3.3944   3.3944   3.4032   3.4032   3.4205   3.4206   3.4326   3.4326
     3.4681   3.4682   3.4690   3.4690   3.4855   3.4855   3.4860   3.4861
     3.5293   3.5293   3.5439   3.5439   3.5749   3.5750   3.5821   3.5822
     6.9361   6.9362   7.4795   7.4795   7.5990   7.5990   7.7880   7.7881
     7.8387   7.8387   7.8837   7.8837   7.9013   7.9013   8.0188   8.0189
     8.0330   8.0330   8.0885   8.0886   8.1708   8.1709   8.1750   8.1751
     8.2159   8.2159   8.2445   8.2446   8.2867   8.2867   8.3515   8.3515
     8.4083   8.4083   8.5236   8.5236   8.6701   8.6702   8.7239   8.7243
     8.7636

          k = 0.0000-0.5000-0.5982 (224244 PWs)   bands (ev):

   -24.5270 -24.5270 -24.5250 -24.5249 -24.5120 -24.5120 -24.5060 -24.5059
   -24.4897 -24.4897 -24.4880 -24.4880 -24.4705 -24.4705 -24.4695 -24.4695
   -24.4285 -24.4285 -24.4214 -24.4213 -24.4148 -24.4148 -24.4050 -24.4050
   -24.3918 -24.3918 -24.3859 -24.3859 -24.3830 -24.3829 -24.3802 -24.3801
   -20.0777 -20.0777 -20.0746 -20.0746 -20.0716 -20.0716 -20.0710 -20.0710
   -20.0670 -20.0670 -20.0603 -20.0603 -20.0553 -20.0553 -20.0532 -20.0532
   -20.0251 -20.0251 -20.0235 -20.0235 -20.0111 -20.0111 -20.0074 -20.0074
   -20.0014 -20.0014 -19.9992 -19.9992 -19.9931 -19.9931 -19.9926 -19.9925
   -14.6466 -14.6466 -14.6337 -14.6337 -14.6232 -14.6232 -14.6184 -14.6184
   -14.6011 -14.6010 -14.5924 -14.5924 -14.5788 -14.5788 -14.5627 -14.5627
   -12.5668 -12.5668 -12.5424 -12.5424 -12.5378 -12.5378 -12.5093 -12.5093
   -12.5085 -12.5085 -12.5043 -12.5042 -12.4962 -12.4962 -12.4919 -12.4919
    -9.5456  -9.5456  -9.5315  -9.5315  -9.3804  -9.3804  -9.3553  -9.3553
    -9.3366  -9.3366  -9.2955  -9.2954  -9.2553  -9.2553  -9.2540  -9.2540
    -8.1565  -8.1565  -8.1346  -8.1346  -8.1182  -8.1182  -8.0354  -8.0354
    -8.0025  -8.0024  -7.9661  -7.9661  -7.9449  -7.9449  -7.8821  -7.8821
    -7.5175  -7.5175  -7.5086  -7.5086  -7.5001  -7.5001  -7.4899  -7.4898
    -7.4161  -7.4161  -7.4137  -7.4136  -7.3696  -7.3696  -7.3469  -7.3469
    -7.3104  -7.3103  -7.2040  -7.2039  -7.1782  -7.1782  -7.1191  -7.1191
    -7.0990  -7.0990  -7.0928  -7.0927  -7.0585  -7.0585  -6.9745  -6.9745
    -6.8487  -6.8487  -6.7252  -6.7252  -6.7003  -6.7003  -6.6817  -6.6817
    -6.6270  -6.6269  -6.6264  -6.6264  -6.6125  -6.6124  -6.5658  -6.5658
    -6.4513  -6.4513  -6.4403  -6.4403  -6.4213  -6.4213  -6.4060  -6.4060
    -6.3908  -6.3908  -6.3878  -6.3878  -6.3328  -6.3328  -6.2863  -6.2863
    -6.2774  -6.2774  -6.2370  -6.2370  -6.2280  -6.2280  -6.2034  -6.2034
    -6.1818  -6.1818  -6.1801  -6.1801  -6.1796  -6.1796  -6.1624  -6.1624
    -5.9812  -5.9812  -5.9233  -5.9233  -5.8923  -5.8922  -5.8769  -5.8769
    -5.7971  -5.7970  -5.7550  -5.7550  -5.7354  -5.7354  -5.6988  -5.6988
    -4.1734  -4.1734  -4.1369  -4.1369  -4.1106  -4.1106  -4.1075  -4.1074
    -4.1006  -4.1006  -4.0950  -4.0950  -4.0860  -4.0860  -3.9976  -3.9976
    -3.7868  -3.7868  -3.7648  -3.7648  -3.7048  -3.7047  -3.6945  -3.6945
    -3.6855  -3.6854  -3.6568  -3.6567  -3.6365  -3.6365  -3.5718  -3.5718
    -3.1443  -3.1442  -3.1169  -3.1168  -3.1165  -3.1164  -3.0648  -3.0647
    -3.0280  -3.0279  -3.0233  -3.0232  -2.9964  -2.9964  -2.9803  -2.9802
    -1.5237  -1.5237  -1.5055  -1.5055  -1.4830  -1.4830  -1.4752  -1.4752
    -1.4575  -1.4575  -1.4539  -1.4539  -1.4020  -1.4020  -1.3763  -1.3763
    -1.3618  -1.3618  -1.3522  -1.3522  -1.3038  -1.3038  -1.2424  -1.2423
    -1.2221  -1.2221  -1.2072  -1.2072  -1.1984  -1.1984  -1.1559  -1.1559
    -1.0041  -1.0041  -0.9929  -0.9929  -0.9499  -0.9499  -0.9268  -0.9268
    -0.8843  -0.8843  -0.8807  -0.8807  -0.8420  -0.8420  -0.8130  -0.8130
    -0.7758  -0.7758  -0.7692  -0.7692  -0.7488  -0.7488  -0.7035  -0.7034
    -0.6896  -0.6896  -0.6815  -0.6815  -0.6521  -0.6521  -0.6154  -0.6154
    -0.4459  -0.4459  -0.4385  -0.4385  -0.4206  -0.4206  -0.4175  -0.4175
    -0.3970  -0.3970  -0.3871  -0.3871  -0.3752  -0.3751  -0.3630  -0.3630
    -0.3303  -0.3302  -0.3185  -0.3185  -0.3152  -0.3152  -0.2964  -0.2964
    -0.2950  -0.2950  -0.2776  -0.2776  -0.2433  -0.2432  -0.2237  -0.2237
     3.2871   3.2872   3.3169   3.3169   3.3316   3.3316   3.3630   3.3630
     3.3946   3.3947   3.4167   3.4168   3.4181   3.4181   3.4346   3.4346
     3.4546   3.4546   3.4564   3.4565   3.4749   3.4749   3.5011   3.5012
     3.5492   3.5492   3.5600   3.5600   3.5680   3.5680   3.5778   3.5778
     7.2066   7.2066   7.3022   7.3022   7.6270   7.6271   7.7081   7.7081
     7.7924   7.7924   7.8367   7.8367   7.8787   7.8787   7.9300   7.9300
     7.9816   7.9816   8.0733   8.0734   8.1368   8.1368   8.1611   8.1611
     8.2347   8.2347   8.2662   8.2662   8.2812   8.2812   8.4652   8.4652
     8.4959   8.4960   8.5678   8.5679   8.5752   8.5753   8.7211   8.7213
     8.7838

          k =-0.5000-0.5000 0.0000 (224464 PWs)   bands (ev):

   -24.5291 -24.5291 -24.5290 -24.5290 -24.5054 -24.5054 -24.5053 -24.5053
   -24.4867 -24.4867 -24.4866 -24.4866 -24.4730 -24.4730 -24.4729 -24.4729
   -24.4212 -24.4212 -24.4212 -24.4212 -24.4114 -24.4114 -24.4114 -24.4114
   -24.3975 -24.3975 -24.3975 -24.3974 -24.3751 -24.3750 -24.3750 -24.3750
   -20.0793 -20.0792 -20.0791 -20.0791 -20.0663 -20.0663 -20.0662 -20.0662
   -20.0618 -20.0618 -20.0617 -20.0616 -20.0595 -20.0594 -20.0593 -20.0593
   -20.0202 -20.0201 -20.0200 -20.0200 -20.0108 -20.0108 -20.0107 -20.0107
   -20.0044 -20.0043 -20.0043 -20.0043 -19.9904 -19.9904 -19.9903 -19.9903
   -14.6366 -14.6366 -14.6365 -14.6365 -14.6196 -14.6196 -14.6195 -14.6195
   -14.6060 -14.6060 -14.6059 -14.6058 -14.5665 -14.5665 -14.5664 -14.5664
   -12.5584 -12.5583 -12.5582 -12.5581 -12.5172 -12.5171 -12.5168 -12.5168
   -12.5058 -12.5057 -12.5055 -12.5055 -12.4977 -12.4977 -12.4977 -12.4976
    -9.5362  -9.5361  -9.5360  -9.5359  -9.3702  -9.3701  -9.3700  -9.3699
    -9.3238  -9.3237  -9.3237  -9.3237  -9.2480  -9.2479  -9.2479  -9.2479
    -8.1505  -8.1504  -8.1504  -8.1504  -8.0704  -8.0704  -8.0703  -8.0703
    -7.9698  -7.9698  -7.9697  -7.9697  -7.9343  -7.9343  -7.9342  -7.9342
    -7.5505  -7.5504  -7.5504  -7.5504  -7.4641  -7.4641  -7.4640  -7.4640
    -7.3847  -7.3847  -7.3847  -7.3846  -7.3162  -7.3161  -7.3161  -7.3161
    -7.2722  -7.2722  -7.2722  -7.2722  -7.2343  -7.2343  -7.2342  -7.2342
    -7.0678  -7.0677  -7.0677  -7.0676  -7.0181  -7.0181  -7.0181  -7.0181
    -6.7544  -6.7544  -6.7544  -6.7544  -6.7122  -6.7122  -6.7122  -6.7122
    -6.6322  -6.6322  -6.6321  -6.6321  -6.5918  -6.5918  -6.5916  -6.5916
    -6.4709  -6.4709  -6.4708  -6.4708  -6.3934  -6.3933  -6.3932  -6.3932
    -6.3548  -6.3547  -6.3547  -6.3547  -6.3320  -6.3320  -6.3318  -6.3318
    -6.2607  -6.2607  -6.2607  -6.2606  -6.2355  -6.2354  -6.2354  -6.2354
    -6.1971  -6.1971  -6.1970  -6.1970  -6.1447  -6.1447  -6.1447  -6.1447
    -5.9485  -5.9485  -5.9483  -5.9483  -5.8616  -5.8616  -5.8614  -5.8614
    -5.7611  -5.7610  -5.7610  -5.7610  -5.7405  -5.7404  -5.7403  -5.7403
    -4.1758  -4.1757  -4.1757  -4.1757  -4.1115  -4.1115  -4.1114  -4.1114
    -4.0908  -4.0908  -4.0908  -4.0908  -4.0156  -4.0156  -4.0156  -4.0155
    -3.8155  -3.8154  -3.8153  -3.8153  -3.6932  -3.6932  -3.6930  -3.6930
    -3.6439  -3.6439  -3.6439  -3.6439  -3.6130  -3.6129  -3.6128  -3.6127
    -3.1349  -3.1349  -3.1349  -3.1348  -3.0841  -3.0841  -3.0841  -3.0840
    -3.0110  -3.0110  -3.0110  -3.0109  -3.0050  -3.0050  -3.0049  -3.0049
    -1.5391  -1.5390  -1.5390  -1.5390  -1.4697  -1.4697  -1.4696  -1.4696
    -1.4542  -1.4542  -1.4542  -1.4542  -1.3909  -1.3909  -1.3908  -1.3908
    -1.3330  -1.3330  -1.3330  -1.3329  -1.2653  -1.2653  -1.2652  -1.2652
    -1.2578  -1.2578  -1.2576  -1.2576  -1.1515  -1.1514  -1.1514  -1.1514
    -0.9697  -0.9697  -0.9695  -0.9695  -0.9467  -0.9467  -0.9466  -0.9465
    -0.8605  -0.8604  -0.8604  -0.8604  -0.8408  -0.8408  -0.8407  -0.8407
    -0.7696  -0.7696  -0.7696  -0.7696  -0.7352  -0.7352  -0.7352  -0.7352
    -0.7010  -0.7010  -0.7010  -0.7010  -0.6408  -0.6408  -0.6408  -0.6407
    -0.4375  -0.4375  -0.4375  -0.4375  -0.4248  -0.4248  -0.4248  -0.4247
    -0.3925  -0.3925  -0.3924  -0.3924  -0.3697  -0.3696  -0.3696  -0.3696
    -0.3477  -0.3477  -0.3476  -0.3476  -0.3004  -0.3004  -0.3003  -0.3003
    -0.2578  -0.2577  -0.2577  -0.2577  -0.2422  -0.2422  -0.2422  -0.2422
     3.3122   3.3122   3.3123   3.3123   3.3462   3.3462   3.3463   3.3463
     3.4002   3.4002   3.4002   3.4003   3.4420   3.4421   3.4421   3.4422
     3.4605   3.4606   3.4606   3.4606   3.4746   3.4746   3.4747   3.4747
     3.5465   3.5466   3.5466   3.5467   3.5700   3.5701   3.5701   3.5702
     7.0970   7.0970   7.0970   7.0970   7.8019   7.8020   7.8020   7.8020
     7.8535   7.8535   7.8536   7.8536   7.9967   7.9967   7.9968   7.9968
     8.1019   8.1019   8.1020   8.1020   8.1481   8.1482   8.1483   8.1484
     8.2201   8.2201   8.2201   8.2201   8.3137   8.3137   8.3138   8.3139
     8.4842   8.4843   8.4843   8.4843   8.7616   8.7641   8.7647   8.7653
     8.7672

          k =-0.5000-0.5000-0.5982 (224304 PWs)   bands (ev):

   -24.5208 -24.5208 -24.5207 -24.5206 -24.5178 -24.5178 -24.5177 -24.5176
   -24.4823 -24.4823 -24.4822 -24.4822 -24.4737 -24.4737 -24.4736 -24.4736
   -24.4207 -24.4207 -24.4206 -24.4205 -24.4149 -24.4149 -24.4148 -24.4148
   -24.3887 -24.3886 -24.3885 -24.3885 -24.3807 -24.3807 -24.3806 -24.3805
   -20.0791 -20.0791 -20.0790 -20.0790 -20.0662 -20.0662 -20.0661 -20.0661
   -20.0617 -20.0617 -20.0615 -20.0615 -20.0599 -20.0599 -20.0598 -20.0598
   -20.0174 -20.0174 -20.0172 -20.0172 -20.0151 -20.0151 -20.0150 -20.0150
   -20.0027 -20.0026 -20.0025 -20.0025 -19.9904 -19.9904 -19.9904 -19.9904
   -14.6391 -14.6390 -14.6390 -14.6389 -14.6247 -14.6247 -14.6247 -14.6246
   -14.5921 -14.5920 -14.5920 -14.5920 -14.5728 -14.5728 -14.5728 -14.5726
   -12.5579 -12.5579 -12.5578 -12.5577 -12.5195 -12.5194 -12.5191 -12.5190
   -12.5034 -12.5033 -12.5029 -12.5029 -12.4984 -12.4983 -12.4983 -12.4982
    -9.4819  -9.4819  -9.4817  -9.4817  -9.4727  -9.4726  -9.4725  -9.4725
    -9.2645  -9.2644  -9.2644  -9.2643  -9.2587  -9.2587  -9.2587  -9.2586
    -8.1406  -8.1405  -8.1405  -8.1405  -8.0843  -8.0843  -8.0841  -8.0841
    -7.9881  -7.9881  -7.9879  -7.9879  -7.9111  -7.9110  -7.9110  -7.9110
    -7.5194  -7.5193  -7.5192  -7.5192  -7.4593  -7.4592  -7.4591  -7.4591
    -7.3950  -7.3949  -7.3949  -7.3948  -7.3428  -7.3428  -7.3427  -7.3427
    -7.3397  -7.3396  -7.3396  -7.3396  -7.2053  -7.2053  -7.2053  -7.2053
    -7.0334  -7.0334  -7.0334  -7.0334  -7.0002  -7.0001  -7.0001  -7.0001
    -6.7644  -6.7644  -6.7642  -6.7642  -6.7226  -6.7226  -6.7224  -6.7224
    -6.6301  -6.6300  -6.6299  -6.6299  -6.5730  -6.5729  -6.5728  -6.5728
    -6.4367  -6.4367  -6.4366  -6.4365  -6.4114  -6.4114  -6.4114  -6.4114
    -6.4035  -6.4035  -6.4034  -6.4033  -6.2973  -6.2973  -6.2972  -6.2972
    -6.2742  -6.2742  -6.2741  -6.2741  -6.2180  -6.2180  -6.2178  -6.2178
    -6.2019  -6.2018  -6.2018  -6.2018  -6.1447  -6.1447  -6.1447  -6.1447
    -5.9620  -5.9619  -5.9617  -5.9617  -5.8820  -5.8819  -5.8818  -5.8818
    -5.7706  -5.7706  -5.7705  -5.7704  -5.7158  -5.7157  -5.7156  -5.7156
    -4.1502  -4.1502  -4.1501  -4.1501  -4.1251  -4.1251  -4.1250  -4.1250
    -4.0996  -4.0996  -4.0995  -4.0994  -4.0340  -4.0340  -4.0339  -4.0339
    -3.7446  -3.7445  -3.7445  -3.7445  -3.7395  -3.7395  -3.7394  -3.7393
    -3.6761  -3.6761  -3.6759  -3.6759  -3.5887  -3.5886  -3.5886  -3.5885
    -3.1278  -3.1277  -3.1277  -3.1277  -3.0924  -3.0924  -3.0923  -3.0923
    -3.0132  -3.0131  -3.0131  -3.0131  -3.0022  -3.0021  -3.0021  -3.0021
    -1.5083  -1.5083  -1.5082  -1.5081  -1.4870  -1.4870  -1.4870  -1.4869
    -1.4631  -1.4630  -1.4629  -1.4629  -1.3921  -1.3921  -1.3921  -1.3921
    -1.3171  -1.3171  -1.3171  -1.3171  -1.3035  -1.3034  -1.3034  -1.3033
    -1.2370  -1.2369  -1.2368  -1.2367  -1.1507  -1.1507  -1.1507  -1.1507
    -0.9767  -0.9767  -0.9765  -0.9765  -0.9593  -0.9593  -0.9591  -0.9591
    -0.8562  -0.8562  -0.8561  -0.8561  -0.8526  -0.8526  -0.8526  -0.8525
    -0.7268  -0.7268  -0.7267  -0.7267  -0.7264  -0.7264  -0.7264  -0.7263
    -0.7088  -0.7087  -0.7086  -0.7086  -0.6570  -0.6569  -0.6568  -0.6568
    -0.4449  -0.4449  -0.4448  -0.4448  -0.4277  -0.4276  -0.4275  -0.4275
    -0.3871  -0.3871  -0.3871  -0.3870  -0.3653  -0.3653  -0.3651  -0.3651
    -0.3326  -0.3326  -0.3325  -0.3325  -0.3093  -0.3093  -0.3093  -0.3092
    -0.2601  -0.2600  -0.2600  -0.2600  -0.2476  -0.2476  -0.2476  -0.2475
     3.2931   3.2931   3.2932   3.2932   3.3595   3.3596   3.3597   3.3597
     3.4033   3.4034   3.4035   3.4035   3.4297   3.4298   3.4298   3.4299
     3.4601   3.4601   3.4602   3.4602   3.4810   3.4811   3.4811   3.4811
     3.5574   3.5574   3.5575   3.5575   3.5673   3.5674   3.5674   3.5674
     7.3255   7.3256   7.3256   7.3256   7.4657   7.4657   7.4659   7.4659
     7.8428   7.8429   7.8430   7.8430   7.9842   7.9842   7.9845   7.9845
     8.0926   8.0927   8.0927   8.0927   8.0945   8.0945   8.0946   8.0946
     8.2334   8.2335   8.2336   8.2336   8.3639   8.3639   8.3640   8.3640
     8.6355   8.6355   8.6356   8.6356   8.6976   8.6978   8.6980   8.6980
     8.8085

          k =-0.5000 0.0000 0.0000 (224344 PWs)   bands (ev):

   -24.5363 -24.5362 -24.5209 -24.5208 -24.5034 -24.5032 -24.4998 -24.4998
   -24.4971 -24.4970 -24.4884 -24.4883 -24.4734 -24.4733 -24.4679 -24.4677
   -24.4277 -24.4276 -24.4228 -24.4227 -24.4074 -24.4074 -24.4051 -24.4051
   -24.3991 -24.3989 -24.3985 -24.3984 -24.3771 -24.3770 -24.3740 -24.3739
   -20.0781 -20.0781 -20.0743 -20.0742 -20.0731 -20.0729 -20.0699 -20.0696
   -20.0667 -20.0667 -20.0595 -20.0595 -20.0570 -20.0568 -20.0527 -20.0526
   -20.0292 -20.0290 -20.0143 -20.0140 -20.0126 -20.0125 -20.0114 -20.0113
   -20.0022 -20.0020 -19.9989 -19.9987 -19.9931 -19.9930 -19.9922 -19.9921
   -14.6452 -14.6452 -14.6352 -14.6352 -14.6102 -14.6102 -14.6093 -14.6093
   -14.6078 -14.6077 -14.6061 -14.6061 -14.5913 -14.5913 -14.5518 -14.5518
   -12.5696 -12.5696 -12.5385 -12.5379 -12.5318 -12.5318 -12.5210 -12.5207
   -12.5096 -12.5091 -12.4994 -12.4994 -12.4973 -12.4968 -12.4910 -12.4909
    -9.6088  -9.6086  -9.3924  -9.3922  -9.3806  -9.3805  -9.3748  -9.3747
    -9.3727  -9.3726  -9.3113  -9.3111  -9.2796  -9.2794  -9.2349  -9.2348
    -8.1697  -8.1697  -8.1243  -8.1241  -8.0660  -8.0659  -8.0472  -8.0470
    -8.0291  -8.0289  -7.9828  -7.9828  -7.9463  -7.9462  -7.8847  -7.8845
    -7.5908  -7.5907  -7.5231  -7.5231  -7.4657  -7.4657  -7.4622  -7.4621
    -7.4166  -7.4165  -7.3877  -7.3877  -7.3423  -7.3423  -7.3098  -7.3098
    -7.2285  -7.2285  -7.2185  -7.2185  -7.1866  -7.1865  -7.1805  -7.1805
    -7.1134  -7.1134  -7.0923  -7.0923  -7.0846  -7.0845  -7.0250  -7.0250
    -6.7922  -6.7920  -6.7705  -6.7702  -6.6810  -6.6808  -6.6639  -6.6638
    -6.6612  -6.6609  -6.6280  -6.6277  -6.6085  -6.6084  -6.5822  -6.5821
    -6.4669  -6.4668  -6.4426  -6.4425  -6.4345  -6.4345  -6.3761  -6.3759
    -6.3596  -6.3595  -6.3525  -6.3523  -6.3433  -6.3432  -6.2976  -6.2975
    -6.2759  -6.2759  -6.2581  -6.2580  -6.2224  -6.2224  -6.2134  -6.2133
    -6.2114  -6.2114  -6.1888  -6.1887  -6.1748  -6.1747  -6.1504  -6.1503
    -5.9348  -5.9346  -5.9346  -5.9343  -5.8806  -5.8804  -5.8552  -5.8551
    -5.7825  -5.7823  -5.7509  -5.7508  -5.7482  -5.7481  -5.7305  -5.7303
    -4.1877  -4.1877  -4.1518  -4.1517  -4.1234  -4.1233  -4.1142  -4.1140
    -4.1029  -4.1028  -4.0604  -4.0602  -4.0515  -4.0515  -3.9893  -3.9892
    -3.8611  -3.8610  -3.7462  -3.7460  -3.7087  -3.7084  -3.6872  -3.6870
    -3.6635  -3.6633  -3.6360  -3.6359  -3.6240  -3.6239  -3.6058  -3.6055
    -3.1469  -3.1469  -3.1364  -3.1363  -3.0873  -3.0873  -3.0534  -3.0532
    -3.0433  -3.0433  -3.0231  -3.0231  -3.0030  -3.0029  -2.9755  -2.9755
    -1.5584  -1.5583  -1.5127  -1.5127  -1.4829  -1.4829  -1.4681  -1.4680
    -1.4536  -1.4535  -1.4280  -1.4279  -1.4121  -1.4119  -1.3871  -1.3870
    -1.3588  -1.3587  -1.3332  -1.3331  -1.2976  -1.2976  -1.2491  -1.2490
    -1.2171  -1.2170  -1.2116  -1.2114  -1.2110  -1.2109  -1.1503  -1.1503
    -1.0063  -1.0062  -0.9487  -0.9485  -0.9481  -0.9479  -0.9285  -0.9284
    -0.8847  -0.8847  -0.8572  -0.8570  -0.8477  -0.8476  -0.8182  -0.8181
    -0.8165  -0.8164  -0.7690  -0.7690  -0.7560  -0.7559  -0.7083  -0.7081
    -0.7072  -0.7071  -0.6732  -0.6731  -0.6472  -0.6472  -0.6110  -0.6109
    -0.4375  -0.4375  -0.4347  -0.4347  -0.4186  -0.4185  -0.4080  -0.4080
    -0.4074  -0.4073  -0.3921  -0.3919  -0.3742  -0.3740  -0.3673  -0.3673
    -0.3431  -0.3430  -0.3249  -0.3248  -0.3106  -0.3106  -0.3059  -0.3059
    -0.2969  -0.2969  -0.2717  -0.2716  -0.2318  -0.2316  -0.2167  -0.2166
     3.3121   3.3122   3.3249   3.3249   3.3356   3.3356   3.3437   3.3438
     3.3943   3.3945   3.4032   3.4032   3.4205   3.4206   3.4325   3.4326
     3.4681   3.4682   3.4690   3.4691   3.4854   3.4856   3.4861   3.4861
     3.5292   3.5293   3.5438   3.5439   3.5749   3.5750   3.5822   3.5822
     6.9362   6.9362   7.4794   7.4796   7.5989   7.5990   7.7880   7.7881
     7.8387   7.8387   7.8837   7.8838   7.9012   7.9014   8.0188   8.0190
     8.0330   8.0330   8.0884   8.0887   8.1707   8.1710   8.1751   8.1751
     8.2159   8.2160   8.2446   8.2446   8.2866   8.2868   8.3514   8.3515
     8.4082   8.4083   8.5236   8.5237   8.6702   8.6702   8.7238   8.7245
     8.7634

          k =-0.5000 0.0000 0.5982 (224244 PWs)   bands (ev):

   -24.5271 -24.5269 -24.5250 -24.5249 -24.5120 -24.5119 -24.5060 -24.5059
   -24.4897 -24.4897 -24.4880 -24.4879 -24.4705 -24.4705 -24.4696 -24.4694
   -24.4286 -24.4284 -24.4214 -24.4213 -24.4149 -24.4148 -24.4051 -24.4049
   -24.3919 -24.3917 -24.3859 -24.3859 -24.3831 -24.3828 -24.3802 -24.3801
   -20.0777 -20.0777 -20.0746 -20.0746 -20.0718 -20.0715 -20.0712 -20.0709
   -20.0670 -20.0670 -20.0603 -20.0602 -20.0554 -20.0552 -20.0533 -20.0531
   -20.0252 -20.0250 -20.0235 -20.0234 -20.0112 -20.0111 -20.0075 -20.0073
   -20.0015 -20.0013 -19.9993 -19.9991 -19.9931 -19.9930 -19.9926 -19.9925
   -14.6467 -14.6466 -14.6337 -14.6336 -14.6232 -14.6231 -14.6184 -14.6183
   -14.6011 -14.6010 -14.5924 -14.5924 -14.5788 -14.5787 -14.5627 -14.5627
   -12.5669 -12.5668 -12.5425 -12.5423 -12.5380 -12.5375 -12.5096 -12.5091
   -12.5086 -12.5084 -12.5044 -12.5041 -12.4963 -12.4962 -12.4920 -12.4918
    -9.5457  -9.5455  -9.5315  -9.5314  -9.3805  -9.3804  -9.3553  -9.3553
    -9.3367  -9.3365  -9.2955  -9.2954  -9.2553  -9.2552  -9.2540  -9.2540
    -8.1565  -8.1564  -8.1347  -8.1345  -8.1183  -8.1182  -8.0355  -8.0353
    -8.0025  -8.0024  -7.9661  -7.9661  -7.9449  -7.9449  -7.8821  -7.8820
    -7.5176  -7.5175  -7.5086  -7.5086  -7.5001  -7.5001  -7.4899  -7.4898
    -7.4161  -7.4161  -7.4136  -7.4136  -7.3697  -7.3695  -7.3469  -7.3468
    -7.3104  -7.3104  -7.2040  -7.2039  -7.1783  -7.1782  -7.1191  -7.1191
    -7.0990  -7.0990  -7.0928  -7.0927  -7.0585  -7.0584  -6.9745  -6.9745
    -6.8488  -6.8485  -6.7253  -6.7251  -6.7004  -6.7002  -6.6818  -6.6817
    -6.6271  -6.6268  -6.6266  -6.6263  -6.6125  -6.6124  -6.5659  -6.5657
    -6.4514  -6.4513  -6.4404  -6.4403  -6.4213  -6.4212  -6.4060  -6.4059
    -6.3909  -6.3908  -6.3878  -6.3878  -6.3328  -6.3327  -6.2863  -6.2862
    -6.2774  -6.2774  -6.2370  -6.2369  -6.2281  -6.2280  -6.2034  -6.2034
    -6.1818  -6.1818  -6.1801  -6.1800  -6.1796  -6.1796  -6.1625  -6.1623
    -5.9813  -5.9810  -5.9234  -5.9232  -5.8923  -5.8922  -5.8770  -5.8767
    -5.7971  -5.7970  -5.7550  -5.7550  -5.7356  -5.7353  -5.6988  -5.6987
    -4.1734  -4.1734  -4.1369  -4.1369  -4.1107  -4.1106  -4.1075  -4.1074
    -4.1007  -4.1006  -4.0950  -4.0949  -4.0860  -4.0860  -3.9977  -3.9975
    -3.7868  -3.7867  -3.7649  -3.7647  -3.7048  -3.7047  -3.6946  -3.6944
    -3.6855  -3.6854  -3.6568  -3.6567  -3.6367  -3.6364  -3.5718  -3.5717
    -3.1443  -3.1442  -3.1169  -3.1168  -3.1165  -3.1164  -3.0648  -3.0647
    -3.0281  -3.0279  -3.0233  -3.0232  -2.9965  -2.9964  -2.9802  -2.9802
    -1.5238  -1.5236  -1.5056  -1.5055  -1.4831  -1.4830  -1.4753  -1.4751
    -1.4575  -1.4574  -1.4539  -1.4539  -1.4021  -1.4020  -1.3763  -1.3763
    -1.3619  -1.3618  -1.3523  -1.3521  -1.3038  -1.3038  -1.2424  -1.2423
    -1.2221  -1.2220  -1.2073  -1.2071  -1.1984  -1.1984  -1.1559  -1.1559
    -1.0042  -1.0040  -0.9930  -0.9928  -0.9500  -0.9498  -0.9268  -0.9267
    -0.8843  -0.8843  -0.8808  -0.8806  -0.8421  -0.8420  -0.8131  -0.8130
    -0.7758  -0.7758  -0.7693  -0.7692  -0.7488  -0.7488  -0.7035  -0.7034
    -0.6897  -0.6895  -0.6816  -0.6814  -0.6521  -0.6521  -0.6154  -0.6154
    -0.4460  -0.4459  -0.4386  -0.4384  -0.4206  -0.4205  -0.4176  -0.4173
    -0.3970  -0.3970  -0.3872  -0.3871  -0.3752  -0.3751  -0.3631  -0.3629
    -0.3302  -0.3302  -0.3186  -0.3185  -0.3153  -0.3152  -0.2964  -0.2964
    -0.2950  -0.2950  -0.2776  -0.2775  -0.2433  -0.2432  -0.2238  -0.2237
     3.2871   3.2872   3.3168   3.3169   3.3316   3.3317   3.3630   3.3631
     3.3946   3.3947   3.4166   3.4169   3.4181   3.4182   3.4346   3.4347
     3.4545   3.4546   3.4564   3.4565   3.4749   3.4750   3.5011   3.5012
     3.5492   3.5492   3.5599   3.5600   3.5679   3.5680   3.5778   3.5779
     7.2065   7.2066   7.3022   7.3022   7.6270   7.6271   7.7080   7.7082
     7.7923   7.7925   7.8367   7.8368   7.8786   7.8788   7.9299   7.9301
     7.9815   7.9817   8.0732   8.0735   8.1368   8.1369   8.1610   8.1612
     8.2346   8.2348   8.2661   8.2662   8.2811   8.2813   8.4652   8.4652
     8.4959   8.4960   8.5678   8.5679   8.5751   8.5753   8.7211   8.7214
     8.7840

     highest occupied, lowest unoccupied level (ev):    -0.2020    3.2871

!    total energy              =   -4229.94753792 Ry
     Harris-Foulkes estimate   =   -4229.94753791 Ry
     estimated scf accuracy    <          5.6E-09 Ry

     total all-electron energy =    -15646.161256 Ry

     The total energy is the sum of the following terms:

     one-electron contribution =   -2275.04759004 Ry
     hartree contribution      =    1428.58619492 Ry
     xc contribution           =    -820.95253945 Ry
     ewald contribution        =   -1474.35962595 Ry
     Dispersion Correction     =      -0.80307305 Ry
     one-center paw contrib.   =   -1087.37090435 Ry

     convergence has been achieved in  15 iterations

     Forces acting on atoms (cartesian axes, Ry/au):

     atom    1 type  2   force =     0.00051008    0.00001234    0.00051702
     atom    2 type  2   force =     0.00048942    0.00000333    0.00052450
     atom    3 type  2   force =     0.00000209    0.00048580    0.00052224
     atom    4 type  2   force =    -0.00000815    0.00050168    0.00052416
     atom    5 type  2   force =    -0.00043705    0.00004899    0.00059127
     atom    6 type  2   force =    -0.00047155    0.00003307    0.00057376
     atom    7 type  2   force =    -0.00001174   -0.00048138    0.00054872
     atom    8 type  2   force =    -0.00000893   -0.00048836    0.00053588
     atom    9 type  2   force =    -0.00051008   -0.00001234   -0.00051702
     atom   10 type  2   force =    -0.00048942   -0.00000333   -0.00052450
     atom   11 type  2   force =     0.00000815   -0.00050168   -0.00052416
     atom   12 type  2   force =    -0.00000209   -0.00048580   -0.00052224
     atom   13 type  2   force =     0.00043705   -0.00004899   -0.00059127
     atom   14 type  2   force =     0.00047155   -0.00003307   -0.00057376
     atom   15 type  2   force =     0.00000893    0.00048836   -0.00053588
     atom   16 type  2   force =     0.00001174    0.00048138   -0.00054872
     atom   17 type  2   force =    -0.00062547   -0.00082209    0.00015094
     atom   18 type  2   force =    -0.00065334   -0.00081167    0.00015436
     atom   19 type  2   force =     0.00081841   -0.00067714    0.00016294
     atom   20 type  2   force =     0.00081664   -0.00065307    0.00015708
     atom   21 type  2   force =     0.00056124    0.00080000    0.00012942
     atom   22 type  2   force =     0.00055753    0.00078426    0.00012295
     atom   23 type  2   force =    -0.00080089    0.00057941    0.00013500
     atom   24 type  2   force =    -0.00081933    0.00062584    0.00014857
     atom   25 type  2   force =     0.00062547    0.00082209   -0.00015094
     atom   26 type  2   force =     0.00065334    0.00081167   -0.00015436
     atom   27 type  2   force =    -0.00081664    0.00065307   -0.00015708
     atom   28 type  2   force =    -0.00081841    0.00067714   -0.00016294
     atom   29 type  2   force =    -0.00056124   -0.00080000   -0.00012942
     atom   30 type  2   force =    -0.00055753   -0.00078426   -0.00012295
     atom   31 type  2   force =     0.00081933   -0.00062584   -0.00014857
     atom   32 type  2   force =     0.00080089   -0.00057941   -0.00013500
     atom   33 type  4   force =     0.00018098   -0.00022098   -0.00073188
     atom   34 type  4   force =     0.00016374   -0.00022722   -0.00073692
     atom   35 type  4   force =     0.00022748    0.00016473   -0.00073489
     atom   36 type  4   force =     0.00021665    0.00018160   -0.00073656
     atom   37 type  4   force =    -0.00017112    0.00020741   -0.00079073
     atom   38 type  4   force =    -0.00018490    0.00020842   -0.00076480
     atom   39 type  4   force =    -0.00021507   -0.00017122   -0.00075361
     atom   40 type  4   force =    -0.00022281   -0.00017485   -0.00074083
     atom   41 type  4   force =    -0.00018098    0.00022098    0.00073188
     atom   42 type  4   force =    -0.00016374    0.00022722    0.00073692
     atom   43 type  4   force =    -0.00021665   -0.00018160    0.00073656
     atom   44 type  4   force =    -0.00022748   -0.00016473    0.00073489
     atom   45 type  4   force =     0.00017112   -0.00020741    0.00079073
     atom   46 type  4   force =     0.00018490   -0.00020842    0.00076480
     atom   47 type  4   force =     0.00022281    0.00017485    0.00074083
     atom   48 type  4   force =     0.00021507    0.00017122    0.00075361
     atom   49 type  4   force =    -0.00058294   -0.00017167    0.00040767
     atom   50 type  4   force =    -0.00057510   -0.00016189    0.00039573
     atom   51 type  4   force =     0.00015836   -0.00057507    0.00039738
     atom   52 type  4   force =     0.00016822   -0.00057420    0.00040165
     atom   53 type  4   force =     0.00053461    0.00013561    0.00037630
     atom   54 type  4   force =     0.00054798    0.00014272    0.00039027
     atom   55 type  4   force =    -0.00015789    0.00056382    0.00039381
     atom   56 type  4   force =    -0.00015739    0.00057105    0.00039739
     atom   57 type  4   force =     0.00058294    0.00017167   -0.00040767
     atom   58 type  4   force =     0.00057510    0.00016189   -0.00039573
     atom   59 type  4   force =    -0.00016822    0.00057420   -0.00040165
     atom   60 type  4   force =    -0.00015836    0.00057507   -0.00039738
     atom   61 type  4   force =    -0.00053461   -0.00013561   -0.00037630
     atom   62 type  4   force =    -0.00054798   -0.00014272   -0.00039027
     atom   63 type  4   force =     0.00015739   -0.00057105   -0.00039739
     atom   64 type  4   force =     0.00015789   -0.00056382   -0.00039381
     atom   65 type  4   force =     0.00032723    0.00052713   -0.00045922
     atom   66 type  4   force =     0.00032044    0.00053503   -0.00045937
     atom   67 type  4   force =    -0.00053532    0.00033913   -0.00046617
     atom   68 type  4   force =    -0.00053191    0.00032180   -0.00045849
     atom   69 type  4   force =    -0.00028407   -0.00050027   -0.00044273
     atom   70 type  4   force =    -0.00029499   -0.00050002   -0.00044621
     atom   71 type  4   force =     0.00050775   -0.00028812   -0.00044384
     atom   72 type  4   force =     0.00052203   -0.00032278   -0.00045931
     atom   73 type  4   force =    -0.00032723   -0.00052713    0.00045922
     atom   74 type  4   force =    -0.00032044   -0.00053503    0.00045937
     atom   75 type  4   force =     0.00053191   -0.00032180    0.00045849
     atom   76 type  4   force =     0.00053532   -0.00033913    0.00046617
     atom   77 type  4   force =     0.00028407    0.00050027    0.00044273
     atom   78 type  4   force =     0.00029499    0.00050002    0.00044621
     atom   79 type  4   force =    -0.00052203    0.00032278    0.00045931
     atom   80 type  4   force =    -0.00050775    0.00028812    0.00044384
     atom   81 type  4   force =    -0.00044388    0.00029538   -0.00006903
     atom   82 type  4   force =    -0.00042933    0.00030141   -0.00007072
     atom   83 type  4   force =    -0.00029417   -0.00040783   -0.00007330
     atom   84 type  4   force =    -0.00029551   -0.00043292   -0.00007304
     atom   85 type  4   force =     0.00047812   -0.00030844   -0.00005988
     atom   86 type  4   force =     0.00048306   -0.00030788   -0.00005963
     atom   87 type  4   force =     0.00030720    0.00047659   -0.00006184
     atom   88 type  4   force =     0.00030012    0.00044529   -0.00006555
     atom   89 type  4   force =     0.00044388   -0.00029538    0.00006903
     atom   90 type  4   force =     0.00042933   -0.00030141    0.00007072
     atom   91 type  4   force =     0.00029551    0.00043292    0.00007304
     atom   92 type  4   force =     0.00029417    0.00040783    0.00007330
     atom   93 type  4   force =    -0.00047812    0.00030844    0.00005988
     atom   94 type  4   force =    -0.00048306    0.00030788    0.00005963
     atom   95 type  4   force =    -0.00030012   -0.00044529    0.00006555
     atom   96 type  4   force =    -0.00030720   -0.00047659    0.00006184
     atom   97 type  1   force =     0.00000658    0.00049109   -0.00017626
     atom   98 type  1   force =     0.00009814    0.00051097   -0.00018363
     atom   99 type  1   force =    -0.00044696    0.00004526   -0.00016673
     atom  100 type  1   force =    -0.00053229    0.00005475   -0.00019224
     atom  101 type  1   force =    -0.00009984   -0.00049125   -0.00018726
     atom  102 type  1   force =    -0.00000504   -0.00050831   -0.00018016
     atom  103 type  1   force =     0.00054332   -0.00005060   -0.00018981
     atom  104 type  1   force =     0.00044262   -0.00005592   -0.00017326
     atom  105 type  1   force =    -0.00000658   -0.00049109    0.00017626
     atom  106 type  1   force =    -0.00009814   -0.00051097    0.00018363
     atom  107 type  1   force =     0.00053229   -0.00005475    0.00019224
     atom  108 type  1   force =     0.00044696   -0.00004526    0.00016673
     atom  109 type  1   force =     0.00009984    0.00049125    0.00018726
     atom  110 type  1   force =     0.00000504    0.00050831    0.00018016
     atom  111 type  1   force =    -0.00044262    0.00005592    0.00017326
     atom  112 type  1   force =    -0.00054332    0.00005060    0.00018981
     atom  113 type  1   force =    -0.00065583   -0.00021718   -0.00011682
     atom  114 type  1   force =    -0.00059306   -0.00023406   -0.00011686
     atom  115 type  1   force =     0.00015412   -0.00059967   -0.00012645
     atom  116 type  1   force =     0.00033097   -0.00066382   -0.00010912
     atom  117 type  1   force =     0.00058652    0.00021757   -0.00011697
     atom  118 type  1   force =     0.00064709    0.00024045   -0.00010763
     atom  119 type  1   force =    -0.00033840    0.00060977   -0.00010728
     atom  120 type  1   force =    -0.00016407    0.00065607   -0.00012389
     atom  121 type  1   force =     0.00065583    0.00021718    0.00011682
     atom  122 type  1   force =     0.00059306    0.00023406    0.00011686
     atom  123 type  1   force =    -0.00033097    0.00066382    0.00010912
     atom  124 type  1   force =    -0.00015412    0.00059967    0.00012645
     atom  125 type  1   force =    -0.00058652   -0.00021757    0.00011697
     atom  126 type  1   force =    -0.00064709   -0.00024045    0.00010763
     atom  127 type  1   force =     0.00016407   -0.00065607    0.00012389
     atom  128 type  1   force =     0.00033840   -0.00060977    0.00010728
     atom  129 type  3   force =     0.00039408    0.00005043    0.00045955
     atom  130 type  3   force =     0.00036739    0.00004267    0.00046609
     atom  131 type  3   force =    -0.00003805    0.00037598    0.00046964
     atom  132 type  3   force =    -0.00005328    0.00038592    0.00045604
     atom  133 type  3   force =    -0.00036420   -0.00005256    0.00046136
     atom  134 type  3   force =    -0.00039493   -0.00004191    0.00046315
     atom  135 type  3   force =     0.00005186   -0.00038460    0.00045644
     atom  136 type  3   force =     0.00004200   -0.00037499    0.00046825
     atom  137 type  3   force =    -0.00039408   -0.00005043   -0.00045955
     atom  138 type  3   force =    -0.00036739   -0.00004267   -0.00046609
     atom  139 type  3   force =     0.00005328   -0.00038592   -0.00045604
     atom  140 type  3   force =     0.00003805   -0.00037598   -0.00046964
     atom  141 type  3   force =     0.00036420    0.00005256   -0.00046136
     atom  142 type  3   force =     0.00039493    0.00004191   -0.00046315
     atom  143 type  3   force =    -0.00004200    0.00037499   -0.00046825
     atom  144 type  3   force =    -0.00005186    0.00038460   -0.00045644
     atom  145 type  3   force =     0.00030108   -0.00053262   -0.00024369
     atom  146 type  3   force =     0.00028683   -0.00053963   -0.00025420
     atom  147 type  3   force =     0.00053793    0.00028790   -0.00025180
     atom  148 type  3   force =     0.00053513    0.00030052   -0.00024839
     atom  149 type  3   force =    -0.00028274    0.00053109   -0.00024834
     atom  150 type  3   force =    -0.00030204    0.00054135   -0.00024900
     atom  151 type  3   force =    -0.00053902   -0.00029387   -0.00024945
     atom  152 type  3   force =    -0.00053429   -0.00029227   -0.00024840
     atom  153 type  3   force =    -0.00030108    0.00053262    0.00024369
     atom  154 type  3   force =    -0.00028683    0.00053963    0.00025420
     atom  155 type  3   force =    -0.00053513   -0.00030052    0.00024839
     atom  156 type  3   force =    -0.00053793   -0.00028790    0.00025180
     atom  157 type  3   force =     0.00028274   -0.00053109    0.00024834
     atom  158 type  3   force =     0.00030204   -0.00054135    0.00024900
     atom  159 type  3   force =     0.00053429    0.00029227    0.00024840
     atom  160 type  3   force =     0.00053902    0.00029387    0.00024945
     atom  161 type  3   force =     0.00018223    0.00007027   -0.00058192
     atom  162 type  3   force =     0.00015290    0.00006317   -0.00058140
     atom  163 type  3   force =    -0.00005502    0.00016955   -0.00058036
     atom  164 type  3   force =    -0.00007702    0.00016560   -0.00058559
     atom  165 type  3   force =    -0.00015395   -0.00006761   -0.00058070
     atom  166 type  3   force =    -0.00017956   -0.00006906   -0.00058592
     atom  167 type  3   force =     0.00008118   -0.00016147   -0.00058172
     atom  168 type  3   force =     0.00005500   -0.00017164   -0.00058301
     atom  169 type  3   force =    -0.00018223   -0.00007027    0.00058192
     atom  170 type  3   force =    -0.00015290   -0.00006317    0.00058140
     atom  171 type  3   force =     0.00007702   -0.00016560    0.00058559
     atom  172 type  3   force =     0.00005502   -0.00016955    0.00058036
     atom  173 type  3   force =     0.00015395    0.00006761    0.00058070
     atom  174 type  3   force =     0.00017956    0.00006906    0.00058592
     atom  175 type  3   force =    -0.00005500    0.00017164    0.00058301
     atom  176 type  3   force =    -0.00008118    0.00016147    0.00058172
     atom  177 type  3   force =     0.00005817    0.00023645    0.00008646
     atom  178 type  3   force =     0.00003435    0.00023202    0.00009371
     atom  179 type  3   force =    -0.00022258    0.00004208    0.00009005
     atom  180 type  3   force =    -0.00024476    0.00005118    0.00008983
     atom  181 type  3   force =    -0.00003419   -0.00023579    0.00009100
     atom  182 type  3   force =    -0.00005767   -0.00023596    0.00008722
     atom  183 type  3   force =     0.00024793   -0.00004122    0.00009047
     atom  184 type  3   force =     0.00022206   -0.00005017    0.00008853
     atom  185 type  3   force =    -0.00005817   -0.00023645   -0.00008646
     atom  186 type  3   force =    -0.00003435   -0.00023202   -0.00009371
     atom  187 type  3   force =     0.00024476   -0.00005118   -0.00008983
     atom  188 type  3   force =     0.00022258   -0.00004208   -0.00009005
     atom  189 type  3   force =     0.00003419    0.00023579   -0.00009100
     atom  190 type  3   force =     0.00005767    0.00023596   -0.00008722
     atom  191 type  3   force =    -0.00022206    0.00005017   -0.00008853
     atom  192 type  3   force =    -0.00024793    0.00004122   -0.00009047

     Total force =     0.009453     Total SCF correction =     0.000166


     Computing stress (Cartesian axis) and pressure

          total   stress  (Ry/bohr**3)                   (kbar)     P=   -4.20
  -0.00002704   0.00000003   0.00000000         -3.98      0.00      0.00
   0.00000003  -0.00002699   0.00000000          0.00     -3.97      0.00
   0.00000000   0.00000000  -0.00003172          0.00      0.00     -4.67


     Writing output data file scf.save
 
     init_run     :    230.05s CPU    236.28s WALL (       1 calls)
     electrons    :   9059.01s CPU   9311.78s WALL (       1 calls)
     forces       :    115.86s CPU    116.64s WALL (       1 calls)
     stress       :   1197.12s CPU   1198.38s WALL (       1 calls)

     Called by init_run:
     wfcinit      :    219.57s CPU    225.47s WALL (       1 calls)
     potinit      :      3.58s CPU      3.63s WALL (       1 calls)

     Called by electrons:
     c_bands      :   8206.97s CPU   8428.67s WALL (      15 calls)
     sum_band     :    820.60s CPU    847.68s WALL (      15 calls)
     v_of_rho     :      4.43s CPU      4.76s WALL (      16 calls)
     newd         :     12.65s CPU     16.28s WALL (      16 calls)
     PAW_pot      :     13.46s CPU     13.46s WALL (      16 calls)
     mix_rho      :      1.17s CPU      1.25s WALL (      15 calls)

     Called by c_bands:
     init_us_2    :     36.64s CPU     36.85s WALL (     264 calls)
     cegterg      :   8057.22s CPU   8278.56s WALL (     120 calls)

     Called by sum_band:
     sum_band:bec :      0.39s CPU      0.40s WALL (     120 calls)
     addusdens    :     12.72s CPU     16.10s WALL (      15 calls)

     Called by *egterg:
     h_psi        :   4101.78s CPU   4260.72s WALL (     528 calls)
     s_psi        :   1019.94s CPU   1020.35s WALL (     528 calls)
     g_psi        :     20.22s CPU     20.22s WALL (     400 calls)
     cdiaghg      :    481.97s CPU    482.15s WALL (     520 calls)

     Called by h_psi:
     h_psi:pot    :   4076.15s CPU   4234.35s WALL (     528 calls)
     h_psi:calbec :    997.35s CPU    999.10s WALL (     528 calls)
     vloc_psi     :   2058.84s CPU   2214.56s WALL (     528 calls)
     add_vuspsi   :   1019.95s CPU   1020.69s WALL (     528 calls)

     General routines
     calbec       :   1511.91s CPU   1514.28s WALL (     688 calls)
     fft          :      6.95s CPU      7.54s WALL (     232 calls)
     fftw         :   2205.54s CPU   2383.73s WALL (  337734 calls)
 
     Parallel routines
     fft_scatter  :    351.75s CPU    530.18s WALL (  337966 calls)
 
     PWSCF        :     2h57m CPU        3h 3m WALL

 
   This run was terminated on:   4:11:37  12Dec2017            

=------------------------------------------------------------------------------=
   JOB DONE.
=------------------------------------------------------------------------------=
