
     Program PWSCF v.6.1 (svn rev. 13369) starts on  7Dec2017 at  9:20: 2 

     This program is part of the open-source Quantum ESPRESSO suite
     for quantum simulation of materials; please cite
         "P. Giannozzi et al., J. Phys.:Condens. Matter 21 395502 (2009);
          URL http://www.quantum-espresso.org", 
     in publications or presentations arising from this work. More details at
     http://www.quantum-espresso.org/quote

     Parallel version (MPI), running on     8 processors
     R & G space division:  proc/nbgrp/npool/nimage =       8
     Waiting for input...
     Reading input from standard input

     Current dimensions of program PWSCF are:
     Max number of different atomic species (ntypx) = 10
     Max number of k-points (npk) =  40000
     Max angular momentum in pseudopotentials (lmaxx) =  3
               file C.pbe-n-kjpaw_psl.0.1.UPF: wavefunction(s)  2P renormalized
               file N.pbe-n-kjpaw_psl.0.1.UPF: wavefunction(s)  2P renormalized
               file H.pbe-kjpaw_psl.0.1.UPF: wavefunction(s)  1S renormalized
               file O.pbe-n-kjpaw_psl.0.1.UPF: wavefunction(s)  2P renormalized

     -------------------------------------
     Parameters for Dispersion Correction:
     -------------------------------------
       atom      VdW radius       C_6     

        C          2.744         60.710
        N          2.640         42.670
        H          1.892          4.857
        O          2.536         24.284

     Subspace diagonalization in iterative solution of the eigenvalue problem:
     a serial algorithm will be used

 
     Parallelization info
     --------------------
     sticks:   dense  smooth     PW     G-vecs:    dense   smooth      PW
     Min        1439    1439    383               140779   140779   19355
     Max        1440    1440    384               140782   140782   19358
     Sum       11517   11517   3071              1126243  1126243  154853
 


     bravais-lattice index     =            0
     lattice parameter (alat)  =      18.9823  a.u.
     unit-cell volume          =    8336.1993 (a.u.)^3
     number of atoms/cell      =          128
     number of atomic types    =            4
     number of electrons       =       336.00
     number of Kohn-Sham states=          201
     kinetic-energy cutoff     =     100.0000  Ry
     charge density cutoff     =     400.0000  Ry
     convergence threshold     =      1.0E-08
     mixing beta               =       0.5000
     number of iterations used =            8  plain     mixing
     Exchange-correlation      =  SLA  PW   PBX  PBC ( 1  4  3  4 0 0)

     celldm(1)=  18.982299  celldm(2)=   0.000000  celldm(3)=   0.000000
     celldm(4)=   0.000000  celldm(5)=   0.000000  celldm(6)=   0.000000

     crystal axes: (cart. coord. in units of alat)
               a(1) = (   1.000000   0.000000   0.000000 )  
               a(2) = (  -0.006921   1.003859   0.000000 )  
               a(3) = (  -0.156408  -0.475124   1.214085 )  

     reciprocal axes: (cart. coord. in units 2 pi/alat)
               b(1) = (  1.000000  0.006894  0.131526 )  
               b(2) = (  0.000000  0.996156  0.389839 )  
               b(3) = (  0.000000  0.000000  0.823666 )  


     PseudoPot. # 1 for  C read from file:
     /scratch/ahofstet/pseudo/C.pbe-n-kjpaw_psl.0.1.UPF
     MD5 check sum: 430fe95172b1e11ef3f8ed03bac87931
     Pseudo is Projector augmented-wave + core cor, Zval =  4.0
     Generated using "atomic" code by A. Dal Corso  v.5.0.99 svn rev. 10869
     Shape of augmentation charge: BESSEL
     Using radial grid of 1073 points,  4 beta functions with: 
                l(1) =   0
                l(2) =   0
                l(3) =   1
                l(4) =   1
     Q(r) pseudized with 0 coefficients 


     PseudoPot. # 2 for  N read from file:
     /scratch/ahofstet/pseudo/N.pbe-n-kjpaw_psl.0.1.UPF
     MD5 check sum: f73187c8b701007e77325f868c9291d7
     Pseudo is Projector augmented-wave + core cor, Zval =  5.0
     Generated using "atomic" code by A. Dal Corso  v.5.0.99 svn rev. 10869
     Shape of augmentation charge: PSQ
     Using radial grid of 1085 points,  4 beta functions with: 
                l(1) =   0
                l(2) =   0
                l(3) =   1
                l(4) =   1
     Q(r) pseudized with 0 coefficients 


     PseudoPot. # 3 for  H read from file:
     /scratch/ahofstet/pseudo/H.pbe-kjpaw_psl.0.1.UPF
     MD5 check sum: 94e484f906d9e9773b2f6e52662335b2
     Pseudo is Projector augmented-wave, Zval =  1.0
     Generated using "atomic" code by A. Dal Corso  v.5.0.99 svn rev. 10869
     Shape of augmentation charge: PSQ
     Using radial grid of  929 points,  2 beta functions with: 
                l(1) =   0
                l(2) =   0
     Q(r) pseudized with 0 coefficients 


     PseudoPot. # 4 for  O read from file:
     /scratch/ahofstet/pseudo/O.pbe-n-kjpaw_psl.0.1.UPF
     MD5 check sum: 3f94a2996a3169367d6eb21d9b593f20
     Pseudo is Projector augmented-wave + core cor, Zval =  6.0
     Generated using "atomic" code by A. Dal Corso  v.5.0.99 svn rev. 10869
     Shape of augmentation charge: BESSEL
     Using radial grid of 1095 points,  4 beta functions with: 
                l(1) =   0
                l(2) =   0
                l(3) =   1
                l(4) =   1
     Q(r) pseudized with 0 coefficients 


     atomic species   valence    mass     pseudopotential
        C              4.00    12.01070      C( 1.00)
        N              5.00    14.00670      N( 1.00)
        H              1.00     1.00794      H( 1.00)
        O              6.00    15.99940      O( 1.00)

      2 Sym. Ops., with inversion, found



   Cartesian axes

     site n.     atom                  positions (alat units)
         1           O   tau(   1) = (   0.5628488   0.6526151   0.2908289  )
         2           O   tau(   2) = (   0.2738223  -0.1238799   0.9232561  )
         3           O   tau(   3) = (   0.2635166   0.8183045   0.3235678  )
         4           O   tau(   4) = (   0.5731545  -0.2895693   0.8905172  )
         5           O   tau(   5) = (   0.0954505   0.5201352   0.2876105  )
         6           O   tau(   6) = (   0.7412205   0.0085999   0.9264744  )
         7           O   tau(   7) = (   0.3928497   0.3506360   0.3101497  )
         8           O   tau(   8) = (   0.4438214   0.1780991   0.9039353  )
         9           C   tau(   9) = (   0.6790862   0.3100380   0.3870954  )
        10           C   tau(  10) = (   0.1575849   0.2186971   0.8269896  )
        11           H   tau(  11) = (   0.7738594   0.3429121   0.4309916  )
        12           H   tau(  12) = (   0.0628116   0.1858231   0.7830934  )
        13           H   tau(  13) = (   0.6951451   0.2158309   0.3339456  )
        14           H   tau(  14) = (   0.1415260   0.3129043   0.8801394  )
        15           H   tau(  15) = (   0.6067389   0.2928066   0.4672411  )
        16           H   tau(  16) = (   0.2299322   0.2359285   0.7468439  )
        17           C   tau(  17) = (   0.6279188   0.4158334   0.2880331  )
        18           C   tau(  18) = (   0.2087522   0.1129018   0.9260519  )
        19           C   tau(  19) = (   0.6067578   0.5444029   0.3626111  )
        20           C   tau(  20) = (   0.2299133  -0.0156678   0.8514739  )
        21           C   tau(  21) = (   0.5473293   0.7567826   0.3786910  )
        22           C   tau(  22) = (   0.2893418  -0.2280474   0.8353940  )
        23           C   tau(  23) = (   0.5060088  -0.1165270   0.3226273  )
        24           C   tau(  24) = (   0.3306623   0.6452621   0.8914577  )
        25           C   tau(  25) = (   0.3685319   0.8685703   0.2510940  )
        26           C   tau(  26) = (   0.4681391  -0.3398351   0.9629910  )
        27           C   tau(  27) = (   0.1562429   0.8076978   0.2390931  )
        28           C   tau(  28) = (   0.6804282  -0.2789627   0.9749919  )
        29           C   tau(  29) = (   0.0279235   0.7557457   0.2969823  )
        30           C   tau(  30) = (   0.8087476  -0.2270106   0.9171026  )
        31           C   tau(  31) = (   0.9247597   0.7404314   0.1843894  )
        32           C   tau(  32) = (  -0.0880887  -0.2116963   1.0296955  )
        33           H   tau(  33) = (   0.9097592   0.8362962   0.1337651  )
        34           H   tau(  34) = (  -0.0730881  -0.3075611   1.0803199  )
        35           H   tau(  35) = (   0.8294611   0.7082791   0.2270579  )
        36           H   tau(  36) = (   0.0072099  -0.1795440   0.9870270  )
        37           H   tau(  37) = (   0.9574336   0.6665442   0.1108198  )
        38           H   tau(  38) = (  -0.1207625  -0.1378091   1.1032652  )
        39           C   tau(  39) = (   0.7321179   0.4350112   0.1770534  )
        40           C   tau(  40) = (   0.1045531   0.0937239   1.0370316  )
        41           H   tau(  41) = (   0.7002728   0.5114433   0.1057460  )
        42           H   tau(  42) = (   0.1363983   0.0172918   1.1083390  )
        43           H   tau(  43) = (   0.7465868   0.3413520   0.1223701  )
        44           H   tau(  44) = (   0.0900842   0.1873831   1.0917149  )
        45           H   tau(  45) = (   0.8273243   0.4648365   0.2216134  )
        46           H   tau(  46) = (   0.0093467   0.0638986   0.9924716  )
        47           C   tau(  47) = (   0.4993441   0.3695792   0.2259534  )
        48           C   tau(  48) = (   0.3373270   0.1591559   0.9881316  )
        49           C   tau(  49) = (   0.4624897   0.3394670   0.0984174  )
        50           C   tau(  50) = (   0.3741813   0.1892681   1.1156675  )
        51           H   tau(  51) = (   0.5248286   0.3455736   0.0104008  )
        52           H   tau(  52) = (   0.3118424   0.1831616   1.2036842  )
        53           C   tau(  53) = (   0.3254067   0.3002342   0.1038286  )
        54           C   tau(  54) = (   0.5112644   0.2285010   1.1102564  )
        55           H   tau(  55) = (   0.2626911   0.2707848   0.0209781  )
        56           H   tau(  56) = (   0.5739799   0.2579504   1.1931069  )
        57           C   tau(  57) = (   0.2870599   0.3087869   0.2339989  )
        58           C   tau(  58) = (   0.5496111   0.2199483   0.9800860  )
        59           C   tau(  59) = (   0.1575719   0.2839537   0.3054074  )
        60           C   tau(  60) = (   0.6790992   0.2447815   0.9086775  )
        61           C   tau(  61) = (   0.0537045   0.2328435   0.2044112  )
        62           C   tau(  62) = (   0.7829666   0.2958917   1.0096738  )
        63           H   tau(  63) = (   0.0334974   0.3076845   0.1273665  )
        64           H   tau(  64) = (   0.8031737   0.2210507   1.0867185  )
        65           H   tau(  65) = (  -0.0396854   0.2110804   0.2570455  )
        66           H   tau(  66) = (   0.8763565   0.3176548   0.9570395  )
        67           H   tau(  67) = (   0.0900048   0.1411822   0.1568206  )
        68           H   tau(  68) = (   0.7466663   0.3875530   1.0572643  )
        69           C   tau(  69) = (   0.1084589   0.4107302   0.3689409  )
        70           C   tau(  70) = (   0.7282122   0.1180049   0.8451440  )
        71           C   tau(  71) = (   0.0495619   0.6236733   0.3646293  )
        72           C   tau(  72) = (   0.7871092  -0.0949381   0.8494557  )
        73           C   tau(  73) = (   0.3285179   0.8907632   0.1230281  )
        74           C   tau(  74) = (   0.5081532  -0.3620281   1.0910569  )
        75           H   tau(  75) = (   0.3896516   0.9296438   0.0430380  )
        76           H   tau(  76) = (   0.4470194  -0.4009086   1.1710469  )
        77           C   tau(  77) = (   0.1916378   0.8514396   0.1151734  )
        78           C   tau(  78) = (   0.6450333  -0.3227044   1.0989116  )
        79           H   tau(  79) = (   0.1278806   0.8537823   0.0279762  )
        80           H   tau(  80) = (   0.7087905  -0.3250472   1.1861088  )
        81           C   tau(  81) = (   0.6202051   0.5793612   0.4933518  )
        82           C   tau(  82) = (   0.2164659  -0.0506261   0.7207332  )
        83           H   tau(  83) = (   0.6521853   0.5143804   0.5734238  )
        84           H   tau(  84) = (   0.1844858   0.0143547   0.6406612  )
        85           C   tau(  85) = (   0.5817448   0.7163550   0.5039490  )
        86           C   tau(  86) = (   0.2549263  -0.1876198   0.7101360  )
        87           H   tau(  87) = (   0.5783285   0.7763463   0.5937971  )
        88           H   tau(  88) = (   0.2583426  -0.2476112   0.6202879  )
        89           C   tau(  89) = (   0.4891220  -0.0165182   0.4378979  )
        90           C   tau(  90) = (   0.3475490   0.5452533   0.7761871  )
        91           H   tau(  91) = (   0.4581526   0.0801848   0.3975237  )
        92           H   tau(  92) = (   0.3785184   0.4485503   0.8165613  )
        93           H   tau(  93) = (   0.5838058  -0.0036775   0.4911930  )
        94           H   tau(  94) = (   0.2528652   0.5324126   0.7228919  )
        95           H   tau(  95) = (   0.4142519  -0.0511097   0.5095621  )
        96           H   tau(  96) = (   0.4224192   0.5798449   0.7045228  )
        97           C   tau(  97) = (   0.6088306  -0.0611823   0.2227471  )
        98           C   tau(  98) = (   0.2278405   0.5899174   0.9913379  )
        99           H   tau(  99) = (   0.6163971   0.8741337   0.1387995  )
       100           H   tau( 100) = (   0.2202739  -0.3453986   1.0752855  )
       101           H   tau( 101) = (   0.7045762  -0.0473971   0.2737661  )
       102           H   tau( 102) = (   0.1320949   0.5761323   0.9403189  )
       103           H   tau( 103) = (   0.5750464   0.0355468   0.1841686  )
       104           H   tau( 104) = (   0.2616247   0.4931883   1.0299164  )
       105           C   tau( 105) = (  -0.0201926  -0.1486839   0.4003060  )
       106           C   tau( 106) = (   0.8568637   0.6774190   0.8137790  )
       107           H   tau( 107) = (   0.0500934  -0.1336660   0.4826891  )
       108           H   tau( 108) = (   0.7865777   0.6624012   0.7313959  )
       109           H   tau( 109) = (   0.8782496   0.8173831   0.4402607  )
       110           H   tau( 110) = (  -0.0415785  -0.2886480   0.7738243  )
       111           H   tau( 111) = (  -0.0384468  -0.0525189   0.3515104  )
       112           H   tau( 112) = (   0.8751178   0.5812541   0.8625746  )
       113           C   tau( 113) = (   0.0325255   0.5809509   0.4925659  )
       114           C   tau( 114) = (   0.8041456  -0.0522157   0.7215191  )
       115           H   tau( 115) = (  -0.0026122   0.6407014   0.5752118  )
       116           H   tau( 116) = (   0.8392833  -0.1119662   0.6388731  )
       117           C   tau( 117) = (   0.0706040   0.4435194   0.4954870  )
       118           C   tau( 118) = (   0.7660670   0.0852157   0.7185979  )
       119           H   tau( 119) = (   0.0713515   0.3777790   0.5812275  )
       120           H   tau( 120) = (   0.7653196   0.1509562   0.6328575  )
       121           C   tau( 121) = (   0.1774806   0.1777623   0.4143833  )
       122           C   tau( 122) = (   0.6591904   0.3509729   0.7997017  )
       123           H   tau( 123) = (   0.2084270   0.0837049   0.3681055  )
       124           H   tau( 124) = (   0.6282440   0.4450303   0.8459795  )
       125           H   tau( 125) = (   0.0836905   0.1610369   0.4682980  )
       126           H   tau( 126) = (   0.7529806   0.3676982   0.7457870  )
       127           H   tau( 127) = (   0.2540049   0.2089858   0.4858861  )
       128           H   tau( 128) = (   0.5826661   0.3197494   0.7281989  )

     number of k points=     8
                       cart. coord. in units 2pi/alat
        k(    1) = (   0.0000000   0.0000000   0.0000000), wk =   0.2500000
        k(    2) = (   0.0000000   0.0000000  -0.4118328), wk =   0.2500000
        k(    3) = (   0.0000000  -0.4980781  -0.1949193), wk =   0.2500000
        k(    4) = (   0.0000000  -0.4980781  -0.6067521), wk =   0.2500000
        k(    5) = (  -0.5000000  -0.0034471  -0.0657630), wk =   0.2500000
        k(    6) = (  -0.5000000  -0.0034471  -0.4775958), wk =   0.2500000
        k(    7) = (  -0.5000000  -0.5015252  -0.2606823), wk =   0.2500000
        k(    8) = (  -0.5000000  -0.5015252  -0.6725151), wk =   0.2500000

     Dense  grid:  1126243 G-vectors     FFT dimensions: ( 125, 125, 160)

     Estimated max dynamical RAM per process >    1195.26MB

     Estimated total allocated dynamical RAM >    9562.08MB

     Check: negative/imaginary core charge=   -0.000002    0.000000

     Initial potential from superposition of free atoms

     starting charge  335.99705, renormalised to  336.00000
     Starting wfc are  320 randomized atomic wfcs
     Checking if some PAW data can be deallocated... 

     total cpu time spent up to now is       89.4 secs

     per-process dynamical memory:   807.3 Mb

     Self-consistent Calculation

     iteration #  1     ecut=   100.00 Ry     beta=0.50
     Davidson diagonalization with overlap
     ethr =  1.00E-02,  avg # of iterations =  4.1

     total cpu time spent up to now is      334.8 secs

     total energy              =   -1439.33599783 Ry
     Harris-Foulkes estimate   =   -1446.64427592 Ry
     estimated scf accuracy    <      13.81646134 Ry

     iteration #  2     ecut=   100.00 Ry     beta=0.50
     Davidson diagonalization with overlap
     ethr =  4.11E-03,  avg # of iterations =  2.0

     total cpu time spent up to now is      454.9 secs

     total energy              =   -1439.33584512 Ry
     Harris-Foulkes estimate   =   -1440.37451586 Ry
     estimated scf accuracy    <       1.88741615 Ry

     iteration #  3     ecut=   100.00 Ry     beta=0.50
     Davidson diagonalization with overlap
     ethr =  5.62E-04,  avg # of iterations =  5.0

     total cpu time spent up to now is      746.5 secs

     total energy              =   -1441.67407704 Ry
     Harris-Foulkes estimate   =   -1442.86098854 Ry
     estimated scf accuracy    <       3.81341680 Ry

     iteration #  4     ecut=   100.00 Ry     beta=0.50
     Davidson diagonalization with overlap
     ethr =  5.62E-04,  avg # of iterations =  1.0

     total cpu time spent up to now is      862.8 secs

     total energy              =   -1440.52614776 Ry
     Harris-Foulkes estimate   =   -1441.77815939 Ry
     estimated scf accuracy    <       1.67281823 Ry

     iteration #  5     ecut=   100.00 Ry     beta=0.50
     Davidson diagonalization with overlap
     ethr =  4.98E-04,  avg # of iterations =  4.8

     total cpu time spent up to now is     1135.3 secs

     total energy              =   -1441.71129889 Ry
     Harris-Foulkes estimate   =   -1442.68240098 Ry
     estimated scf accuracy    <       3.07070354 Ry

     iteration #  6     ecut=   100.00 Ry     beta=0.50
     Davidson diagonalization with overlap
     ethr =  4.98E-04,  avg # of iterations =  1.0

     total cpu time spent up to now is     1250.9 secs

     total energy              =   -1441.08311479 Ry
     Harris-Foulkes estimate   =   -1441.76733190 Ry
     estimated scf accuracy    <       1.42849979 Ry

     iteration #  7     ecut=   100.00 Ry     beta=0.50
     Davidson diagonalization with overlap
     ethr =  4.25E-04,  avg # of iterations =  3.0

     total cpu time spent up to now is     1436.1 secs

     total energy              =   -1441.62520136 Ry
     Harris-Foulkes estimate   =   -1441.64658904 Ry
     estimated scf accuracy    <       0.04540782 Ry

     iteration #  8     ecut=   100.00 Ry     beta=0.50
     Davidson diagonalization with overlap
     ethr =  1.35E-05,  avg # of iterations = 12.1

     total cpu time spent up to now is     1704.0 secs

     total energy              =   -1441.63908153 Ry
     Harris-Foulkes estimate   =   -1441.64059103 Ry
     estimated scf accuracy    <       0.00309325 Ry

     iteration #  9     ecut=   100.00 Ry     beta=0.50
     Davidson diagonalization with overlap
     ethr =  9.21E-07,  avg # of iterations =  4.8

     total cpu time spent up to now is     1874.6 secs

     total energy              =   -1441.63997752 Ry
     Harris-Foulkes estimate   =   -1441.64025675 Ry
     estimated scf accuracy    <       0.00052824 Ry

     iteration # 10     ecut=   100.00 Ry     beta=0.50
     Davidson diagonalization with overlap
     ethr =  1.57E-07,  avg # of iterations =  4.5

     total cpu time spent up to now is     2068.2 secs

     total energy              =   -1441.64029307 Ry
     Harris-Foulkes estimate   =   -1441.64030191 Ry
     estimated scf accuracy    <       0.00003999 Ry

     iteration # 11     ecut=   100.00 Ry     beta=0.50
     Davidson diagonalization with overlap
     ethr =  1.19E-08,  avg # of iterations =  5.2

     total cpu time spent up to now is     2274.6 secs

     total energy              =   -1441.64029748 Ry
     Harris-Foulkes estimate   =   -1441.64031768 Ry
     estimated scf accuracy    <       0.00003893 Ry

     iteration # 12     ecut=   100.00 Ry     beta=0.50
     Davidson diagonalization with overlap
     ethr =  1.16E-08,  avg # of iterations =  2.0

     total cpu time spent up to now is     2393.1 secs

     total energy              =   -1441.64029969 Ry
     Harris-Foulkes estimate   =   -1441.64030110 Ry
     estimated scf accuracy    <       0.00000368 Ry

     iteration # 13     ecut=   100.00 Ry     beta=0.50
     Davidson diagonalization with overlap
     ethr =  1.09E-09,  avg # of iterations =  4.0

     total cpu time spent up to now is     2660.8 secs

     total energy              =   -1441.64030681 Ry
     Harris-Foulkes estimate   =   -1441.64030790 Ry
     estimated scf accuracy    <       0.00000421 Ry

     iteration # 14     ecut=   100.00 Ry     beta=0.50
     Davidson diagonalization with overlap
     ethr =  1.09E-09,  avg # of iterations =  1.0

     total cpu time spent up to now is     2776.2 secs

     total energy              =   -1441.64030584 Ry
     Harris-Foulkes estimate   =   -1441.64030688 Ry
     estimated scf accuracy    <       0.00000218 Ry

     iteration # 15     ecut=   100.00 Ry     beta=0.50
     Davidson diagonalization with overlap
     ethr =  6.48E-10,  avg # of iterations =  4.0

     total cpu time spent up to now is     2968.1 secs

     total energy              =   -1441.64030668 Ry
     Harris-Foulkes estimate   =   -1441.64030667 Ry
     estimated scf accuracy    <       0.00000014 Ry

     iteration # 16     ecut=   100.00 Ry     beta=0.50
     Davidson diagonalization with overlap
     ethr =  4.17E-11,  avg # of iterations =  3.5

     total cpu time spent up to now is     3102.6 secs

     total energy              =   -1441.64030663 Ry
     Harris-Foulkes estimate   =   -1441.64030669 Ry
     estimated scf accuracy    <       0.00000017 Ry

     iteration # 17     ecut=   100.00 Ry     beta=0.50
     Davidson diagonalization with overlap
     ethr =  4.17E-11,  avg # of iterations =  2.6

     total cpu time spent up to now is     3222.5 secs

     total energy              =   -1441.64030661 Ry
     Harris-Foulkes estimate   =   -1441.64030663 Ry
     estimated scf accuracy    <       0.00000006 Ry

     iteration # 18     ecut=   100.00 Ry     beta=0.50
     Davidson diagonalization with overlap
     ethr =  1.71E-11,  avg # of iterations =  4.2

     total cpu time spent up to now is     3407.2 secs

     End of self-consistent calculation

          k = 0.0000 0.0000 0.0000 (140819 PWs)   bands (ev):

   -21.9859 -21.9855 -21.9017 -21.9017 -21.8504 -21.8501 -21.7671 -21.7668
   -15.4669 -15.4632 -15.1034 -15.1010 -15.0902 -15.0882 -14.7488 -14.7170
   -14.0338 -13.9989 -13.9041 -13.8967 -13.8611 -13.8542 -13.6913 -13.6722
   -12.4029 -12.4006 -12.0491 -12.0351 -12.0218 -12.0196 -11.8325 -11.8301
   -11.4738 -11.4434 -11.3963 -11.3540 -11.2830 -11.2665 -11.2380 -11.2298
   -10.1124 -10.0457  -9.6841  -9.6770  -9.6472  -9.6364  -9.2422  -9.2136
    -8.8095  -8.7989  -8.6090  -8.5895  -8.5785  -8.5760  -8.2656  -8.2578
    -7.8541  -7.8496  -7.6572  -7.6300  -7.5840  -7.5786  -7.5414  -7.4408
    -7.4275  -7.3751  -6.7068  -6.7045  -6.7029  -6.7022  -5.9814  -5.9509
    -5.8639  -5.8580  -5.5444  -5.5411  -5.4813  -5.4656  -5.3302  -5.2562
    -5.1942  -5.1851  -5.1679  -5.1265  -5.0747  -5.0350  -5.0327  -5.0219
    -4.8170  -4.7745  -4.6070  -4.5323  -4.5182  -4.5076  -4.4687  -4.4482
    -4.2892  -4.2654  -4.2546  -4.2372  -4.1755  -4.1478  -4.0040  -3.9882
    -3.9239  -3.9110  -3.9040  -3.8910  -3.8804  -3.8714  -3.8412  -3.8379
    -3.8153  -3.7729  -3.7225  -3.7100  -3.6108  -3.4587  -3.4508  -3.4347
    -3.4254  -3.3809  -3.3768  -3.3208  -3.2808  -3.2457  -3.2240  -3.1402
    -3.0801  -3.0356  -2.9941  -2.9472  -2.9455  -2.9410  -2.9004  -2.8958
    -2.7733  -2.7174  -2.6963  -2.6819  -2.6523  -2.5178  -2.4440  -2.4162
    -2.4103  -2.4045  -2.3990  -2.3797  -2.3561  -2.3427  -2.2700  -2.2468
    -1.0918  -1.0552  -1.0310  -1.0175  -0.9512  -0.9095  -0.8563  -0.8122
     0.1398   0.1706   0.4947   0.5175   0.5246   0.5297   0.7412   0.8259
     4.7142   4.7333   4.9161   4.9631   4.9774   5.0563   5.0627   5.1003
     5.1823   5.7964   5.8601   5.9576   6.0414   6.0657   6.1182   6.1719
     6.2675   6.3145   6.3675   6.4125   6.5284   6.5644   6.6506   6.7404
     6.8692   6.8735   7.0072   7.0624   7.1529   7.2026   7.2790   7.2919
     7.4116

          k = 0.0000 0.0000-0.4118 (140758 PWs)   bands (ev):

   -21.9857 -21.9857 -21.9018 -21.9016 -21.8505 -21.8500 -21.7670 -21.7668
   -15.4666 -15.4636 -15.1061 -15.0984 -15.0927 -15.0855 -14.7336 -14.7334
   -14.0173 -14.0117 -13.9019 -13.8994 -13.8662 -13.8508 -13.6823 -13.6818
   -12.4030 -12.4006 -12.0448 -12.0398 -12.0220 -12.0193 -11.8332 -11.8295
   -11.4779 -11.4315 -11.4110 -11.3504 -11.2797 -11.2716 -11.2381 -11.2227
   -10.0841 -10.0738  -9.7110  -9.6852  -9.6297  -9.6198  -9.2375  -9.2178
    -8.8077  -8.8014  -8.6006  -8.5887  -8.5882  -8.5745  -8.2635  -8.2619
    -7.8566  -7.8506  -7.6447  -7.6421  -7.6031  -7.5599  -7.5286  -7.4733
    -7.3928  -7.3859  -6.7369  -6.7367  -6.6729  -6.6666  -5.9509  -5.9471
    -5.8838  -5.8784  -5.5471  -5.5333  -5.4778  -5.4694  -5.2741  -5.2594
    -5.2160  -5.2069  -5.1577  -5.1564  -5.0993  -5.0527  -5.0285  -5.0050
    -4.8003  -4.7758  -4.6131  -4.5482  -4.5099  -4.4955  -4.4679  -4.4479
    -4.3015  -4.2898  -4.2220  -4.2113  -4.1890  -4.1607  -3.9999  -3.9865
    -3.9387  -3.9387  -3.8875  -3.8862  -3.8571  -3.8468  -3.8457  -3.8313
    -3.8119  -3.7931  -3.7362  -3.7010  -3.4861  -3.4770  -3.4573  -3.4313
    -3.4274  -3.3961  -3.3566  -3.3228  -3.3152  -3.2802  -3.2095  -3.1958
    -3.0934  -3.0469  -2.9787  -2.9537  -2.9500  -2.9264  -2.8966  -2.8919
    -2.7580  -2.7192  -2.7053  -2.6985  -2.5909  -2.5656  -2.4632  -2.4249
    -2.4110  -2.4007  -2.3912  -2.3867  -2.3498  -2.3215  -2.2659  -2.2465
    -1.0799  -1.0735  -1.0209  -1.0206  -0.9332  -0.9272  -0.8554  -0.8165
     0.1503   0.1576   0.4864   0.5034   0.5307   0.5445   0.7818   0.7882
     4.7247   4.7261   4.8852   4.9631   4.9873   5.0633   5.0770   5.0998
     5.4395   5.4550   5.9716   5.9727   6.0040   6.0167   6.1149   6.1654
     6.2373   6.3120   6.4105   6.4211   6.5189   6.5597   6.7295   6.7356
     6.8490   6.8926   6.9074   7.0538   7.1930   7.1952   7.2456   7.3786
     7.4056

          k = 0.0000-0.4981-0.1949 (140760 PWs)   bands (ev):

   -21.9854 -21.9853 -21.9022 -21.9019 -21.8507 -21.8502 -21.7668 -21.7666
   -15.4738 -15.4653 -15.1097 -15.1054 -15.0950 -15.0931 -14.7113 -14.7050
   -14.0157 -14.0061 -13.9099 -13.9023 -13.8723 -13.8495 -13.6785 -13.6727
   -12.4018 -12.3982 -12.0863 -12.0769 -12.0205 -12.0115 -11.8572 -11.8559
   -11.5115 -11.4328 -11.4014 -11.3454 -11.3030 -11.2900 -11.2045 -11.2028
    -9.9821  -9.9586  -9.6998  -9.6710  -9.6289  -9.6121  -9.2644  -9.2079
    -8.8279  -8.7651  -8.6617  -8.6053  -8.5929  -8.5780  -8.2417  -8.2353
    -7.8737  -7.8656  -7.6592  -7.6492  -7.5979  -7.5660  -7.5192  -7.4844
    -7.3981  -7.3785  -6.8323  -6.7654  -6.7274  -6.6910  -5.9509  -5.8838
    -5.8785  -5.8491  -5.6121  -5.5804  -5.5242  -5.5014  -5.3016  -5.2745
    -5.2507  -5.2321  -5.1863  -5.1731  -5.0688  -5.0574  -4.9704  -4.8915
    -4.8817  -4.6576  -4.5715  -4.5500  -4.5399  -4.4993  -4.4938  -4.4169
    -4.3133  -4.2954  -4.2581  -4.2216  -4.1756  -4.1535  -4.0146  -4.0046
    -3.9603  -3.9136  -3.9030  -3.8979  -3.8247  -3.8236  -3.7743  -3.7649
    -3.6940  -3.6660  -3.6196  -3.5908  -3.5722  -3.5328  -3.4887  -3.4582
    -3.4497  -3.3974  -3.3584  -3.3262  -3.3048  -3.2372  -3.1942  -3.1582
    -3.1230  -2.9981  -2.9874  -2.9698  -2.9424  -2.9325  -2.8515  -2.8437
    -2.7851  -2.7717  -2.6679  -2.6330  -2.5869  -2.5799  -2.5376  -2.5347
    -2.4874  -2.4376  -2.4221  -2.3952  -2.3841  -2.3597  -2.2910  -2.2125
    -1.0760  -1.0593  -1.0484  -1.0224  -0.9346  -0.8853  -0.8557  -0.8506
     0.1500   0.1731   0.4393   0.4543   0.5117   0.5234   0.8400   0.8404
     4.7298   4.7691   4.8542   4.9112   4.9765   5.0092   5.1351   5.1864
     5.4222   5.4801   5.7425   5.9857   5.9880   6.1097   6.1209   6.2002
     6.2049   6.2956   6.4529   6.4889   6.5036   6.5816   6.7382   6.7934
     6.8974   6.9137   7.0220   7.0318   7.1030   7.1163   7.2062   7.3155
     7.4504

          k = 0.0000-0.4981-0.6068 (140746 PWs)   bands (ev):

   -21.9855 -21.9852 -21.9021 -21.9020 -21.8506 -21.8503 -21.7669 -21.7666
   -15.4699 -15.4692 -15.1117 -15.1035 -15.0984 -15.0896 -14.7152 -14.7010
   -14.0237 -13.9979 -13.9136 -13.9000 -13.8631 -13.8569 -13.6792 -13.6727
   -12.4028 -12.3971 -12.0856 -12.0787 -12.0194 -12.0116 -11.8565 -11.8564
   -11.4875 -11.4603 -11.3863 -11.3683 -11.3093 -11.2704 -11.2245 -11.1862
    -9.9896  -9.9499  -9.7034  -9.6741  -9.6195  -9.6151  -9.2396  -9.2265
    -8.8192  -8.7773  -8.6604  -8.6071  -8.5950  -8.5764  -8.2387  -8.2358
    -7.8740  -7.8707  -7.6778  -7.6223  -7.5988  -7.5912  -7.5561  -7.4361
    -7.3910  -7.3741  -6.8413  -6.7668  -6.7436  -6.6678  -5.9202  -5.9053
    -5.8741  -5.8587  -5.6182  -5.5737  -5.5522  -5.4824  -5.2927  -5.2733
    -5.2345  -5.2301  -5.1825  -5.1447  -5.1125  -5.1115  -4.9142  -4.9025
    -4.8089  -4.7580  -4.6003  -4.5534  -4.5377  -4.5040  -4.4595  -4.4356
    -4.2897  -4.2734  -4.2587  -4.2444  -4.1808  -4.1053  -4.0077  -4.0064
    -3.9770  -3.9382  -3.9007  -3.8636  -3.8403  -3.8102  -3.7978  -3.7715
    -3.6748  -3.6597  -3.6190  -3.5889  -3.5444  -3.5322  -3.4890  -3.4827
    -3.4521  -3.3849  -3.3702  -3.3382  -3.3025  -3.2412  -3.2138  -3.1471
    -3.0858  -3.0461  -2.9837  -2.9657  -2.9305  -2.9300  -2.8726  -2.8353
    -2.7879  -2.7719  -2.6489  -2.6414  -2.6054  -2.5839  -2.5565  -2.5113
    -2.5073  -2.4646  -2.4295  -2.3692  -2.3630  -2.3204  -2.2935  -2.2260
    -1.0697  -1.0680  -1.0406  -1.0268  -0.9457  -0.8744  -0.8654  -0.8432
     0.1499   0.1726   0.4503   0.4551   0.5032   0.5231   0.7907   0.8861
     4.7255   4.7662   4.8999   4.9266   4.9672   4.9994   5.0804   5.2327
     5.3474   5.6467   5.7442   5.8050   5.9259   6.0523   6.1868   6.2179
     6.2855   6.3832   6.3949   6.4721   6.5066   6.5787   6.7138   6.8410
     6.9087   6.9777   6.9806   7.0566   7.1220   7.1251   7.2269   7.2579
     7.2779

          k =-0.5000-0.0034-0.0658 (140786 PWs)   bands (ev):

   -21.9855 -21.9853 -21.9020 -21.9019 -21.8507 -21.8505 -21.7669 -21.7665
   -15.4689 -15.4678 -15.1271 -15.1128 -15.0867 -15.0801 -14.7158 -14.6991
   -14.0216 -14.0046 -13.9057 -13.9029 -13.8632 -13.8572 -13.6798 -13.6719
   -12.4014 -12.3975 -12.0936 -12.0766 -12.0216 -12.0157 -11.8521 -11.8520
   -11.4657 -11.4510 -11.4293 -11.3766 -11.2860 -11.2622 -11.2138 -11.2040
    -9.9754  -9.9578  -9.6894  -9.6861  -9.6356  -9.6179  -9.2467  -9.2181
    -8.8040  -8.7895  -8.6708  -8.6045  -8.5976  -8.5722  -8.2406  -8.2307
    -7.8734  -7.8625  -7.6492  -7.6399  -7.6085  -7.5910  -7.5292  -7.4409
    -7.4030  -7.3833  -6.8585  -6.7665  -6.7321  -6.6775  -5.9138  -5.8887
    -5.8644  -5.8581  -5.6090  -5.5894  -5.5616  -5.4797  -5.3115  -5.2816
    -5.2458  -5.2443  -5.1578  -5.1258  -5.0897  -5.0891  -4.9275  -4.9133
    -4.8305  -4.7471  -4.5878  -4.5782  -4.5286  -4.4748  -4.4446  -4.4369
    -4.3099  -4.2853  -4.2632  -4.2172  -4.1861  -4.1320  -4.0334  -4.0142
    -3.9619  -3.9445  -3.8927  -3.8697  -3.8509  -3.8093  -3.8006  -3.7529
    -3.6960  -3.6510  -3.6145  -3.6034  -3.5326  -3.5232  -3.5100  -3.5081
    -3.4395  -3.4292  -3.3390  -3.3161  -3.2778  -3.2737  -3.2083  -3.1427
    -3.0943  -3.0204  -3.0093  -2.9928  -2.8909  -2.8835  -2.8559  -2.8508
    -2.8090  -2.7642  -2.6519  -2.6344  -2.6253  -2.5847  -2.5831  -2.5192
    -2.4580  -2.4351  -2.4119  -2.4022  -2.3619  -2.3512  -2.2858  -2.2232
    -1.0749  -1.0507  -1.0363  -1.0254  -0.9511  -0.8946  -0.8844  -0.8149
     0.1515   0.1802   0.4244   0.4405   0.5269   0.5278   0.7961   0.8869
     4.7482   4.7818   4.8223   4.9179   4.9819   4.9964   5.1072   5.2404
     5.2974   5.6659   5.6966   5.8722   5.9855   6.0340   6.0954   6.2822
     6.3460   6.3488   6.3935   6.4592   6.4778   6.6589   6.7538   6.8322
     6.8740   6.9642   7.0326   7.0409   7.0888   7.1669   7.2387   7.2472
     7.2888

          k =-0.5000-0.0034-0.4776 (140818 PWs)   bands (ev):

   -21.9854 -21.9853 -21.9020 -21.9018 -21.8508 -21.8503 -21.7668 -21.7666
   -15.4728 -15.4638 -15.1210 -15.1190 -15.0841 -15.0827 -14.7104 -14.7051
   -14.0118 -14.0097 -13.9075 -13.9033 -13.8679 -13.8539 -13.6772 -13.6748
   -12.4013 -12.3977 -12.0879 -12.0824 -12.0207 -12.0166 -11.8537 -11.8506
   -11.4843 -11.4454 -11.4026 -11.3928 -11.2789 -11.2742 -11.2135 -11.1956
    -9.9796  -9.9502  -9.6911  -9.6690  -9.6438  -9.6284  -9.2655  -9.2021
    -8.8248  -8.7644  -8.6706  -8.6152  -8.5850  -8.5757  -8.2406  -8.2330
    -7.8677  -7.8640  -7.6648  -7.6493  -7.6034  -7.5737  -7.5287  -7.4802
    -7.3799  -7.3661  -6.8321  -6.7799  -6.7287  -6.6890  -5.9479  -5.8757
    -5.8699  -5.8323  -5.6279  -5.5809  -5.5349  -5.5082  -5.3090  -5.2944
    -5.2675  -5.2323  -5.1741  -5.1496  -5.0730  -5.0360  -4.9380  -4.9285
    -4.9039  -4.6190  -4.5693  -4.5687  -4.5283  -4.5034  -4.4577  -4.4346
    -4.3271  -4.2699  -4.2533  -4.2165  -4.1716  -4.1658  -4.0163  -4.0008
    -3.9884  -3.9220  -3.8887  -3.8786  -3.8543  -3.8421  -3.7770  -3.7685
    -3.7141  -3.6380  -3.6275  -3.6021  -3.5493  -3.5345  -3.4982  -3.4486
    -3.4198  -3.4028  -3.3596  -3.3311  -3.3256  -3.2497  -3.1859  -3.1755
    -3.1069  -3.0522  -2.9965  -2.9845  -2.8866  -2.8780  -2.8543  -2.8466
    -2.7965  -2.7748  -2.6775  -2.6309  -2.6051  -2.6029  -2.5482  -2.5366
    -2.4648  -2.4265  -2.4160  -2.4004  -2.3737  -2.3566  -2.2723  -2.2199
    -1.0778  -1.0435  -1.0412  -1.0249  -0.9395  -0.8997  -0.8873  -0.8173
     0.1537   0.1753   0.4208   0.4378   0.5295   0.5306   0.8360   0.8504
     4.7285   4.7878   4.8171   4.8913   4.9737   5.0160   5.1789   5.1809
     5.4777   5.4930   5.8244   5.8555   5.8940   6.1390   6.1398   6.2322
     6.2598   6.2850   6.3521   6.4807   6.5858   6.6279   6.6913   6.7339
     6.9160   6.9316   6.9986   7.0252   7.0814   7.0962   7.1827   7.3160
     7.4080

          k =-0.5000-0.5015-0.2607 (140792 PWs)   bands (ev):

   -21.9851 -21.9850 -21.9024 -21.9022 -21.8510 -21.8505 -21.7666 -21.7664
   -15.4751 -15.4714 -15.1158 -15.1090 -15.1016 -15.0984 -14.6835 -14.6826
   -14.0098 -14.0038 -13.9164 -13.9032 -13.8765 -13.8528 -13.6708 -13.6682
   -12.3986 -12.3964 -12.0895 -12.0796 -12.0592 -12.0522 -11.8873 -11.8844
   -11.4984 -11.4388 -11.4206 -11.3562 -11.3233 -11.3148 -11.1510 -11.1486
    -9.8744  -9.8634  -9.6926  -9.6638  -9.6228  -9.6185  -9.2437  -9.2283
    -8.7953  -8.7898  -8.6820  -8.6786  -8.5789  -8.5773  -8.2217  -8.2214
    -7.9149  -7.9119  -7.6522  -7.6326  -7.5803  -7.5741  -7.5150  -7.4951
    -7.3770  -7.3594  -6.8461  -6.8337  -6.7843  -6.7792  -5.9030  -5.8766
    -5.8443  -5.8441  -5.6978  -5.6808  -5.5434  -5.5314  -5.2805  -5.2628
    -5.2552  -5.2264  -5.1536  -5.1279  -5.0376  -5.0185  -4.9445  -4.9427
    -4.8514  -4.7886  -4.5847  -4.5353  -4.5332  -4.5049  -4.4368  -4.4300
    -4.3285  -4.3257  -4.2370  -4.1759  -4.1685  -4.1292  -4.0364  -4.0304
    -3.9369  -3.9208  -3.8892  -3.8673  -3.8403  -3.8193  -3.7341  -3.7103
    -3.6613  -3.6426  -3.6146  -3.5893  -3.5446  -3.5141  -3.4417  -3.4324
    -3.3731  -3.3540  -3.2998  -3.2962  -3.2647  -3.2174  -3.1909  -3.1433
    -3.0920  -3.0400  -2.9765  -2.9316  -2.9131  -2.9106  -2.8860  -2.8410
    -2.8039  -2.7991  -2.7425  -2.7200  -2.6783  -2.6561  -2.5522  -2.5385
    -2.4960  -2.4775  -2.4513  -2.4206  -2.3767  -2.3628  -2.2661  -2.2329
    -1.0760  -1.0597  -1.0357  -1.0245  -0.9210  -0.9073  -0.8610  -0.8447
     0.1642   0.1690   0.4178   0.4302   0.4591   0.4759   0.8950   0.9016
     4.7312   4.7763   4.8405   4.8636   4.9877   5.0016   5.2286   5.2439
     5.4270   5.4604   5.8334   5.8655   5.8973   5.9748   6.2484   6.2832
     6.2886   6.3399   6.4067   6.4695   6.4745   6.4917   6.6368   6.6812
     6.7234   6.9446   7.0040   7.0111   7.2005   7.2190   7.2771   7.3228
     7.4452

          k =-0.5000-0.5015-0.6725 (140764 PWs)   bands (ev):

   -21.9852 -21.9849 -21.9023 -21.9022 -21.8509 -21.8507 -21.7667 -21.7663
   -15.4754 -15.4710 -15.1153 -15.1090 -15.1021 -15.0985 -14.6830 -14.6830
   -14.0132 -14.0016 -13.9142 -13.9055 -13.8666 -13.8605 -13.6721 -13.6678
   -12.4000 -12.3950 -12.0957 -12.0694 -12.0687 -12.0467 -11.8870 -11.8847
   -11.4845 -11.4543 -11.4037 -11.3697 -11.3263 -11.3163 -11.1722 -11.1262
    -9.8878  -9.8502  -9.6679  -9.6555  -9.6486  -9.6223  -9.2360  -9.2345
    -8.8126  -8.7794  -8.6948  -8.6593  -8.5834  -8.5752  -8.2284  -8.2162
    -7.9165  -7.9012  -7.6640  -7.6328  -7.6065  -7.5645  -7.5478  -7.4357
    -7.3933  -7.3448  -6.8228  -6.8146  -6.8106  -6.7997  -5.9223  -5.9012
    -5.8446  -5.7979  -5.6372  -5.6210  -5.6104  -5.6064  -5.3059  -5.2940
    -5.2332  -5.2173  -5.1751  -5.0666  -5.0139  -4.9975  -4.9753  -4.9527
    -4.8449  -4.8082  -4.5888  -4.5367  -4.4915  -4.4779  -4.4693  -4.4140
    -4.3279  -4.2996  -4.2963  -4.2086  -4.1817  -4.1163  -4.0428  -3.9923
    -3.9182  -3.9044  -3.8917  -3.8679  -3.8359  -3.8238  -3.7376  -3.7340
    -3.6631  -3.6363  -3.6149  -3.5981  -3.5309  -3.5265  -3.4351  -3.4042
    -3.3446  -3.3253  -3.3126  -3.2999  -3.2773  -3.2693  -3.2116  -3.1445
    -3.0772  -3.0493  -3.0037  -2.9251  -2.9084  -2.8862  -2.8679  -2.8449
    -2.7886  -2.7746  -2.7736  -2.7215  -2.6860  -2.6658  -2.5955  -2.5219
    -2.5172  -2.4486  -2.4471  -2.4413  -2.4067  -2.3311  -2.2905  -2.1784
    -1.0764  -1.0550  -1.0431  -1.0145  -0.9447  -0.9046  -0.8553  -0.8412
     0.1438   0.1911   0.4300   0.4385   0.4531   0.4634   0.8479   0.9461
     4.7512   4.7717   4.8979   4.9077   4.9392   4.9522   5.2082   5.2363
     5.4484   5.5273   5.6951   5.8333   5.9529   6.0883   6.1386   6.2077
     6.2761   6.3752   6.4296   6.4666   6.5221   6.5477   6.5951   6.6906
     6.7736   6.9769   7.0076   7.0657   7.1215   7.1681   7.1771   7.2905
     7.4007

     highest occupied, lowest unoccupied level (ev):     0.9461    4.7142

!    total energy              =   -1441.64030663 Ry
     Harris-Foulkes estimate   =   -1441.64030663 Ry
     estimated scf accuracy    <          8.1E-09 Ry

     total all-electron energy =     -5547.204848 Ry

     The total energy is the sum of the following terms:

     one-electron contribution =   -1056.78927617 Ry
     hartree contribution      =     644.11196422 Ry
     xc contribution           =    -336.91489303 Ry
     ewald contribution        =    -242.87767940 Ry
     Dispersion Correction     =      -0.53675356 Ry
     one-center paw contrib.   =    -448.63366869 Ry

     convergence has been achieved in  18 iterations

     Forces acting on atoms (cartesian axes, Ry/au):

     atom    1 type  4   force =    -0.00044711   -0.00031617    0.00075752
     atom    2 type  4   force =     0.00044711    0.00031617   -0.00075752
     atom    3 type  4   force =     0.00003353   -0.00025425   -0.00052849
     atom    4 type  4   force =    -0.00003353    0.00025425    0.00052849
     atom    5 type  4   force =     0.00023822    0.00011521    0.00067982
     atom    6 type  4   force =    -0.00023822   -0.00011521   -0.00067982
     atom    7 type  4   force =    -0.00026779    0.00030022   -0.00065697
     atom    8 type  4   force =     0.00026779   -0.00030022    0.00065697
     atom    9 type  1   force =    -0.00018337    0.00017985   -0.00022106
     atom   10 type  1   force =     0.00018337   -0.00017985    0.00022106
     atom   11 type  3   force =     0.00059663    0.00031221   -0.00010521
     atom   12 type  3   force =    -0.00059663   -0.00031221    0.00010521
     atom   13 type  3   force =    -0.00001000   -0.00000817    0.00040870
     atom   14 type  3   force =     0.00001000    0.00000817   -0.00040870
     atom   15 type  3   force =    -0.00005289   -0.00022901   -0.00064371
     atom   16 type  3   force =     0.00005289    0.00022901    0.00064371
     atom   17 type  1   force =    -0.00045560    0.00045157    0.00047904
     atom   18 type  1   force =     0.00045560   -0.00045157   -0.00047904
     atom   19 type  1   force =    -0.00020723   -0.00011189   -0.00062489
     atom   20 type  1   force =     0.00020723    0.00011189    0.00062489
     atom   21 type  1   force =    -0.00022031   -0.00017970   -0.00065575
     atom   22 type  1   force =     0.00022031    0.00017970    0.00065575
     atom   23 type  1   force =    -0.00027502   -0.00056482   -0.00005021
     atom   24 type  1   force =     0.00027502    0.00056482    0.00005021
     atom   25 type  1   force =    -0.00053906   -0.00023586    0.00005825
     atom   26 type  1   force =     0.00053906    0.00023586   -0.00005825
     atom   27 type  1   force =     0.00016547   -0.00019334    0.00037509
     atom   28 type  1   force =    -0.00016547    0.00019334   -0.00037509
     atom   29 type  1   force =     0.00037894   -0.00013450   -0.00001194
     atom   30 type  1   force =    -0.00037894    0.00013450    0.00001194
     atom   31 type  1   force =     0.00016139    0.00004669    0.00004069
     atom   32 type  1   force =    -0.00016139   -0.00004669   -0.00004069
     atom   33 type  3   force =     0.00024685    0.00044853   -0.00005408
     atom   34 type  3   force =    -0.00024685   -0.00044853    0.00005408
     atom   35 type  3   force =    -0.00019585   -0.00039693   -0.00076886
     atom   36 type  3   force =     0.00019585    0.00039693    0.00076886
     atom   37 type  3   force =    -0.00015110   -0.00003283    0.00046453
     atom   38 type  3   force =     0.00015110    0.00003283   -0.00046453
     atom   39 type  1   force =    -0.00028620    0.00000268    0.00009822
     atom   40 type  1   force =     0.00028620   -0.00000268   -0.00009822
     atom   41 type  3   force =     0.00036841    0.00005766    0.00042626
     atom   42 type  3   force =    -0.00036841   -0.00005766   -0.00042626
     atom   43 type  3   force =    -0.00008272   -0.00033556    0.00006321
     atom   44 type  3   force =     0.00008272    0.00033556   -0.00006321
     atom   45 type  3   force =     0.00009612    0.00008414   -0.00056418
     atom   46 type  3   force =    -0.00009612   -0.00008414    0.00056418
     atom   47 type  1   force =    -0.00070177   -0.00015665   -0.00026315
     atom   48 type  1   force =     0.00070177    0.00015665    0.00026315
     atom   49 type  1   force =     0.00025826    0.00052525    0.00021677
     atom   50 type  1   force =    -0.00025826   -0.00052525   -0.00021677
     atom   51 type  3   force =    -0.00000406    0.00022187    0.00016668
     atom   52 type  3   force =     0.00000406   -0.00022187   -0.00016668
     atom   53 type  1   force =    -0.00024004    0.00008886   -0.00039365
     atom   54 type  1   force =     0.00024004   -0.00008886    0.00039365
     atom   55 type  3   force =     0.00006460   -0.00007192    0.00035673
     atom   56 type  3   force =    -0.00006460    0.00007192   -0.00035673
     atom   57 type  1   force =     0.00055026   -0.00000036    0.00015306
     atom   58 type  1   force =    -0.00055026    0.00000036   -0.00015306
     atom   59 type  1   force =     0.00018752    0.00059444   -0.00009133
     atom   60 type  1   force =    -0.00018752   -0.00059444    0.00009133
     atom   61 type  1   force =     0.00015734    0.00011209    0.00014391
     atom   62 type  1   force =    -0.00015734   -0.00011209   -0.00014391
     atom   63 type  3   force =     0.00026033   -0.00021245    0.00035805
     atom   64 type  3   force =    -0.00026033    0.00021245   -0.00035805
     atom   65 type  3   force =    -0.00013945    0.00044663   -0.00058418
     atom   66 type  3   force =     0.00013945   -0.00044663    0.00058418
     atom   67 type  3   force =     0.00031695   -0.00051746    0.00003147
     atom   68 type  3   force =    -0.00031695    0.00051746   -0.00003147
     atom   69 type  1   force =     0.00007951    0.00036990   -0.00034450
     atom   70 type  1   force =    -0.00007951   -0.00036990    0.00034450
     atom   71 type  1   force =     0.00015927   -0.00054326    0.00023130
     atom   72 type  1   force =    -0.00015927    0.00054326   -0.00023130
     atom   73 type  1   force =     0.00002717   -0.00025310    0.00013475
     atom   74 type  1   force =    -0.00002717    0.00025310   -0.00013475
     atom   75 type  3   force =     0.00007854   -0.00014440    0.00024603
     atom   76 type  3   force =    -0.00007854    0.00014440   -0.00024603
     atom   77 type  1   force =    -0.00005402   -0.00033944   -0.00013803
     atom   78 type  1   force =     0.00005402    0.00033944    0.00013803
     atom   79 type  3   force =    -0.00021580   -0.00014816    0.00049138
     atom   80 type  3   force =     0.00021580    0.00014816   -0.00049138
     atom   81 type  1   force =    -0.00033624    0.00015527    0.00042735
     atom   82 type  1   force =     0.00033624   -0.00015527   -0.00042735
     atom   83 type  3   force =     0.00007280   -0.00011020   -0.00025370
     atom   84 type  3   force =    -0.00007280    0.00011020    0.00025370
     atom   85 type  1   force =    -0.00009928   -0.00024085    0.00048909
     atom   86 type  1   force =     0.00009928    0.00024085   -0.00048909
     atom   87 type  3   force =     0.00004643    0.00001708   -0.00043471
     atom   88 type  3   force =    -0.00004643   -0.00001708    0.00043471
     atom   89 type  1   force =    -0.00004462   -0.00027035   -0.00021068
     atom   90 type  1   force =     0.00004462    0.00027035    0.00021068
     atom   91 type  3   force =    -0.00018317   -0.00007090    0.00054719
     atom   92 type  3   force =     0.00018317    0.00007090   -0.00054719
     atom   93 type  3   force =     0.00046910   -0.00005685   -0.00023388
     atom   94 type  3   force =    -0.00046910    0.00005685    0.00023388
     atom   95 type  3   force =    -0.00016137    0.00038959   -0.00027764
     atom   96 type  3   force =     0.00016137   -0.00038959    0.00027764
     atom   97 type  1   force =    -0.00039392   -0.00039588    0.00028031
     atom   98 type  1   force =     0.00039392    0.00039588   -0.00028031
     atom   99 type  3   force =     0.00011792    0.00012014    0.00053980
     atom  100 type  3   force =    -0.00011792   -0.00012014   -0.00053980
     atom  101 type  3   force =    -0.00014642    0.00001791   -0.00048532
     atom  102 type  3   force =     0.00014642   -0.00001791    0.00048532
     atom  103 type  3   force =    -0.00037104    0.00060438    0.00030701
     atom  104 type  3   force =     0.00037104   -0.00060438   -0.00030701
     atom  105 type  1   force =     0.00015852   -0.00033946   -0.00023927
     atom  106 type  1   force =    -0.00015852    0.00033946    0.00023927
     atom  107 type  3   force =    -0.00017336    0.00005223   -0.00050270
     atom  108 type  3   force =     0.00017336   -0.00005223    0.00050270
     atom  109 type  3   force =    -0.00069917   -0.00013262   -0.00006148
     atom  110 type  3   force =     0.00069917    0.00013262    0.00006148
     atom  111 type  3   force =     0.00056726    0.00003452    0.00080915
     atom  112 type  3   force =    -0.00056726   -0.00003452   -0.00080915
     atom  113 type  1   force =     0.00027765   -0.00011672   -0.00024326
     atom  114 type  1   force =    -0.00027765    0.00011672    0.00024326
     atom  115 type  3   force =     0.00000741   -0.00006827    0.00001650
     atom  116 type  3   force =    -0.00000741    0.00006827   -0.00001650
     atom  117 type  1   force =     0.00029469    0.00000955    0.00018166
     atom  118 type  1   force =    -0.00029469   -0.00000955   -0.00018166
     atom  119 type  3   force =     0.00024539   -0.00029302   -0.00055168
     atom  120 type  3   force =    -0.00024539    0.00029302    0.00055168
     atom  121 type  1   force =    -0.00017378    0.00004002   -0.00019267
     atom  122 type  1   force =     0.00017378   -0.00004002    0.00019267
     atom  123 type  3   force =     0.00038651   -0.00003147    0.00058803
     atom  124 type  3   force =    -0.00038651    0.00003147   -0.00058803
     atom  125 type  3   force =    -0.00052472    0.00008469   -0.00018707
     atom  126 type  3   force =     0.00052472   -0.00008469    0.00018707
     atom  127 type  3   force =    -0.00002714   -0.00035355   -0.00042314
     atom  128 type  3   force =     0.00002714    0.00035355    0.00042314

     Total force =     0.006390     Total SCF correction =     0.000138


     Computing stress (Cartesian axis) and pressure

          total   stress  (Ry/bohr**3)                   (kbar)     P=   -7.15
  -0.00004891  -0.00000091  -0.00000387         -7.20     -0.13     -0.57
  -0.00000091  -0.00004857   0.00000098         -0.13     -7.15      0.14
  -0.00000387   0.00000098  -0.00004835         -0.57      0.14     -7.11


     Writing output data file scf.save
 
     init_run     :     85.70s CPU     88.74s WALL (       1 calls)
     electrons    :   3202.42s CPU   3317.91s WALL (       1 calls)
     forces       :     40.08s CPU     40.39s WALL (       1 calls)
     stress       :    188.71s CPU    189.26s WALL (       1 calls)

     Called by init_run:
     wfcinit      :     70.90s CPU     73.75s WALL (       1 calls)
     potinit      :      5.17s CPU      5.21s WALL (       1 calls)

     Called by electrons:
     c_bands      :   2898.86s CPU   2997.91s WALL (      18 calls)
     sum_band     :    282.42s CPU    296.55s WALL (      18 calls)
     v_of_rho     :      3.29s CPU      3.60s WALL (      19 calls)
     newd         :      8.23s CPU     10.20s WALL (      19 calls)
     PAW_pot      :      8.78s CPU      8.79s WALL (      19 calls)
     mix_rho      :      0.82s CPU      0.91s WALL (      18 calls)

     Called by c_bands:
     init_us_2    :     14.01s CPU     14.10s WALL (     312 calls)
     cegterg      :   2846.53s CPU   2945.16s WALL (     144 calls)

     Called by sum_band:
     sum_band:bec :      0.14s CPU      0.14s WALL (     144 calls)
     addusdens    :      8.34s CPU     10.28s WALL (      18 calls)

     Called by *egterg:
     h_psi        :   1548.13s CPU   1627.22s WALL (     703 calls)
     s_psi        :    362.99s CPU    363.16s WALL (     703 calls)
     g_psi        :      6.64s CPU      6.64s WALL (     551 calls)
     cdiaghg      :    121.47s CPU    121.71s WALL (     695 calls)

     Called by h_psi:
     h_psi:pot    :   1538.43s CPU   1617.30s WALL (     703 calls)
     h_psi:calbec :    352.36s CPU    353.22s WALL (     703 calls)
     vloc_psi     :    822.57s CPU    900.42s WALL (     703 calls)
     add_vuspsi   :    363.49s CPU    363.66s WALL (     703 calls)

     General routines
     calbec       :    508.70s CPU    509.81s WALL (     887 calls)
     fft          :      5.53s CPU      6.06s WALL (     271 calls)
     fftw         :    859.04s CPU    948.28s WALL (  205192 calls)
 
     Parallel routines
     fft_scatter  :    167.21s CPU    254.51s WALL (  205463 calls)
 
     PWSCF        :     0h58m CPU        1h 1m WALL

 
   This run was terminated on:  10:21:44   7Dec2017            

=------------------------------------------------------------------------------=
   JOB DONE.
=------------------------------------------------------------------------------=
