
     Program PWSCF v.6.1 (svn rev. 13369) starts on 19Dec2017 at  6:39:17 

     This program is part of the open-source Quantum ESPRESSO suite
     for quantum simulation of materials; please cite
         "P. Giannozzi et al., J. Phys.:Condens. Matter 21 395502 (2009);
          URL http://www.quantum-espresso.org", 
     in publications or presentations arising from this work. More details at
     http://www.quantum-espresso.org/quote

     Parallel version (MPI), running on     8 processors
     R & G space division:  proc/nbgrp/npool/nimage =       8
     Waiting for input...
     Reading input from standard input

     Current dimensions of program PWSCF are:
     Max number of different atomic species (ntypx) = 10
     Max number of k-points (npk) =  40000
     Max angular momentum in pseudopotentials (lmaxx) =  3
               file C.pbe-n-kjpaw_psl.0.1.UPF: wavefunction(s)  2P renormalized
               file N.pbe-n-kjpaw_psl.0.1.UPF: wavefunction(s)  2P renormalized
               file H.pbe-kjpaw_psl.0.1.UPF: wavefunction(s)  1S renormalized
               file O.pbe-n-kjpaw_psl.0.1.UPF: wavefunction(s)  2P renormalized

     -------------------------------------
     Parameters for Dispersion Correction:
     -------------------------------------
       atom      VdW radius       C_6     

        C          2.744         60.710
        N          2.640         42.670
        H          1.892          4.857
        O          2.536         24.284

     Subspace diagonalization in iterative solution of the eigenvalue problem:
     a serial algorithm will be used

 
     Parallelization info
     --------------------
     sticks:   dense  smooth     PW     G-vecs:    dense   smooth      PW
     Min         450     450    121                38329    38329    5378
     Max         451     451    122                38332    38332    5381
     Sum        3607    3607    973               306643   306643   43035
 


     bravais-lattice index     =            0
     lattice parameter (alat)  =      11.7307  a.u.
     unit-cell volume          =    2269.1838 (a.u.)^3
     number of atoms/cell      =           32
     number of atomic types    =            4
     number of electrons       =       112.00
     number of Kohn-Sham states=           67
     kinetic-energy cutoff     =     100.0000  Ry
     charge density cutoff     =     400.0000  Ry
     convergence threshold     =      1.0E-08
     mixing beta               =       0.5000
     number of iterations used =            8  plain     mixing
     Exchange-correlation      =  SLA  PW   PBX  PBC ( 1  4  3  4 0 0)

     celldm(1)=  11.730664  celldm(2)=   0.000000  celldm(3)=   0.000000
     celldm(4)=   0.000000  celldm(5)=   0.000000  celldm(6)=   0.000000

     crystal axes: (cart. coord. in units of alat)
               a(1) = (   1.000000   0.000000   0.000000 )  
               a(2) = (   0.000000   0.821058   0.000000 )  
               a(3) = (  -0.156476   0.000000   1.712096 )  

     reciprocal axes: (cart. coord. in units 2 pi/alat)
               b(1) = (  1.000000  0.000000  0.091394 )  
               b(2) = (  0.000000  1.217941  0.000000 )  
               b(3) = (  0.000000  0.000000  0.584080 )  


     PseudoPot. # 1 for  C read from file:
     /scratch/ahofstet/pseudo/C.pbe-n-kjpaw_psl.0.1.UPF
     MD5 check sum: 430fe95172b1e11ef3f8ed03bac87931
     Pseudo is Projector augmented-wave + core cor, Zval =  4.0
     Generated using "atomic" code by A. Dal Corso  v.5.0.99 svn rev. 10869
     Shape of augmentation charge: BESSEL
     Using radial grid of 1073 points,  4 beta functions with: 
                l(1) =   0
                l(2) =   0
                l(3) =   1
                l(4) =   1
     Q(r) pseudized with 0 coefficients 


     PseudoPot. # 2 for  N read from file:
     /scratch/ahofstet/pseudo/N.pbe-n-kjpaw_psl.0.1.UPF
     MD5 check sum: f73187c8b701007e77325f868c9291d7
     Pseudo is Projector augmented-wave + core cor, Zval =  5.0
     Generated using "atomic" code by A. Dal Corso  v.5.0.99 svn rev. 10869
     Shape of augmentation charge: PSQ
     Using radial grid of 1085 points,  4 beta functions with: 
                l(1) =   0
                l(2) =   0
                l(3) =   1
                l(4) =   1
     Q(r) pseudized with 0 coefficients 


     PseudoPot. # 3 for  H read from file:
     /scratch/ahofstet/pseudo/H.pbe-kjpaw_psl.0.1.UPF
     MD5 check sum: 94e484f906d9e9773b2f6e52662335b2
     Pseudo is Projector augmented-wave, Zval =  1.0
     Generated using "atomic" code by A. Dal Corso  v.5.0.99 svn rev. 10869
     Shape of augmentation charge: PSQ
     Using radial grid of  929 points,  2 beta functions with: 
                l(1) =   0
                l(2) =   0
     Q(r) pseudized with 0 coefficients 


     PseudoPot. # 4 for  O read from file:
     /scratch/ahofstet/pseudo/O.pbe-n-kjpaw_psl.0.1.UPF
     MD5 check sum: 3f94a2996a3169367d6eb21d9b593f20
     Pseudo is Projector augmented-wave + core cor, Zval =  6.0
     Generated using "atomic" code by A. Dal Corso  v.5.0.99 svn rev. 10869
     Shape of augmentation charge: BESSEL
     Using radial grid of 1095 points,  4 beta functions with: 
                l(1) =   0
                l(2) =   0
                l(3) =   1
                l(4) =   1
     Q(r) pseudized with 0 coefficients 


     atomic species   valence    mass     pseudopotential
        C              4.00    12.01070      C( 1.00)
        N              5.00    14.00670      N( 1.00)
        H              1.00     1.00794      H( 1.00)
        O              6.00    15.99940      O( 1.00)

      2 Sym. Ops. (no inversion) found ( 1 have fractional translation)



   Cartesian axes

     site n.     atom                  positions (alat units)
         1           O   tau(   1) = (   0.7327184   0.0198241   0.9180977  )
         2           O   tau(   2) = (   0.1108058   0.4303532   0.7939979  )
         3           O   tau(   3) = (   0.0080609   0.8237934   1.1361547  )
         4           O   tau(   4) = (   0.8354633   0.4132643   0.5759410  )
         5           O   tau(   5) = (   0.5252312   0.7659051   1.6587406  )
         6           O   tau(   6) = (   0.3182930   0.3553761   0.0533550  )
         7           N   tau(   7) = (   0.8291125   0.7623247   1.0735293  )
         8           N   tau(   8) = (   0.0144117   0.3517957   0.6385663  )
         9           C   tau(   9) = (   0.7274873   0.5820492   1.1896703  )
        10           C   tau(  10) = (   0.1160369   0.1715202   0.5224254  )
        11           C   tau(  11) = (   0.5275256   0.5040854   1.1189899  )
        12           C   tau(  12) = (   0.3159986   0.0935564   0.5931058  )
        13           C   tau(  13) = (   0.4364664   0.3282172   1.2230610  )
        14           C   tau(  14) = (   0.4070578   0.7387462   0.4890346  )
        15           C   tau(  15) = (   0.5457045   0.2278054   1.3946271  )
        16           C   tau(  16) = (   0.2978197   0.6383345   0.3174686  )
        17           C   tau(  17) = (   0.7468068   0.3087839   1.4622290  )
        18           C   tau(  18) = (   0.0967174   0.7193130   0.2498667  )
        19           C   tau(  19) = (   0.8394524   0.4848215   1.3601861  )
        20           C   tau(  20) = (   0.0040718   0.0742924   0.3519095  )
        21           C   tau(  21) = (   0.4436478   0.0437559   1.5087352  )
        22           C   tau(  22) = (   0.3998764   0.4542849   0.2033605  )
        23           H   tau(  23) = (   0.4454594   0.5819945   0.9853138  )
        24           H   tau(  24) = (   0.3980649   0.1714655   0.7267819  )
        25           H   tau(  25) = (   0.2821091   0.2663904   1.1681286  )
        26           H   tau(  26) = (   0.5614151   0.6769194   0.5439671  )
        27           H   tau(  27) = (   0.8327822   0.2312029   1.5939190  )
        28           H   tau(  28) = (   0.0107420   0.6417319   0.1181766  )
        29           H   tau(  29) = (  -0.0074201   0.5499225   1.4161509  )
        30           H   tau(  30) = (   0.8509443   0.1393934   0.2959447  )
        31           H   tau(  31) = (   0.2800296   0.0003921   1.4476554  )
        32           H   tau(  32) = (   0.5634946   0.4109211   0.2644403  )

     number of k points=    12
                       cart. coord. in units 2pi/alat
        k(    1) = (   0.0000000   0.0000000   0.0000000), wk =   0.0833333
        k(    2) = (   0.0000000   0.0000000  -0.2920398), wk =   0.0833333
        k(    3) = (   0.0000000   0.3044852   0.0000000), wk =   0.1666667
        k(    4) = (   0.0000000   0.3044852  -0.2920398), wk =   0.1666667
        k(    5) = (   0.0000000  -0.6089703   0.0000000), wk =   0.0833333
        k(    6) = (   0.0000000  -0.6089703  -0.2920398), wk =   0.0833333
        k(    7) = (   0.3333333   0.0000000   0.0304648), wk =   0.1666667
        k(    8) = (   0.3333333   0.0000000  -0.2615750), wk =   0.1666667
        k(    9) = (   0.3333333   0.3044852   0.0304648), wk =   0.3333333
        k(   10) = (   0.3333333   0.3044852  -0.2615750), wk =   0.3333333
        k(   11) = (   0.3333333  -0.6089703   0.0304648), wk =   0.1666667
        k(   12) = (   0.3333333  -0.6089703  -0.2615750), wk =   0.1666667

     Dense  grid:   306643 G-vectors     FFT dimensions: (  75,  64, 135)

     Estimated max dynamical RAM per process >     142.24MB

     Estimated total allocated dynamical RAM >    1137.92MB

     Check: negative/imaginary core charge=   -0.000002    0.000000

     Initial potential from superposition of free atoms

     starting charge  111.99930, renormalised to  112.00000
     Starting wfc are   98 randomized atomic wfcs
     Checking if some PAW data can be deallocated... 

     total cpu time spent up to now is        9.4 secs

     per-process dynamical memory:   154.1 Mb

     Self-consistent Calculation

     iteration #  1     ecut=   100.00 Ry     beta=0.50
     Davidson diagonalization with overlap
     ethr =  1.00E-02,  avg # of iterations =  3.4

     total cpu time spent up to now is       25.7 secs

     total energy              =    -575.28029752 Ry
     Harris-Foulkes estimate   =    -577.13452749 Ry
     estimated scf accuracy    <       3.43852598 Ry

     iteration #  2     ecut=   100.00 Ry     beta=0.50
     Davidson diagonalization with overlap
     ethr =  3.07E-03,  avg # of iterations =  3.0

     total cpu time spent up to now is       35.7 secs

     total energy              =    -575.54224806 Ry
     Harris-Foulkes estimate   =    -575.92972883 Ry
     estimated scf accuracy    <       0.77521507 Ry

     iteration #  3     ecut=   100.00 Ry     beta=0.50
     Davidson diagonalization with overlap
     ethr =  6.92E-04,  avg # of iterations =  6.1

     total cpu time spent up to now is       52.9 secs

     total energy              =    -575.89467066 Ry
     Harris-Foulkes estimate   =    -576.05519448 Ry
     estimated scf accuracy    <       0.39102769 Ry

     iteration #  4     ecut=   100.00 Ry     beta=0.50
     Davidson diagonalization with overlap
     ethr =  3.49E-04,  avg # of iterations =  2.0

     total cpu time spent up to now is       61.9 secs

     total energy              =    -575.90157136 Ry
     Harris-Foulkes estimate   =    -575.93720942 Ry
     estimated scf accuracy    <       0.06874429 Ry

     iteration #  5     ecut=   100.00 Ry     beta=0.50
     Davidson diagonalization with overlap
     ethr =  6.14E-05,  avg # of iterations =  5.3

     total cpu time spent up to now is       78.7 secs

     total energy              =    -575.94891688 Ry
     Harris-Foulkes estimate   =    -575.97031124 Ry
     estimated scf accuracy    <       0.07420801 Ry

     iteration #  6     ecut=   100.00 Ry     beta=0.50
     Davidson diagonalization with overlap
     ethr =  6.14E-05,  avg # of iterations =  2.0

     total cpu time spent up to now is       87.6 secs

     total energy              =    -575.94681294 Ry
     Harris-Foulkes estimate   =    -575.95699667 Ry
     estimated scf accuracy    <       0.02607226 Ry

     iteration #  7     ecut=   100.00 Ry     beta=0.50
     Davidson diagonalization with overlap
     ethr =  2.33E-05,  avg # of iterations =  4.4

     total cpu time spent up to now is       98.6 secs

     total energy              =    -575.95057331 Ry
     Harris-Foulkes estimate   =    -575.95170056 Ry
     estimated scf accuracy    <       0.00227426 Ry

     iteration #  8     ecut=   100.00 Ry     beta=0.50
     Davidson diagonalization with overlap
     ethr =  2.03E-06,  avg # of iterations =  5.8

     total cpu time spent up to now is      116.1 secs

     total energy              =    -575.95198389 Ry
     Harris-Foulkes estimate   =    -575.95221187 Ry
     estimated scf accuracy    <       0.00075196 Ry

     iteration #  9     ecut=   100.00 Ry     beta=0.50
     Davidson diagonalization with overlap
     ethr =  6.71E-07,  avg # of iterations =  1.0

     total cpu time spent up to now is      124.6 secs

     total energy              =    -575.95188678 Ry
     Harris-Foulkes estimate   =    -575.95202671 Ry
     estimated scf accuracy    <       0.00025356 Ry

     iteration # 10     ecut=   100.00 Ry     beta=0.50
     Davidson diagonalization with overlap
     ethr =  2.26E-07,  avg # of iterations =  4.0

     total cpu time spent up to now is      138.7 secs

     total energy              =    -575.95200978 Ry
     Harris-Foulkes estimate   =    -575.95205713 Ry
     estimated scf accuracy    <       0.00010528 Ry

     iteration # 11     ecut=   100.00 Ry     beta=0.50
     Davidson diagonalization with overlap
     ethr =  9.40E-08,  avg # of iterations =  1.2

     total cpu time spent up to now is      147.1 secs

     total energy              =    -575.95200509 Ry
     Harris-Foulkes estimate   =    -575.95201736 Ry
     estimated scf accuracy    <       0.00002153 Ry

     iteration # 12     ecut=   100.00 Ry     beta=0.50
     Davidson diagonalization with overlap
     ethr =  1.92E-08,  avg # of iterations =  4.0

     total cpu time spent up to now is      162.7 secs

     total energy              =    -575.95202527 Ry
     Harris-Foulkes estimate   =    -575.95203264 Ry
     estimated scf accuracy    <       0.00002172 Ry

     iteration # 13     ecut=   100.00 Ry     beta=0.50
     Davidson diagonalization with overlap
     ethr =  1.92E-08,  avg # of iterations =  1.0

     total cpu time spent up to now is      171.0 secs

     total energy              =    -575.95202125 Ry
     Harris-Foulkes estimate   =    -575.95202592 Ry
     estimated scf accuracy    <       0.00000840 Ry

     iteration # 14     ecut=   100.00 Ry     beta=0.50
     Davidson diagonalization with overlap
     ethr =  7.50E-09,  avg # of iterations =  4.0

     total cpu time spent up to now is      185.1 secs

     total energy              =    -575.95202578 Ry
     Harris-Foulkes estimate   =    -575.95202674 Ry
     estimated scf accuracy    <       0.00000246 Ry

     iteration # 15     ecut=   100.00 Ry     beta=0.50
     Davidson diagonalization with overlap
     ethr =  2.20E-09,  avg # of iterations =  1.0

     total cpu time spent up to now is      193.4 secs

     total energy              =    -575.95202550 Ry
     Harris-Foulkes estimate   =    -575.95202589 Ry
     estimated scf accuracy    <       0.00000075 Ry

     iteration # 16     ecut=   100.00 Ry     beta=0.50
     Davidson diagonalization with overlap
     ethr =  6.69E-10,  avg # of iterations =  4.0

     total cpu time spent up to now is      207.9 secs

     total energy              =    -575.95202602 Ry
     Harris-Foulkes estimate   =    -575.95202609 Ry
     estimated scf accuracy    <       0.00000026 Ry

     iteration # 17     ecut=   100.00 Ry     beta=0.50
     Davidson diagonalization with overlap
     ethr =  2.35E-10,  avg # of iterations =  1.0

     total cpu time spent up to now is      216.2 secs

     total energy              =    -575.95202597 Ry
     Harris-Foulkes estimate   =    -575.95202602 Ry
     estimated scf accuracy    <       0.00000013 Ry

     iteration # 18     ecut=   100.00 Ry     beta=0.50
     Davidson diagonalization with overlap
     ethr =  1.14E-10,  avg # of iterations =  3.9

     total cpu time spent up to now is      228.5 secs

     End of self-consistent calculation

          k = 0.0000 0.0000 0.0000 ( 38299 PWs)   bands (ev):

   -24.3018 -24.2634 -19.8450 -19.8234 -19.5965 -19.5149 -15.5203 -15.5077
   -13.5586 -13.5293 -12.4560 -12.4010 -11.2656 -11.2423  -9.0467  -9.0232
    -8.6739  -8.6365  -7.6963  -7.6630  -7.2289  -7.1331  -6.6502  -6.5886
    -6.2894  -6.2038  -5.6873  -5.5768  -5.0712  -4.9249  -4.4450  -4.4409
    -4.2587  -4.1034  -4.0075  -3.6883  -3.3700  -3.2506  -3.1903  -3.0675
    -2.9984  -2.9118  -2.0804  -2.0012  -1.2171  -1.1991  -0.8074  -0.7168
    -0.7003  -0.4471  -0.3805  -0.2597  -0.2149  -0.1237   0.5390   0.5716
     3.0315   3.2237   4.0843   4.2564   4.8158   5.0334   6.2438   6.3236
     6.8578   7.8343   8.1951

          k = 0.0000 0.0000-0.2920 ( 38330 PWs)   bands (ev):

   -24.3018 -24.2634 -19.8451 -19.8233 -19.5965 -19.5149 -15.5162 -15.5119
   -13.5456 -13.5420 -12.4389 -12.4198 -11.2821 -11.2223  -9.0472  -9.0298
    -8.6656  -8.6557  -7.6608  -7.5915  -7.2946  -7.1791  -6.6531  -6.5892
    -6.2827  -6.2044  -5.6805  -5.5434  -5.1255  -4.9095  -4.4577  -4.4117
    -4.1891  -4.1534  -3.9581  -3.7535  -3.3721  -3.2794  -3.1816  -3.0559
    -2.9626  -2.9605  -2.0508  -2.0089  -1.2145  -1.2024  -0.8151  -0.7086
    -0.6034  -0.5312  -0.3887  -0.2647  -0.2202  -0.1161   0.5263   0.5731
     3.1114   3.1492   4.0572   4.2818   4.9082   4.9235   6.2368   6.3435
     7.1039   7.4042   8.5277

          k = 0.0000 0.3045 0.0000 ( 38321 PWs)   bands (ev):

   -24.2953 -24.2681 -19.8412 -19.8259 -19.5821 -19.5243 -15.5128 -15.5031
   -13.5884 -13.5695 -12.4400 -12.3991 -11.2543 -11.2436  -9.0318  -9.0230
    -8.6986  -8.6851  -7.7062  -7.6174  -7.2325  -7.1141  -6.6910  -6.6466
    -6.2237  -6.1664  -5.7087  -5.6371  -5.0485  -4.9382  -4.4833  -4.4583
    -4.2271  -4.0834  -3.9493  -3.7623  -3.6024  -3.5570  -3.1840  -3.0684
    -2.5043  -2.4753  -2.1051  -2.0457  -1.2997  -1.2944  -0.8282  -0.7706
    -0.5419  -0.3756  -0.2985  -0.2619  -0.1753  -0.1288   0.5652   0.5848
     2.8311   2.9327   4.1071   4.2288   4.9452   5.1387   6.3685   6.4319
     7.2302   7.9242   8.2177

          k = 0.0000 0.3045-0.2920 ( 38330 PWs)   bands (ev):

   -24.2953 -24.2681 -19.8413 -19.8259 -19.5821 -19.5243 -15.5097 -15.5062
   -13.5810 -13.5769 -12.4259 -12.4139 -11.2682 -11.2285  -9.0290  -9.0273
    -8.6933  -8.6892  -7.7194  -7.5958  -7.1925  -7.1706  -6.6903  -6.6460
    -6.2275  -6.1634  -5.7186  -5.6128  -5.0627  -4.9120  -4.4998  -4.4887
    -4.2048  -4.1011  -3.8886  -3.7828  -3.5908  -3.5690  -3.1898  -3.0729
    -2.5403  -2.4740  -2.0891  -2.0454  -1.2921  -1.2893  -0.8303  -0.7687
    -0.4659  -0.4404  -0.3278  -0.2488  -0.1586  -0.1327   0.5578   0.5845
     2.8711   2.8891   4.1279   4.2049   5.0354   5.0448   6.3911   6.4274
     7.3652   7.5759   8.5411

          k = 0.0000-0.6090 0.0000 ( 38314 PWs)   bands (ev):

   -24.2809 -24.2809 -19.8330 -19.8330 -19.5507 -19.5507 -15.5017 -15.5017
   -13.6139 -13.6139 -12.4087 -12.4087 -11.2473 -11.2473  -9.0201  -9.0201
    -8.7240  -8.7240  -7.6444  -7.6444  -7.1745  -7.1745  -6.7166  -6.7166
    -6.1275  -6.1275  -5.7264  -5.7264  -4.9911  -4.9911  -4.4630  -4.4630
    -4.1674  -4.1674  -3.8868  -3.8868  -3.6555  -3.6555  -3.1154  -3.1154
    -2.2133  -2.2133  -2.1042  -2.1042  -1.3755  -1.3755  -0.8261  -0.8261
    -0.3092  -0.3092  -0.2672  -0.2672  -0.1125  -0.1125   0.5944   0.5944
     2.5883   2.5883   4.1516   4.1516   5.2371   5.2371   6.4687   6.4687
     7.8688   7.8688   8.5158

          k = 0.0000-0.6090-0.2920 ( 38348 PWs)   bands (ev):

   -24.2809 -24.2809 -19.8330 -19.8330 -19.5507 -19.5507 -15.5017 -15.5017
   -13.6139 -13.6139 -12.4086 -12.4086 -11.2478 -11.2478  -9.0198  -9.0198
    -8.7165  -8.7165  -7.6804  -7.6804  -7.1414  -7.1414  -6.7150  -6.7150
    -6.1311  -6.1311  -5.7278  -5.7278  -4.9698  -4.9698  -4.5200  -4.5200
    -4.1410  -4.1410  -3.8823  -3.8823  -3.6389  -3.6389  -3.1259  -3.1259
    -2.2354  -2.2354  -2.0992  -2.0992  -1.3543  -1.3543  -0.8362  -0.8362
    -0.3252  -0.3252  -0.2468  -0.2468  -0.1075  -0.1075   0.5935   0.5935
     2.5802   2.5802   4.1539   4.1539   5.2369   5.2369   6.4714   6.4714
     7.8388   7.8388   8.3678

          k = 0.3333 0.0000 0.0305 ( 38309 PWs)   bands (ev):

   -24.3013 -24.2635 -19.8470 -19.8228 -19.5933 -19.5180 -15.5175 -15.5105
   -13.5357 -13.5175 -12.4688 -12.4350 -11.2820 -11.2672  -9.0175  -8.9400
    -8.7399  -8.6463  -7.6873  -7.5665  -7.2687  -7.1272  -6.6509  -6.5963
    -6.2684  -6.1113  -5.7483  -5.6509  -5.1078  -4.9318  -4.4663  -4.4481
    -4.2893  -4.0809  -3.9135  -3.7736  -3.3404  -3.2237  -3.1884  -3.0665
    -3.0093  -2.9633  -2.0501  -1.9737  -1.2073  -1.1936  -0.8749  -0.7834
    -0.6247  -0.4752  -0.3297  -0.2137  -0.1373  -0.1083   0.5629   0.6046
     2.9922   3.0787   4.2228   4.3056   4.6795   4.7766   6.2223   6.2709
     7.1744   7.5372   8.1128

          k = 0.3333 0.0000-0.2616 ( 38334 PWs)   bands (ev):

   -24.3013 -24.2635 -19.8470 -19.8228 -19.5933 -19.5180 -15.5189 -15.5091
   -13.5393 -13.5137 -12.4755 -12.4274 -11.3137 -11.2369  -8.9863  -8.9605
    -8.7145  -8.6862  -7.6730  -7.5912  -7.2880  -7.0829  -6.6533  -6.5966
    -6.2676  -6.1124  -5.7454  -5.6710  -5.1010  -4.9049  -4.4885  -4.4297
    -4.3363  -4.1123  -3.8873  -3.7423  -3.3429  -3.2263  -3.1749  -3.0785
    -3.0137  -2.9378  -2.0645  -1.9711  -1.2044  -1.1961  -0.8823  -0.7913
    -0.6485  -0.4465  -0.3176  -0.2264  -0.1375  -0.1044   0.5637   0.6057
     2.9707   3.1003   4.2100   4.3249   4.6047   4.8493   6.2306   6.2574
     7.3019   7.5655   7.7971

          k = 0.3333 0.3045 0.0305 ( 38298 PWs)   bands (ev):

   -24.2949 -24.2682 -19.8428 -19.8257 -19.5798 -19.5264 -15.5072 -15.4994
   -13.5927 -13.5685 -12.4543 -12.4304 -11.2607 -11.2274  -9.0718  -8.9791
    -8.7234  -8.6180  -7.6683  -7.5758  -7.2158  -7.1216  -6.6922  -6.6547
    -6.2829  -6.1364  -5.7398  -5.5901  -5.0675  -4.9292  -4.5393  -4.4817
    -4.2837  -4.0853  -3.9350  -3.8358  -3.6232  -3.5620  -3.1633  -3.0591
    -2.5272  -2.4955  -2.0640  -1.9888  -1.2592  -1.2431  -0.8495  -0.7561
    -0.4850  -0.3821  -0.2996  -0.2289  -0.1245  -0.0996   0.5533   0.6032
     2.7847   2.8374   4.1487   4.2159   4.8709   4.9571   6.3506   6.4011
     7.4475   7.7224   8.2326

          k = 0.3333 0.3045-0.2616 ( 38328 PWs)   bands (ev):

   -24.2949 -24.2682 -19.8428 -19.8257 -19.5798 -19.5264 -15.5081 -15.4985
   -13.5941 -13.5670 -12.4597 -12.4249 -11.2747 -11.2133  -9.0617  -8.9873
    -8.7167  -8.6329  -7.6497  -7.5761  -7.2555  -7.0911  -6.6938  -6.6541
    -6.2812  -6.1438  -5.7171  -5.6123  -5.0688  -4.9246  -4.5385  -4.4681
    -4.2917  -4.0989  -3.9643  -3.8027  -3.6103  -3.5779  -3.1557  -3.0570
    -2.5246  -2.4950  -2.0635  -1.9891  -1.2677  -1.2437  -0.8487  -0.7582
    -0.5076  -0.3662  -0.2846  -0.2330  -0.1214  -0.1045   0.5560   0.6015
     2.7818   2.8414   4.1513   4.2169   4.8173   5.0128   6.3669   6.3793
     7.4438   7.7289   8.1554

          k = 0.3333-0.6090 0.0305 ( 38290 PWs)   bands (ev):

   -24.2807 -24.2807 -19.8336 -19.8336 -19.5506 -19.5506 -15.4922 -15.4922
   -13.6332 -13.6332 -12.4332 -12.4332 -11.2153 -11.2153  -9.0730  -9.0730
    -8.6455  -8.6455  -7.6243  -7.6243  -7.1305  -7.1305  -6.7233  -6.7233
    -6.2381  -6.2381  -5.6202  -5.6202  -4.9728  -4.9728  -4.5819  -4.5819
    -4.1969  -4.1969  -3.9154  -3.9154  -3.6980  -3.6980  -3.1134  -3.1134
    -2.2364  -2.2364  -2.0207  -2.0207  -1.3020  -1.3020  -0.7725  -0.7725
    -0.2935  -0.2935  -0.2492  -0.2492  -0.0927  -0.0927   0.5743   0.5743
     2.5178   2.5178   4.1592   4.1592   5.1065   5.1065   6.4711   6.4711
     7.8910   7.8910   8.4463

          k = 0.3333-0.6090-0.2616 ( 38324 PWs)   bands (ev):

   -24.2807 -24.2807 -19.8336 -19.8336 -19.5506 -19.5506 -15.4922 -15.4922
   -13.6331 -13.6331 -12.4334 -12.4334 -11.2147 -11.2147  -9.0750  -9.0750
    -8.6473  -8.6473  -7.6091  -7.6091  -7.1436  -7.1436  -6.7205  -6.7205
    -6.2469  -6.2469  -5.6057  -5.6057  -4.9935  -4.9935  -4.5649  -4.5649
    -4.1784  -4.1784  -3.9370  -3.9370  -3.7071  -3.7071  -3.1075  -3.1075
    -2.2184  -2.2184  -2.0320  -2.0320  -1.3050  -1.3050  -0.7745  -0.7745
    -0.2977  -0.2977  -0.2444  -0.2444  -0.0950  -0.0950   0.5763   0.5763
     2.5207   2.5207   4.1569   4.1569   5.1097   5.1097   6.4640   6.4640
     7.8541   7.8541   8.5554

     highest occupied, lowest unoccupied level (ev):     0.6057    2.5178

!    total energy              =    -575.95202601 Ry
     Harris-Foulkes estimate   =    -575.95202601 Ry
     estimated scf accuracy    <          5.8E-10 Ry

     total all-electron energy =     -2200.328359 Ry

     The total energy is the sum of the following terms:

     one-electron contribution =    -287.08303312 Ry
     hartree contribution      =     187.02305987 Ry
     xc contribution           =    -119.62136039 Ry
     ewald contribution        =    -189.25843091 Ry
     Dispersion Correction     =      -0.14617651 Ry
     one-center paw contrib.   =    -166.86608496 Ry

     convergence has been achieved in  18 iterations

     Forces acting on atoms (cartesian axes, Ry/au):

     atom    1 type  4   force =    -0.00007196   -0.00017747    0.00194713
     atom    2 type  4   force =     0.00007196   -0.00017747   -0.00194713
     atom    3 type  4   force =    -0.00077970   -0.00128907    0.00055268
     atom    4 type  4   force =     0.00077970   -0.00128907   -0.00055268
     atom    5 type  4   force =    -0.00085165    0.00644851   -0.00404632
     atom    6 type  4   force =     0.00085165    0.00644851    0.00404632
     atom    7 type  2   force =     0.00246997   -0.00267351   -0.00413949
     atom    8 type  2   force =    -0.00246997   -0.00267351    0.00413949
     atom    9 type  1   force =     0.00095761   -0.01742895   -0.00142435
     atom   10 type  1   force =    -0.00095761   -0.01742895    0.00142435
     atom   11 type  1   force =     0.00757999    0.01213336    0.00043076
     atom   12 type  1   force =    -0.00757999    0.01213336   -0.00043076
     atom   13 type  1   force =     0.00512111   -0.00503509    0.00698294
     atom   14 type  1   force =    -0.00512111   -0.00503509   -0.00698294
     atom   15 type  1   force =     0.00444394    0.01012883    0.00391384
     atom   16 type  1   force =    -0.00444394    0.01012883   -0.00391384
     atom   17 type  1   force =    -0.00311878   -0.00540262   -0.00269228
     atom   18 type  1   force =     0.00311878   -0.00540262    0.00269228
     atom   19 type  1   force =    -0.00681714    0.00778966   -0.00042558
     atom   20 type  1   force =     0.00681714    0.00778966    0.00042558
     atom   21 type  1   force =    -0.00791961   -0.00039053    0.00232961
     atom   22 type  1   force =     0.00791961   -0.00039053   -0.00232961
     atom   23 type  3   force =    -0.00000803   -0.00046718   -0.00133279
     atom   24 type  3   force =     0.00000803   -0.00046718    0.00133279
     atom   25 type  3   force =    -0.00481077   -0.00147821   -0.00002957
     atom   26 type  3   force =     0.00481077   -0.00147821    0.00002957
     atom   27 type  3   force =    -0.00168049    0.00033009    0.00228112
     atom   28 type  3   force =     0.00168049    0.00033009   -0.00228112
     atom   29 type  3   force =    -0.00091594   -0.00328452   -0.00397921
     atom   30 type  3   force =     0.00091594   -0.00328452    0.00397921
     atom   31 type  3   force =     0.00405736    0.00079669    0.00064532
     atom   32 type  3   force =    -0.00405736    0.00079669   -0.00064532

     Total force =     0.047901     Total SCF correction =     0.000041


     Computing stress (Cartesian axis) and pressure

          total   stress  (Ry/bohr**3)                   (kbar)     P=   -9.79
  -0.00005974   0.00000000  -0.00002174         -8.79      0.00     -3.20
   0.00000000  -0.00006950   0.00000000          0.00    -10.22      0.00
  -0.00002174   0.00000000  -0.00007046         -3.20      0.00    -10.36


     Writing output data file scf.save
 
     init_run     :      8.60s CPU      8.77s WALL (       1 calls)
     electrons    :    211.33s CPU    219.12s WALL (       1 calls)
     forces       :      4.40s CPU      4.43s WALL (       1 calls)
     stress       :     10.16s CPU     10.16s WALL (       1 calls)

     Called by init_run:
     wfcinit      :      4.73s CPU      4.86s WALL (       1 calls)
     potinit      :      1.35s CPU      1.36s WALL (       1 calls)

     Called by electrons:
     c_bands      :    183.96s CPU    190.59s WALL (      18 calls)
     sum_band     :     22.63s CPU     23.62s WALL (      18 calls)
     v_of_rho     :      0.73s CPU      0.80s WALL (      19 calls)
     newd         :      1.46s CPU      1.49s WALL (      19 calls)
     PAW_pot      :      2.34s CPU      2.34s WALL (      19 calls)
     mix_rho      :      0.18s CPU      0.20s WALL (      18 calls)

     Called by c_bands:
     init_us_2    :      2.00s CPU      2.00s WALL (     468 calls)
     cegterg      :    176.86s CPU    183.44s WALL (     216 calls)

     Called by sum_band:
     sum_band:bec :      0.03s CPU      0.03s WALL (     216 calls)
     addusdens    :      1.43s CPU      1.56s WALL (      18 calls)

     Called by *egterg:
     h_psi        :    112.40s CPU    116.54s WALL (     914 calls)
     s_psi        :     15.54s CPU     15.55s WALL (     914 calls)
     g_psi        :      0.83s CPU      0.83s WALL (     686 calls)
     cdiaghg      :     10.22s CPU     10.20s WALL (     902 calls)

     Called by h_psi:
     h_psi:pot    :    111.54s CPU    115.67s WALL (     914 calls)
     h_psi:calbec :     15.46s CPU     15.49s WALL (     914 calls)
     vloc_psi     :     80.62s CPU     84.70s WALL (     914 calls)
     add_vuspsi   :     15.46s CPU     15.47s WALL (     914 calls)

     General routines
     calbec       :     22.20s CPU     22.24s WALL (    1190 calls)
     fft          :      0.47s CPU      0.60s WALL (     271 calls)
     fftw         :     86.10s CPU     90.61s WALL (   98012 calls)
 
     Parallel routines
     fft_scatter  :     24.81s CPU     26.88s WALL (   98283 calls)
 
     PWSCF        :  3m57.39s CPU     4m 6.38s WALL

 
   This run was terminated on:   6:43:24  19Dec2017            

=------------------------------------------------------------------------------=
   JOB DONE.
=------------------------------------------------------------------------------=
