
     Program PWSCF v.6.1 (svn rev. 13369) starts on  7Dec2017 at  1:16:15 

     This program is part of the open-source Quantum ESPRESSO suite
     for quantum simulation of materials; please cite
         "P. Giannozzi et al., J. Phys.:Condens. Matter 21 395502 (2009);
          URL http://www.quantum-espresso.org", 
     in publications or presentations arising from this work. More details at
     http://www.quantum-espresso.org/quote

     Parallel version (MPI), running on     8 processors
     R & G space division:  proc/nbgrp/npool/nimage =       8
     Waiting for input...
     Reading input from standard input

     Current dimensions of program PWSCF are:
     Max number of different atomic species (ntypx) = 10
     Max number of k-points (npk) =  40000
     Max angular momentum in pseudopotentials (lmaxx) =  3
               file C.pbe-n-kjpaw_psl.0.1.UPF: wavefunction(s)  2P renormalized
               file N.pbe-n-kjpaw_psl.0.1.UPF: wavefunction(s)  2P renormalized
               file H.pbe-kjpaw_psl.0.1.UPF: wavefunction(s)  1S renormalized
               file O.pbe-n-kjpaw_psl.0.1.UPF: wavefunction(s)  2P renormalized

     -------------------------------------
     Parameters for Dispersion Correction:
     -------------------------------------
       atom      VdW radius       C_6     

        C          2.744         60.710
        N          2.640         42.670
        H          1.892          4.857
        O          2.536         24.284

     Subspace diagonalization in iterative solution of the eigenvalue problem:
     a serial algorithm will be used

 
     Parallelization info
     --------------------
     sticks:   dense  smooth     PW     G-vecs:    dense   smooth      PW
     Min         832     832    223                61408    61408    8497
     Max         833     833    224                61412    61412    8500
     Sum        6663    6663   1785               491283   491283   67989
 


     bravais-lattice index     =            0
     lattice parameter (alat)  =      12.5614  a.u.
     unit-cell volume          =    3636.6516 (a.u.)^3
     number of atoms/cell      =           58
     number of atomic types    =            4
     number of electrons       =       176.00
     number of Kohn-Sham states=          105
     kinetic-energy cutoff     =     100.0000  Ry
     charge density cutoff     =     400.0000  Ry
     convergence threshold     =      1.0E-08
     mixing beta               =       0.5000
     number of iterations used =            8  plain     mixing
     Exchange-correlation      =  SLA  PW   PBX  PBC ( 1  4  3  4 0 0)

     celldm(1)=  12.561388  celldm(2)=   0.000000  celldm(3)=   0.000000
     celldm(4)=   0.000000  celldm(5)=   0.000000  celldm(6)=   0.000000

     crystal axes: (cart. coord. in units of alat)
               a(1) = (   1.000000   0.000000   0.000000 )  
               a(2) = (   0.388714   1.326720   0.000000 )  
               a(3) = (   0.069857   0.047292   1.382960 )  

     reciprocal axes: (cart. coord. in units 2 pi/alat)
               b(1) = (  1.000000 -0.292989 -0.040493 )  
               b(2) = (  0.000000  0.753739 -0.025775 )  
               b(3) = (  0.000000  0.000000  0.723087 )  


     PseudoPot. # 1 for  C read from file:
     /scratch/ahofstet/pseudo/C.pbe-n-kjpaw_psl.0.1.UPF
     MD5 check sum: 430fe95172b1e11ef3f8ed03bac87931
     Pseudo is Projector augmented-wave + core cor, Zval =  4.0
     Generated using "atomic" code by A. Dal Corso  v.5.0.99 svn rev. 10869
     Shape of augmentation charge: BESSEL
     Using radial grid of 1073 points,  4 beta functions with: 
                l(1) =   0
                l(2) =   0
                l(3) =   1
                l(4) =   1
     Q(r) pseudized with 0 coefficients 


     PseudoPot. # 2 for  N read from file:
     /scratch/ahofstet/pseudo/N.pbe-n-kjpaw_psl.0.1.UPF
     MD5 check sum: f73187c8b701007e77325f868c9291d7
     Pseudo is Projector augmented-wave + core cor, Zval =  5.0
     Generated using "atomic" code by A. Dal Corso  v.5.0.99 svn rev. 10869
     Shape of augmentation charge: PSQ
     Using radial grid of 1085 points,  4 beta functions with: 
                l(1) =   0
                l(2) =   0
                l(3) =   1
                l(4) =   1
     Q(r) pseudized with 0 coefficients 


     PseudoPot. # 3 for  H read from file:
     /scratch/ahofstet/pseudo/H.pbe-kjpaw_psl.0.1.UPF
     MD5 check sum: 94e484f906d9e9773b2f6e52662335b2
     Pseudo is Projector augmented-wave, Zval =  1.0
     Generated using "atomic" code by A. Dal Corso  v.5.0.99 svn rev. 10869
     Shape of augmentation charge: PSQ
     Using radial grid of  929 points,  2 beta functions with: 
                l(1) =   0
                l(2) =   0
     Q(r) pseudized with 0 coefficients 


     PseudoPot. # 4 for  O read from file:
     /scratch/ahofstet/pseudo/O.pbe-n-kjpaw_psl.0.1.UPF
     MD5 check sum: 3f94a2996a3169367d6eb21d9b593f20
     Pseudo is Projector augmented-wave + core cor, Zval =  6.0
     Generated using "atomic" code by A. Dal Corso  v.5.0.99 svn rev. 10869
     Shape of augmentation charge: BESSEL
     Using radial grid of 1095 points,  4 beta functions with: 
                l(1) =   0
                l(2) =   0
                l(3) =   1
                l(4) =   1
     Q(r) pseudized with 0 coefficients 


     atomic species   valence    mass     pseudopotential
        C              4.00    12.01070      C( 1.00)
        N              5.00    14.00670      N( 1.00)
        H              1.00     1.00794      H( 1.00)
        O              6.00    15.99940      O( 1.00)

      2 Sym. Ops., with inversion, found



   Cartesian axes

     site n.     atom                  positions (alat units)
         1           O   tau(   1) = (   0.2836269   0.6019720   0.9820196  )
         2           O   tau(   2) = (   1.1749438   0.7720399   0.4009406  )
         3           C   tau(   3) = (   0.2869373   0.2773096   0.8467612  )
         4           C   tau(   4) = (   1.1716334   1.0967023   0.5361990  )
         5           N   tau(   5) = (   0.6680916   1.2401076   0.3357094  )
         6           N   tau(   6) = (   0.7904791   0.1339043   1.0472508  )
         7           C   tau(   7) = (   0.6716003   1.2642782   0.7027499  )
         8           C   tau(   8) = (   0.7869704   0.1097336   0.6802103  )
         9           N   tau(   9) = (   0.2905272   0.4055513   1.0118486  )
        10           N   tau(  10) = (   1.1680436   0.9684606   0.3711116  )
        11           C   tau(  11) = (   0.6697697   1.0523544   0.7146019  )
        12           C   tau(  12) = (   0.7888010   0.3216575   0.6683583  )
        13           C   tau(  13) = (   0.2861513   0.0662881   0.8786574  )
        14           C   tau(  14) = (   1.1724195   1.3077238   0.5043028  )
        15           C   tau(  15) = (   0.2815128   0.0250924   0.5068039  )
        16           C   tau(  16) = (   1.1770579   1.3489195   0.8761563  )
        17           C   tau(  17) = (   0.3008789   0.3318727   1.2009035  )
        18           C   tau(  18) = (   1.1576918   1.0421392   0.1820568  )
        19           C   tau(  19) = (   0.2823219   0.2390360   0.4854845  )
        20           C   tau(  20) = (   1.1762488   1.1349759   0.8974757  )
        21           C   tau(  21) = (   0.6675866   0.9404391   0.5395195  )
        22           C   tau(  22) = (   0.7909841   0.4335727   0.8434408  )
        23           C   tau(  23) = (   0.6675045   1.0413199   0.3536345  )
        24           C   tau(  24) = (   0.7910662   0.3326920   1.0293257  )
        25           C   tau(  25) = (   0.6782254   1.3183796   1.0774535  )
        26           C   tau(  26) = (   0.7803454   0.0556323   0.3055067  )
        27           C   tau(  27) = (   0.2844629   0.3616445   0.6502164  )
        28           C   tau(  28) = (   1.1741078   1.0123674   0.7327438  )
        29           C   tau(  29) = (   0.3000765   0.1251916   1.2366626  )
        30           C   tau(  30) = (   1.1584942   1.2488203   0.1462976  )
        31           O   tau(  31) = (   0.6011575   0.8031903   1.1592518  )
        32           O   tau(  32) = (   0.8574132   0.5708216   0.2237084  )
        33           O   tau(  33) = (   1.0035603   0.7637917   1.2355941  )
        34           O   tau(  34) = (   0.4550105   0.6102202   0.1473661  )
        35           H   tau(  35) = (   0.2838539   0.5244778   0.6340847  )
        36           H   tau(  36) = (   1.1747168   0.8495341   0.7488755  )
        37           H   tau(  37) = (   0.3086838   0.0729187   1.3928934  )
        38           H   tau(  38) = (   1.1498869   1.3010932  -0.0099331  )
        39           H   tau(  39) = (   0.6688174   0.9778651   0.8606510  )
        40           H   tau(  40) = (   0.7897533   0.3961468   0.5223092  )
        41           H   tau(  41) = (   0.6664799   0.9542361   0.2140154  )
        42           H   tau(  42) = (   0.7920909   0.4197758   1.1689448  )
        43           H   tau(  43) = (   0.6724087   1.1570494   1.1060402  )
        44           H   tau(  44) = (   0.7861620   0.2169625   0.2769201  )
        45           H   tau(  45) = (   0.6651951   0.7765270   0.5428801  )
        46           H   tau(  46) = (   0.7933756   0.5974849   0.8400801  )
        47           H   tau(  47) = (   0.3119122   0.4453432   1.3183714  )
        48           H   tau(  48) = (   1.1466585   0.9286687   0.0645888  )
        49           H   tau(  49) = (   0.2829306   0.3022344   0.3342982  )
        50           H   tau(  50) = (   1.1756401   1.0717775   1.0486620  )
        51           H   tau(  51) = (   0.8670028   0.7730521   1.1766212  )
        52           H   tau(  52) = (   0.5915680   0.6009598   0.2063390  )
        53           H   tau(  53) = (   0.4964138   0.7319276   1.0806024  )
        54           H   tau(  54) = (   0.9621569   0.6420843   0.3023578  )
        55           H   tau(  55) = (   1.0956271   0.7026998   1.1350546  )
        56           H   tau(  56) = (   0.3629437   0.6713120   0.2479056  )
        57           H   tau(  57) = (   0.5680834   0.7642523   1.3006410  )
        58           H   tau(  58) = (   0.8904874   0.6097596   0.0823192  )

     number of k points=     8
                       cart. coord. in units 2pi/alat
        k(    1) = (   0.0000000   0.0000000   0.0000000), wk =   0.1666667
        k(    2) = (   0.0000000   0.0000000  -0.3615433), wk =   0.1666667
        k(    3) = (   0.0000000  -0.3768694   0.0128876), wk =   0.1666667
        k(    4) = (   0.0000000  -0.3768694  -0.3486557), wk =   0.1666667
        k(    5) = (   0.3333333  -0.0976630  -0.0134977), wk =   0.3333333
        k(    6) = (   0.3333333  -0.0976630  -0.3750410), wk =   0.3333333
        k(    7) = (   0.3333333  -0.4745323  -0.0006102), wk =   0.3333333
        k(    8) = (   0.3333333  -0.4745323  -0.3621535), wk =   0.3333333

     Dense  grid:   491283 G-vectors     FFT dimensions: (  80, 120, 120)

     Estimated max dynamical RAM per process >     289.74MB

     Estimated total allocated dynamical RAM >    2317.95MB

     Check: negative/imaginary core charge=   -0.000002    0.000000

     Initial potential from superposition of free atoms

     starting charge  175.99873, renormalised to  176.00000
     Starting wfc are  160 randomized atomic wfcs
     Checking if some PAW data can be deallocated... 

     total cpu time spent up to now is       15.5 secs

     per-process dynamical memory:   270.5 Mb

     Self-consistent Calculation

     iteration #  1     ecut=   100.00 Ry     beta=0.50
     Davidson diagonalization with overlap
     ethr =  1.00E-02,  avg # of iterations =  4.9

     total cpu time spent up to now is       44.0 secs

     total energy              =    -832.82801050 Ry
     Harris-Foulkes estimate   =    -835.98887803 Ry
     estimated scf accuracy    <       5.92357199 Ry

     iteration #  2     ecut=   100.00 Ry     beta=0.50
     Davidson diagonalization with overlap
     ethr =  3.37E-03,  avg # of iterations =  3.0

     total cpu time spent up to now is       62.0 secs

     total energy              =    -833.38779783 Ry
     Harris-Foulkes estimate   =    -833.81671940 Ry
     estimated scf accuracy    <       0.90309238 Ry

     iteration #  3     ecut=   100.00 Ry     beta=0.50
     Davidson diagonalization with overlap
     ethr =  5.13E-04,  avg # of iterations =  6.9

     total cpu time spent up to now is       92.3 secs

     total energy              =    -833.80711665 Ry
     Harris-Foulkes estimate   =    -833.96210028 Ry
     estimated scf accuracy    <       0.36524454 Ry

     iteration #  4     ecut=   100.00 Ry     beta=0.50
     Davidson diagonalization with overlap
     ethr =  2.08E-04,  avg # of iterations =  2.0

     total cpu time spent up to now is      108.3 secs

     total energy              =    -833.81140217 Ry
     Harris-Foulkes estimate   =    -833.85201077 Ry
     estimated scf accuracy    <       0.08088949 Ry

     iteration #  5     ecut=   100.00 Ry     beta=0.50
     Davidson diagonalization with overlap
     ethr =  4.60E-05,  avg # of iterations =  6.2

     total cpu time spent up to now is      139.3 secs

     total energy              =    -833.85920754 Ry
     Harris-Foulkes estimate   =    -833.88190193 Ry
     estimated scf accuracy    <       0.07353748 Ry

     iteration #  6     ecut=   100.00 Ry     beta=0.50
     Davidson diagonalization with overlap
     ethr =  4.18E-05,  avg # of iterations =  2.0

     total cpu time spent up to now is      155.0 secs

     total energy              =    -833.85722187 Ry
     Harris-Foulkes estimate   =    -833.86621527 Ry
     estimated scf accuracy    <       0.01990084 Ry

     iteration #  7     ecut=   100.00 Ry     beta=0.50
     Davidson diagonalization with overlap
     ethr =  1.13E-05,  avg # of iterations =  5.2

     total cpu time spent up to now is      180.8 secs

     total energy              =    -833.86342222 Ry
     Harris-Foulkes estimate   =    -833.86364512 Ry
     estimated scf accuracy    <       0.00092176 Ry

     iteration #  8     ecut=   100.00 Ry     beta=0.50
     Davidson diagonalization with overlap
     ethr =  5.24E-07,  avg # of iterations =  4.1

     total cpu time spent up to now is      204.9 secs

     total energy              =    -833.86346269 Ry
     Harris-Foulkes estimate   =    -833.86384892 Ry
     estimated scf accuracy    <       0.00078113 Ry

     iteration #  9     ecut=   100.00 Ry     beta=0.50
     Davidson diagonalization with overlap
     ethr =  4.44E-07,  avg # of iterations =  3.9

     total cpu time spent up to now is      222.0 secs

     total energy              =    -833.86354373 Ry
     Harris-Foulkes estimate   =    -833.86356769 Ry
     estimated scf accuracy    <       0.00005677 Ry

     iteration # 10     ecut=   100.00 Ry     beta=0.50
     Davidson diagonalization with overlap
     ethr =  3.23E-08,  avg # of iterations =  4.0

     total cpu time spent up to now is      252.6 secs

     total energy              =    -833.86363721 Ry
     Harris-Foulkes estimate   =    -833.86367562 Ry
     estimated scf accuracy    <       0.00009989 Ry

     iteration # 11     ecut=   100.00 Ry     beta=0.50
     Davidson diagonalization with overlap
     ethr =  3.23E-08,  avg # of iterations =  1.0

     total cpu time spent up to now is      267.7 secs

     total energy              =    -833.86362685 Ry
     Harris-Foulkes estimate   =    -833.86364116 Ry
     estimated scf accuracy    <       0.00003062 Ry

     iteration # 12     ecut=   100.00 Ry     beta=0.50
     Davidson diagonalization with overlap
     ethr =  1.74E-08,  avg # of iterations =  4.0

     total cpu time spent up to now is      292.7 secs

     total energy              =    -833.86364434 Ry
     Harris-Foulkes estimate   =    -833.86364617 Ry
     estimated scf accuracy    <       0.00000515 Ry

     iteration # 13     ecut=   100.00 Ry     beta=0.50
     Davidson diagonalization with overlap
     ethr =  2.93E-09,  avg # of iterations =  1.0

     total cpu time spent up to now is      307.6 secs

     total energy              =    -833.86364375 Ry
     Harris-Foulkes estimate   =    -833.86364457 Ry
     estimated scf accuracy    <       0.00000191 Ry

     iteration # 14     ecut=   100.00 Ry     beta=0.50
     Davidson diagonalization with overlap
     ethr =  1.08E-09,  avg # of iterations =  4.0

     total cpu time spent up to now is      331.5 secs

     total energy              =    -833.86364459 Ry
     Harris-Foulkes estimate   =    -833.86364463 Ry
     estimated scf accuracy    <       0.00000010 Ry

     iteration # 15     ecut=   100.00 Ry     beta=0.50
     Davidson diagonalization with overlap
     ethr =  5.59E-11,  avg # of iterations =  3.0

     total cpu time spent up to now is      348.9 secs

     total energy              =    -833.86364459 Ry
     Harris-Foulkes estimate   =    -833.86364460 Ry
     estimated scf accuracy    <       0.00000002 Ry

     iteration # 16     ecut=   100.00 Ry     beta=0.50
     Davidson diagonalization with overlap
     ethr =  1.05E-11,  avg # of iterations =  4.0

     total cpu time spent up to now is      377.6 secs

     total energy              =    -833.86364461 Ry
     Harris-Foulkes estimate   =    -833.86364462 Ry
     estimated scf accuracy    <       0.00000002 Ry

     iteration # 17     ecut=   100.00 Ry     beta=0.50
     Davidson diagonalization with overlap
     ethr =  1.05E-11,  avg # of iterations =  1.0

     total cpu time spent up to now is      392.4 secs

     End of self-consistent calculation

          k = 0.0000 0.0000 0.0000 ( 61391 PWs)   bands (ev):

   -21.1597 -21.1547 -18.2243 -17.8794 -17.7645 -17.4311 -17.1361 -17.0538
   -16.0873 -16.0459 -14.6043 -14.4229 -13.8135 -13.6090 -13.1065 -12.9650
   -12.5164 -12.4437 -11.9151 -11.8111 -10.1591 -10.1475  -9.5850  -9.5188
    -9.1078  -9.1058  -8.3999  -8.3931  -7.3956  -7.3463  -6.9573  -6.7967
    -6.5389  -6.4911  -6.3275  -6.1958  -5.8590  -5.8576  -5.6100  -5.3945
    -5.3752  -5.2736  -5.1871  -5.1315  -5.0804  -5.0255  -4.7571  -4.6695
    -4.2332  -4.1831  -4.1713  -3.7694  -3.7199  -3.3962  -3.3500  -3.3459
    -3.3052  -3.2386  -3.1366  -2.8926  -2.6540  -2.4586  -2.3078  -2.2876
    -2.2384  -2.1330  -1.9325  -1.9015  -1.8012  -1.7910  -1.6495  -1.4123
    -0.6431  -0.5754  -0.3847  -0.3375  -0.2360  -0.0849  -0.0752   0.1080
     0.1866   0.2259   0.4508   0.5058   0.5172   0.5672   1.0107   1.0708
     3.7634   3.9119   4.0432   4.3240   5.0995   5.1335   5.5802   5.9937
     6.4648   7.0171   7.2541   7.4753   7.7670   7.9193   8.1715   8.3475
     8.3872

          k = 0.0000 0.0000-0.3615 ( 61392 PWs)   bands (ev):

   -21.1583 -21.1560 -18.2247 -17.8790 -17.7643 -17.4311 -17.1335 -17.0540
   -16.0974 -16.0442 -14.5967 -14.4213 -13.8279 -13.6167 -13.0745 -12.9628
   -12.5103 -12.4389 -11.8970 -11.8267 -10.1710 -10.1689  -9.6014  -9.5539
    -9.1351  -9.1318  -8.4047  -8.3793  -7.3741  -7.3242  -6.8499  -6.8111
    -6.5008  -6.4414  -6.4230  -6.1148  -5.9154  -5.7351  -5.5480  -5.3999
    -5.3616  -5.2857  -5.2605  -5.1139  -5.0778  -5.0548  -4.7493  -4.7299
    -4.2254  -4.1445  -4.0979  -3.8445  -3.8391  -3.4907  -3.4905  -3.3529
    -3.2148  -3.1603  -2.9694  -2.7781  -2.6834  -2.5005  -2.4570  -2.3855
    -2.3048  -2.1614  -2.0418  -1.9076  -1.8701  -1.7339  -1.4625  -1.4316
    -0.7149  -0.6424  -0.3796  -0.3259  -0.1760  -0.1476  -0.0496   0.1313
     0.1688   0.1870   0.4856   0.5451   0.6689   0.6863   1.0238   1.0487
     3.7095   3.9388   4.0414   4.3271   5.1316   5.1397   5.4577   6.0375
     6.6930   6.9663   7.1077   7.3990   8.0444   8.1114   8.2601   8.2949
     8.4659

          k = 0.0000-0.3769 0.0129 ( 61372 PWs)   bands (ev):

   -21.1593 -21.1550 -18.2248 -17.8793 -17.7654 -17.4311 -17.1357 -17.0543
   -16.0838 -16.0456 -14.5840 -14.4459 -13.8135 -13.6145 -13.0959 -12.9779
   -12.5143 -12.4452 -11.8654 -11.8489 -10.1576 -10.1501  -9.5629  -9.5565
    -9.1598  -9.0569  -8.4015  -8.3541  -7.3807  -7.3568  -7.0206  -6.8082
    -6.5677  -6.4165  -6.4040  -6.2384  -5.8730  -5.6705  -5.5161  -5.4212
    -5.3542  -5.3394  -5.2634  -5.1256  -5.0613  -5.0450  -4.7015  -4.6678
    -4.2719  -4.2003  -4.0926  -3.8435  -3.6877  -3.4425  -3.4296  -3.3599
    -3.2692  -3.2445  -3.0915  -2.7354  -2.7215  -2.4427  -2.3466  -2.3141
    -2.2519  -2.0879  -2.0276  -1.9188  -1.8094  -1.7605  -1.6352  -1.4320
    -0.6496  -0.6014  -0.3774  -0.3093  -0.1760  -0.1740   0.0047   0.1583
     0.1834   0.2436   0.4153   0.4891   0.5032   0.5430   0.9635   1.1072
     3.7458   4.0156   4.0308   4.3267   5.1315   5.1552   5.6092   5.9501
     6.5204   6.9914   7.1370   7.4349   7.8821   7.9312   8.2138   8.2488
     8.3658

          k = 0.0000-0.3769-0.3487 ( 61374 PWs)   bands (ev):

   -21.1580 -21.1563 -18.2251 -17.8790 -17.7652 -17.4311 -17.1337 -17.0545
   -16.0839 -16.0535 -14.5776 -14.4427 -13.8267 -13.6220 -13.0649 -12.9768
   -12.5089 -12.4422 -11.8629 -11.8461 -10.1676 -10.1616  -9.5909  -9.5840
    -9.1854  -9.0913  -8.4067  -8.3664  -7.3498  -7.3336  -6.9082  -6.8192
    -6.5267  -6.4191  -6.3105  -6.2062  -5.7989  -5.7651  -5.5146  -5.4635
    -5.4168  -5.3472  -5.1334  -5.1194  -5.1104  -5.0645  -4.7613  -4.6658
    -4.2373  -4.1312  -4.0906  -3.8866  -3.8106  -3.5438  -3.4683  -3.3182
    -3.2359  -3.0344  -2.9587  -2.8403  -2.7291  -2.5665  -2.4573  -2.4163
    -2.3137  -2.2070  -1.9367  -1.8882  -1.8184  -1.8127  -1.5036  -1.4177
    -0.7033  -0.6551  -0.3748  -0.3153  -0.1509  -0.1098  -0.0843   0.1533
     0.1684   0.2085   0.4729   0.5605   0.6451   0.6596   0.9710   1.0577
     3.7359   3.9942   4.0737   4.3311   5.1502   5.1586   5.4389   6.0192
     6.9038   6.9231   7.1117   7.2423   7.6750   7.9158   8.1584   8.4280
     8.4965

          k = 0.3333-0.0977-0.0135 ( 61422 PWs)   bands (ev):

   -21.1590 -21.1544 -18.2125 -17.8889 -17.7586 -17.4497 -17.1119 -17.0705
   -16.0793 -16.0592 -14.5598 -14.4670 -13.7676 -13.6625 -13.0722 -13.0009
   -12.5005 -12.4625 -11.8926 -11.8344 -10.1604 -10.1490  -9.5692  -9.5361
    -9.1218  -9.0956  -8.3975  -8.3823  -7.3869  -7.3617  -6.8856  -6.7943
    -6.5669  -6.4668  -6.3837  -6.1942  -5.9291  -5.8874  -5.5088  -5.3944
    -5.3043  -5.2066  -5.1574  -5.1273  -5.0472  -5.0063  -4.7095  -4.6793
    -4.2505  -4.1679  -3.9698  -3.7676  -3.7459  -3.5389  -3.4452  -3.4081
    -3.3296  -3.2648  -3.0840  -2.9465  -2.5946  -2.4508  -2.3255  -2.2784
    -2.2339  -2.1402  -1.9994  -1.8531  -1.7806  -1.7469  -1.5724  -1.4009
    -0.9272  -0.7598  -0.4019  -0.3219  -0.1838  -0.1625  -0.0776   0.0871
     0.2270   0.2582   0.3824   0.4463   0.5119   0.5188   1.0269   1.0503
     3.7640   3.9006   4.0208   4.2020   5.0851   5.1724   5.5200   5.8002
     6.8363   6.9865   7.0857   7.6443   7.8083   8.0095   8.0658   8.2866
     8.3675

          k = 0.3333-0.0977-0.3750 ( 61449 PWs)   bands (ev):

   -21.1578 -21.1556 -18.2124 -17.8893 -17.7586 -17.4492 -17.1098 -17.0700
   -16.0884 -16.0586 -14.5532 -14.4639 -13.7813 -13.6720 -13.0486 -12.9881
   -12.4948 -12.4573 -11.8821 -11.8439 -10.1769 -10.1609  -9.5921  -9.5677
    -9.1467  -9.1264  -8.4040  -8.3745  -7.3626  -7.3368  -6.8033  -6.7562
    -6.5385  -6.4125  -6.3943  -6.1769  -6.0290  -5.8230  -5.4609  -5.3649
    -5.2595  -5.2290  -5.1889  -5.0933  -5.0794  -5.0389  -4.7297  -4.6795
    -4.2295  -4.1458  -3.9535  -3.8606  -3.8334  -3.5789  -3.5414  -3.4058
    -3.2947  -3.1982  -2.9046  -2.8016  -2.6766  -2.5201  -2.4765  -2.4218
    -2.2919  -2.1169  -2.0236  -1.8995  -1.8262  -1.7738  -1.5104  -1.3613
    -0.9068  -0.7786  -0.3858  -0.3262  -0.2161  -0.1270  -0.0545   0.0839
     0.2119   0.2238   0.3707   0.4340   0.6574   0.6930   1.0170   1.0697
     3.7503   3.8711   4.0318   4.2181   5.0640   5.1075   5.4752   5.8122
     6.9565   7.0456   7.2149   7.4972   7.8720   8.0477   8.2309   8.3902
     8.5799

          k = 0.3333-0.4745-0.0006 ( 61438 PWs)   bands (ev):

   -21.1589 -21.1545 -18.2125 -17.8889 -17.7590 -17.4510 -17.1111 -17.0706
   -16.0776 -16.0575 -14.5499 -14.4777 -13.7678 -13.6666 -13.0694 -13.0067
   -12.4998 -12.4629 -11.8629 -11.8534 -10.1607 -10.1487  -9.5627  -9.5541
    -9.1473  -9.0817  -8.3987  -8.3550  -7.3758  -7.3636  -6.9395  -6.8131
    -6.5668  -6.4635  -6.3889  -6.1955  -5.9026  -5.7764  -5.4194  -5.3684
    -5.3387  -5.3095  -5.2031  -5.1101  -5.0534  -5.0150  -4.7220  -4.7111
    -4.2642  -4.2076  -3.9619  -3.7923  -3.6937  -3.5456  -3.4080  -3.3963
    -3.2686  -3.2328  -3.0799  -2.7588  -2.6973  -2.5592  -2.3649  -2.3417
    -2.2611  -2.1099  -2.0014  -1.8470  -1.7866  -1.7790  -1.5658  -1.3745
    -0.9276  -0.7798  -0.3785  -0.3261  -0.2158  -0.1075  -0.0480   0.0767
     0.2355   0.2698   0.3857   0.4285   0.4958   0.5126   0.9723   1.0906
     3.7837   3.9240   4.0247   4.1890   5.1132   5.1756   5.5471   5.7788
     6.8852   6.9519   7.0315   7.7155   7.8132   8.0543   8.1315   8.2041
     8.3588

          k = 0.3333-0.4745-0.3622 ( 61418 PWs)   bands (ev):

   -21.1577 -21.1556 -18.2124 -17.8893 -17.7594 -17.4499 -17.1098 -17.0700
   -16.0810 -16.0626 -14.5442 -14.4734 -13.7801 -13.6766 -13.0432 -12.9982
   -12.4951 -12.4586 -11.8664 -11.8466 -10.1742 -10.1574  -9.5911  -9.5821
    -9.1739  -9.1157  -8.4053  -8.3576  -7.3492  -7.3353  -6.8504  -6.7824
    -6.5364  -6.4138  -6.3793  -6.1824  -5.8749  -5.7839  -5.4527  -5.3801
    -5.3293  -5.3091  -5.1626  -5.1204  -5.0787  -5.0214  -4.8274  -4.6794
    -4.1897  -4.1309  -3.9677  -3.8571  -3.8193  -3.5581  -3.5106  -3.4478
    -3.1732  -3.0238  -2.9799  -2.8276  -2.7719  -2.5571  -2.5261  -2.4334
    -2.2886  -2.1465  -1.9903  -1.8746  -1.8353  -1.8044  -1.4793  -1.3827
    -0.9131  -0.7830  -0.3721  -0.3162  -0.1642  -0.1526  -0.0743   0.0821
     0.2113   0.2546   0.3804   0.4343   0.6473   0.6586   1.0015   1.0577
     3.7691   3.9096   4.0467   4.2018   5.0819   5.1166   5.4784   5.8089
     6.9172   7.1229   7.3332   7.4101   7.8607   8.0294   8.1654   8.3438
     8.4927

     highest occupied, lowest unoccupied level (ev):     1.1072    3.7095

!    total energy              =    -833.86364460 Ry
     Harris-Foulkes estimate   =    -833.86364461 Ry
     estimated scf accuracy    <          7.7E-09 Ry

     total all-electron energy =     -3198.478534 Ry

     The total energy is the sum of the following terms:

     one-electron contribution =    -436.22385662 Ry
     hartree contribution      =     286.71921961 Ry
     xc contribution           =    -182.49315833 Ry
     ewald contribution        =    -251.70931803 Ry
     Dispersion Correction     =      -0.28010184 Ry
     one-center paw contrib.   =    -249.87642938 Ry

     convergence has been achieved in  17 iterations

     Forces acting on atoms (cartesian axes, Ry/au):

     atom    1 type  4   force =     0.00068130   -0.00097198    0.00079509
     atom    2 type  4   force =    -0.00068130    0.00097198   -0.00079509
     atom    3 type  1   force =     0.00007341    0.00017589   -0.00224354
     atom    4 type  1   force =    -0.00007341   -0.00017589    0.00224354
     atom    5 type  2   force =     0.00009598   -0.00167069   -0.00270695
     atom    6 type  2   force =    -0.00009598    0.00167069    0.00270695
     atom    7 type  1   force =    -0.00022333   -0.00036369    0.00020087
     atom    8 type  1   force =     0.00022333    0.00036369   -0.00020087
     atom    9 type  2   force =    -0.00018267    0.00067528   -0.00136710
     atom   10 type  2   force =     0.00018267   -0.00067528    0.00136710
     atom   11 type  1   force =    -0.00008834    0.00063903    0.00297786
     atom   12 type  1   force =     0.00008834   -0.00063903   -0.00297786
     atom   13 type  1   force =     0.00017315   -0.00332052    0.00273951
     atom   14 type  1   force =    -0.00017315    0.00332052   -0.00273951
     atom   15 type  1   force =    -0.00028145    0.00207596    0.00148507
     atom   16 type  1   force =     0.00028145   -0.00207596   -0.00148507
     atom   17 type  1   force =     0.00019194   -0.00296257   -0.00089702
     atom   18 type  1   force =    -0.00019194    0.00296257    0.00089702
     atom   19 type  1   force =     0.00069584   -0.00284200    0.00269356
     atom   20 type  1   force =    -0.00069584    0.00284200   -0.00269356
     atom   21 type  1   force =    -0.00002225   -0.00152409    0.00066754
     atom   22 type  1   force =     0.00002225    0.00152409   -0.00066754
     atom   23 type  1   force =    -0.00018132   -0.00047649   -0.00265607
     atom   24 type  1   force =     0.00018132    0.00047649    0.00265607
     atom   25 type  1   force =     0.00031128    0.00065865   -0.00434607
     atom   26 type  1   force =    -0.00031128   -0.00065865    0.00434607
     atom   27 type  1   force =     0.00002793    0.00305053    0.00074192
     atom   28 type  1   force =    -0.00002793   -0.00305053   -0.00074192
     atom   29 type  1   force =    -0.00035497    0.00124321    0.00399132
     atom   30 type  1   force =     0.00035497   -0.00124321   -0.00399132
     atom   31 type  4   force =    -0.00080976    0.00067313    0.00046533
     atom   32 type  4   force =     0.00080976   -0.00067313   -0.00046533
     atom   33 type  4   force =     0.00128519    0.00135212    0.00007181
     atom   34 type  4   force =    -0.00128519   -0.00135212   -0.00007181
     atom   35 type  3   force =    -0.00028573   -0.00030272    0.00075081
     atom   36 type  3   force =     0.00028573    0.00030272   -0.00075081
     atom   37 type  3   force =    -0.00036927    0.00160789   -0.00343632
     atom   38 type  3   force =     0.00036927   -0.00160789    0.00343632
     atom   39 type  3   force =    -0.00025479    0.00002221   -0.00125115
     atom   40 type  3   force =     0.00025479   -0.00002221    0.00125115
     atom   41 type  3   force =     0.00009943    0.00075355    0.00037030
     atom   42 type  3   force =    -0.00009943   -0.00075355   -0.00037030
     atom   43 type  3   force =     0.00049753    0.00009542    0.00093330
     atom   44 type  3   force =    -0.00049753   -0.00009542   -0.00093330
     atom   45 type  3   force =     0.00040693    0.00092335    0.00023816
     atom   46 type  3   force =    -0.00040693   -0.00092335   -0.00023816
     atom   47 type  3   force =    -0.00002249   -0.00005248    0.00092989
     atom   48 type  3   force =     0.00002249    0.00005248   -0.00092989
     atom   49 type  3   force =     0.00030081    0.00044454   -0.00068654
     atom   50 type  3   force =    -0.00030081   -0.00044454    0.00068654
     atom   51 type  3   force =    -0.00121335    0.00023237   -0.00066493
     atom   52 type  3   force =     0.00121335   -0.00023237    0.00066493
     atom   53 type  3   force =     0.00014557   -0.00053276   -0.00031773
     atom   54 type  3   force =    -0.00014557    0.00053276    0.00031773
     atom   55 type  3   force =     0.00068490   -0.00039282   -0.00030454
     atom   56 type  3   force =    -0.00068490    0.00039282    0.00030454
     atom   57 type  3   force =    -0.00048546    0.00015193    0.00009731
     atom   58 type  3   force =     0.00048546   -0.00015193   -0.00009731

     Total force =     0.018236     Total SCF correction =     0.000222


     Computing stress (Cartesian axis) and pressure

          total   stress  (Ry/bohr**3)                   (kbar)     P=   -4.63
  -0.00004135  -0.00000562   0.00000180         -6.08     -0.83      0.26
  -0.00000562  -0.00002685   0.00000894         -0.83     -3.95      1.31
   0.00000180   0.00000894  -0.00002620          0.26      1.31     -3.85


     Writing output data file scf.save
 
     init_run     :     14.47s CPU     15.01s WALL (       1 calls)
     electrons    :    360.31s CPU    377.00s WALL (       1 calls)
     forces       :      7.73s CPU      7.81s WALL (       1 calls)
     stress       :     28.85s CPU     29.08s WALL (       1 calls)

     Called by init_run:
     wfcinit      :      8.13s CPU      8.60s WALL (       1 calls)
     potinit      :      2.33s CPU      2.34s WALL (       1 calls)

     Called by electrons:
     c_bands      :    313.20s CPU    327.24s WALL (      17 calls)
     sum_band     :     39.03s CPU     41.03s WALL (      17 calls)
     v_of_rho     :      1.26s CPU      1.36s WALL (      18 calls)
     newd         :      2.24s CPU      2.72s WALL (      18 calls)
     PAW_pot      :      4.11s CPU      4.12s WALL (      18 calls)
     mix_rho      :      0.32s CPU      0.37s WALL (      17 calls)

     Called by c_bands:
     init_us_2    :      3.64s CPU      3.69s WALL (     296 calls)
     cegterg      :    301.97s CPU    315.85s WALL (     136 calls)

     Called by sum_band:
     sum_band:bec :      0.03s CPU      0.03s WALL (     136 calls)
     addusdens    :      2.63s CPU      3.11s WALL (      17 calls)

     Called by *egterg:
     h_psi        :    198.40s CPU    207.41s WALL (     626 calls)
     s_psi        :     25.60s CPU     25.60s WALL (     626 calls)
     g_psi        :      1.44s CPU      1.44s WALL (     482 calls)
     cdiaghg      :     16.58s CPU     16.59s WALL (     618 calls)

     Called by h_psi:
     h_psi:pot    :    196.30s CPU    205.26s WALL (     626 calls)
     h_psi:calbec :     23.29s CPU     23.47s WALL (     626 calls)
     vloc_psi     :    147.48s CPU    156.23s WALL (     626 calls)
     add_vuspsi   :     25.53s CPU     25.57s WALL (     626 calls)

     General routines
     calbec       :     33.95s CPU     34.18s WALL (     802 calls)
     fft          :      0.92s CPU      1.09s WALL (     258 calls)
     fftw         :    157.35s CPU    166.78s WALL (   98494 calls)
 
     Parallel routines
     fft_scatter  :     42.08s CPU     48.14s WALL (   98752 calls)
 
     PWSCF        :  6m54.94s CPU     7m13.23s WALL

 
   This run was terminated on:   1:23:29   7Dec2017            

=------------------------------------------------------------------------------=
   JOB DONE.
=------------------------------------------------------------------------------=
