
     Program PWSCF v.6.1 (svn rev. 13369) starts on  4Nov2017 at  5:31:14 

     This program is part of the open-source Quantum ESPRESSO suite
     for quantum simulation of materials; please cite
         "P. Giannozzi et al., J. Phys.:Condens. Matter 21 395502 (2009);
          URL http://www.quantum-espresso.org", 
     in publications or presentations arising from this work. More details at
     http://www.quantum-espresso.org/quote

     Parallel version (MPI), running on     8 processors
     R & G space division:  proc/nbgrp/npool/nimage =       8
     Waiting for input...
     Reading input from standard input

     Current dimensions of program PWSCF are:
     Max number of different atomic species (ntypx) = 10
     Max number of k-points (npk) =  40000
     Max angular momentum in pseudopotentials (lmaxx) =  3
               file C.pbe-n-kjpaw_psl.0.1.UPF: wavefunction(s)  2P renormalized
               file N.pbe-n-kjpaw_psl.0.1.UPF: wavefunction(s)  2P renormalized
               file H.pbe-kjpaw_psl.0.1.UPF: wavefunction(s)  1S renormalized
               file O.pbe-n-kjpaw_psl.0.1.UPF: wavefunction(s)  2P renormalized

     -------------------------------------
     Parameters for Dispersion Correction:
     -------------------------------------
       atom      VdW radius       C_6     

        C          2.744         60.710
        N          2.640         42.670
        H          1.892          4.857
        O          2.536         24.284

     Subspace diagonalization in iterative solution of the eigenvalue problem:
     a serial algorithm will be used

 
     Parallelization info
     --------------------
     sticks:   dense  smooth     PW     G-vecs:    dense   smooth      PW
     Min        1086    1086    296                38952    38952    5568
     Max        1088    1088    298                38953    38953    5569
     Sum        8693    8693   2377               311617   311617   44549
 


     bravais-lattice index     =            0
     lattice parameter (alat)  =      16.5183  a.u.
     unit-cell volume          =    2306.8787 (a.u.)^3
     number of atoms/cell      =           32
     number of atomic types    =            4
     number of electrons       =        96.00
     number of Kohn-Sham states=           57
     kinetic-energy cutoff     =     100.0000  Ry
     charge density cutoff     =     400.0000  Ry
     convergence threshold     =      1.0E-08
     mixing beta               =       0.5000
     number of iterations used =            8  plain     mixing
     Exchange-correlation      =  SLA  PW   PBX  PBC ( 1  4  3  4 0 0)

     celldm(1)=  16.518285  celldm(2)=   0.000000  celldm(3)=   0.000000
     celldm(4)=   0.000000  celldm(5)=   0.000000  celldm(6)=   0.000000

     crystal axes: (cart. coord. in units of alat)
               a(1) = (   1.000000   0.000000   0.000000 )  
               a(2) = (   0.000000   1.000000   0.000000 )  
               a(3) = (   0.000000   0.000000   0.511835 )  

     reciprocal axes: (cart. coord. in units 2 pi/alat)
               b(1) = (  1.000000  0.000000  0.000000 )  
               b(2) = (  0.000000  1.000000  0.000000 )  
               b(3) = (  0.000000  0.000000  1.953755 )  


     PseudoPot. # 1 for  C read from file:
     /scratch/ahofstet/pseudo/C.pbe-n-kjpaw_psl.0.1.UPF
     MD5 check sum: 430fe95172b1e11ef3f8ed03bac87931
     Pseudo is Projector augmented-wave + core cor, Zval =  4.0
     Generated using "atomic" code by A. Dal Corso  v.5.0.99 svn rev. 10869
     Shape of augmentation charge: BESSEL
     Using radial grid of 1073 points,  4 beta functions with: 
                l(1) =   0
                l(2) =   0
                l(3) =   1
                l(4) =   1
     Q(r) pseudized with 0 coefficients 


     PseudoPot. # 2 for  N read from file:
     /scratch/ahofstet/pseudo/N.pbe-n-kjpaw_psl.0.1.UPF
     MD5 check sum: f73187c8b701007e77325f868c9291d7
     Pseudo is Projector augmented-wave + core cor, Zval =  5.0
     Generated using "atomic" code by A. Dal Corso  v.5.0.99 svn rev. 10869
     Shape of augmentation charge: PSQ
     Using radial grid of 1085 points,  4 beta functions with: 
                l(1) =   0
                l(2) =   0
                l(3) =   1
                l(4) =   1
     Q(r) pseudized with 0 coefficients 


     PseudoPot. # 3 for  H read from file:
     /scratch/ahofstet/pseudo/H.pbe-kjpaw_psl.0.1.UPF
     MD5 check sum: 94e484f906d9e9773b2f6e52662335b2
     Pseudo is Projector augmented-wave, Zval =  1.0
     Generated using "atomic" code by A. Dal Corso  v.5.0.99 svn rev. 10869
     Shape of augmentation charge: PSQ
     Using radial grid of  929 points,  2 beta functions with: 
                l(1) =   0
                l(2) =   0
     Q(r) pseudized with 0 coefficients 


     PseudoPot. # 4 for  O read from file:
     /scratch/ahofstet/pseudo/O.pbe-n-kjpaw_psl.0.1.UPF
     MD5 check sum: 3f94a2996a3169367d6eb21d9b593f20
     Pseudo is Projector augmented-wave + core cor, Zval =  6.0
     Generated using "atomic" code by A. Dal Corso  v.5.0.99 svn rev. 10869
     Shape of augmentation charge: BESSEL
     Using radial grid of 1095 points,  4 beta functions with: 
                l(1) =   0
                l(2) =   0
                l(3) =   1
                l(4) =   1
     Q(r) pseudized with 0 coefficients 


     atomic species   valence    mass     pseudopotential
        C              4.00    12.01070      C( 1.00)
        N              5.00    14.00670      N( 1.00)
        H              1.00     1.00794      H( 1.00)
        O              6.00    15.99940      O( 1.00)

      4 Sym. Ops. (no inversion) found



   Cartesian axes

     site n.     atom                  positions (alat units)
         1           O   tau(   1) = (   0.1931377   0.0700357   0.1707727  )
         2           O   tau(   2) = (   0.8068623   0.9299643   0.1707727  )
         3           O   tau(   3) = (   0.0700357   0.8068623   0.3410622  )
         4           O   tau(   4) = (   0.9299643   0.1931377   0.3410622  )
         5           O   tau(   5) = (   0.3070012   0.5700792   0.0851198  )
         6           O   tau(   6) = (   0.6929988   0.4299208   0.0851198  )
         7           O   tau(   7) = (   0.4299208   0.3070012   0.4267151  )
         8           O   tau(   8) = (   0.5700792   0.6929988   0.4267151  )
         9           C   tau(   9) = (   0.2373177   0.0088794   0.2898222  )
        10           C   tau(  10) = (   0.7626823   0.9911206   0.2898222  )
        11           C   tau(  11) = (   0.0088794   0.7626823   0.2220127  )
        12           C   tau(  12) = (   0.9911206   0.2373177   0.2220127  )
        13           C   tau(  13) = (   0.2627588   0.5090066   0.4778676  )
        14           C   tau(  14) = (   0.7372412   0.4909934   0.4778676  )
        15           C   tau(  15) = (   0.4909934   0.2627588   0.0339673  )
        16           C   tau(  16) = (   0.5090066   0.7372412   0.0339673  )
        17           H   tau(  17) = (   0.3253945   0.9181699   0.2870124  )
        18           H   tau(  18) = (   0.6746055   0.0818301   0.2870124  )
        19           H   tau(  19) = (   0.9181699   0.6746055   0.2248225  )
        20           H   tau(  20) = (   0.0818301   0.3253945   0.2248225  )
        21           H   tau(  21) = (   0.1746168   0.4183444   0.4806763  )
        22           H   tau(  22) = (   0.8253832   0.5816556   0.4806763  )
        23           H   tau(  23) = (   0.5816556   0.1746168   0.0311586  )
        24           H   tau(  24) = (   0.4183444   0.8253832   0.0311586  )
        25           H   tau(  25) = (   0.2011664   0.0493666   0.4080093  )
        26           H   tau(  26) = (   0.7988336   0.9506334   0.4080093  )
        27           H   tau(  27) = (   0.0493666   0.7988336   0.1038256  )
        28           H   tau(  28) = (   0.9506334   0.2011664   0.1038256  )
        29           H   tau(  29) = (   0.2988634   0.5495147   0.3596836  )
        30           H   tau(  30) = (   0.7011366   0.4504853   0.3596836  )
        31           H   tau(  31) = (   0.4504853   0.2988634   0.1521513  )
        32           H   tau(  32) = (   0.5495147   0.7011366   0.1521513  )

     number of k points=     9
                       cart. coord. in units 2pi/alat
        k(    1) = (   0.0000000   0.0000000   0.0000000), wk =   0.1250000
        k(    2) = (   0.0000000   0.0000000   0.4884388), wk =   0.2500000
        k(    3) = (   0.0000000   0.0000000  -0.9768775), wk =   0.1250000
        k(    4) = (   0.0000000  -0.5000000   0.0000000), wk =   0.2500000
        k(    5) = (   0.0000000  -0.5000000   0.4884388), wk =   0.5000000
        k(    6) = (   0.0000000  -0.5000000  -0.9768775), wk =   0.2500000
        k(    7) = (  -0.5000000  -0.5000000   0.0000000), wk =   0.1250000
        k(    8) = (  -0.5000000  -0.5000000   0.4884388), wk =   0.2500000
        k(    9) = (  -0.5000000  -0.5000000  -0.9768775), wk =   0.1250000

     Dense  grid:   311617 G-vectors     FFT dimensions: ( 108, 108,  54)

     Estimated max dynamical RAM per process >     112.83MB

     Estimated total allocated dynamical RAM >     902.65MB

     Check: negative/imaginary core charge=   -0.000002    0.000000

     Initial potential from superposition of free atoms

     starting charge   95.99950, renormalised to   96.00000
     Starting wfc are   80 randomized atomic wfcs
     Checking if some PAW data can be deallocated... 

     total cpu time spent up to now is        5.5 secs

     per-process dynamical memory:   123.4 Mb

     Self-consistent Calculation

     iteration #  1     ecut=   100.00 Ry     beta=0.50
     Davidson diagonalization with overlap
     ethr =  1.00E-02,  avg # of iterations =  3.0

     total cpu time spent up to now is       15.7 secs

     total energy              =    -498.91627539 Ry
     Harris-Foulkes estimate   =    -500.20653109 Ry
     estimated scf accuracy    <       2.60151583 Ry

     iteration #  2     ecut=   100.00 Ry     beta=0.50
     Davidson diagonalization with overlap
     ethr =  2.71E-03,  avg # of iterations =  2.0

     total cpu time spent up to now is       22.4 secs

     total energy              =    -499.16281704 Ry
     Harris-Foulkes estimate   =    -499.49452566 Ry
     estimated scf accuracy    <       0.69265520 Ry

     iteration #  3     ecut=   100.00 Ry     beta=0.50
     Davidson diagonalization with overlap
     ethr =  7.22E-04,  avg # of iterations =  3.0

     total cpu time spent up to now is       29.8 secs

     total energy              =    -499.34180423 Ry
     Harris-Foulkes estimate   =    -499.39464204 Ry
     estimated scf accuracy    <       0.15237053 Ry

     iteration #  4     ecut=   100.00 Ry     beta=0.50
     Davidson diagonalization with overlap
     ethr =  1.59E-04,  avg # of iterations =  1.6

     total cpu time spent up to now is       35.5 secs

     total energy              =    -499.34989635 Ry
     Harris-Foulkes estimate   =    -499.35559034 Ry
     estimated scf accuracy    <       0.01472950 Ry

     iteration #  5     ecut=   100.00 Ry     beta=0.50
     Davidson diagonalization with overlap
     ethr =  1.53E-05,  avg # of iterations =  5.1

     total cpu time spent up to now is       46.0 secs

     total energy              =    -499.35688110 Ry
     Harris-Foulkes estimate   =    -499.35897438 Ry
     estimated scf accuracy    <       0.00618117 Ry

     iteration #  6     ecut=   100.00 Ry     beta=0.50
     Davidson diagonalization with overlap
     ethr =  6.44E-06,  avg # of iterations =  1.0

     total cpu time spent up to now is       51.6 secs

     total energy              =    -499.35673416 Ry
     Harris-Foulkes estimate   =    -499.35726534 Ry
     estimated scf accuracy    <       0.00123643 Ry

     iteration #  7     ecut=   100.00 Ry     beta=0.50
     Davidson diagonalization with overlap
     ethr =  1.29E-06,  avg # of iterations =  3.0

     total cpu time spent up to now is       61.1 secs

     total energy              =    -499.35736333 Ry
     Harris-Foulkes estimate   =    -499.35746195 Ry
     estimated scf accuracy    <       0.00029909 Ry

     iteration #  8     ecut=   100.00 Ry     beta=0.50
     Davidson diagonalization with overlap
     ethr =  3.12E-07,  avg # of iterations =  1.0

     total cpu time spent up to now is       66.7 secs

     total energy              =    -499.35730824 Ry
     Harris-Foulkes estimate   =    -499.35737206 Ry
     estimated scf accuracy    <       0.00011346 Ry

     iteration #  9     ecut=   100.00 Ry     beta=0.50
     Davidson diagonalization with overlap
     ethr =  1.18E-07,  avg # of iterations =  3.1

     total cpu time spent up to now is       75.9 secs

     total energy              =    -499.35736649 Ry
     Harris-Foulkes estimate   =    -499.35737418 Ry
     estimated scf accuracy    <       0.00002769 Ry

     iteration # 10     ecut=   100.00 Ry     beta=0.50
     Davidson diagonalization with overlap
     ethr =  2.88E-08,  avg # of iterations =  1.0

     total cpu time spent up to now is       81.5 secs

     total energy              =    -499.35736053 Ry
     Harris-Foulkes estimate   =    -499.35736707 Ry
     estimated scf accuracy    <       0.00001334 Ry

     iteration # 11     ecut=   100.00 Ry     beta=0.50
     Davidson diagonalization with overlap
     ethr =  1.39E-08,  avg # of iterations =  3.0

     total cpu time spent up to now is       90.1 secs

     total energy              =    -499.35736496 Ry
     Harris-Foulkes estimate   =    -499.35736503 Ry
     estimated scf accuracy    <       0.00000023 Ry

     iteration # 12     ecut=   100.00 Ry     beta=0.50
     Davidson diagonalization with overlap
     ethr =  2.36E-10,  avg # of iterations =  2.7

     total cpu time spent up to now is       97.0 secs

     total energy              =    -499.35736496 Ry
     Harris-Foulkes estimate   =    -499.35736500 Ry
     estimated scf accuracy    <       0.00000011 Ry

     iteration # 13     ecut=   100.00 Ry     beta=0.50
     Davidson diagonalization with overlap
     ethr =  1.12E-10,  avg # of iterations =  3.0

     total cpu time spent up to now is      103.5 secs

     total energy              =    -499.35736496 Ry
     Harris-Foulkes estimate   =    -499.35736497 Ry
     estimated scf accuracy    <       0.00000001 Ry

     iteration # 14     ecut=   100.00 Ry     beta=0.50
     Davidson diagonalization with overlap
     ethr =  1.54E-11,  avg # of iterations =  3.6

     total cpu time spent up to now is      112.4 secs

     End of self-consistent calculation

          k = 0.0000 0.0000 0.0000 ( 39011 PWs)   bands (ev):

   -21.4003 -21.3527 -21.1414 -21.1414 -21.1073 -21.1073 -20.9169 -20.8755
   -10.7266 -10.4808 -10.2741 -10.2741  -9.9998  -9.9998  -9.8157  -9.5260
    -6.9111  -6.8913  -6.8896  -6.6110  -6.5282  -6.5282  -6.4258  -6.4258
    -6.2561  -6.0011  -6.0011  -5.9173  -5.8041  -5.7941  -5.7941  -5.4079
    -4.8140  -4.5793  -4.5793  -4.3110  -4.1747  -4.1747  -3.9852  -3.8292
    -1.7478  -1.5432  -1.2673  -1.2639  -1.2639  -1.2517  -1.1760  -1.1760
     3.0111   3.1207   3.2239   3.2239   3.2984   3.4485   3.5765   3.5765
     5.3861

          k = 0.0000 0.0000 0.4884 ( 38983 PWs)   bands (ev):

   -21.3825 -21.3487 -21.1293 -21.1293 -21.1050 -21.1050 -20.9074 -20.8781
   -10.7977 -10.6435 -10.3385 -10.3385 -10.1506 -10.1506  -9.8542  -9.6683
    -7.1689  -6.9579  -6.8291  -6.6808  -6.6808  -6.6246  -6.5255  -6.5255
    -6.0743  -5.9713  -5.7701  -5.7701  -5.6545  -5.6545  -5.5280  -5.2663
    -4.7125  -4.4570  -4.4570  -4.3736  -4.1814  -4.1814  -3.9106  -3.8085
    -1.4063  -1.2772  -1.1038  -1.0661  -1.0240  -1.0240  -0.9508  -0.9508
     2.9236   3.0191   3.1602   3.1602   3.3051   3.3688   3.4757   3.4757
     5.1787

          k = 0.0000 0.0000-0.9769 ( 38866 PWs)   bands (ev):

   -21.3553 -21.3537 -21.1116 -21.1116 -21.1081 -21.1081 -20.8910 -20.8878
   -10.8324 -10.8314 -10.3844 -10.3844 -10.3111 -10.3111  -9.8503  -9.8496
    -7.1385  -7.1381  -6.7390  -6.7379  -6.6888  -6.6888  -6.6515  -6.6515
    -5.9808  -5.9798  -5.6404  -5.6404  -5.5535  -5.5535  -5.2396  -5.2387
    -4.5255  -4.5232  -4.2778  -4.2778  -4.2567  -4.2567  -3.8228  -3.8198
    -1.0028  -1.0017  -0.8688  -0.8683  -0.7269  -0.7269  -0.7057  -0.7057
     2.8919   2.8923   3.0944   3.0944   3.2935   3.2942   3.3861   3.3861
     5.5047

          k = 0.0000-0.5000 0.0000 ( 38996 PWs)   bands (ev):

   -21.3787 -21.3772 -21.1273 -21.1249 -21.1243 -21.1218 -20.8959 -20.8927
   -10.6248 -10.6242 -10.1924 -10.1922 -10.1166 -10.1164  -9.6139  -9.6131
    -6.8822  -6.8819  -6.8033  -6.8032  -6.4805  -6.4799  -6.4510  -6.4502
    -6.1907  -6.1897  -5.9111  -5.9102  -5.8288  -5.8285  -5.5624  -5.5619
    -4.7023  -4.7019  -4.3993  -4.3976  -4.2417  -4.2409  -3.8716  -3.8689
    -1.6486  -1.6483  -1.2699  -1.2697  -1.2388  -1.2381  -1.1873  -1.1871
     3.0470   3.0478   3.2001   3.2015   3.3759   3.3761   3.6153   3.6158
     5.6605

          k = 0.0000-0.5000 0.4884 ( 38960 PWs)   bands (ev):

   -21.3670 -21.3654 -21.1194 -21.1178 -21.1169 -21.1154 -20.8933 -20.8901
   -10.7229 -10.7222 -10.2812 -10.2812 -10.2396 -10.2395  -9.7271  -9.7263
    -7.0712  -7.0711  -6.7624  -6.7621  -6.5982  -6.5973  -6.5734  -6.5727
    -6.0353  -6.0341  -5.7303  -5.7296  -5.7046  -5.7039  -5.3735  -5.3729
    -4.6216  -4.6208  -4.3301  -4.3281  -4.2517  -4.2503  -3.8385  -3.8357
    -1.3363  -1.3358  -1.0820  -1.0815  -1.0058  -1.0054  -0.9741  -0.9737
     2.9533   2.9534   3.1368   3.1372   3.3013   3.3020   3.5273   3.5280
     5.6362

          k = 0.0000-0.5000-0.9769 ( 38968 PWs)   bands (ev):

   -21.3550 -21.3534 -21.1117 -21.1111 -21.1092 -21.1086 -20.8907 -20.8875
   -10.8213 -10.8204 -10.3746 -10.3745 -10.3488 -10.3487  -9.8335  -9.8327
    -7.1173  -7.1170  -6.7558  -6.7556  -6.7042  -6.7032  -6.6378  -6.6371
    -5.9858  -5.9846  -5.6098  -5.6091  -5.5961  -5.5954  -5.2288  -5.2281
    -4.5270  -4.5251  -4.2815  -4.2790  -4.2635  -4.2611  -3.8128  -3.8098
    -0.9696  -0.9688  -0.8820  -0.8813  -0.7382  -0.7379  -0.7069  -0.7066
     2.8686   2.8690   3.0707   3.0708   3.2266   3.2275   3.4472   3.4482
     5.9028

          k =-0.5000-0.5000 0.0000 ( 38956 PWs)   bands (ev):

   -21.3773 -21.3757 -21.1475 -21.1475 -21.1024 -21.1024 -20.8966 -20.8934
   -10.5917 -10.5912 -10.3012 -10.3012 -10.0443 -10.0443  -9.6090  -9.6082
    -6.8719  -6.8717  -6.8138  -6.8136  -6.5576  -6.5576  -6.3719  -6.3719
    -6.0985  -6.0985  -6.0180  -6.0166  -5.7931  -5.7931  -5.6080  -5.6074
    -4.5801  -4.5801  -4.5557  -4.5542  -4.1902  -4.1902  -3.8652  -3.8624
    -1.6439  -1.6437  -1.3043  -1.3043  -1.2073  -1.2065  -1.1841  -1.1841
     3.1312   3.1318   3.1402   3.1402   3.2332   3.2332   3.7245   3.7253
     5.8477

          k =-0.5000-0.5000 0.4884 ( 38976 PWs)   bands (ev):

   -21.3661 -21.3645 -21.1338 -21.1338 -21.1017 -21.1017 -20.8935 -20.8903
   -10.7023 -10.7014 -10.3578 -10.3578 -10.1936 -10.1936  -9.7161  -9.7152
    -7.0585  -7.0584  -6.7486  -6.7486  -6.6933  -6.6927  -6.5014  -6.5014
    -6.0104  -6.0091  -5.7947  -5.7947  -5.6696  -5.6696  -5.3899  -5.3892
    -4.5328  -4.5309  -4.4589  -4.4589  -4.1955  -4.1955  -3.8349  -3.8320
    -1.3373  -1.3366  -1.0577  -1.0577  -1.0363  -1.0355  -0.9675  -0.9675
     3.0451   3.0461   3.0845   3.0845   3.1476   3.1476   3.6407   3.6422
     5.8872

          k =-0.5000-0.5000-0.9769 ( 38856 PWs)   bands (ev):

   -21.3547 -21.3531 -21.1117 -21.1117 -21.1092 -21.1092 -20.8904 -20.8872
   -10.8097 -10.8087 -10.3749 -10.3749 -10.3747 -10.3747  -9.8179  -9.8170
    -7.0952  -7.0949  -6.7135  -6.7135  -6.7122  -6.7122  -6.7074  -6.7064
    -5.9839  -5.9827  -5.6002  -5.6002  -5.5995  -5.5995  -5.2212  -5.2203
    -4.5248  -4.5225  -4.2775  -4.2775  -4.2749  -4.2749  -3.8069  -3.8039
    -0.9726  -0.9715  -0.8438  -0.8429  -0.7435  -0.7435  -0.7433  -0.7433
     2.9667   2.9679   3.0489   3.0489   3.0508   3.0508   3.5554   3.5575
     6.1921

     highest occupied, lowest unoccupied level (ev):    -0.7057    2.8686

!    total energy              =    -499.35736497 Ry
     Harris-Foulkes estimate   =    -499.35736497 Ry
     estimated scf accuracy    <          1.2E-09 Ry

     total all-electron energy =     -1832.245246 Ry

     The total energy is the sum of the following terms:

     one-electron contribution =    -273.19686005 Ry
     hartree contribution      =     170.92704907 Ry
     xc contribution           =    -102.70300626 Ry
     ewald contribution        =    -164.84883626 Ry
     Dispersion Correction     =      -0.11552569 Ry
     one-center paw contrib.   =    -129.42018577 Ry

     convergence has been achieved in  14 iterations

     Forces acting on atoms (cartesian axes, Ry/au):

     atom    1 type  4   force =     0.00906427   -0.00592012    0.00817204
     atom    2 type  4   force =    -0.00906427    0.00592012    0.00817204
     atom    3 type  4   force =    -0.00592012   -0.00906427   -0.00817204
     atom    4 type  4   force =     0.00592012    0.00906427   -0.00817204
     atom    5 type  4   force =    -0.00918026   -0.00593674   -0.00839703
     atom    6 type  4   force =     0.00918026    0.00593674   -0.00839703
     atom    7 type  4   force =     0.00593674   -0.00918026    0.00839703
     atom    8 type  4   force =    -0.00593674    0.00918026    0.00839703
     atom    9 type  1   force =    -0.01764428    0.01518721    0.02247371
     atom   10 type  1   force =     0.01764428   -0.01518721    0.02247371
     atom   11 type  1   force =     0.01518721    0.01764428   -0.02247371
     atom   12 type  1   force =    -0.01518721   -0.01764428   -0.02247371
     atom   13 type  1   force =     0.01759169    0.01506253   -0.02211944
     atom   14 type  1   force =    -0.01759169   -0.01506253   -0.02211944
     atom   15 type  1   force =    -0.01506253    0.01759169    0.02211944
     atom   16 type  1   force =     0.01506253   -0.01759169    0.02211944
     atom   17 type  3   force =     0.00522820   -0.00212993   -0.00116715
     atom   18 type  3   force =    -0.00522820    0.00212993   -0.00116715
     atom   19 type  3   force =    -0.00212993   -0.00522820    0.00116715
     atom   20 type  3   force =     0.00212993    0.00522820    0.00116715
     atom   21 type  3   force =    -0.00515195   -0.00202303    0.00115535
     atom   22 type  3   force =     0.00515195    0.00202303    0.00115535
     atom   23 type  3   force =     0.00202303   -0.00515195   -0.00115535
     atom   24 type  3   force =    -0.00202303    0.00515195   -0.00115535
     atom   25 type  3   force =     0.00465730   -0.00836527   -0.03207442
     atom   26 type  3   force =    -0.00465730    0.00836527   -0.03207442
     atom   27 type  3   force =    -0.00836527   -0.00465730    0.03207442
     atom   28 type  3   force =     0.00836527    0.00465730    0.03207442
     atom   29 type  3   force =    -0.00456834   -0.00831540    0.03205700
     atom   30 type  3   force =     0.00456834    0.00831540    0.03205700
     atom   31 type  3   force =     0.00831540   -0.00456834   -0.03205700
     atom   32 type  3   force =    -0.00831540    0.00456834   -0.03205700

     Total force =     0.137840     Total SCF correction =     0.000082


     Computing stress (Cartesian axis) and pressure

          total   stress  (Ry/bohr**3)                   (kbar)     P=  -19.85
  -0.00006308   0.00000000   0.00000000         -9.28      0.00      0.00
  -0.00000000  -0.00006308   0.00000000         -0.00     -9.28      0.00
   0.00000000   0.00000000  -0.00027869          0.00      0.00    -41.00


     Writing output data file scf.save
 
     init_run     :      4.44s CPU      4.76s WALL (       1 calls)
     electrons    :    104.55s CPU    107.12s WALL (       1 calls)
     forces       :      2.01s CPU      2.03s WALL (       1 calls)
     stress       :      4.65s CPU      4.66s WALL (       1 calls)

     Called by init_run:
     wfcinit      :      2.89s CPU      3.04s WALL (       1 calls)
     potinit      :      0.53s CPU      0.56s WALL (       1 calls)

     Called by electrons:
     c_bands      :     88.48s CPU     90.50s WALL (      14 calls)
     sum_band     :     12.56s CPU     12.91s WALL (      14 calls)
     v_of_rho     :      0.60s CPU      0.67s WALL (      15 calls)
     newd         :      0.91s CPU      0.94s WALL (      15 calls)
     PAW_pot      :      1.84s CPU      1.84s WALL (      15 calls)
     mix_rho      :      0.13s CPU      0.14s WALL (      14 calls)

     Called by c_bands:
     init_us_2    :      1.09s CPU      1.10s WALL (     279 calls)
     cegterg      :     85.24s CPU     87.25s WALL (     126 calls)

     Called by sum_band:
     sum_band:bec :      0.01s CPU      0.01s WALL (     126 calls)
     addusdens    :      0.93s CPU      0.93s WALL (      14 calls)

     Called by *egterg:
     h_psi        :     60.71s CPU     62.69s WALL (     459 calls)
     s_psi        :      6.44s CPU      6.44s WALL (     459 calls)
     g_psi        :      0.41s CPU      0.41s WALL (     324 calls)
     cdiaghg      :      3.00s CPU      3.08s WALL (     450 calls)

     Called by h_psi:
     h_psi:pot    :     60.31s CPU     62.28s WALL (     459 calls)
     h_psi:calbec :      6.37s CPU      6.40s WALL (     459 calls)
     vloc_psi     :     47.58s CPU     49.51s WALL (     459 calls)
     add_vuspsi   :      6.36s CPU      6.37s WALL (     459 calls)

     General routines
     calbec       :      9.39s CPU      9.45s WALL (     630 calls)
     fft          :      0.38s CPU      0.60s WALL (     219 calls)
     fftw         :     51.57s CPU     53.72s WALL (   48016 calls)
 
     Parallel routines
     fft_scatter  :     12.75s CPU     13.83s WALL (   48235 calls)
 
     PWSCF        :  1m57.81s CPU     2m 1.59s WALL

 
   This run was terminated on:   5:33:16   4Nov2017            

=------------------------------------------------------------------------------=
   JOB DONE.
=------------------------------------------------------------------------------=
