
     Program PWSCF v.6.1 (svn rev. 13369) starts on  4Nov2017 at  5:35:34 

     This program is part of the open-source Quantum ESPRESSO suite
     for quantum simulation of materials; please cite
         "P. Giannozzi et al., J. Phys.:Condens. Matter 21 395502 (2009);
          URL http://www.quantum-espresso.org", 
     in publications or presentations arising from this work. More details at
     http://www.quantum-espresso.org/quote

     Parallel version (MPI), running on     8 processors
     R & G space division:  proc/nbgrp/npool/nimage =       8
     Waiting for input...
     Reading input from standard input

     Current dimensions of program PWSCF are:
     Max number of different atomic species (ntypx) = 10
     Max number of k-points (npk) =  40000
     Max angular momentum in pseudopotentials (lmaxx) =  3
               file C.pbe-n-kjpaw_psl.0.1.UPF: wavefunction(s)  2P renormalized
               file N.pbe-n-kjpaw_psl.0.1.UPF: wavefunction(s)  2P renormalized
               file H.pbe-kjpaw_psl.0.1.UPF: wavefunction(s)  1S renormalized
               file O.pbe-n-kjpaw_psl.0.1.UPF: wavefunction(s)  2P renormalized

     -------------------------------------
     Parameters for Dispersion Correction:
     -------------------------------------
       atom      VdW radius       C_6     

        C          2.744         60.710
        N          2.640         42.670
        H          1.892          4.857
        O          2.536         24.284

     Subspace diagonalization in iterative solution of the eigenvalue problem:
     a serial algorithm will be used

 
     Parallelization info
     --------------------
     sticks:   dense  smooth     PW     G-vecs:    dense   smooth      PW
     Min        1565    1565    413               153457   153457   20990
     Max        1566    1566    414               153459   153459   20995
     Sum       12525   12525   3311              1227663  1227663  167949
 


     bravais-lattice index     =            0
     lattice parameter (alat)  =      23.8956  a.u.
     unit-cell volume          =    9087.4911 (a.u.)^3
     number of atoms/cell      =          136
     number of atomic types    =            4
     number of electrons       =       472.00
     number of Kohn-Sham states=          283
     kinetic-energy cutoff     =     100.0000  Ry
     charge density cutoff     =     400.0000  Ry
     convergence threshold     =      1.0E-08
     mixing beta               =       0.5000
     number of iterations used =            8  plain     mixing
     Exchange-correlation      =  SLA  PW   PBX  PBC ( 1  4  3  4 0 0)

     celldm(1)=  23.895587  celldm(2)=   0.000000  celldm(3)=   0.000000
     celldm(4)=   0.000000  celldm(5)=   0.000000  celldm(6)=   0.000000

     crystal axes: (cart. coord. in units of alat)
               a(1) = (   1.000000   0.000000   0.000000 )  
               a(2) = (   0.000000   0.687940   0.000000 )  
               a(3) = (  -0.476386   0.000000   0.968145 )  

     reciprocal axes: (cart. coord. in units 2 pi/alat)
               b(1) = (  1.000000  0.000000  0.492061 )  
               b(2) = (  0.000000  1.453615  0.000000 )  
               b(3) = (  0.000000  0.000000  1.032903 )  


     PseudoPot. # 1 for  C read from file:
     /scratch/ahofstet/pseudo/C.pbe-n-kjpaw_psl.0.1.UPF
     MD5 check sum: 430fe95172b1e11ef3f8ed03bac87931
     Pseudo is Projector augmented-wave + core cor, Zval =  4.0
     Generated using "atomic" code by A. Dal Corso  v.5.0.99 svn rev. 10869
     Shape of augmentation charge: BESSEL
     Using radial grid of 1073 points,  4 beta functions with: 
                l(1) =   0
                l(2) =   0
                l(3) =   1
                l(4) =   1
     Q(r) pseudized with 0 coefficients 


     PseudoPot. # 2 for  N read from file:
     /scratch/ahofstet/pseudo/N.pbe-n-kjpaw_psl.0.1.UPF
     MD5 check sum: f73187c8b701007e77325f868c9291d7
     Pseudo is Projector augmented-wave + core cor, Zval =  5.0
     Generated using "atomic" code by A. Dal Corso  v.5.0.99 svn rev. 10869
     Shape of augmentation charge: PSQ
     Using radial grid of 1085 points,  4 beta functions with: 
                l(1) =   0
                l(2) =   0
                l(3) =   1
                l(4) =   1
     Q(r) pseudized with 0 coefficients 


     PseudoPot. # 3 for  H read from file:
     /scratch/ahofstet/pseudo/H.pbe-kjpaw_psl.0.1.UPF
     MD5 check sum: 94e484f906d9e9773b2f6e52662335b2
     Pseudo is Projector augmented-wave, Zval =  1.0
     Generated using "atomic" code by A. Dal Corso  v.5.0.99 svn rev. 10869
     Shape of augmentation charge: PSQ
     Using radial grid of  929 points,  2 beta functions with: 
                l(1) =   0
                l(2) =   0
     Q(r) pseudized with 0 coefficients 


     PseudoPot. # 4 for  O read from file:
     /scratch/ahofstet/pseudo/O.pbe-n-kjpaw_psl.0.1.UPF
     MD5 check sum: 3f94a2996a3169367d6eb21d9b593f20
     Pseudo is Projector augmented-wave + core cor, Zval =  6.0
     Generated using "atomic" code by A. Dal Corso  v.5.0.99 svn rev. 10869
     Shape of augmentation charge: BESSEL
     Using radial grid of 1095 points,  4 beta functions with: 
                l(1) =   0
                l(2) =   0
                l(3) =   1
                l(4) =   1
     Q(r) pseudized with 0 coefficients 


     atomic species   valence    mass     pseudopotential
        C              4.00    12.01070      C( 1.00)
        N              5.00    14.00670      N( 1.00)
        H              1.00     1.00794      H( 1.00)
        O              6.00    15.99940      O( 1.00)

      2 Sym. Ops., with inversion, found



   Cartesian axes

     site n.     atom                  positions (alat units)
         1           C   tau(   1) = (  -0.2160151   0.6203457   0.8986745  )
         2           C   tau(   2) = (   0.5014888   0.2765681   0.5535707  )
         3           C   tau(   3) = (   0.7396287   0.0675942   0.0694704  )
         4           C   tau(   4) = (   0.0221248   0.4113718   0.4145743  )
         5           C   tau(   5) = (  -0.2715870   0.0336680   0.8779963  )
         6           C   tau(   6) = (   0.5570536   0.3778560   0.5742086  )
         7           C   tau(   7) = (   0.7952007   0.6542719   0.0901487  )
         8           C   tau(   8) = (  -0.0334400   0.3100839   0.3939364  )
         9           C   tau(   9) = (  -0.3040525   0.1018531   0.9547853  )
        10           C   tau(  10) = (   0.5894851   0.4460425   0.4974130  )
        11           C   tau(  11) = (   0.8276661   0.5860868   0.0133597  )
        12           C   tau(  12) = (  -0.0658715   0.2418974   0.4707319  )
        13           C   tau(  13) = (   0.1984128   0.0835345   0.1024482  )
        14           C   tau(  14) = (   0.5634032   0.4276979   0.3816096  )
        15           C   tau(  15) = (   0.3252008   0.6044054   0.8656967  )
        16           C   tau(  16) = (  -0.0397895   0.2602420   0.5865353  )
        17           C   tau(  17) = (   0.2691091   0.6708463   0.1271791  )
        18           C   tau(  18) = (   0.4927382   0.3270258   0.3569045  )
        19           C   tau(  19) = (   0.2545046   0.0170936   0.8409659  )
        20           C   tau(  20) = (   0.0308754   0.3609141   0.6112404  )
        21           C   tau(  21) = (   0.2501680   0.5809544   0.0456986  )
        22           C   tau(  22) = (   0.5116861   0.2371410   0.4384060  )
        23           C   tau(  23) = (   0.2734456   0.1069855   0.9224464  )
        24           C   tau(  24) = (   0.0119275   0.4507989   0.5297389  )
        25           O   tau(  25) = (  -0.1753287   0.5676751   0.8291804  )
        26           O   tau(  26) = (   0.4608071   0.2239371   0.6230730  )
        27           O   tau(  27) = (   0.6989423   0.1202647   0.1389646  )
        28           O   tau(  28) = (   0.0628065   0.4640028   0.3450720  )
        29           C   tau(  29) = (  -0.2857357   0.0559208   0.7682710  )
        30           C   tau(  30) = (   0.5712090   0.4001304   0.6839314  )
        31           C   tau(  31) = (   0.8093493   0.6320191   0.1998740  )
        32           C   tau(  32) = (  -0.0475953   0.2878095   0.2842136  )
        33           N   tau(  33) = (  -0.2931041   0.0698860   0.6774789  )
        34           N   tau(  34) = (   0.5785854   0.4141025   0.7747237  )
        35           N   tau(  35) = (   0.8167177   0.6180539   0.2906661  )
        36           N   tau(  36) = (  -0.0549718   0.2738374   0.1934213  )
        37           C   tau(  37) = (  -0.3573417   0.2036949   0.9280781  )
        38           C   tau(  38) = (   0.6427469   0.5479067   0.5240895  )
        39           C   tau(  39) = (   0.8809553   0.4842450   0.0400668  )
        40           C   tau(  40) = (  -0.1191333   0.1400332   0.4440554  )
        41           N   tau(  41) = (   0.0896526   0.0698041   0.1642150  )
        42           N   tau(  42) = (   0.6721725   0.4139558   0.3198435  )
        43           N   tau(  43) = (   0.4339610   0.6181358   0.8039300  )
        44           N   tau(  44) = (  -0.1485589   0.2739841   0.6483015  )
        45           O   tau(  45) = (   0.0899316   0.0862217   0.2592640  )
        46           O   tau(  46) = (   0.6719021   0.4304019   0.2248196  )
        47           O   tau(  47) = (   0.4336820   0.6017182   0.7088810  )
        48           O   tau(  48) = (  -0.1482885   0.2575380   0.7433254  )
        49           O   tau(  49) = (   0.0118418   0.0456076   0.1112931  )
        50           O   tau(  50) = (   0.7499603   0.3897053   0.3727704  )
        51           O   tau(  51) = (   0.5117718   0.6423323   0.8568518  )
        52           O   tau(  52) = (  -0.2263467   0.2982346   0.5953746  )
        53           C   tau(  53) = (   0.2459939   0.1845320   0.1501187  )
        54           C   tau(  54) = (   0.5158086   0.5286839   0.3339192  )
        55           C   tau(  55) = (   0.2776197   0.5034079   0.8180263  )
        56           C   tau(  56) = (   0.0078050   0.1592560   0.6342258  )
        57           N   tau(  57) = (   0.3850113   0.0276445   0.1092632  )
        58           N   tau(  58) = (   0.3768317   0.3717182   0.3748228  )
        59           N   tau(  59) = (   0.1386023   0.6602954   0.8588818  )
        60           N   tau(  60) = (   0.1467820   0.3162217   0.5933221  )
        61           O   tau(  61) = (   0.4079165   0.0519319   0.0182238  )
        62           O   tau(  62) = (   0.3538942   0.3960192   0.4658407  )
        63           O   tau(  63) = (   0.1156971   0.6360080   0.9499212  )
        64           O   tau(  64) = (   0.1697194   0.2919207   0.5023043  )
        65           O   tau(  65) = (   0.4405291   0.0416455   0.1871957  )
        66           O   tau(  66) = (   0.3212832   0.3856742   0.2968547  )
        67           O   tau(  67) = (   0.0830845   0.6462944   0.7809493  )
        68           O   tau(  68) = (   0.2023304   0.3022657   0.6712903  )
        69           C   tau(  69) = (   0.2618802   0.6323920   0.2404549  )
        70           C   tau(  70) = (   0.4999832   0.2885488   0.2436388  )
        71           C   tau(  71) = (   0.2617334   0.0555479   0.7276901  )
        72           C   tau(  72) = (   0.0236304   0.3993911   0.7245061  )
        73           N   tau(  73) = (   0.3337521   0.4913986   0.0580284  )
        74           N   tau(  74) = (   0.4280924   0.1475737   0.4261026  )
        75           N   tau(  75) = (   0.1898615   0.1965413   0.9101165  )
        76           N   tau(  76) = (   0.0955212   0.5403662   0.5420424  )
        77           O   tau(  77) = (   0.4227737   0.5160861   0.0881032  )
        78           O   tau(  78) = (   0.3390823   0.1722553   0.3959469  )
        79           O   tau(  79) = (   0.1008399   0.1718538   0.8800418  )
        80           O   tau(  80) = (   0.1845313   0.5156846   0.5721981  )
        81           O   tau(  81) = (   0.3062849   0.4019761   0.0329627  )
        82           O   tau(  82) = (   0.4555280   0.0581836   0.4512403  )
        83           O   tau(  83) = (   0.2173287   0.2859638   0.9351823  )
        84           O   tau(  84) = (   0.0680856   0.6297563   0.5169046  )
        85           C   tau(  85) = (   0.1410327   0.5299763   0.0562572  )
        86           C   tau(  86) = (   0.6208049   0.1861174   0.4278510  )
        87           C   tau(  87) = (   0.3825809   0.1579635   0.9118878  )
        88           C   tau(  88) = (  -0.0971913   0.5018225   0.5402940  )
        89           H   tau(  89) = (   0.0606520   0.2256768   0.0202958  )
        90           H   tau(  90) = (   0.7011326   0.5698921   0.4637207  )
        91           H   tau(  91) = (   0.4629616   0.4622631   0.9478492  )
        92           H   tau(  92) = (  -0.1775190   0.1180478   0.5044242  )
        93           H   tau(  93) = (  -0.3954683   0.2001271   0.8503505  )
        94           H   tau(  94) = (   0.6808695   0.5443841   0.6018204  )
        95           H   tau(  95) = (   0.9190819   0.4878128   0.1177945  )
        96           H   tau(  96) = (  -0.1572559   0.1435558   0.3663246  )
        97           H   tau(  97) = (  -0.2982527   0.2677496   0.9249030  )
        98           H   tau(  98) = (   0.5836421   0.6119489   0.5272403  )
        99           H   tau(  99) = (   0.8218664   0.4201903   0.0432419  )
       100           H   tau( 100) = (  -0.0600285   0.0759910   0.4409047  )
       101           H   tau( 101) = (   0.3123288   0.2121020   0.1017649  )
       102           H   tau( 102) = (   0.4494617   0.5562451   0.3822607  )
       103           H   tau( 103) = (   0.2112848   0.4758379   0.8663801  )
       104           H   tau( 104) = (   0.0741519   0.1316948   0.5858843  )
       105           H   tau( 105) = (   0.2716065   0.1696460   0.2313046  )
       106           H   tau( 106) = (   0.4902131   0.5137811   0.2527311  )
       107           H   tau( 107) = (   0.2520071   0.5182939   0.7368404  )
       108           H   tau( 108) = (   0.0334005   0.1741588   0.7154139  )
       109           H   tau( 109) = (   0.1864036   0.2473215   0.1518238  )
       110           H   tau( 110) = (   0.5753908   0.5914802   0.3322120  )
       111           H   tau( 111) = (   0.3372100   0.4406184   0.8163212  )
       112           H   tau( 112) = (  -0.0517772   0.0964597   0.6359330  )
       113           H   tau( 113) = (   0.1848146   0.5962336   0.2563181  )
       114           H   tau( 114) = (   0.5770671   0.2524258   0.2277868  )
       115           H   tau( 115) = (   0.3387990   0.0917063   0.7118268  )
       116           H   tau( 116) = (  -0.0534535   0.4355141   0.7403582  )
       117           H   tau( 117) = (   0.2738149   0.6972632   0.2964526  )
       118           H   tau( 118) = (   0.4880218   0.3534051   0.1876285  )
       119           H   tau( 119) = (   0.2497987  -0.0093233   0.6716924  )
       120           H   tau( 120) = (   0.0355918   0.3345348   0.7805165  )
       121           H   tau( 121) = (   0.3227856   0.5725674   0.2535517  )
       122           H   tau( 122) = (   0.4391014   0.2286946   0.2305473  )
       123           H   tau( 123) = (   0.2008280   0.1153725   0.7145932  )
       124           H   tau( 124) = (   0.0845122   0.4592453   0.7375977  )
       125           H   tau( 125) = (   0.0799578   0.5901780   0.0462897  )
       126           H   tau( 126) = (   0.6819072   0.2463017   0.4377634  )
       127           H   tau( 127) = (   0.4436559   0.0977619   0.9218553  )
       128           H   tau( 128) = (  -0.1582936   0.4416382   0.5303816  )
       129           H   tau( 129) = (   0.1324183   0.4923276   0.1339762  )
       130           H   tau( 130) = (   0.6293836   0.1484239   0.3501503  )
       131           H   tau( 131) = (   0.3911953   0.1956123   0.8341688  )
       132           H   tau( 132) = (  -0.1057700   0.5395160   0.6179947  )
       133           H   tau( 133) = (   0.1307869   0.4710252  -0.0063754  )
       134           H   tau( 134) = (   0.6310412   0.1271952   0.4905122  )
       135           H   tau( 135) = (   0.3928267   0.2169147   0.9745204  )
       136           H   tau( 136) = (  -0.1074276   0.5607447   0.4776328  )

     number of k points=     8
                       cart. coord. in units 2pi/alat
        k(    1) = (   0.0000000   0.0000000   0.0000000), wk =   0.2500000
        k(    2) = (   0.0000000   0.0000000  -0.5164516), wk =   0.2500000
        k(    3) = (   0.0000000  -0.7268077   0.0000000), wk =   0.2500000
        k(    4) = (   0.0000000  -0.7268077  -0.5164516), wk =   0.2500000
        k(    5) = (  -0.5000000   0.0000000  -0.2460305), wk =   0.2500000
        k(    6) = (  -0.5000000   0.0000000  -0.7624821), wk =   0.2500000
        k(    7) = (  -0.5000000  -0.7268077  -0.2460305), wk =   0.2500000
        k(    8) = (  -0.5000000  -0.7268077  -0.7624821), wk =   0.2500000

     Dense  grid:  1227663 G-vectors     FFT dimensions: ( 160, 108, 180)

     Estimated max dynamical RAM per process >    1780.65MB

     Estimated total allocated dynamical RAM >   14245.19MB

     Check: negative/imaginary core charge=   -0.000002    0.000000

     Initial potential from superposition of free atoms

     starting charge  471.99755, renormalised to  472.00000
     Starting wfc are  400 randomized atomic wfcs
     Checking if some PAW data can be deallocated... 

     total cpu time spent up to now is      110.0 secs

     per-process dynamical memory:  1163.9 Mb

     Self-consistent Calculation

     iteration #  1     ecut=   100.00 Ry     beta=0.50
     Davidson diagonalization with overlap
     ethr =  1.00E-02,  avg # of iterations =  3.6

     total cpu time spent up to now is      437.0 secs

     total energy              =   -2480.22549139 Ry
     Harris-Foulkes estimate   =   -2488.55207808 Ry
     estimated scf accuracy    <      15.11499219 Ry

     iteration #  2     ecut=   100.00 Ry     beta=0.50
     Davidson diagonalization with overlap
     ethr =  3.20E-03,  avg # of iterations =  3.0

     total cpu time spent up to now is      647.0 secs

     total energy              =   -2482.05603841 Ry
     Harris-Foulkes estimate   =   -2484.06435278 Ry
     estimated scf accuracy    <       4.13246788 Ry

     iteration #  3     ecut=   100.00 Ry     beta=0.50
     Davidson diagonalization with overlap
     ethr =  8.76E-04,  avg # of iterations =  6.2

     total cpu time spent up to now is      933.7 secs

     total energy              =   -2483.46164813 Ry
     Harris-Foulkes estimate   =   -2484.04611371 Ry
     estimated scf accuracy    <       1.50843309 Ry

     iteration #  4     ecut=   100.00 Ry     beta=0.50
     Davidson diagonalization with overlap
     ethr =  3.20E-04,  avg # of iterations =  2.0

     total cpu time spent up to now is     1103.5 secs

     total energy              =   -2483.53323127 Ry
     Harris-Foulkes estimate   =   -2483.65801386 Ry
     estimated scf accuracy    <       0.28253999 Ry

     iteration #  5     ecut=   100.00 Ry     beta=0.50
     Davidson diagonalization with overlap
     ethr =  5.99E-05,  avg # of iterations =  7.1

     total cpu time spent up to now is     1429.0 secs

     total energy              =   -2483.66491868 Ry
     Harris-Foulkes estimate   =   -2483.72121276 Ry
     estimated scf accuracy    <       0.18676146 Ry

     iteration #  6     ecut=   100.00 Ry     beta=0.50
     Davidson diagonalization with overlap
     ethr =  3.96E-05,  avg # of iterations =  2.0

     total cpu time spent up to now is     1606.3 secs

     total energy              =   -2483.67675391 Ry
     Harris-Foulkes estimate   =   -2483.69703491 Ry
     estimated scf accuracy    <       0.06289071 Ry

     iteration #  7     ecut=   100.00 Ry     beta=0.50
     Davidson diagonalization with overlap
     ethr =  1.33E-05,  avg # of iterations =  2.4

     total cpu time spent up to now is     1777.0 secs

     total energy              =   -2483.67379989 Ry
     Harris-Foulkes estimate   =   -2483.68302656 Ry
     estimated scf accuracy    <       0.01897319 Ry

     iteration #  8     ecut=   100.00 Ry     beta=0.50
     Davidson diagonalization with overlap
     ethr =  4.02E-06,  avg # of iterations =  8.8

     total cpu time spent up to now is     2107.4 secs

     total energy              =   -2483.68341986 Ry
     Harris-Foulkes estimate   =   -2483.68440732 Ry
     estimated scf accuracy    <       0.00331919 Ry

     iteration #  9     ecut=   100.00 Ry     beta=0.50
     Davidson diagonalization with overlap
     ethr =  7.03E-07,  avg # of iterations =  1.9

     total cpu time spent up to now is     2274.8 secs

     total energy              =   -2483.68289584 Ry
     Harris-Foulkes estimate   =   -2483.68363127 Ry
     estimated scf accuracy    <       0.00160696 Ry

     iteration # 10     ecut=   100.00 Ry     beta=0.50
     Davidson diagonalization with overlap
     ethr =  3.40E-07,  avg # of iterations =  3.0

     total cpu time spent up to now is     2506.4 secs

     total energy              =   -2483.68346008 Ry
     Harris-Foulkes estimate   =   -2483.68351485 Ry
     estimated scf accuracy    <       0.00023822 Ry

     iteration # 11     ecut=   100.00 Ry     beta=0.50
     Davidson diagonalization with overlap
     ethr =  5.05E-08,  avg # of iterations =  3.0

     total cpu time spent up to now is     2687.4 secs

     total energy              =   -2483.68346560 Ry
     Harris-Foulkes estimate   =   -2483.68350269 Ry
     estimated scf accuracy    <       0.00009310 Ry

     iteration # 12     ecut=   100.00 Ry     beta=0.50
     Davidson diagonalization with overlap
     ethr =  1.97E-08,  avg # of iterations =  3.4

     total cpu time spent up to now is     2894.4 secs

     total energy              =   -2483.68347811 Ry
     Harris-Foulkes estimate   =   -2483.68348506 Ry
     estimated scf accuracy    <       0.00002639 Ry

     iteration # 13     ecut=   100.00 Ry     beta=0.50
     Davidson diagonalization with overlap
     ethr =  5.59E-09,  avg # of iterations =  2.9

     total cpu time spent up to now is     3071.1 secs

     total energy              =   -2483.68347761 Ry
     Harris-Foulkes estimate   =   -2483.68348146 Ry
     estimated scf accuracy    <       0.00001096 Ry

     iteration # 14     ecut=   100.00 Ry     beta=0.50
     Davidson diagonalization with overlap
     ethr =  2.32E-09,  avg # of iterations =  3.5

     total cpu time spent up to now is     3307.2 secs

     total energy              =   -2483.68348060 Ry
     Harris-Foulkes estimate   =   -2483.68348124 Ry
     estimated scf accuracy    <       0.00000174 Ry

     iteration # 15     ecut=   100.00 Ry     beta=0.50
     Davidson diagonalization with overlap
     ethr =  3.69E-10,  avg # of iterations =  4.2

     total cpu time spent up to now is     3526.3 secs

     total energy              =   -2483.68348101 Ry
     Harris-Foulkes estimate   =   -2483.68348124 Ry
     estimated scf accuracy    <       0.00000064 Ry

     iteration # 16     ecut=   100.00 Ry     beta=0.50
     Davidson diagonalization with overlap
     ethr =  1.35E-10,  avg # of iterations =  3.2

     total cpu time spent up to now is     3717.9 secs

     total energy              =   -2483.68348107 Ry
     Harris-Foulkes estimate   =   -2483.68348114 Ry
     estimated scf accuracy    <       0.00000017 Ry

     iteration # 17     ecut=   100.00 Ry     beta=0.50
     Davidson diagonalization with overlap
     ethr =  3.60E-11,  avg # of iterations =  4.0

     total cpu time spent up to now is     3957.5 secs

     total energy              =   -2483.68348112 Ry
     Harris-Foulkes estimate   =   -2483.68348113 Ry
     estimated scf accuracy    <       0.00000005 Ry

     iteration # 18     ecut=   100.00 Ry     beta=0.50
     Davidson diagonalization with overlap
     ethr =  1.03E-11,  avg # of iterations =  3.4

     total cpu time spent up to now is     4140.9 secs

     total energy              =   -2483.68348112 Ry
     Harris-Foulkes estimate   =   -2483.68348113 Ry
     estimated scf accuracy    <       0.00000002 Ry

     iteration # 19     ecut=   100.00 Ry     beta=0.50
     Davidson diagonalization with overlap
     ethr =  3.37E-12,  avg # of iterations =  4.0

     total cpu time spent up to now is     4431.4 secs

     End of self-consistent calculation

          k = 0.0000 0.0000 0.0000 (153421 PWs)   bands (ev):

   -24.6747 -24.6718 -24.6692 -24.6662 -24.5749 -24.5642 -24.5574 -24.5472
   -24.4280 -24.4174 -24.4142 -24.4043 -20.3366 -20.3339 -20.3162 -20.3135
   -20.1716 -20.1680 -20.1523 -20.1483 -20.1373 -20.1359 -20.1325 -20.1305
   -20.0089 -20.0063 -20.0019 -19.9998 -16.2445 -16.2295 -16.2285 -16.2213
   -15.9332 -15.9256 -15.9248 -15.9133 -14.6542 -14.6537 -14.6412 -14.6268
   -13.9809 -13.9766 -13.9425 -13.9416 -12.6796 -12.6639 -12.6634 -12.6367
   -11.7319 -11.7090 -11.7065 -11.6870 -11.0985 -11.0942 -11.0813 -11.0402
   -10.8245 -10.7793 -10.7584 -10.7041 -10.5946 -10.5942 -10.5429 -10.5309
    -9.6999  -9.6949  -9.6863  -9.6701  -9.3473  -9.3211  -9.3031  -9.2836
    -8.3621  -8.3587  -8.2649  -8.2557  -8.1059  -8.1027  -8.0045  -7.9541
    -7.7356  -7.7002  -7.6514  -7.6482  -7.3665  -7.3593  -7.3451  -7.3358
    -7.3169  -7.2752  -7.1664  -7.0954  -6.9009  -6.8375  -6.8153  -6.7557
    -6.7075  -6.6980  -6.6714  -6.6417  -6.5500  -6.5072  -6.4494  -6.4435
    -6.3841  -6.3617  -6.3531  -6.3267  -6.3030  -6.2695  -6.2223  -6.1492
    -6.0869  -6.0518  -6.0388  -5.9324  -5.6896  -5.6259  -5.6170  -5.5905
    -5.4275  -5.4189  -5.4167  -5.3386  -4.8572  -4.8533  -4.8474  -4.7555
    -4.5921  -4.5735  -4.4904  -4.4630  -4.2098  -4.2021  -4.0299  -3.9909
    -3.8399  -3.8059  -3.8022  -3.8021  -3.7628  -3.7525  -3.7480  -3.7364
    -3.7071  -3.7010  -3.5849  -3.5062  -3.4706  -3.4583  -3.4163  -3.3979
    -3.3915  -3.3113  -3.1911  -3.1878  -3.1808  -3.1625  -3.1252  -3.0673
    -3.0239  -3.0145  -2.9553  -2.9548  -2.9036  -2.8326  -2.7794  -2.7665
    -2.7232  -2.6753  -2.6553  -2.6003  -2.6000  -2.5724  -2.4866  -2.3995
    -2.3784  -2.3636  -2.2643  -2.2416  -2.2123  -2.2048  -2.1508  -2.1408
    -2.0584  -2.0439  -2.0205  -1.9502  -1.7099  -1.6706  -1.6249  -1.6125
    -1.5171  -1.4047  -1.3999  -1.3998  -1.3678  -1.3501  -1.3326  -1.2423
    -1.2029  -1.1881  -1.1104  -1.0810  -0.9560  -0.9125  -0.9040  -0.8335
    -0.8009  -0.7677  -0.7531  -0.6953  -0.6750  -0.6643  -0.6214  -0.6126
    -0.5967  -0.5921  -0.4041  -0.3882  -0.3831  -0.3704  -0.3575  -0.3280
    -0.3007  -0.2968  -0.2873  -0.2863  -0.0130   0.0087   0.0508   0.1563
     0.2151   0.2491   0.3230   0.3468   3.1164   3.1456   3.2110   3.2426
     3.3224   3.3254   3.3952   3.4140   3.4421   3.4426   3.4857   3.4979
     3.5534   3.5996   3.7361   3.8148   5.1147   5.1207   5.1293   5.1334
     6.0326   6.0753   6.0919   6.1376   6.7216   6.7278   6.8167   6.8585
     6.9771   7.4315   7.4879   7.6452   7.8223   7.8521   7.8837   7.9737
     8.0122   8.0500   8.0930   8.1510   8.2205   8.3077   8.3298   8.3369
     8.3701   8.5738   8.5939

          k = 0.0000 0.0000-0.5165 (153442 PWs)   bands (ev):

   -24.6747 -24.6718 -24.6692 -24.6662 -24.5715 -24.5706 -24.5510 -24.5506
   -24.4252 -24.4236 -24.4087 -24.4065 -20.3366 -20.3340 -20.3161 -20.3135
   -20.1715 -20.1682 -20.1507 -20.1498 -20.1372 -20.1363 -20.1317 -20.1310
   -20.0089 -20.0063 -20.0019 -19.9998 -16.2386 -16.2379 -16.2240 -16.2234
   -15.9292 -15.9282 -15.9201 -15.9192 -14.6543 -14.6539 -14.6339 -14.6336
   -13.9808 -13.9800 -13.9408 -13.9401 -12.6792 -12.6791 -12.6425 -12.6424
   -11.7224 -11.7216 -11.6959 -11.6952 -11.0997 -11.0995 -11.0584 -11.0583
   -10.8127 -10.8126 -10.7232 -10.7230 -10.5878 -10.5878 -10.5388 -10.5387
    -9.7014  -9.7013  -9.6750  -9.6748  -9.3384  -9.3383  -9.2912  -9.2911
    -8.3586  -8.3586  -8.2602  -8.2601  -8.1059  -8.1057  -7.9781  -7.9776
    -7.7189  -7.7186  -7.6525  -7.6524  -7.3648  -7.3648  -7.3322  -7.3319
    -7.2979  -7.2978  -7.1333  -7.1330  -6.8815  -6.8814  -6.7739  -6.7733
    -6.7047  -6.7046  -6.6543  -6.6540  -6.5230  -6.5226  -6.4508  -6.4506
    -6.3774  -6.3772  -6.3311  -6.3310  -6.3140  -6.3139  -6.1643  -6.1641
    -6.0913  -6.0910  -5.9629  -5.9626  -5.6576  -5.6575  -5.6015  -5.6013
    -5.4185  -5.4181  -5.3858  -5.3852  -4.8613  -4.8612  -4.8003  -4.8000
    -4.5396  -4.5396  -4.5152  -4.5151  -4.2110  -4.2105  -4.0083  -4.0076
    -3.8421  -3.8421  -3.8060  -3.8057  -3.7805  -3.7804  -3.7363  -3.7363
    -3.6414  -3.6410  -3.5644  -3.5637  -3.4750  -3.4744  -3.4029  -3.4023
    -3.3544  -3.3538  -3.1950  -3.1948  -3.1739  -3.1737  -3.0696  -3.0694
    -3.0263  -3.0263  -2.9917  -2.9914  -2.8449  -2.8448  -2.8063  -2.8061
    -2.6889  -2.6888  -2.6204  -2.6203  -2.4737  -2.4737  -2.4349  -2.4345
    -2.4109  -2.4108  -2.3193  -2.3192  -2.2481  -2.2481  -2.1587  -2.1586
    -2.0451  -2.0448  -1.9066  -1.9063  -1.6979  -1.6978  -1.6272  -1.6271
    -1.4939  -1.4931  -1.4035  -1.4034  -1.3432  -1.3430  -1.2847  -1.2845
    -1.1930  -1.1928  -1.0937  -1.0936  -0.9365  -0.9362  -0.8694  -0.8693
    -0.7874  -0.7872  -0.7177  -0.7174  -0.6561  -0.6559  -0.6248  -0.6242
    -0.6009  -0.6006  -0.3967  -0.3962  -0.3771  -0.3771  -0.3374  -0.3364
    -0.2999  -0.2998  -0.2882  -0.2882   0.0168   0.0171   0.0836   0.0838
     0.2648   0.2649   0.3020   0.3021   3.1248   3.1254   3.2243   3.2249
     3.3444   3.3452   3.4070   3.4075   3.4294   3.4296   3.4951   3.4951
     3.5682   3.5686   3.7798   3.7808   5.1148   5.1151   5.1399   5.1401
     6.0526   6.0526   6.1085   6.1087   6.7198   6.7200   6.8304   6.8307
     7.1580   7.1583   7.5994   7.5996   7.8017   7.8021   7.8973   7.8973
     8.0558   8.0564   8.2450   8.2451   8.2599   8.2600   8.3561   8.3561
     8.4197   8.4200   8.5956

          k = 0.0000-0.7268 0.0000 (153452 PWs)   bands (ev):

   -24.6747 -24.6717 -24.6692 -24.6662 -24.5700 -24.5689 -24.5526 -24.5521
   -24.4238 -24.4217 -24.4107 -24.4080 -20.3365 -20.3340 -20.3162 -20.3135
   -20.1716 -20.1683 -20.1505 -20.1495 -20.1372 -20.1363 -20.1318 -20.1312
   -20.0089 -20.0063 -20.0018 -19.9997 -16.2392 -16.2384 -16.2256 -16.2249
   -15.9330 -15.9324 -15.9174 -15.9169 -14.6481 -14.6477 -14.6268 -14.6264
   -13.9758 -13.9750 -13.9389 -13.9381 -12.6836 -12.6835 -12.6625 -12.6625
   -11.7419 -11.7411 -11.6964 -11.6956 -11.1219 -11.1216 -11.0898 -11.0896
   -10.7432 -10.7429 -10.6592 -10.6588 -10.6110 -10.6105 -10.5976 -10.5972
    -9.7025  -9.7024  -9.6697  -9.6696  -9.3116  -9.3115  -9.2508  -9.2508
    -8.3276  -8.3269  -8.3113  -8.3104  -8.0611  -8.0610  -7.9504  -7.9501
    -7.7526  -7.7522  -7.6614  -7.6614  -7.3768  -7.3767  -7.3599  -7.3594
    -7.2259  -7.2253  -7.2008  -7.1999  -6.8916  -6.8914  -6.7974  -6.7972
    -6.6839  -6.6838  -6.6595  -6.6593  -6.5174  -6.5171  -6.4810  -6.4807
    -6.3537  -6.3536  -6.3133  -6.3130  -6.2414  -6.2412  -6.2183  -6.2182
    -6.0870  -6.0864  -6.0014  -6.0007  -5.6256  -5.6255  -5.5789  -5.5787
    -5.4877  -5.4872  -5.4325  -5.4316  -4.8783  -4.8782  -4.8028  -4.8028
    -4.5568  -4.5567  -4.5336  -4.5335  -4.1901  -4.1893  -4.0147  -4.0143
    -3.8252  -3.8251  -3.8063  -3.8062  -3.7328  -3.7325  -3.6816  -3.6816
    -3.6172  -3.6168  -3.5253  -3.5252  -3.4978  -3.4977  -3.3942  -3.3939
    -3.3582  -3.3580  -3.2659  -3.2658  -3.1487  -3.1486  -3.1031  -3.1024
    -3.0008  -3.0005  -2.9323  -2.9321  -2.8964  -2.8964  -2.8556  -2.8555
    -2.7569  -2.7568  -2.6233  -2.6232  -2.5217  -2.5214  -2.4192  -2.4187
    -2.3232  -2.3230  -2.2763  -2.2760  -2.1674  -2.1673  -2.1328  -2.1325
    -2.0728  -2.0723  -1.9715  -1.9709  -1.6674  -1.6667  -1.6610  -1.6607
    -1.4683  -1.4675  -1.3941  -1.3941  -1.3511  -1.3509  -1.3104  -1.3102
    -1.2128  -1.2125  -1.1096  -1.1093  -0.9315  -0.9313  -0.8655  -0.8653
    -0.7664  -0.7657  -0.7456  -0.7452  -0.6409  -0.6408  -0.5933  -0.5924
    -0.5693  -0.5688  -0.4002  -0.3996  -0.3684  -0.3677  -0.3598  -0.3582
    -0.3015  -0.3013  -0.2950  -0.2949  -0.0111  -0.0108   0.0943   0.0944
     0.2380   0.2380   0.3422   0.3423   3.1348   3.1355   3.2193   3.2200
     3.3191   3.3200   3.3979   3.3979   3.4624   3.4627   3.5096   3.5099
     3.5728   3.5735   3.7725   3.7737   5.0961   5.0963   5.1225   5.1227
     6.0627   6.0627   6.1050   6.1052   6.7266   6.7266   6.7810   6.7812
     7.2570   7.2572   7.5346   7.5348   7.6318   7.6318   7.8502   7.8503
     8.0237   8.0238   8.1970   8.1974   8.2615   8.2619   8.4251   8.4255
     8.5305   8.5309   8.6009

          k = 0.0000-0.7268-0.5165 (153488 PWs)   bands (ev):

   -24.6747 -24.6717 -24.6692 -24.6662 -24.5700 -24.5689 -24.5526 -24.5521
   -24.4238 -24.4217 -24.4107 -24.4080 -20.3365 -20.3340 -20.3161 -20.3135
   -20.1716 -20.1683 -20.1506 -20.1495 -20.1371 -20.1361 -20.1319 -20.1313
   -20.0089 -20.0063 -20.0018 -19.9997 -16.2381 -16.2373 -16.2269 -16.2261
   -15.9297 -15.9288 -15.9209 -15.9200 -14.6481 -14.6477 -14.6269 -14.6265
   -13.9758 -13.9750 -13.9388 -13.9380 -12.6833 -12.6832 -12.6628 -12.6627
   -11.7397 -11.7389 -11.6986 -11.6977 -11.1181 -11.1176 -11.0947 -11.0944
   -10.7433 -10.7431 -10.6624 -10.6619 -10.6079 -10.6073 -10.5969 -10.5962
    -9.6929  -9.6926  -9.6785  -9.6781  -9.3116  -9.3115  -9.2526  -9.2525
    -8.3256  -8.3248  -8.3130  -8.3121  -8.0577  -8.0577  -7.9534  -7.9531
    -7.7455  -7.7451  -7.6694  -7.6693  -7.3813  -7.3811  -7.3554  -7.3549
    -7.2324  -7.2317  -7.1926  -7.1917  -6.8893  -6.8890  -6.8032  -6.8028
    -6.6840  -6.6837  -6.6619  -6.6616  -6.5129  -6.5125  -6.4809  -6.4805
    -6.3532  -6.3530  -6.3139  -6.3137  -6.2344  -6.2339  -6.2309  -6.2306
    -6.0748  -6.0741  -6.0059  -6.0052  -5.6230  -5.6229  -5.5821  -5.5818
    -5.4861  -5.4855  -5.4432  -5.4423  -4.8361  -4.8359  -4.8173  -4.8171
    -4.5773  -4.5773  -4.5302  -4.5299  -4.2000  -4.1992  -4.0024  -4.0018
    -3.8676  -3.8675  -3.7980  -3.7976  -3.6976  -3.6973  -3.6972  -3.6967
    -3.6106  -3.6102  -3.5710  -3.5702  -3.4554  -3.4550  -3.4020  -3.4014
    -3.3537  -3.3534  -3.2502  -3.2500  -3.1869  -3.1864  -3.0586  -3.0583
    -3.0252  -3.0250  -2.9387  -2.9386  -2.8708  -2.8701  -2.8290  -2.8288
    -2.7494  -2.7491  -2.6611  -2.6611  -2.5089  -2.5086  -2.4279  -2.4277
    -2.3083  -2.3080  -2.2973  -2.2971  -2.1823  -2.1818  -2.1719  -2.1712
    -2.0161  -2.0151  -1.9872  -1.9864  -1.6574  -1.6570  -1.6542  -1.6536
    -1.4782  -1.4773  -1.3821  -1.3817  -1.3787  -1.3782  -1.2957  -1.2955
    -1.2159  -1.2155  -1.1125  -1.1122  -0.9294  -0.9292  -0.8422  -0.8421
    -0.7918  -0.7910  -0.7399  -0.7393  -0.6388  -0.6386  -0.5867  -0.5857
    -0.5679  -0.5674  -0.4044  -0.4036  -0.3726  -0.3716  -0.3564  -0.3548
    -0.2989  -0.2987  -0.2967  -0.2960   0.0150   0.0154   0.0598   0.0599
     0.2805   0.2808   0.3001   0.3004   3.1391   3.1398   3.2184   3.2191
     3.3402   3.3412   3.3875   3.3879   3.4566   3.4574   3.4922   3.4927
     3.5844   3.5850   3.7740   3.7752   5.1056   5.1059   5.1224   5.1226
     6.0566   6.0568   6.0946   6.0951   6.7232   6.7235   6.7843   6.7847
     7.3128   7.3133   7.5072   7.5075   7.6061   7.6066   7.7650   7.7653
     7.9905   7.9908   8.2424   8.2425   8.2852   8.2855   8.4612   8.4616
     8.5559   8.5568   8.5872

          k =-0.5000 0.0000-0.2460 (153552 PWs)   bands (ev):

   -24.6745 -24.6715 -24.6695 -24.6665 -24.5749 -24.5643 -24.5574 -24.5472
   -24.4279 -24.4174 -24.4142 -24.4043 -20.3366 -20.3339 -20.3162 -20.3135
   -20.1718 -20.1682 -20.1517 -20.1481 -20.1374 -20.1361 -20.1325 -20.1304
   -20.0091 -20.0066 -20.0018 -19.9995 -16.2515 -16.2305 -16.2220 -16.2193
   -15.9329 -15.9258 -15.9205 -15.9180 -14.6626 -14.6508 -14.6327 -14.6297
   -13.9847 -13.9715 -13.9525 -13.9330 -12.6826 -12.6679 -12.6506 -12.6423
   -11.7275 -11.7202 -11.7139 -11.6746 -11.1140 -11.0820 -11.0736 -11.0413
   -10.8235 -10.7828 -10.7701 -10.6945 -10.6012 -10.5736 -10.5445 -10.5343
    -9.7259  -9.7232  -9.6803  -9.6310  -9.3473  -9.3309  -9.3015  -9.2713
    -8.3675  -8.3573  -8.2701  -8.2579  -8.0853  -8.0384  -8.0237  -8.0220
    -7.7347  -7.7329  -7.6625  -7.6012  -7.3806  -7.3759  -7.3407  -7.3221
    -7.2782  -7.2647  -7.1550  -7.1217  -6.8873  -6.8395  -6.8241  -6.7600
    -6.7158  -6.7099  -6.7061  -6.6359  -6.5326  -6.4816  -6.4696  -6.4153
    -6.3971  -6.3906  -6.3493  -6.3350  -6.2711  -6.2462  -6.2345  -6.1459
    -6.0794  -6.0673  -6.0381  -5.9390  -5.6857  -5.6576  -5.5985  -5.5736
    -5.4414  -5.4096  -5.4068  -5.3480  -4.8674  -4.8519  -4.8412  -4.7644
    -4.5583  -4.5258  -4.5204  -4.5024  -4.2456  -4.1200  -4.0755  -3.9534
    -3.8842  -3.8750  -3.8127  -3.8073  -3.7874  -3.7490  -3.7256  -3.7217
    -3.6814  -3.6165  -3.5789  -3.5417  -3.4872  -3.4560  -3.4171  -3.3694
    -3.3585  -3.3320  -3.3270  -3.1725  -3.1427  -3.1422  -3.0795  -3.0681
    -3.0334  -3.0244  -2.9943  -2.9348  -2.9263  -2.8037  -2.8022  -2.7532
    -2.7368  -2.6728  -2.6517  -2.6151  -2.5078  -2.4758  -2.4489  -2.4053
    -2.4009  -2.3970  -2.3762  -2.3485  -2.2111  -2.1842  -2.1694  -2.1529
    -2.0723  -2.0296  -1.9299  -1.8987  -1.7246  -1.6632  -1.6364  -1.6183
    -1.5241  -1.4109  -1.4040  -1.4029  -1.3591  -1.3225  -1.3193  -1.2919
    -1.1968  -1.1702  -1.1075  -1.0750  -0.9659  -0.9531  -0.8480  -0.8292
    -0.8005  -0.7877  -0.7608  -0.7499  -0.7165  -0.6653  -0.6219  -0.6150
    -0.4818  -0.4797  -0.4730  -0.4440  -0.4044  -0.3609  -0.3470  -0.3322
    -0.3057  -0.2860  -0.2857  -0.2785  -0.0433   0.0310   0.0471   0.1383
     0.2130   0.2632   0.3289   0.3423   3.1276   3.1721   3.1742   3.2062
     3.3364   3.3375   3.3869   3.4125   3.4346   3.4593   3.4593   3.5255
     3.5652   3.6311   3.7374   3.7847   5.1134   5.1255   5.1312   5.1344
     6.0387   6.0545   6.0743   6.1595   6.7163   6.7393   6.7700   6.7963
     7.1625   7.3772   7.4485   7.4717   7.7237   7.8073   7.8556   7.8939
     8.0601   8.1646   8.1655   8.2170   8.3023   8.3038   8.4114   8.4901
     8.5125   8.5341   8.5780

          k =-0.5000 0.0000-0.7625 (153396 PWs)   bands (ev):

   -24.6745 -24.6715 -24.6695 -24.6665 -24.5715 -24.5706 -24.5510 -24.5506
   -24.4252 -24.4236 -24.4087 -24.4065 -20.3365 -20.3339 -20.3162 -20.3136
   -20.1717 -20.1684 -20.1504 -20.1494 -20.1373 -20.1363 -20.1317 -20.1310
   -20.0091 -20.0066 -20.0017 -19.9996 -16.2420 -16.2411 -16.2208 -16.2200
   -15.9267 -15.9259 -15.9224 -15.9216 -14.6575 -14.6570 -14.6309 -14.6305
   -13.9785 -13.9777 -13.9431 -13.9424 -12.6727 -12.6726 -12.6493 -12.6493
   -11.7212 -11.7203 -11.6976 -11.6968 -11.1054 -11.1052 -11.0492 -11.0489
   -10.8114 -10.8113 -10.7234 -10.7232 -10.5927 -10.5926 -10.5372 -10.5371
    -9.7247  -9.7244  -9.6540  -9.6536  -9.3415  -9.3414  -9.2855  -9.2854
    -8.3643  -8.3643  -8.2621  -8.2618  -8.0682  -8.0679  -8.0163  -8.0160
    -7.7358  -7.7353  -7.6282  -7.6282  -7.3748  -7.3745  -7.3324  -7.3323
    -7.2811  -7.2810  -7.1340  -7.1338  -6.8732  -6.8731  -6.7783  -6.7782
    -6.7198  -6.7197  -6.6717  -6.6715  -6.5103  -6.5099  -6.4468  -6.4465
    -6.3891  -6.3890  -6.3065  -6.3065  -6.2905  -6.2902  -6.1868  -6.1867
    -6.0883  -6.0880  -5.9672  -5.9668  -5.6867  -5.6866  -5.5789  -5.5788
    -5.4342  -5.4338  -5.3736  -5.3732  -4.8377  -4.8375  -4.8251  -4.8249
    -4.5640  -4.5639  -4.4915  -4.4914  -4.1911  -4.1906  -4.0219  -4.0214
    -3.8716  -3.8714  -3.7764  -3.7762  -3.7657  -3.7655  -3.7024  -3.7021
    -3.6788  -3.6785  -3.6008  -3.6007  -3.4374  -3.4369  -3.4077  -3.4071
    -3.3181  -3.3179  -3.2214  -3.2214  -3.1699  -3.1696  -3.0780  -3.0779
    -3.0614  -3.0613  -2.9668  -2.9665  -2.8402  -2.8401  -2.8026  -2.8024
    -2.6935  -2.6933  -2.6298  -2.6296  -2.5300  -2.5299  -2.5052  -2.5051
    -2.3515  -2.3513  -2.2925  -2.2923  -2.2148  -2.2148  -2.0992  -2.0988
    -2.0481  -2.0480  -1.9702  -1.9698  -1.6934  -1.6934  -1.6233  -1.6233
    -1.4761  -1.4753  -1.3943  -1.3942  -1.3600  -1.3596  -1.2843  -1.2842
    -1.1861  -1.1860  -1.0880  -1.0878  -0.9552  -0.9550  -0.8561  -0.8559
    -0.7852  -0.7851  -0.7472  -0.7470  -0.6932  -0.6928  -0.6111  -0.6106
    -0.4827  -0.4826  -0.4633  -0.4625  -0.3813  -0.3809  -0.3409  -0.3409
    -0.2967  -0.2959  -0.2797  -0.2796  -0.0031  -0.0030   0.0799   0.0803
     0.2670   0.2671   0.3050   0.3053   3.1632   3.1641   3.1816   3.1817
     3.3312   3.3322   3.4003   3.4003   3.4479   3.4483   3.4886   3.4890
     3.5974   3.5979   3.7684   3.7695   5.1237   5.1239   5.1320   5.1320
     6.0577   6.0577   6.1040   6.1043   6.6692   6.6695   6.8198   6.8199
     7.3602   7.3604   7.4181   7.4187   7.7477   7.7479   7.9025   7.9029
     7.9972   7.9974   8.2157   8.2160   8.2874   8.2877   8.4668   8.4669
     8.5962   8.5964   8.6319

          k =-0.5000-0.7268-0.2460 (153468 PWs)   bands (ev):

   -24.6744 -24.6715 -24.6695 -24.6665 -24.5700 -24.5689 -24.5526 -24.5521
   -24.4238 -24.4216 -24.4107 -24.4080 -20.3365 -20.3340 -20.3162 -20.3135
   -20.1719 -20.1686 -20.1501 -20.1491 -20.1374 -20.1364 -20.1318 -20.1311
   -20.0091 -20.0066 -20.0016 -19.9995 -16.2434 -16.2425 -16.2214 -16.2207
   -15.9318 -15.9314 -15.9185 -15.9181 -14.6507 -14.6503 -14.6243 -14.6239
   -13.9752 -13.9744 -13.9395 -13.9387 -12.6790 -12.6789 -12.6671 -12.6671
   -11.7433 -11.7426 -11.6958 -11.6950 -11.1229 -11.1226 -11.0872 -11.0868
   -10.7429 -10.7426 -10.6625 -10.6621 -10.6099 -10.6096 -10.5946 -10.5941
    -9.7262  -9.7259  -9.6488  -9.6485  -9.3150  -9.3149  -9.2467  -9.2467
    -8.3313  -8.3308  -8.3113  -8.3105  -8.0231  -8.0231  -7.9869  -7.9868
    -7.7639  -7.7634  -7.6486  -7.6486  -7.3932  -7.3930  -7.3422  -7.3420
    -7.2224  -7.2221  -7.1990  -7.1988  -6.8704  -6.8703  -6.8251  -6.8250
    -6.7172  -6.7172  -6.6440  -6.6439  -6.5105  -6.5101  -6.4594  -6.4590
    -6.3539  -6.3537  -6.3249  -6.3249  -6.2284  -6.2281  -6.2230  -6.2226
    -6.0804  -6.0798  -6.0065  -6.0059  -5.6512  -5.6512  -5.5561  -5.5560
    -5.4908  -5.4900  -5.4394  -5.4386  -4.8711  -4.8710  -4.8022  -4.8019
    -4.5552  -4.5552  -4.5376  -4.5376  -4.1786  -4.1779  -4.0151  -4.0148
    -3.8803  -3.8799  -3.7878  -3.7876  -3.6977  -3.6975  -3.6677  -3.6672
    -3.5988  -3.5986  -3.5378  -3.5375  -3.4931  -3.4925  -3.4378  -3.4373
    -3.3700  -3.3697  -3.2476  -3.2474  -3.1796  -3.1795  -3.0851  -3.0849
    -3.0178  -3.0175  -2.9546  -2.9545  -2.8737  -2.8737  -2.7839  -2.7836
    -2.7642  -2.7642  -2.6437  -2.6436  -2.5213  -2.5213  -2.4110  -2.4108
    -2.3131  -2.3131  -2.2923  -2.2921  -2.2040  -2.2040  -2.1507  -2.1506
    -2.0707  -2.0706  -1.9506  -1.9502  -1.6619  -1.6614  -1.6451  -1.6449
    -1.4752  -1.4744  -1.3907  -1.3901  -1.3402  -1.3399  -1.3151  -1.3150
    -1.2084  -1.2082  -1.1133  -1.1128  -0.9449  -0.9446  -0.8488  -0.8486
    -0.8141  -0.8138  -0.7366  -0.7361  -0.6385  -0.6379  -0.5921  -0.5919
    -0.4760  -0.4752  -0.4457  -0.4450  -0.3750  -0.3737  -0.3460  -0.3454
    -0.3099  -0.3098  -0.3030  -0.3022  -0.0375  -0.0375   0.1015   0.1018
     0.2387   0.2388   0.3455   0.3457   3.1722   3.1731   3.1810   3.1812
     3.3477   3.3478   3.3689   3.3697   3.4301   3.4302   3.5260   3.5261
     3.6080   3.6087   3.7589   3.7602   5.0972   5.0974   5.1209   5.1209
     6.0616   6.0617   6.1053   6.1056   6.7212   6.7215   6.7416   6.7416
     7.3582   7.3587   7.4833   7.4834   7.5992   7.5993   7.8541   7.8544
     7.9884   7.9887   8.0784   8.0790   8.3958   8.3960   8.4626   8.4631
     8.5555   8.5562   8.5802

          k =-0.5000-0.7268-0.7625 (153444 PWs)   bands (ev):

   -24.6744 -24.6715 -24.6695 -24.6665 -24.5700 -24.5689 -24.5526 -24.5520
   -24.4238 -24.4216 -24.4107 -24.4080 -20.3365 -20.3339 -20.3162 -20.3135
   -20.1718 -20.1686 -20.1502 -20.1492 -20.1372 -20.1362 -20.1319 -20.1313
   -20.0091 -20.0066 -20.0017 -19.9995 -16.2428 -16.2419 -16.2222 -16.2214
   -15.9274 -15.9265 -15.9233 -15.9223 -14.6506 -14.6501 -14.6244 -14.6240
   -13.9752 -13.9744 -13.9395 -13.9387 -12.6791 -12.6790 -12.6672 -12.6671
   -11.7411 -11.7403 -11.6981 -11.6972 -11.1204 -11.1201 -11.0893 -11.0889
   -10.7421 -10.7419 -10.6606 -10.6602 -10.6113 -10.6108 -10.5966 -10.5960
    -9.7244  -9.7240  -9.6515  -9.6512  -9.3120  -9.3119  -9.2485  -9.2484
    -8.3286  -8.3278  -8.3150  -8.3141  -8.0058  -8.0058  -8.0051  -8.0049
    -7.7641  -7.7636  -7.6472  -7.6472  -7.3944  -7.3941  -7.3379  -7.3376
    -7.2138  -7.2131  -7.2119  -7.2111  -6.8732  -6.8728  -6.8202  -6.8200
    -6.7180  -6.7177  -6.6462  -6.6458  -6.5100  -6.5096  -6.4563  -6.4560
    -6.3609  -6.3607  -6.3148  -6.3143  -6.2448  -6.2446  -6.2146  -6.2145
    -6.0729  -6.0723  -6.0100  -6.0093  -5.6582  -5.6582  -5.5546  -5.5545
    -5.4833  -5.4825  -5.4410  -5.4402  -4.8381  -4.8378  -4.8225  -4.8222
    -4.5688  -4.5686  -4.5476  -4.5473  -4.1721  -4.1714  -4.0368  -4.0366
    -3.8177  -3.8172  -3.8045  -3.8038  -3.7215  -3.7211  -3.6827  -3.6823
    -3.5916  -3.5909  -3.5468  -3.5467  -3.4822  -3.4813  -3.4498  -3.4491
    -3.3723  -3.3719  -3.2552  -3.2549  -3.1295  -3.1294  -3.0662  -3.0658
    -3.0480  -3.0477  -2.9277  -2.9275  -2.8856  -2.8851  -2.8177  -2.8174
    -2.7599  -2.7598  -2.6386  -2.6382  -2.5423  -2.5418  -2.4246  -2.4243
    -2.3134  -2.3131  -2.2687  -2.2684  -2.1954  -2.1951  -2.1462  -2.1455
    -2.0111  -2.0105  -1.9984  -1.9977  -1.6724  -1.6720  -1.6603  -1.6597
    -1.4614  -1.4607  -1.3928  -1.3921  -1.3374  -1.3371  -1.3297  -1.3294
    -1.2013  -1.2011  -1.1098  -1.1093  -0.9457  -0.9454  -0.8329  -0.8328
    -0.8069  -0.8063  -0.7563  -0.7555  -0.6432  -0.6426  -0.5897  -0.5895
    -0.4803  -0.4795  -0.4448  -0.4441  -0.3682  -0.3667  -0.3474  -0.3463
    -0.3089  -0.3086  -0.3075  -0.3070  -0.0178  -0.0176   0.0755   0.0759
     0.2745   0.2748   0.3116   0.3120   3.1678   3.1687   3.1828   3.1831
     3.3367   3.3377   3.3661   3.3667   3.4722   3.4725   3.5046   3.5050
     3.6070   3.6077   3.7592   3.7605   5.1139   5.1142   5.1178   5.1180
     6.0548   6.0550   6.0980   6.0985   6.7083   6.7089   6.7575   6.7579
     7.3491   7.3497   7.4473   7.4481   7.7268   7.7271   7.7461   7.7466
     7.9759   7.9762   8.0851   8.0855   8.4147   8.4152   8.4987   8.4992
     8.5620   8.5624   8.5740

     highest occupied, lowest unoccupied level (ev):     0.3468    3.1164

!    total energy              =   -2483.68348112 Ry
     Harris-Foulkes estimate   =   -2483.68348113 Ry
     estimated scf accuracy    <          8.8E-09 Ry

     total all-electron energy =     -9373.797541 Ry

     The total energy is the sum of the following terms:

     one-electron contribution =   -1580.16970427 Ry
     hartree contribution      =     973.18345706 Ry
     xc contribution           =    -507.94230849 Ry
     ewald contribution        =    -676.08212400 Ry
     Dispersion Correction     =      -0.70905019 Ry
     one-center paw contrib.   =    -691.96375123 Ry

     convergence has been achieved in  19 iterations

     Forces acting on atoms (cartesian axes, Ry/au):

     atom    1 type  1   force =     0.00018446   -0.00062281   -0.00064364
     atom    2 type  1   force =     0.00008523   -0.00024780    0.00016194
     atom    3 type  1   force =    -0.00018446    0.00062281    0.00064364
     atom    4 type  1   force =    -0.00008523    0.00024780   -0.00016194
     atom    5 type  1   force =     0.00019808   -0.00002618   -0.00061634
     atom    6 type  1   force =    -0.00023055   -0.00011722    0.00075728
     atom    7 type  1   force =    -0.00019808    0.00002618    0.00061634
     atom    8 type  1   force =     0.00023055    0.00011722   -0.00075728
     atom    9 type  1   force =     0.00034839    0.00002432   -0.00018850
     atom   10 type  1   force =    -0.00031858    0.00004251    0.00005479
     atom   11 type  1   force =    -0.00034839   -0.00002432    0.00018850
     atom   12 type  1   force =     0.00031858   -0.00004251   -0.00005479
     atom   13 type  1   force =    -0.00000624    0.00161627    0.00061831
     atom   14 type  1   force =     0.00002294    0.00152908   -0.00057974
     atom   15 type  1   force =     0.00000624   -0.00161627   -0.00061831
     atom   16 type  1   force =    -0.00002294   -0.00152908    0.00057974
     atom   17 type  1   force =     0.00019591   -0.00037059   -0.00048211
     atom   18 type  1   force =    -0.00021640   -0.00036534    0.00055261
     atom   19 type  1   force =    -0.00019591    0.00037059    0.00048211
     atom   20 type  1   force =     0.00021640    0.00036534   -0.00055261
     atom   21 type  1   force =    -0.00052072    0.00062423    0.00102837
     atom   22 type  1   force =     0.00056161    0.00062438   -0.00099483
     atom   23 type  1   force =     0.00052072   -0.00062423   -0.00102837
     atom   24 type  1   force =    -0.00056161   -0.00062438    0.00099483
     atom   25 type  4   force =    -0.00056147    0.00036546    0.00042213
     atom   26 type  4   force =     0.00032891    0.00001569    0.00000878
     atom   27 type  4   force =     0.00056147   -0.00036546   -0.00042213
     atom   28 type  4   force =    -0.00032891   -0.00001569   -0.00000878
     atom   29 type  1   force =     0.00039791    0.00024699   -0.00030254
     atom   30 type  1   force =    -0.00037939    0.00024799    0.00038022
     atom   31 type  1   force =    -0.00039791   -0.00024699    0.00030254
     atom   32 type  1   force =     0.00037939   -0.00024799   -0.00038022
     atom   33 type  2   force =    -0.00019097   -0.00025399    0.00011554
     atom   34 type  2   force =     0.00019123   -0.00029570   -0.00020423
     atom   35 type  2   force =     0.00019097    0.00025399   -0.00011554
     atom   36 type  2   force =    -0.00019123    0.00029570    0.00020423
     atom   37 type  1   force =     0.00019259    0.00021477   -0.00004948
     atom   38 type  1   force =    -0.00020826    0.00021365    0.00007263
     atom   39 type  1   force =    -0.00019259   -0.00021477    0.00004948
     atom   40 type  1   force =     0.00020826   -0.00021365   -0.00007263
     atom   41 type  2   force =     0.00030751   -0.00019731    0.00042200
     atom   42 type  2   force =    -0.00046825   -0.00025638    0.00011468
     atom   43 type  2   force =    -0.00030751    0.00019731   -0.00042200
     atom   44 type  2   force =     0.00046825    0.00025638   -0.00011468
     atom   45 type  4   force =     0.00019485    0.00015725   -0.00099330
     atom   46 type  4   force =    -0.00016974    0.00024929    0.00040748
     atom   47 type  4   force =    -0.00019485   -0.00015725    0.00099330
     atom   48 type  4   force =     0.00016974   -0.00024929   -0.00040748
     atom   49 type  4   force =     0.00042492    0.00004978    0.00058544
     atom   50 type  4   force =    -0.00027929    0.00001720   -0.00053519
     atom   51 type  4   force =    -0.00042492   -0.00004978   -0.00058544
     atom   52 type  4   force =     0.00027929   -0.00001720    0.00053519
     atom   53 type  1   force =    -0.00139540   -0.00069247    0.00007179
     atom   54 type  1   force =     0.00140164   -0.00084255   -0.00006991
     atom   55 type  1   force =     0.00139540    0.00069247   -0.00007179
     atom   56 type  1   force =    -0.00140164    0.00084255    0.00006991
     atom   57 type  2   force =    -0.00049362   -0.00004980   -0.00047040
     atom   58 type  2   force =    -0.00021326    0.00009450   -0.00060236
     atom   59 type  2   force =     0.00049362    0.00004980    0.00047040
     atom   60 type  2   force =     0.00021326   -0.00009450    0.00060236
     atom   61 type  4   force =    -0.00042296    0.00002652    0.00038128
     atom   62 type  4   force =     0.00043286    0.00003187   -0.00023707
     atom   63 type  4   force =     0.00042296   -0.00002652   -0.00038128
     atom   64 type  4   force =    -0.00043286   -0.00003187    0.00023707
     atom   65 type  4   force =     0.00031985   -0.00047373   -0.00008775
     atom   66 type  4   force =     0.00034721   -0.00062979    0.00096254
     atom   67 type  4   force =    -0.00031985    0.00047373    0.00008775
     atom   68 type  4   force =    -0.00034721    0.00062979   -0.00096254
     atom   69 type  1   force =    -0.00012093   -0.00006601   -0.00033789
     atom   70 type  1   force =     0.00009938   -0.00006171    0.00030659
     atom   71 type  1   force =     0.00012093    0.00006601    0.00033789
     atom   72 type  1   force =    -0.00009938    0.00006171   -0.00030659
     atom   73 type  2   force =    -0.00149071   -0.00239489    0.00028723
     atom   74 type  2   force =     0.00103979   -0.00175359   -0.00055988
     atom   75 type  2   force =     0.00149071    0.00239489   -0.00028723
     atom   76 type  2   force =    -0.00103979    0.00175359    0.00055988
     atom   77 type  4   force =    -0.00043217    0.00061206   -0.00031059
     atom   78 type  4   force =     0.00071555    0.00049891    0.00041186
     atom   79 type  4   force =     0.00043217   -0.00061206    0.00031059
     atom   80 type  4   force =    -0.00071555   -0.00049891   -0.00041186
     atom   81 type  4   force =     0.00193786    0.00186672    0.00001948
     atom   82 type  4   force =    -0.00178525    0.00137536    0.00012232
     atom   83 type  4   force =    -0.00193786   -0.00186672   -0.00001948
     atom   84 type  4   force =     0.00178525   -0.00137536   -0.00012232
     atom   85 type  1   force =    -0.00002076    0.00012474    0.00034908
     atom   86 type  1   force =     0.00001130    0.00022479   -0.00036021
     atom   87 type  1   force =     0.00002076   -0.00012474   -0.00034908
     atom   88 type  1   force =    -0.00001130   -0.00022479    0.00036021
     atom   89 type  3   force =    -0.00064166    0.00062993    0.00001859
     atom   90 type  3   force =     0.00065614    0.00060744   -0.00002035
     atom   91 type  3   force =     0.00064166   -0.00062993   -0.00001859
     atom   92 type  3   force =    -0.00065614   -0.00060744    0.00002035
     atom   93 type  3   force =     0.00002493    0.00047548    0.00019425
     atom   94 type  3   force =    -0.00002123    0.00046179   -0.00019991
     atom   95 type  3   force =    -0.00002493   -0.00047548   -0.00019425
     atom   96 type  3   force =     0.00002123   -0.00046179    0.00019991
     atom   97 type  3   force =     0.00010319   -0.00071166   -0.00026336
     atom   98 type  3   force =    -0.00009154   -0.00073709    0.00026956
     atom   99 type  3   force =    -0.00010319    0.00071166    0.00026336
     atom  100 type  3   force =     0.00009154    0.00073709   -0.00026956
     atom  101 type  3   force =     0.00021063   -0.00004067    0.00005085
     atom  102 type  3   force =    -0.00021417   -0.00003735   -0.00004460
     atom  103 type  3   force =    -0.00021063    0.00004067   -0.00005085
     atom  104 type  3   force =     0.00021417    0.00003735    0.00004460
     atom  105 type  3   force =     0.00023153    0.00015581    0.00006357
     atom  106 type  3   force =    -0.00023709    0.00015181   -0.00005422
     atom  107 type  3   force =    -0.00023153   -0.00015581   -0.00006357
     atom  108 type  3   force =     0.00023709   -0.00015181    0.00005422
     atom  109 type  3   force =     0.00024265   -0.00008254   -0.00056131
     atom  110 type  3   force =    -0.00023738   -0.00008183    0.00056883
     atom  111 type  3   force =    -0.00024265    0.00008254    0.00056131
     atom  112 type  3   force =     0.00023738    0.00008183   -0.00056883
     atom  113 type  3   force =    -0.00018041   -0.00006010   -0.00031073
     atom  114 type  3   force =     0.00019129   -0.00007607    0.00031586
     atom  115 type  3   force =     0.00018041    0.00006010    0.00031073
     atom  116 type  3   force =    -0.00019129    0.00007607   -0.00031586
     atom  117 type  3   force =     0.00022506   -0.00035954    0.00052929
     atom  118 type  3   force =    -0.00022181   -0.00037915   -0.00052401
     atom  119 type  3   force =    -0.00022506    0.00035954   -0.00052929
     atom  120 type  3   force =     0.00022181    0.00037915    0.00052401
     atom  121 type  3   force =    -0.00021809   -0.00001739    0.00036672
     atom  122 type  3   force =     0.00022380   -0.00001067   -0.00036817
     atom  123 type  3   force =     0.00021809    0.00001739   -0.00036672
     atom  124 type  3   force =    -0.00022380    0.00001067    0.00036817
     atom  125 type  3   force =     0.00018158   -0.00044382    0.00007802
     atom  126 type  3   force =    -0.00019252   -0.00044627   -0.00008312
     atom  127 type  3   force =    -0.00018158    0.00044382   -0.00007802
     atom  128 type  3   force =     0.00019252    0.00044627    0.00008312
     atom  129 type  3   force =    -0.00027231   -0.00043172   -0.00040442
     atom  130 type  3   force =     0.00027067   -0.00043039    0.00038621
     atom  131 type  3   force =     0.00027231    0.00043172    0.00040442
     atom  132 type  3   force =    -0.00027067    0.00043039   -0.00038621
     atom  133 type  3   force =    -0.00000581    0.00010530    0.00019726
     atom  134 type  3   force =     0.00001296    0.00010485   -0.00019240
     atom  135 type  3   force =     0.00000581   -0.00010530   -0.00019726
     atom  136 type  3   force =    -0.00001296   -0.00010485    0.00019240

     Total force =     0.010916     Total SCF correction =     0.000153


     Computing stress (Cartesian axis) and pressure

          total   stress  (Ry/bohr**3)                   (kbar)     P=   -0.56
   0.00004669  -0.00000003   0.00003326          6.87     -0.00      4.89
  -0.00000003  -0.00001013  -0.00000018         -0.00     -1.49     -0.03
   0.00003326  -0.00000018  -0.00004800          4.89     -0.03     -7.06


     Writing output data file scf.save
 
     init_run     :    103.78s CPU    109.32s WALL (       1 calls)
     electrons    :   4094.25s CPU   4321.73s WALL (       1 calls)
     forces       :     48.41s CPU     48.86s WALL (       1 calls)
     stress       :    386.95s CPU    387.69s WALL (       1 calls)

     Called by init_run:
     wfcinit      :     85.79s CPU     90.93s WALL (       1 calls)
     potinit      :      6.41s CPU      6.62s WALL (       1 calls)

     Called by electrons:
     c_bands      :   3664.69s CPU   3854.15s WALL (      19 calls)
     sum_band     :    402.87s CPU    437.80s WALL (      19 calls)
     v_of_rho     :      4.16s CPU      4.63s WALL (      20 calls)
     newd         :      9.87s CPU     12.36s WALL (      20 calls)
     PAW_pot      :     11.61s CPU     11.63s WALL (      20 calls)
     mix_rho      :      1.05s CPU      1.15s WALL (      19 calls)

     Called by c_bands:
     init_us_2    :     20.93s CPU     21.03s WALL (     328 calls)
     cegterg      :   3568.53s CPU   3757.81s WALL (     152 calls)

     Called by sum_band:
     sum_band:bec :      0.18s CPU      0.18s WALL (     152 calls)
     addusdens    :     10.13s CPU     12.47s WALL (      19 calls)

     Called by *egterg:
     h_psi        :   2005.28s CPU   2164.76s WALL (     733 calls)
     s_psi        :    350.96s CPU    351.01s WALL (     733 calls)
     g_psi        :      9.00s CPU      9.00s WALL (     573 calls)
     cdiaghg      :    189.12s CPU    189.18s WALL (     725 calls)

     Called by h_psi:
     h_psi:pot    :   1992.54s CPU   2151.81s WALL (     733 calls)
     h_psi:calbec :    394.65s CPU    395.47s WALL (     733 calls)
     vloc_psi     :   1245.52s CPU   1403.89s WALL (     733 calls)
     add_vuspsi   :    352.36s CPU    352.45s WALL (     733 calls)

     General routines
     calbec       :    597.78s CPU    599.02s WALL (     925 calls)
     fft          :     10.43s CPU     11.26s WALL (     284 calls)
     fftw         :   1347.30s CPU   1537.36s WALL (  274408 calls)
 
     Parallel routines
     fft_scatter  :    298.05s CPU    486.97s WALL (  274692 calls)
 
     PWSCF        :     1h17m CPU        1h22m WALL

 
   This run was terminated on:   6:58: 4   4Nov2017            

=------------------------------------------------------------------------------=
   JOB DONE.
=------------------------------------------------------------------------------=
