
     Program PWSCF v.6.1 (svn rev. 13369) starts on 21Dec2017 at  5: 8:55 

     This program is part of the open-source Quantum ESPRESSO suite
     for quantum simulation of materials; please cite
         "P. Giannozzi et al., J. Phys.:Condens. Matter 21 395502 (2009);
          URL http://www.quantum-espresso.org", 
     in publications or presentations arising from this work. More details at
     http://www.quantum-espresso.org/quote

     Parallel version (MPI), running on     8 processors
     R & G space division:  proc/nbgrp/npool/nimage =       8
     Waiting for input...
     Reading input from standard input

     Current dimensions of program PWSCF are:
     Max number of different atomic species (ntypx) = 10
     Max number of k-points (npk) =  40000
     Max angular momentum in pseudopotentials (lmaxx) =  3
               file C.pbe-n-kjpaw_psl.0.1.UPF: wavefunction(s)  2P renormalized
               file N.pbe-n-kjpaw_psl.0.1.UPF: wavefunction(s)  2P renormalized
               file H.pbe-kjpaw_psl.0.1.UPF: wavefunction(s)  1S renormalized
               file O.pbe-n-kjpaw_psl.0.1.UPF: wavefunction(s)  2P renormalized

     -------------------------------------
     Parameters for Dispersion Correction:
     -------------------------------------
       atom      VdW radius       C_6     

        C          2.744         60.710
        N          2.640         42.670
        H          1.892          4.857
        O          2.536         24.284

     Subspace diagonalization in iterative solution of the eigenvalue problem:
     a serial algorithm will be used

 
     Parallelization info
     --------------------
     sticks:   dense  smooth     PW     G-vecs:    dense   smooth      PW
     Min        1723    1723    446               184754   184754   24489
     Max        1724    1724    447               184757   184757   24490
     Sum       13787   13787   3575              1478039  1478039  195917
 


     bravais-lattice index     =            0
     lattice parameter (alat)  =      20.1653  a.u.
     unit-cell volume          =   10941.2595 (a.u.)^3
     number of atoms/cell      =          182
     number of atomic types    =            4
     number of electrons       =       456.00
     number of Kohn-Sham states=          273
     kinetic-energy cutoff     =     100.0000  Ry
     charge density cutoff     =     400.0000  Ry
     convergence threshold     =      1.0E-08
     mixing beta               =       0.5000
     number of iterations used =            8  plain     mixing
     Exchange-correlation      =  SLA  PW   PBX  PBC ( 1  4  3  4 0 0)

     celldm(1)=  20.165268  celldm(2)=   0.000000  celldm(3)=   0.000000
     celldm(4)=   0.000000  celldm(5)=   0.000000  celldm(6)=   0.000000

     crystal axes: (cart. coord. in units of alat)
               a(1) = (   1.000000   0.000000   0.000000 )  
               a(2) = (   0.368803   1.064440   0.000000 )  
               a(3) = (   0.263683   0.192736   1.253528 )  

     reciprocal axes: (cart. coord. in units 2 pi/alat)
               b(1) = (  1.000000 -0.346477 -0.157080 )  
               b(2) = (  0.000000  0.939461 -0.144447 )  
               b(3) = (  0.000000  0.000000  0.797748 )  


     PseudoPot. # 1 for  C read from file:
     /scratch/ahofstet/pseudo/C.pbe-n-kjpaw_psl.0.1.UPF
     MD5 check sum: 430fe95172b1e11ef3f8ed03bac87931
     Pseudo is Projector augmented-wave + core cor, Zval =  4.0
     Generated using "atomic" code by A. Dal Corso  v.5.0.99 svn rev. 10869
     Shape of augmentation charge: BESSEL
     Using radial grid of 1073 points,  4 beta functions with: 
                l(1) =   0
                l(2) =   0
                l(3) =   1
                l(4) =   1
     Q(r) pseudized with 0 coefficients 


     PseudoPot. # 2 for  N read from file:
     /scratch/ahofstet/pseudo/N.pbe-n-kjpaw_psl.0.1.UPF
     MD5 check sum: f73187c8b701007e77325f868c9291d7
     Pseudo is Projector augmented-wave + core cor, Zval =  5.0
     Generated using "atomic" code by A. Dal Corso  v.5.0.99 svn rev. 10869
     Shape of augmentation charge: PSQ
     Using radial grid of 1085 points,  4 beta functions with: 
                l(1) =   0
                l(2) =   0
                l(3) =   1
                l(4) =   1
     Q(r) pseudized with 0 coefficients 


     PseudoPot. # 3 for  H read from file:
     /scratch/ahofstet/pseudo/H.pbe-kjpaw_psl.0.1.UPF
     MD5 check sum: 94e484f906d9e9773b2f6e52662335b2
     Pseudo is Projector augmented-wave, Zval =  1.0
     Generated using "atomic" code by A. Dal Corso  v.5.0.99 svn rev. 10869
     Shape of augmentation charge: PSQ
     Using radial grid of  929 points,  2 beta functions with: 
                l(1) =   0
                l(2) =   0
     Q(r) pseudized with 0 coefficients 


     PseudoPot. # 4 for  O read from file:
     /scratch/ahofstet/pseudo/O.pbe-n-kjpaw_psl.0.1.UPF
     MD5 check sum: 3f94a2996a3169367d6eb21d9b593f20
     Pseudo is Projector augmented-wave + core cor, Zval =  6.0
     Generated using "atomic" code by A. Dal Corso  v.5.0.99 svn rev. 10869
     Shape of augmentation charge: BESSEL
     Using radial grid of 1095 points,  4 beta functions with: 
                l(1) =   0
                l(2) =   0
                l(3) =   1
                l(4) =   1
     Q(r) pseudized with 0 coefficients 


     atomic species   valence    mass     pseudopotential
        C              4.00    12.01070      C( 1.00)
        N              5.00    14.00670      N( 1.00)
        H              1.00     1.00794      H( 1.00)
        O              6.00    15.99940      O( 1.00)

      2 Sym. Ops., with inversion, found



   Cartesian axes

     site n.     atom                  positions (alat units)
         1           N   tau(   1) = (   0.6966848   0.4513202   0.1940166  )
         2           N   tau(   2) = (   0.9358014   0.8058559   1.0595119  )
         3           C   tau(   3) = (   0.7633137   0.3463355   0.1866026  )
         4           C   tau(   4) = (   0.8691725   0.9108406   1.0669258  )
         5           C   tau(   5) = (   0.8880318   0.3160056   0.2189742  )
         6           C   tau(   6) = (   0.7444544   0.9411705   1.0345542  )
         7           C   tau(   7) = (   0.9183625   0.2069447   0.1445650  )
         8           C   tau(   8) = (   0.7141237   1.0502314   1.1089634  )
         9           H   tau(   9) = (   1.0100301   0.1624801   0.1394669  )
        10           H   tau(  10) = (   0.6224561   1.0946960   1.1140615  )
        11           C   tau(  11) = (   0.8171397   0.1673839   0.0748951  )
        12           C   tau(  12) = (   0.8153465   1.0897922   1.1786333  )
        13           C   tau(  13) = (   0.8188915   0.0599815  -0.0008828  )
        14           C   tau(  14) = (   0.8135947   1.1971945   1.2544112  )
        15           N   tau(  15) = (   1.4527033   1.2276637   1.1889967  )
        16           N   tau(  16) = (   0.1797829   0.0295124   0.0645317  )
        17           C   tau(  17) = (   0.7026159   0.2438177   0.1097200  )
        18           C   tau(  18) = (   0.9298703   1.0133584   1.1438085  )
        19           C   tau(  19) = (   0.6108129   0.1653621   0.1919356  )
        20           C   tau(  20) = (   1.0216733   1.0918140   1.0615929  )
        21           H   tau(  21) = (   0.5390557   0.2309704   0.2265046  )
        22           H   tau(  22) = (   1.0934305   1.0262056   1.0270238  )
        23           H   tau(  23) = (   0.5621598   0.0988718   0.1299524  )
        24           H   tau(  24) = (   1.0703264   1.1583043   1.1235760  )
        25           C   tau(  25) = (   0.6694356   0.0944658   0.3012718  )
        26           C   tau(  26) = (   0.9630506   1.1627103   0.9522567  )
        27           H   tau(  27) = (   0.5958518   0.0504051   0.3582819  )
        28           H   tau(  28) = (   1.0366345   1.2067709   0.8952465  )
        29           H   tau(  29) = (   0.7239278   0.1570287   0.3624358  )
        30           H   tau(  30) = (   0.9085584   1.1001474   0.8910926  )
        31           H   tau(  31) = (   1.1010340   1.0845030   0.2681726  )
        32           H   tau(  32) = (   0.5314523   0.1726731   0.9853559  )
        33           C   tau(  33) = (   0.6243425   0.3287999   0.0195629  )
        34           C   tau(  34) = (   1.0081437   0.9283762   1.2339655  )
        35           H   tau(  35) = (   0.9524529   0.5551382   1.1997902  )
        36           H   tau(  36) = (   0.6800333   0.7020379   0.0537382  )
        37           C   tau(  37) = (   0.7718914   0.4673925   1.2096790  )
        38           C   tau(  38) = (   0.8605949   0.7897836   0.0438495  )
        39           H   tau(  39) = (   0.7280322   0.5430858   1.1549417  )
        40           H   tau(  40) = (   0.9044540   0.7140903   0.0985867  )
        41           H   tau(  41) = (   0.4389964   0.2461234   0.0271059  )
        42           H   tau(  42) = (   1.1934898   1.0110527   1.2264225  )
        43           C   tau(  43) = (   0.8009123   0.3582918   1.1214101  )
        44           C   tau(  44) = (   0.8315739   0.8988843   0.1321183  )
        45           H   tau(  45) = (   0.7151882   0.3260327   1.0742444  )
        46           H   tau(  46) = (   0.9172980   0.9311434   0.1792840  )
        47           H   tau(  47) = (   0.8412695   0.2780263   1.1718367  )
        48           H   tau(  48) = (   0.7912167   0.9791498   0.0816918  )
        49           H   tau(  49) = (   0.8681770   0.3863643   1.0486096  )
        50           H   tau(  50) = (   0.7643092   0.8708118   0.2049188  )
        51           C   tau(  51) = (   0.6024324   0.4411009   0.1072484  )
        52           C   tau(  52) = (   1.0300538   0.8160752   1.1462800  )
        53           C   tau(  53) = (   0.5048718   0.5262477   0.0982671  )
        54           C   tau(  54) = (   1.1276145   0.7309283   1.1552613  )
        55           H   tau(  55) = (   0.4352285   0.5122849   0.0249824  )
        56           H   tau(  56) = (   1.1972578   0.7448912   1.2285460  )
        57           N   tau(  57) = (   0.5705583   0.6703322   0.2656981  )
        58           N   tau(  58) = (   1.0619280   0.5868439   0.9878304  )
        59           H   tau(  59) = (   0.6509881   0.6239452   0.2886967  )
        60           H   tau(  60) = (   0.9814981   0.6332308   0.9648317  )
        61           C   tau(  61) = (   0.4894109   0.6334118   0.1735400  )
        62           C   tau(  62) = (   1.1430753   0.6237642   1.0799884  )
        63           C   tau(  63) = (   0.3922424   0.7264911   0.1660559  )
        64           C   tau(  64) = (   1.2402438   0.5306850   1.0874725  )
        65           C   tau(  65) = (   0.2812776   0.7180547   0.0811659  )
        66           C   tau(  66) = (   1.3512087   0.5391214   1.1723626  )
        67           H   tau(  67) = (   0.3103778   0.6786378  -0.0097154  )
        68           H   tau(  68) = (   1.3221084   0.5785382   1.2632438  )
        69           H   tau(  69) = (   1.2451091   0.8126831   0.0616249  )
        70           H   tau(  70) = (   0.3873771   0.4444930   1.1919035  )
        71           C   tau(  71) = (   1.1759950   0.6364520   0.1363604  )
        72           C   tau(  72) = (   0.4564912   0.6207241   1.1171680  )
        73           H   tau(  73) = (   1.0972897   0.6301903   0.0702449  )
        74           H   tau(  74) = (   0.5351965   0.6269858   1.1832836  )
        75           H   tau(  75) = (   1.1405863   0.6760540   0.2246409  )
        76           H   tau(  76) = (   0.4919000   0.5811221   1.0288875  )
        77           H   tau(  77) = (   1.2093064   0.5410462   0.1561934  )
        78           H   tau(  78) = (   0.4231799   0.7161298   1.0973351  )
        79           C   tau(  79) = (   0.4191082   0.8184416   0.2538929  )
        80           C   tau(  80) = (   1.2133780   0.4387344   0.9996355  )
        81           C   tau(  81) = (   1.3464790   0.9348140   0.2823715  )
        82           C   tau(  82) = (   0.2860072   0.3223621   0.9711569  )
        83           H   tau(  83) = (   1.2854681   0.9576054   0.2023949  )
        84           H   tau(  84) = (   0.3470181   0.2995706   1.0511335  )
        85           H   tau(  85) = (   0.4121356   1.0139487   0.2916678  )
        86           H   tau(  86) = (   1.2203506   0.2432274   0.9618607  )
        87           C   tau(  87) = (   1.2674038   0.9233704   0.4022377  )
        88           C   tau(  88) = (   0.3650825   0.3338056   0.8512908  )
        89           H   tau(  89) = (   1.2209217   1.0124335   0.4246989  )
        90           H   tau(  90) = (   0.4115646   0.2447426   0.8288295  )
        91           H   tau(  91) = (   1.3261529   0.8965203   0.4825126  )
        92           H   tau(  92) = (   0.3063334   0.3606558   0.7710158  )
        93           H   tau(  93) = (   1.1943425   0.8514732   0.3913978  )
        94           H   tau(  94) = (   0.4381437   0.4057028   0.8621307  )
        95           C   tau(  95) = (   0.5325492   0.7824413   0.3171251  )
        96           C   tau(  96) = (   1.0999370   0.4747347   0.9364033  )
        97           C   tau(  97) = (   0.5953294   0.8457206   0.4120270  )
        98           C   tau(  98) = (   1.0371569   0.4114555   0.8415014  )
        99           H   tau(  99) = (   0.5508534   0.9320740   0.4438831  )
       100           H   tau( 100) = (   1.0816328   0.3251021   0.8096453  )
       101           N   tau( 101) = (   0.7829140   0.7136238   0.4396160  )
       102           N   tau( 102) = (   0.8495722   0.5435523   0.8139125  )
       103           C   tau( 103) = (   0.7083670   0.8130257   0.4710125  )
       104           C   tau( 104) = (   0.9241192   0.4441503   0.7825159  )
       105           C   tau( 105) = (   0.7602270   0.8836220   0.5760456  )
       106           C   tau( 106) = (   0.8722592   0.3735541   0.6774829  )
       107           C   tau( 107) = (   0.7055792   0.9990553   0.6333012  )
       108           C   tau( 108) = (   0.9269070   0.2581208   0.6202272  )
       109           H   tau( 109) = (   0.7354595   1.0053722   0.7318978  )
       110           H   tau( 110) = (   0.8970267   0.2518039   0.5216306  )
       111           H   tau( 111) = (   0.6025978   0.9925747   0.6351705  )
       112           H   tau( 112) = (   1.0298884   0.2646014   0.6183579  )
       113           C   tau( 113) = (   0.7456863   1.1182459   0.5633031  )
       114           C   tau( 114) = (   0.8867999   0.1389302   0.6902253  )
       115           H   tau( 115) = (   0.3375022   0.1383721   0.6073021  )
       116           H   tau( 116) = (   1.2949841   1.1188040   0.6462263  )
       117           H   tau( 117) = (   0.7151843   1.1152639   0.4648695  )
       118           H   tau( 118) = (   0.9173019   0.1419122   0.7886590  )
       119           H   tau( 119) = (   0.8482117   1.1271547   0.5636168  )
       120           H   tau( 120) = (   0.7842745   0.1300214   0.6899116  )
       121           C   tau( 121) = (   0.8687537   0.8235520   0.6089522  )
       122           C   tau( 122) = (   0.7637325   0.4336241   0.6445762  )
       123           C   tau( 123) = (   0.9548056   0.8530741   0.7154250  )
       124           C   tau( 124) = (   0.6776806   0.4041020   0.5381034  )
       125           H   tau( 125) = (   0.9874040   0.7649060   0.7580297  )
       126           H   tau( 126) = (   0.6450823   0.4922701   0.4954987  )
       127           H   tau( 127) = (   0.9012737   0.9017561   0.7889896  )
       128           H   tau( 128) = (   0.7312126   0.3554200   0.4645388  )
       129           C   tau( 129) = (   1.0674252   0.9341150   0.6780004  )
       130           C   tau( 130) = (   0.5650610   0.3230610   0.5755280  )
       131           H   tau( 131) = (   1.1273890   0.9541293   0.7594342  )
       132           H   tau( 132) = (   0.5050972   0.3030467   0.4940943  )
       133           H   tau( 133) = (   1.0359507   1.0239508   0.6386975  )
       134           H   tau( 134) = (   0.5965355   0.2332253   0.6148310  )
       135           H   tau( 135) = (   1.1247280   0.8876447   0.6062008  )
       136           H   tau( 136) = (   0.5077582   0.3695313   0.6473276  )
       137           C   tau( 137) = (   0.8820683   0.7198133   0.5210559  )
       138           C   tau( 138) = (   0.7504179   0.5373628   0.7324725  )
       139           C   tau( 139) = (   0.9860147   0.6396498   0.5204873  )
       140           C   tau( 140) = (   0.6464715   0.6175263   0.7330411  )
       141           H   tau( 141) = (   1.0582805   0.6578024   0.5904641  )
       142           H   tau( 142) = (   0.5742058   0.5993736   0.6630644  )
       143           C   tau( 143) = (   1.0067671   0.5368654   0.4432067  )
       144           C   tau( 144) = (   0.6257192   0.7203106   0.8103217  )
       145           N   tau( 145) = (   0.9235943   0.4944059   0.3544817  )
       146           N   tau( 146) = (   0.7088920   0.7627701   0.8990468  )
       147           H   tau( 147) = (   0.8396453   0.5371750   0.3377186  )
       148           H   tau( 148) = (   0.7928409   0.7200011   0.9158099  )
       149           C   tau( 149) = (   1.1099813   0.4511977   0.4439811  )
       150           C   tau( 150) = (   0.5225049   0.8059784   0.8095474  )
       151           C   tau( 151) = (   1.2219190   0.4618950   0.5273913  )
       152           C   tau( 152) = (   0.4105673   0.7952811   0.7261371  )
       153           H   tau( 153) = (   0.2641782   0.3685591   0.5399766  )
       154           H   tau( 154) = (   1.3683080   0.8886169   0.7135518  )
       155           H   tau( 155) = (   1.1918874   0.4934684   0.6210109  )
       156           H   tau( 156) = (   0.4405988   0.7637076   0.6325175  )
       157           C   tau( 157) = (   0.3223911   0.5518382   0.4764447  )
       158           C   tau( 158) = (   1.3100952   0.7053378   0.7770837  )
       159           H   tau( 159) = (   0.4035287   0.5552174   0.5398461  )
       160           H   tau( 160) = (   1.2289575   0.7019587   0.7136824  )
       161           H   tau( 161) = (   1.2849998   0.6472135   0.4665222  )
       162           H   tau( 162) = (   0.3474864   0.6099626   0.7870062  )
       163           H   tau( 163) = (   0.3556007   0.5217489   0.3837419  )
       164           H   tau( 164) = (   1.2768855   0.7354272   0.8697865  )
       165           C   tau( 165) = (   0.9654932   0.3851225   0.3015357  )
       166           C   tau( 166) = (   0.6669930   0.8720536   0.9519927  )
       167           C   tau( 167) = (   0.1656902   0.2449684   0.3342126  )
       168           C   tau( 168) = (   1.4667961   1.0122077   0.9193158  )
       169           H   tau( 169) = (   0.2092195   0.2177037   0.4237645  )
       170           H   tau( 170) = (   1.4232667   1.0394723   0.8297639  )
       171           H   tau( 171) = (   1.1085839   0.1645689   0.3047614  )
       172           H   tau( 172) = (   0.5239023   1.0926071   0.9487670  )
       173           C   tau( 173) = (   0.2698248   0.2674277   0.2375572  )
       174           C   tau( 174) = (   1.3626614   0.9897484   1.0159713  )
       175           H   tau( 175) = (   0.3253314   0.1818438   0.2239747  )
       176           H   tau( 176) = (   1.3071548   1.0753323   1.0295538  )
       177           H   tau( 177) = (   0.3323402   0.3434235   0.2681168  )
       178           H   tau( 178) = (   1.3001461   0.9137526   0.9854116  )
       179           H   tau( 179) = (   0.2302545   0.2930694   0.1460400  )
       180           H   tau( 180) = (   1.4022318   0.9641067   1.1074884  )
       181           C   tau( 181) = (   1.0849514   0.3574453   0.3569180  )
       182           C   tau( 182) = (   0.5475348   0.8997308   0.8966105  )

     number of k points=     8
                       cart. coord. in units 2pi/alat
        k(    1) = (   0.0000000   0.0000000   0.0000000), wk =   0.2500000
        k(    2) = (   0.0000000   0.0000000  -0.3988741), wk =   0.2500000
        k(    3) = (   0.0000000  -0.4697306   0.0722234), wk =   0.2500000
        k(    4) = (   0.0000000  -0.4697306  -0.3266507), wk =   0.2500000
        k(    5) = (  -0.5000000   0.1732383   0.0785400), wk =   0.2500000
        k(    6) = (  -0.5000000   0.1732383  -0.3203341), wk =   0.2500000
        k(    7) = (  -0.5000000  -0.2964923   0.1507634), wk =   0.2500000
        k(    8) = (  -0.5000000  -0.2964923  -0.2481107), wk =   0.2500000

     Dense  grid:  1478039 G-vectors     FFT dimensions: ( 135, 150, 180)

     Estimated max dynamical RAM per process >    2104.39MB

     Estimated total allocated dynamical RAM >   16835.08MB

     Check: negative/imaginary core charge=   -0.000002    0.000000

     Initial potential from superposition of free atoms

     starting charge  455.99579, renormalised to  456.00000
     Starting wfc are  446 randomized atomic wfcs
     Checking if some PAW data can be deallocated... 

     total cpu time spent up to now is      197.4 secs

     per-process dynamical memory:  1378.7 Mb

     Self-consistent Calculation

     iteration #  1     ecut=   100.00 Ry     beta=0.50
     Davidson diagonalization with overlap
     ethr =  1.00E-02,  avg # of iterations =  4.0

     total cpu time spent up to now is      768.8 secs

     total energy              =   -1829.20333512 Ry
     Harris-Foulkes estimate   =   -1839.44079611 Ry
     estimated scf accuracy    <      19.59324005 Ry

     iteration #  2     ecut=   100.00 Ry     beta=0.50
     Davidson diagonalization with overlap
     ethr =  4.30E-03,  avg # of iterations =  2.0

     total cpu time spent up to now is     1043.3 secs

     total energy              =   -1828.97916315 Ry
     Harris-Foulkes estimate   =   -1830.57091259 Ry
     estimated scf accuracy    <       2.83202616 Ry

     iteration #  3     ecut=   100.00 Ry     beta=0.50
     Davidson diagonalization with overlap
     ethr =  6.21E-04,  avg # of iterations =  5.0

     total cpu time spent up to now is     1738.5 secs

     total energy              =   -1832.39295770 Ry
     Harris-Foulkes estimate   =   -1834.24493289 Ry
     estimated scf accuracy    <       6.99784595 Ry

     iteration #  4     ecut=   100.00 Ry     beta=0.50
     Davidson diagonalization with overlap
     ethr =  6.21E-04,  avg # of iterations =  1.0

     total cpu time spent up to now is     2009.4 secs

     total energy              =   -1832.16024233 Ry
     Harris-Foulkes estimate   =   -1832.65373362 Ry
     estimated scf accuracy    <       2.91916034 Ry

     iteration #  5     ecut=   100.00 Ry     beta=0.50
     Davidson diagonalization with overlap
     ethr =  6.21E-04,  avg # of iterations =  2.0

     total cpu time spent up to now is     2288.5 secs

     total energy              =   -1831.24500346 Ry
     Harris-Foulkes estimate   =   -1832.29309499 Ry
     estimated scf accuracy    <       1.65850735 Ry

     iteration #  6     ecut=   100.00 Ry     beta=0.50
     Davidson diagonalization with overlap
     ethr =  3.64E-04,  avg # of iterations =  6.1

     total cpu time spent up to now is     2940.0 secs

     total energy              =   -1832.25244213 Ry
     Harris-Foulkes estimate   =   -1832.66343210 Ry
     estimated scf accuracy    <       1.21102303 Ry

     iteration #  7     ecut=   100.00 Ry     beta=0.50
     Davidson diagonalization with overlap
     ethr =  2.66E-04,  avg # of iterations =  1.0

     total cpu time spent up to now is     3212.2 secs

     total energy              =   -1832.08391989 Ry
     Harris-Foulkes estimate   =   -1832.28508079 Ry
     estimated scf accuracy    <       0.48593253 Ry

     iteration #  8     ecut=   100.00 Ry     beta=0.50
     Davidson diagonalization with overlap
     ethr =  1.07E-04,  avg # of iterations =  8.4

     total cpu time spent up to now is     3691.0 secs

     total energy              =   -1832.27389612 Ry
     Harris-Foulkes estimate   =   -1832.27726502 Ry
     estimated scf accuracy    <       0.01784885 Ry

     iteration #  9     ecut=   100.00 Ry     beta=0.50
     Davidson diagonalization with overlap
     ethr =  3.91E-06,  avg # of iterations = 12.5

     total cpu time spent up to now is     4329.2 secs

     total energy              =   -1832.27393552 Ry
     Harris-Foulkes estimate   =   -1832.28076395 Ry
     estimated scf accuracy    <       0.01292753 Ry

     iteration # 10     ecut=   100.00 Ry     beta=0.50
     Davidson diagonalization with overlap
     ethr =  2.83E-06,  avg # of iterations =  4.0

     total cpu time spent up to now is     4628.1 secs

     total energy              =   -1832.27498132 Ry
     Harris-Foulkes estimate   =   -1832.27545723 Ry
     estimated scf accuracy    <       0.00114974 Ry

     iteration # 11     ecut=   100.00 Ry     beta=0.50
     Davidson diagonalization with overlap
     ethr =  2.52E-07,  avg # of iterations =  5.0

     total cpu time spent up to now is     5289.9 secs

     total energy              =   -1832.27717985 Ry
     Harris-Foulkes estimate   =   -1832.28024753 Ry
     estimated scf accuracy    <       0.00941306 Ry

     iteration # 12     ecut=   100.00 Ry     beta=0.50
     Davidson diagonalization with overlap
     ethr =  2.52E-07,  avg # of iterations =  5.9

     total cpu time spent up to now is     5677.4 secs

     total energy              =   -1832.27645303 Ry
     Harris-Foulkes estimate   =   -1832.27765351 Ry
     estimated scf accuracy    <       0.00236519 Ry

     iteration # 13     ecut=   100.00 Ry     beta=0.50
     Davidson diagonalization with overlap
     ethr =  2.52E-07,  avg # of iterations =  5.1

     total cpu time spent up to now is     6224.7 secs

     total energy              =   -1832.27728788 Ry
     Harris-Foulkes estimate   =   -1832.27727032 Ry
     estimated scf accuracy    <       0.00013879 Ry

     iteration # 14     ecut=   100.00 Ry     beta=0.50
     Davidson diagonalization with overlap
     ethr =  3.04E-08,  avg # of iterations =  1.9

     total cpu time spent up to now is     6500.8 secs

     total energy              =   -1832.27726912 Ry
     Harris-Foulkes estimate   =   -1832.27729828 Ry
     estimated scf accuracy    <       0.00017670 Ry

     iteration # 15     ecut=   100.00 Ry     beta=0.50
     Davidson diagonalization with overlap
     ethr =  3.04E-08,  avg # of iterations =  1.0

     total cpu time spent up to now is     6772.4 secs

     total energy              =   -1832.27722157 Ry
     Harris-Foulkes estimate   =   -1832.27727308 Ry
     estimated scf accuracy    <       0.00012107 Ry

     iteration # 16     ecut=   100.00 Ry     beta=0.50
     Davidson diagonalization with overlap
     ethr =  2.66E-08,  avg # of iterations =  1.0

     total cpu time spent up to now is     7044.7 secs

     total energy              =   -1832.27721348 Ry
     Harris-Foulkes estimate   =   -1832.27722909 Ry
     estimated scf accuracy    <       0.00003202 Ry

     iteration # 17     ecut=   100.00 Ry     beta=0.50
     Davidson diagonalization with overlap
     ethr =  7.02E-09,  avg # of iterations =  4.0

     total cpu time spent up to now is     7590.5 secs

     total energy              =   -1832.27723418 Ry
     Harris-Foulkes estimate   =   -1832.27724101 Ry
     estimated scf accuracy    <       0.00001833 Ry

     iteration # 18     ecut=   100.00 Ry     beta=0.50
     Davidson diagonalization with overlap
     ethr =  4.02E-09,  avg # of iterations =  1.0

     total cpu time spent up to now is     7858.2 secs

     total energy              =   -1832.27723200 Ry
     Harris-Foulkes estimate   =   -1832.27723497 Ry
     estimated scf accuracy    <       0.00000650 Ry

     iteration # 19     ecut=   100.00 Ry     beta=0.50
     Davidson diagonalization with overlap
     ethr =  1.42E-09,  avg # of iterations =  4.0

     total cpu time spent up to now is     8359.6 secs

     total energy              =   -1832.27723585 Ry
     Harris-Foulkes estimate   =   -1832.27723695 Ry
     estimated scf accuracy    <       0.00000443 Ry

     iteration # 20     ecut=   100.00 Ry     beta=0.50
     Davidson diagonalization with overlap
     ethr =  9.72E-10,  avg # of iterations =  1.8

     total cpu time spent up to now is     8635.2 secs

     total energy              =   -1832.27723500 Ry
     Harris-Foulkes estimate   =   -1832.27723605 Ry
     estimated scf accuracy    <       0.00000265 Ry

     iteration # 21     ecut=   100.00 Ry     beta=0.50
     Davidson diagonalization with overlap
     ethr =  5.81E-10,  avg # of iterations =  4.1

     total cpu time spent up to now is     9046.2 secs

     total energy              =   -1832.27723548 Ry
     Harris-Foulkes estimate   =   -1832.27723577 Ry
     estimated scf accuracy    <       0.00000065 Ry

     iteration # 22     ecut=   100.00 Ry     beta=0.50
     Davidson diagonalization with overlap
     ethr =  1.42E-10,  avg # of iterations =  4.0

     total cpu time spent up to now is     9347.0 secs

     total energy              =   -1832.27723549 Ry
     Harris-Foulkes estimate   =   -1832.27723555 Ry
     estimated scf accuracy    <       0.00000016 Ry

     iteration # 23     ecut=   100.00 Ry     beta=0.50
     Davidson diagonalization with overlap
     ethr =  3.44E-11,  avg # of iterations =  4.0

     total cpu time spent up to now is     9911.2 secs

     total energy              =   -1832.27723562 Ry
     Harris-Foulkes estimate   =   -1832.27723568 Ry
     estimated scf accuracy    <       0.00000021 Ry

     iteration # 24     ecut=   100.00 Ry     beta=0.50
     Davidson diagonalization with overlap
     ethr =  3.44E-11,  avg # of iterations =  1.0

     total cpu time spent up to now is    10177.2 secs

     total energy              =   -1832.27723558 Ry
     Harris-Foulkes estimate   =   -1832.27723562 Ry
     estimated scf accuracy    <       0.00000011 Ry

     iteration # 25     ecut=   100.00 Ry     beta=0.50
     Davidson diagonalization with overlap
     ethr =  2.44E-11,  avg # of iterations =  4.0

     total cpu time spent up to now is    10613.9 secs

     End of self-consistent calculation

          k = 0.0000 0.0000 0.0000 (184761 PWs)   bands (ev):

   -18.6302 -18.6208 -18.5411 -18.5383 -17.9722 -17.9551 -17.2408 -17.1971
   -16.3463 -16.3149 -15.5165 -15.5063 -14.3843 -14.3729 -14.2837 -14.2762
   -14.2597 -14.2351 -13.9920 -13.9790 -13.8350 -13.8097 -13.7619 -13.7245
   -13.2129 -13.2046 -13.0278 -13.0122 -12.8701 -12.8588 -12.7615 -12.7242
   -12.6699 -12.6246 -12.2330 -12.2169 -12.1844 -12.1104 -12.1037 -12.0624
   -11.5996 -11.5752 -11.5549 -11.5027 -11.4110 -11.4073 -10.6744 -10.6555
   -10.2992 -10.2937  -9.7960  -9.7879  -9.7428  -9.7137  -9.6793  -9.6714
    -9.5932  -9.5707  -9.3817  -9.3497  -9.2685  -9.2324  -9.1257  -8.9888
    -8.9862  -8.9851  -8.9001  -8.8929  -8.3611  -8.3126  -7.8783  -7.8694
    -7.7738  -7.7553  -7.5362  -7.4773  -7.4023  -7.3832  -7.3263  -7.2877
    -7.1390  -7.0918  -6.6352  -6.5773  -6.5461  -6.5253  -6.5121  -6.5082
    -6.0981  -6.0706  -5.9515  -5.9243  -5.5927  -5.5223  -5.5016  -5.4747
    -5.4403  -5.4375  -5.3733  -5.2523  -5.2160  -5.2032  -5.0908  -5.0263
    -4.9705  -4.9583  -4.9305  -4.8903  -4.8409  -4.8172  -4.7449  -4.6721
    -4.6667  -4.6236  -4.5640  -4.5379  -4.5041  -4.4292  -4.3818  -4.3534
    -4.3454  -4.3404  -4.2552  -4.2311  -4.2135  -4.2003  -4.1918  -4.1604
    -4.0026  -3.9886  -3.9660  -3.9450  -3.8986  -3.8886  -3.8412  -3.8147
    -3.7558  -3.7432  -3.6683  -3.5857  -3.5650  -3.5099  -3.4764  -3.4486
    -3.4371  -3.4014  -3.3378  -3.3002  -3.2857  -3.2729  -3.2171  -3.1783
    -3.1370  -3.1213  -3.0633  -3.0351  -3.0035  -2.9816  -2.9671  -2.9309
    -2.8620  -2.8537  -2.8151  -2.8119  -2.7967  -2.7695  -2.7569  -2.6266
    -2.5780  -2.5772  -2.5316  -2.5018  -2.5016  -2.4461  -2.3937  -2.3664
    -2.3580  -2.3474  -2.3185  -2.2862  -2.2806  -2.2374  -2.1898  -2.1792
    -2.1643  -2.1517  -2.0805  -2.0736  -2.0507  -2.0389  -2.0176  -1.9293
    -1.9254  -1.9177  -1.8525  -1.8433  -1.8327  -1.8127  -1.7978  -1.7264
    -1.6790  -1.6646  -1.5943  -1.5848  -1.5259  -1.4949  -1.3750  -1.2959
    -1.0975  -0.9957  -0.8322  -0.5048  -0.4004  -0.3064  -0.0646  -0.0268
    -0.0200   0.0047   0.1214   0.1585   0.1701   0.2091   0.7360   0.8015
     1.2059   1.2429   1.3003   1.5329   2.8854   2.9012   3.4127   3.5086
     4.0627   4.0728   5.1140   5.1901   5.4035   5.4437   5.4590   5.6593
     5.8148   5.9464   6.0503   6.2276   6.2370   6.3514   6.3679   6.5985
     6.6124   6.6199   6.6810   6.6931   6.7461   6.9294   6.9437   6.9810
     6.9853   7.0725   7.1210   7.1579   7.2115   7.3179   7.3615   7.4148
     7.4848   7.5357   7.5796   7.6111   7.6748   7.7644   7.7767   7.8542
     7.8928

          k = 0.0000 0.0000-0.3989 (184732 PWs)   bands (ev):

   -18.6262 -18.6249 -18.5421 -18.5374 -17.9712 -17.9559 -17.2409 -17.1969
   -16.3463 -16.3149 -15.5162 -15.5066 -14.3831 -14.3755 -14.2816 -14.2793
   -14.2512 -14.2418 -13.9887 -13.9819 -13.8396 -13.8060 -13.7437 -13.7417
   -13.2080 -13.2068 -13.0334 -13.0110 -12.8767 -12.8506 -12.7559 -12.7341
   -12.6630 -12.6284 -12.2267 -12.2256 -12.1632 -12.1336 -12.0975 -12.0635
   -11.5881 -11.5840 -11.5549 -11.5064 -11.4112 -11.4056 -10.6672 -10.6630
   -10.2999 -10.2920  -9.7959  -9.7940  -9.7348  -9.7195  -9.6756  -9.6731
    -9.6197  -9.5410  -9.3808  -9.3199  -9.2762  -9.2488  -9.1384  -9.0057
    -8.9760  -8.9682  -8.9151  -8.8876  -8.3500  -8.3225  -7.8997  -7.8566
    -7.7597  -7.7536  -7.5170  -7.4939  -7.4019  -7.3973  -7.3173  -7.2871
    -7.1169  -7.1157  -6.6177  -6.5967  -6.5634  -6.5344  -6.5288  -6.4650
    -6.0929  -6.0701  -5.9569  -5.9248  -5.5572  -5.5518  -5.4873  -5.4752
    -5.4694  -5.4314  -5.3593  -5.3017  -5.2017  -5.1809  -5.0622  -5.0455
    -5.0157  -4.9937  -4.8793  -4.8732  -4.8421  -4.7833  -4.7490  -4.7205
    -4.6549  -4.6366  -4.5293  -4.5137  -4.4844  -4.4513  -4.3922  -4.3688
    -4.3332  -4.3327  -4.2653  -4.2603  -4.2482  -4.2006  -4.1425  -4.1308
    -4.0565  -4.0176  -3.9507  -3.9192  -3.8959  -3.8545  -3.7940  -3.7895
    -3.7858  -3.7661  -3.6912  -3.6175  -3.5817  -3.4945  -3.4764  -3.4546
    -3.4099  -3.3678  -3.3559  -3.3549  -3.2799  -3.2754  -3.1890  -3.1806
    -3.1248  -3.0998  -3.0906  -3.0463  -3.0041  -2.9844  -2.9629  -2.9367
    -2.9344  -2.8432  -2.8315  -2.8098  -2.7653  -2.7538  -2.6700  -2.6355
    -2.5946  -2.5793  -2.5340  -2.5271  -2.4703  -2.4668  -2.4095  -2.3961
    -2.3336  -2.3150  -2.2957  -2.2664  -2.2515  -2.2356  -2.2217  -2.1894
    -2.1805  -2.1541  -2.1275  -2.0839  -2.0313  -2.0031  -1.9812  -1.9777
    -1.9413  -1.8996  -1.8868  -1.8490  -1.8428  -1.8171  -1.7990  -1.7021
    -1.6921  -1.6651  -1.5880  -1.5821  -1.5456  -1.4765  -1.3873  -1.2776
    -1.0498  -1.0483  -0.6584  -0.6544  -0.3878  -0.3368  -0.0714  -0.0577
     0.0130   0.0238   0.1394   0.1433   0.1675   0.2114   0.7345   0.8011
     1.1876   1.2683   1.3620   1.4510   2.8923   2.9022   3.4527   3.4962
     3.9975   4.1172   5.1047   5.2160   5.4076   5.4213   5.4583   5.6620
     5.7921   5.8854   6.0959   6.1817   6.3293   6.3900   6.4571   6.4637
     6.6023   6.6259   6.7268   6.7346   6.8102   6.8578   6.8830   6.9215
     6.9978   7.1303   7.1339   7.1453   7.2602   7.3034   7.3425   7.4222
     7.4860   7.5780   7.6009   7.6340   7.6472   7.6837   7.8249   7.8429
     7.8648

          k = 0.0000-0.4697 0.0722 (184708 PWs)   bands (ev):

   -18.6301 -18.6208 -18.5412 -18.5383 -17.9721 -17.9554 -17.2407 -17.1971
   -16.3440 -16.3167 -15.5195 -15.5027 -14.3828 -14.3737 -14.2855 -14.2793
   -14.2534 -14.2397 -13.9889 -13.9825 -13.8438 -13.7980 -13.7565 -13.7339
   -13.2211 -13.2103 -13.0416 -13.0329 -12.8464 -12.8245 -12.7632 -12.6965
   -12.6551 -12.6512 -12.2395 -12.2329 -12.1586 -12.1159 -12.0977 -12.0533
   -11.6168 -11.5763 -11.5499 -11.5080 -11.4401 -11.4063 -10.6831 -10.6793
   -10.3217 -10.2551  -9.7644  -9.7594  -9.7163  -9.7159  -9.6650  -9.6634
    -9.6423  -9.5584  -9.4037  -9.3532  -9.3008  -9.2472  -9.0944  -9.0514
    -8.9581  -8.9514  -8.9023  -8.8864  -8.3476  -8.2975  -7.8772  -7.8373
    -7.7842  -7.7336  -7.5385  -7.4625  -7.4432  -7.4224  -7.3273  -7.2882
    -7.1703  -7.1207  -6.6378  -6.5650  -6.5550  -6.5357  -6.5106  -6.4810
    -6.0786  -6.0739  -5.9638  -5.9354  -5.5528  -5.5479  -5.5413  -5.4343
    -5.4214  -5.3714  -5.3567  -5.2910  -5.2153  -5.1582  -5.0810  -5.0192
    -5.0122  -4.9573  -4.9424  -4.9041  -4.8664  -4.7837  -4.7114  -4.6998
    -4.6740  -4.6610  -4.6033  -4.4956  -4.4722  -4.4711  -4.4128  -4.3649
    -4.3624  -4.3179  -4.2329  -4.2169  -4.1880  -4.1781  -4.1133  -4.0964
    -4.0782  -4.0507  -4.0240  -3.9426  -3.9312  -3.8949  -3.8452  -3.7815
    -3.7349  -3.7230  -3.6665  -3.6020  -3.5446  -3.5383  -3.5016  -3.4918
    -3.4169  -3.4084  -3.3300  -3.3117  -3.2909  -3.2642  -3.2394  -3.1782
    -3.1289  -3.0699  -3.0579  -3.0426  -3.0118  -3.0101  -2.9392  -2.9272
    -2.8783  -2.8704  -2.8491  -2.8085  -2.7411  -2.7085  -2.6894  -2.6654
    -2.5919  -2.5856  -2.5709  -2.5646  -2.4781  -2.4659  -2.4494  -2.4024
    -2.3741  -2.3633  -2.3275  -2.3145  -2.2323  -2.1903  -2.1586  -2.1550
    -2.1356  -2.1003  -2.0851  -2.0815  -2.0314  -2.0004  -1.9510  -1.9468
    -1.9267  -1.9091  -1.8760  -1.8302  -1.8280  -1.7780  -1.7702  -1.7184
    -1.7065  -1.6922  -1.6664  -1.5736  -1.5352  -1.4929  -1.3873  -1.3180
    -1.1093  -1.0199  -0.8239  -0.5198  -0.3735  -0.3038  -0.0635  -0.0259
    -0.0253   0.0106   0.1314   0.1576   0.1825   0.1923   0.7587   0.7824
     1.2027   1.2237   1.3079   1.5334   2.8927   2.8964   3.4080   3.5364
     3.9771   4.1028   5.1297   5.1930   5.3734   5.4032   5.5610   5.6729
     5.7836   5.9246   6.1138   6.1450   6.2274   6.2418   6.4042   6.4249
     6.6211   6.6904   6.6913   6.7745   6.8357   6.8932   6.9741   7.0345
     7.0598   7.1617   7.1985   7.2527   7.3239   7.3514   7.3695   7.4335
     7.4640   7.5091   7.5114   7.6535   7.6597   7.6990   7.7021   7.7814
     7.8127

          k = 0.0000-0.4697-0.3267 (184696 PWs)   bands (ev):

   -18.6261 -18.6249 -18.5421 -18.5374 -17.9711 -17.9562 -17.2409 -17.1970
   -16.3440 -16.3167 -15.5198 -15.5024 -14.3809 -14.3770 -14.2835 -14.2823
   -14.2465 -14.2444 -13.9860 -13.9856 -13.8440 -13.7957 -13.7488 -13.7428
   -13.2310 -13.2002 -13.0378 -13.0372 -12.8415 -12.8328 -12.7407 -12.7303
   -12.6491 -12.6426 -12.2375 -12.2333 -12.1561 -12.1153 -12.1039 -12.0515
   -11.6018 -11.6001 -11.5423 -11.5101 -11.4266 -11.4173 -10.6904 -10.6716
   -10.2982 -10.2824  -9.7614  -9.7539  -9.7215  -9.7067  -9.6714  -9.6623
    -9.6154  -9.5881  -9.3796  -9.3755  -9.3264  -9.2238  -9.0871  -9.0519
    -8.9523  -8.9502  -8.9245  -8.8812  -8.3405  -8.3035  -7.8678  -7.8513
    -7.7769  -7.7355  -7.5045  -7.4894  -7.4379  -7.4361  -7.3113  -7.2977
    -7.1471  -7.1464  -6.6309  -6.5868  -6.5737  -6.5273  -6.5151  -6.4495
    -6.0806  -6.0699  -5.9635  -5.9399  -5.5709  -5.5192  -5.5028  -5.4909
    -5.4077  -5.4012  -5.3437  -5.2976  -5.1970  -5.1648  -5.0828  -5.0736
    -4.9972  -4.9833  -4.8989  -4.8977  -4.8275  -4.7502  -4.7327  -4.7167
    -4.6966  -4.6366  -4.5590  -4.5323  -4.4845  -4.4269  -4.4073  -4.3877
    -4.3839  -4.3535  -4.2535  -4.1972  -4.1964  -4.1511  -4.1212  -4.1102
    -4.0909  -4.0503  -3.9957  -3.9579  -3.9378  -3.8499  -3.8427  -3.7670
    -3.7270  -3.7045  -3.6531  -3.6419  -3.5838  -3.5694  -3.4833  -3.4684
    -3.4296  -3.4181  -3.3193  -3.3013  -3.2645  -3.2379  -3.2261  -3.2107
    -3.1627  -3.0866  -3.0394  -3.0228  -3.0167  -2.9995  -2.9839  -2.9507
    -2.8739  -2.8644  -2.8376  -2.8190  -2.7287  -2.7122  -2.6814  -2.6330
    -2.6300  -2.5971  -2.5618  -2.5249  -2.5178  -2.4559  -2.4517  -2.4028
    -2.3796  -2.3670  -2.3377  -2.2619  -2.2406  -2.1817  -2.1711  -2.1464
    -2.1282  -2.0860  -2.0854  -2.0723  -2.0566  -1.9964  -1.9605  -1.9425
    -1.9102  -1.8941  -1.8868  -1.8767  -1.8706  -1.7690  -1.7460  -1.7299
    -1.7015  -1.6855  -1.6679  -1.5885  -1.5649  -1.4599  -1.3724  -1.3265
    -1.0803  -1.0494  -0.6534  -0.6411  -0.4064  -0.3138  -0.0838  -0.0498
     0.0188   0.0191   0.1420   0.1478   0.1806   0.1987   0.7630   0.7816
     1.1778   1.2562   1.3628   1.4546   2.8839   2.9126   3.4561   3.5061
     4.0334   4.0340   5.1145   5.2101   5.3637   5.4430   5.5307   5.6725
     5.7756   5.9408   6.0394   6.1889   6.2166   6.2398   6.3963   6.4521
     6.7055   6.7193   6.7516   6.7774   6.8684   6.9343   6.9542   6.9608
     6.9690   7.0144   7.2157   7.2271   7.2867   7.3340   7.4220   7.4465
     7.5326   7.5399   7.6140   7.6385   7.6784   7.6897   7.7179   7.7225
     7.7907

          k =-0.5000 0.1732 0.0785 (184844 PWs)   bands (ev):

   -18.6296 -18.6204 -18.5417 -18.5388 -17.9721 -17.9552 -17.2408 -17.1971
   -16.3437 -16.3169 -15.5194 -15.5029 -14.3812 -14.3611 -14.3003 -14.2746
   -14.2635 -14.2411 -13.9929 -13.9841 -13.8307 -13.8096 -13.7439 -13.7340
   -13.2105 -13.2068 -13.0347 -13.0260 -12.8860 -12.8042 -12.7379 -12.7208
   -12.6816 -12.6359 -12.2459 -12.2437 -12.1612 -12.1028 -12.0841 -12.0589
   -11.6266 -11.5777 -11.5519 -11.5061 -11.4284 -11.4193 -10.6834 -10.6615
   -10.2946 -10.2549  -9.8436  -9.7924  -9.7169  -9.7056  -9.6571  -9.6545
    -9.5918  -9.5675  -9.3840  -9.3656  -9.2874  -9.2471  -9.1030  -9.0566
    -8.9949  -8.9275  -8.8884  -8.8884  -8.3348  -8.2985  -7.8716  -7.8400
    -7.7784  -7.7376  -7.5026  -7.4861  -7.4459  -7.4282  -7.3124  -7.2965
    -7.1972  -7.1294  -6.6178  -6.5647  -6.5618  -6.5281  -6.4950  -6.4894
    -6.0878  -6.0599  -5.9643  -5.9284  -5.5940  -5.5696  -5.5067  -5.5035
    -5.4508  -5.3903  -5.3779  -5.2835  -5.1542  -5.1329  -5.1113  -5.0642
    -4.9842  -4.9383  -4.8984  -4.8664  -4.7879  -4.7602  -4.7171  -4.7027
    -4.6693  -4.6310  -4.5760  -4.5496  -4.5214  -4.4763  -4.3847  -4.3596
    -4.3433  -4.3161  -4.3019  -4.2438  -4.2284  -4.1822  -4.1135  -4.1121
    -4.0381  -4.0155  -3.9633  -3.9064  -3.8990  -3.8956  -3.8497  -3.8145
    -3.8112  -3.7591  -3.7281  -3.6308  -3.6116  -3.5175  -3.4981  -3.4479
    -3.4323  -3.4153  -3.3364  -3.3169  -3.2459  -3.2271  -3.2220  -3.1465
    -3.1141  -3.0620  -3.0427  -3.0263  -3.0231  -3.0108  -2.9480  -2.9345
    -2.9221  -2.8712  -2.8490  -2.8395  -2.7525  -2.6979  -2.6651  -2.6313
    -2.6275  -2.5913  -2.5297  -2.5172  -2.5021  -2.4856  -2.4344  -2.4223
    -2.3879  -2.3659  -2.3555  -2.2676  -2.2596  -2.2352  -2.1831  -2.1413
    -2.1369  -2.0928  -2.0552  -2.0390  -2.0349  -1.9888  -1.9513  -1.9446
    -1.9393  -1.9183  -1.8888  -1.8477  -1.8452  -1.8161  -1.7663  -1.7198
    -1.6874  -1.6673  -1.6022  -1.5936  -1.5225  -1.4710  -1.4065  -1.3580
    -1.0735  -1.0369  -0.8238  -0.5082  -0.3892  -0.2873  -0.0621  -0.0215
    -0.0161   0.0152   0.0875   0.1662   0.1861   0.2034   0.7415   0.7906
     1.2045   1.2215   1.3013   1.5186   2.9010   2.9059   3.4197   3.5235
     3.9909   4.1035   5.0783   5.1910   5.4110   5.4235   5.6246   5.6405
     5.8250   5.8355   6.0390   6.1510   6.2296   6.2776   6.3234   6.4776
     6.5603   6.6429   6.6750   6.7524   6.7902   6.9518   6.9694   7.0398
     7.0766   7.1495   7.2187   7.2585   7.2723   7.3753   7.3949   7.4758
     7.4891   7.5472   7.5760   7.6503   7.7092   7.7243   7.7637   7.8466
     7.8521

          k =-0.5000 0.1732-0.3203 (184758 PWs)   bands (ev):

   -18.6256 -18.6244 -18.5426 -18.5379 -17.9711 -17.9561 -17.2409 -17.1969
   -16.3437 -16.3170 -15.5198 -15.5025 -14.3849 -14.3591 -14.2999 -14.2739
   -14.2566 -14.2477 -13.9883 -13.9877 -13.8356 -13.8073 -13.7438 -13.7313
   -13.2183 -13.1981 -13.0380 -13.0266 -12.8566 -12.8478 -12.7302 -12.7134
   -12.6716 -12.6455 -12.2532 -12.2387 -12.1469 -12.1168 -12.0837 -12.0567
   -11.6077 -11.6000 -11.5463 -11.5084 -11.4268 -11.4210 -10.6807 -10.6645
   -10.2794 -10.2721  -9.8363  -9.8014  -9.7099  -9.7051  -9.6619  -9.6480
    -9.5826  -9.5747  -9.3845  -9.3681  -9.2777  -9.2649  -9.1162  -9.0416
    -9.0004  -8.9099  -8.9005  -8.8856  -8.3271  -8.3053  -7.8643  -7.8525
    -7.7636  -7.7502  -7.4844  -7.4754  -7.4662  -7.4413  -7.3024  -7.2988
    -7.1698  -7.1576  -6.6096  -6.5779  -6.5747  -6.5267  -6.5125  -6.4578
    -6.0787  -6.0678  -5.9585  -5.9392  -5.5940  -5.5608  -5.5040  -5.4833
    -5.4597  -5.3872  -5.3821  -5.3186  -5.1661  -5.1333  -5.0713  -5.0355
    -5.0164  -4.9574  -4.8544  -4.8507  -4.7894  -4.7463  -4.7135  -4.7130
    -4.6868  -4.6165  -4.5976  -4.5708  -4.5680  -4.4744  -4.3749  -4.3585
    -4.3437  -4.3350  -4.2861  -4.2551  -4.2103  -4.1621  -4.1017  -4.0809
    -4.0376  -4.0263  -3.9643  -3.9373  -3.9104  -3.8940  -3.8619  -3.8203
    -3.8058  -3.7785  -3.6602  -3.6306  -3.6250  -3.5281  -3.4740  -3.4660
    -3.4173  -3.4034  -3.3618  -3.3463  -3.2795  -3.2411  -3.1981  -3.1536
    -3.1353  -3.0824  -3.0418  -3.0050  -2.9933  -2.9654  -2.9420  -2.9307
    -2.8927  -2.8778  -2.8675  -2.8235  -2.7458  -2.6886  -2.6535  -2.6397
    -2.5954  -2.5777  -2.5619  -2.5515  -2.5443  -2.4667  -2.4601  -2.4108
    -2.3989  -2.3495  -2.3131  -2.3022  -2.2430  -2.2302  -2.1797  -2.1520
    -2.1265  -2.1238  -2.0725  -2.0260  -2.0243  -2.0040  -1.9667  -1.9598
    -1.9119  -1.8970  -1.8954  -1.8579  -1.8257  -1.8157  -1.7794  -1.7349
    -1.6706  -1.6687  -1.6271  -1.5966  -1.5331  -1.4642  -1.3787  -1.3704
    -1.0688  -1.0425  -0.6580  -0.6559  -0.3834  -0.3139  -0.0758  -0.0516
     0.0119   0.0178   0.1309   0.1488   0.1874   0.2031   0.7412   0.7997
     1.1805   1.2540   1.3536   1.4463   2.8858   2.9230   3.4680   3.4859
     4.0386   4.0557   5.0688   5.2028   5.4126   5.5091   5.5241   5.6538
     5.8140   5.8434   6.0230   6.1155   6.1417   6.2532   6.4567   6.5560
     6.6122   6.6550   6.6951   6.7165   6.7999   6.8049   6.9408   6.9936
     7.0373   7.1767   7.2049   7.3473   7.3542   7.4138   7.4433   7.4595
     7.5557   7.6084   7.6137   7.6459   7.6958   7.7135   7.7589   7.7595
     7.7913

          k =-0.5000-0.2965 0.1508 (184792 PWs)   bands (ev):

   -18.6296 -18.6204 -18.5417 -18.5388 -17.9721 -17.9551 -17.2407 -17.1971
   -16.3460 -16.3152 -15.5164 -15.5064 -14.3809 -14.3606 -14.3011 -14.2728
   -14.2633 -14.2432 -13.9892 -13.9868 -13.8419 -13.7981 -13.7374 -13.7363
   -13.2087 -13.1910 -13.0194 -13.0118 -12.8986 -12.8407 -12.7521 -12.7365
   -12.6615 -12.6521 -12.2436 -12.2276 -12.1549 -12.1130 -12.1030 -12.0674
   -11.6164 -11.5699 -11.5492 -11.5095 -11.4222 -11.3935 -10.6699 -10.6517
   -10.2903 -10.2821  -9.8634  -9.8229  -9.7223  -9.6964  -9.6449  -9.6406
    -9.5810  -9.5805  -9.3225  -9.3159  -9.3085  -9.2812  -9.0900  -9.0789
    -8.9905  -8.9429  -8.9338  -8.8879  -8.3345  -8.3219  -7.8732  -7.8708
    -7.7669  -7.7514  -7.5129  -7.4678  -7.4365  -7.3953  -7.2987  -7.2902
    -7.1702  -7.0922  -6.6498  -6.5709  -6.5419  -6.5382  -6.5015  -6.4893
    -6.0855  -6.0700  -5.9310  -5.9246  -5.5932  -5.5596  -5.5417  -5.5119
    -5.4817  -5.4239  -5.3706  -5.3054  -5.1855  -5.1086  -5.0962  -5.0547
    -4.9528  -4.9509  -4.9028  -4.8831  -4.8223  -4.7475  -4.6974  -4.6576
    -4.6036  -4.6005  -4.5777  -4.5204  -4.5198  -4.4383  -4.4098  -4.3982
    -4.3506  -4.3243  -4.3119  -4.3085  -4.2751  -4.2100  -4.1199  -4.0730
    -4.0535  -4.0015  -3.9885  -3.9385  -3.9163  -3.8658  -3.8419  -3.8182
    -3.8001  -3.7642  -3.6677  -3.6581  -3.5608  -3.5413  -3.4853  -3.4672
    -3.4340  -3.4203  -3.3653  -3.3465  -3.2574  -3.2035  -3.1462  -3.1385
    -3.0899  -3.0898  -3.0435  -3.0252  -3.0173  -3.0172  -2.9623  -2.9350
    -2.9094  -2.8884  -2.8798  -2.8164  -2.7300  -2.7093  -2.6824  -2.6131
    -2.5884  -2.5581  -2.5513  -2.5290  -2.5159  -2.4857  -2.4576  -2.3968
    -2.3440  -2.3383  -2.2949  -2.2859  -2.2635  -2.2427  -2.2276  -2.1949
    -2.1466  -2.0747  -2.0662  -2.0429  -2.0378  -2.0273  -1.9671  -1.9634
    -1.9596  -1.9323  -1.8971  -1.8390  -1.8040  -1.7869  -1.7513  -1.7402
    -1.7030  -1.6497  -1.6453  -1.5575  -1.5369  -1.4858  -1.3798  -1.3306
    -1.0696  -1.0106  -0.8282  -0.5310  -0.3600  -0.3056  -0.0614  -0.0326
    -0.0215   0.0132   0.0958   0.1577   0.1813   0.2094   0.7640   0.7761
     1.2061   1.2303   1.2851   1.5223   2.8826   2.9057   3.4141   3.5119
     4.0758   4.0805   5.0995   5.1861   5.4339   5.4556   5.5448   5.5587
     5.7378   5.8501   6.1883   6.2096   6.2714   6.2804   6.4047   6.4050
     6.5855   6.5951   6.6598   6.7569   6.7625   6.8949   6.9770   7.0275
     7.0367   7.1302   7.2434   7.2509   7.3450   7.3495   7.3670   7.4601
     7.4648   7.5207   7.6191   7.7181   7.7241   7.7488   7.7545   7.8089
     7.8386

          k =-0.5000-0.2965-0.2481 (184748 PWs)   bands (ev):

   -18.6257 -18.6244 -18.5426 -18.5379 -17.9711 -17.9560 -17.2409 -17.1969
   -16.3460 -16.3152 -15.5161 -15.5068 -14.3810 -14.3614 -14.3007 -14.2726
   -14.2566 -14.2501 -13.9896 -13.9858 -13.8433 -13.7967 -13.7455 -13.7272
   -13.2182 -13.1806 -13.0217 -13.0139 -12.8702 -12.8674 -12.7559 -12.7329
   -12.6736 -12.6409 -12.2365 -12.2335 -12.1526 -12.1133 -12.1036 -12.0684
   -11.5998 -11.5938 -11.5380 -11.5130 -11.4129 -11.4035 -10.6651 -10.6559
   -10.2950 -10.2787  -9.8692  -9.8137  -9.7122  -9.7021  -9.6447  -9.6433
    -9.5959  -9.5724  -9.3259  -9.3193  -9.3111  -9.2738  -9.0762  -9.0724
    -9.0092  -8.9399  -8.9276  -8.8939  -8.3318  -8.3244  -7.8841  -7.8638
    -7.7854  -7.7273  -7.4916  -7.4785  -7.4285  -7.4233  -7.3002  -7.2816
    -7.1339  -7.1295  -6.6388  -6.5812  -6.5502  -6.5381  -6.5261  -6.4585
    -6.1010  -6.0526  -5.9381  -5.9222  -5.5662  -5.5550  -5.5234  -5.5202
    -5.4865  -5.4789  -5.3710  -5.3023  -5.1356  -5.1195  -5.0580  -5.0333
    -5.0038  -4.9688  -4.8956  -4.8795  -4.8061  -4.7434  -4.7116  -4.7008
    -4.6257  -4.5768  -4.5641  -4.5423  -4.4949  -4.4813  -4.4375  -4.3867
    -4.3469  -4.3279  -4.2952  -4.2714  -4.2433  -4.2009  -4.1691  -4.1036
    -4.0316  -3.9881  -3.9750  -3.9297  -3.8907  -3.8861  -3.8246  -3.8112
    -3.8055  -3.7876  -3.7330  -3.6286  -3.5642  -3.5237  -3.4953  -3.4660
    -3.4266  -3.4150  -3.3707  -3.3517  -3.2472  -3.2395  -3.1848  -3.1566
    -3.0694  -3.0459  -3.0317  -3.0278  -3.0018  -2.9667  -2.9566  -2.9128
    -2.9127  -2.9031  -2.8487  -2.8044  -2.7849  -2.7359  -2.6855  -2.6324
    -2.5707  -2.5641  -2.5447  -2.5374  -2.5099  -2.5002  -2.4740  -2.3768
    -2.3539  -2.3461  -2.3029  -2.2862  -2.2459  -2.2258  -2.1774  -2.1743
    -2.1693  -2.1327  -2.0724  -2.0569  -2.0520  -1.9977  -1.9714  -1.9546
    -1.9289  -1.9134  -1.8661  -1.8634  -1.8316  -1.7937  -1.7632  -1.7550
    -1.6987  -1.6894  -1.6201  -1.5779  -1.5513  -1.4634  -1.3796  -1.3152
    -1.0511  -1.0275  -0.6715  -0.6611  -0.4077  -0.2939  -0.0742  -0.0570
     0.0088   0.0190   0.1309   0.1424   0.1869   0.2053   0.7699   0.7751
     1.1777   1.2624   1.3438   1.4491   2.8884   2.9023   3.4523   3.4964
     4.0168   4.1250   5.1001   5.2069   5.4327   5.4463   5.5386   5.5644
     5.7526   5.8457   6.0535   6.1963   6.2644   6.3848   6.4339   6.4679
     6.5249   6.5806   6.5963   6.7865   6.8287   6.8921   6.9455   7.0455
     7.0516   7.1038   7.1660   7.2581   7.3572   7.4126   7.4583   7.4667
     7.5472   7.6078   7.6365   7.6585   7.7161   7.7440   7.7709   7.7951
     7.7958

     highest occupied, lowest unoccupied level (ev):     1.5334    2.8826

!    total energy              =   -1832.27723561 Ry
     Harris-Foulkes estimate   =   -1832.27723562 Ry
     estimated scf accuracy    <          2.7E-09 Ry

     total all-electron energy =     -7150.864750 Ry

     The total energy is the sum of the following terms:

     one-electron contribution =   -1214.27188741 Ry
     hartree contribution      =     768.54652431 Ry
     xc contribution           =    -444.92909298 Ry
     ewald contribution        =    -339.07903653 Ry
     Dispersion Correction     =      -0.87317614 Ry
     one-center paw contrib.   =    -601.67056687 Ry

     convergence has been achieved in  25 iterations

     Forces acting on atoms (cartesian axes, Ry/au):

     atom    1 type  2   force =     0.00063366   -0.00049076   -0.00011841
     atom    2 type  2   force =    -0.00063366    0.00049076    0.00011841
     atom    3 type  1   force =     0.00001924    0.00039161    0.00010112
     atom    4 type  1   force =    -0.00001924   -0.00039161   -0.00010112
     atom    5 type  1   force =     0.00069804    0.00027695    0.00061090
     atom    6 type  1   force =    -0.00069804   -0.00027695   -0.00061090
     atom    7 type  1   force =     0.00004981   -0.00102289   -0.00008087
     atom    8 type  1   force =    -0.00004981    0.00102289    0.00008087
     atom    9 type  3   force =     0.00016093    0.00020947   -0.00002257
     atom   10 type  3   force =    -0.00016093   -0.00020947    0.00002257
     atom   11 type  1   force =    -0.00030609    0.00041564   -0.00013762
     atom   12 type  1   force =     0.00030609   -0.00041564    0.00013762
     atom   13 type  1   force =    -0.00083866    0.00061116   -0.00048951
     atom   14 type  1   force =     0.00083866   -0.00061116    0.00048951
     atom   15 type  2   force =     0.00059134    0.00001616    0.00050939
     atom   16 type  2   force =    -0.00059134   -0.00001616   -0.00050939
     atom   17 type  1   force =    -0.00012279   -0.00026967    0.00005539
     atom   18 type  1   force =     0.00012279    0.00026967   -0.00005539
     atom   19 type  1   force =     0.00054289    0.00029431   -0.00014152
     atom   20 type  1   force =    -0.00054289   -0.00029431    0.00014152
     atom   21 type  3   force =     0.00023919    0.00012385    0.00010253
     atom   22 type  3   force =    -0.00023919   -0.00012385   -0.00010253
     atom   23 type  3   force =     0.00038983    0.00012355   -0.00023046
     atom   24 type  3   force =    -0.00038983   -0.00012355    0.00023046
     atom   25 type  1   force =     0.00013750   -0.00001868    0.00013785
     atom   26 type  1   force =    -0.00013750    0.00001868   -0.00013785
     atom   27 type  3   force =    -0.00013514   -0.00019496    0.00009881
     atom   28 type  3   force =     0.00013514    0.00019496   -0.00009881
     atom   29 type  3   force =    -0.00014317    0.00027933   -0.00008292
     atom   30 type  3   force =     0.00014317   -0.00027933    0.00008292
     atom   31 type  3   force =     0.00049666    0.00003252   -0.00004323
     atom   32 type  3   force =    -0.00049666   -0.00003252    0.00004323
     atom   33 type  1   force =    -0.00089347    0.00039909    0.00050668
     atom   34 type  1   force =     0.00089347   -0.00039909   -0.00050668
     atom   35 type  3   force =    -0.00025852   -0.00017851    0.00000069
     atom   36 type  3   force =     0.00025852    0.00017851   -0.00000069
     atom   37 type  1   force =     0.00033633   -0.00017536   -0.00000274
     atom   38 type  1   force =    -0.00033633    0.00017536    0.00000274
     atom   39 type  3   force =     0.00028218    0.00011617    0.00031875
     atom   40 type  3   force =    -0.00028218   -0.00011617   -0.00031875
     atom   41 type  3   force =    -0.00004557    0.00014536   -0.00007975
     atom   42 type  3   force =     0.00004557   -0.00014536    0.00007975
     atom   43 type  1   force =     0.00024471    0.00012063    0.00011746
     atom   44 type  1   force =    -0.00024471   -0.00012063   -0.00011746
     atom   45 type  3   force =     0.00007743    0.00013237   -0.00013157
     atom   46 type  3   force =    -0.00007743   -0.00013237    0.00013157
     atom   47 type  3   force =     0.00025915    0.00027408    0.00067951
     atom   48 type  3   force =    -0.00025915   -0.00027408   -0.00067951
     atom   49 type  3   force =    -0.00023830    0.00050169   -0.00007626
     atom   50 type  3   force =     0.00023830   -0.00050169    0.00007626
     atom   51 type  1   force =     0.00043149   -0.00016447   -0.00053276
     atom   52 type  1   force =    -0.00043149    0.00016447    0.00053276
     atom   53 type  1   force =    -0.00061552    0.00045550    0.00027704
     atom   54 type  1   force =     0.00061552   -0.00045550   -0.00027704
     atom   55 type  3   force =     0.00038884   -0.00036828    0.00035119
     atom   56 type  3   force =    -0.00038884    0.00036828   -0.00035119
     atom   57 type  2   force =     0.00039214    0.00040415    0.00141442
     atom   58 type  2   force =    -0.00039214   -0.00040415   -0.00141442
     atom   59 type  3   force =     0.00022197   -0.00076780    0.00038849
     atom   60 type  3   force =    -0.00022197    0.00076780   -0.00038849
     atom   61 type  1   force =    -0.00092044   -0.00028350   -0.00008825
     atom   62 type  1   force =     0.00092044    0.00028350    0.00008825
     atom   63 type  1   force =    -0.00021591   -0.00017555   -0.00010420
     atom   64 type  1   force =     0.00021591    0.00017555    0.00010420
     atom   65 type  1   force =    -0.00086214   -0.00004016    0.00012805
     atom   66 type  1   force =     0.00086214    0.00004016   -0.00012805
     atom   67 type  3   force =     0.00004041    0.00030331    0.00002053
     atom   68 type  3   force =    -0.00004041   -0.00030331   -0.00002053
     atom   69 type  3   force =     0.00051891   -0.00020425   -0.00021284
     atom   70 type  3   force =    -0.00051891    0.00020425    0.00021284
     atom   71 type  1   force =     0.00012211    0.00039298   -0.00031766
     atom   72 type  1   force =    -0.00012211   -0.00039298    0.00031766
     atom   73 type  3   force =    -0.00000378   -0.00015627   -0.00012687
     atom   74 type  3   force =     0.00000378    0.00015627    0.00012687
     atom   75 type  3   force =     0.00025760   -0.00019337   -0.00005512
     atom   76 type  3   force =    -0.00025760    0.00019337    0.00005512
     atom   77 type  3   force =     0.00017526   -0.00015512   -0.00006590
     atom   78 type  3   force =    -0.00017526    0.00015512    0.00006590
     atom   79 type  1   force =    -0.00006342    0.00015556   -0.00056326
     atom   80 type  1   force =     0.00006342   -0.00015556    0.00056326
     atom   81 type  1   force =    -0.00025194   -0.00019398   -0.00003582
     atom   82 type  1   force =     0.00025194    0.00019398    0.00003582
     atom   83 type  3   force =     0.00037366   -0.00052836    0.00006941
     atom   84 type  3   force =    -0.00037366    0.00052836   -0.00006941
     atom   85 type  3   force =     0.00017142   -0.00002376   -0.00001064
     atom   86 type  3   force =    -0.00017142    0.00002376    0.00001064
     atom   87 type  1   force =     0.00011646   -0.00022167    0.00016630
     atom   88 type  1   force =    -0.00011646    0.00022167   -0.00016630
     atom   89 type  3   force =     0.00020938   -0.00026385   -0.00005109
     atom   90 type  3   force =    -0.00020938    0.00026385    0.00005109
     atom   91 type  3   force =     0.00013441   -0.00017161   -0.00008270
     atom   92 type  3   force =    -0.00013441    0.00017161    0.00008270
     atom   93 type  3   force =     0.00005297   -0.00046061    0.00014326
     atom   94 type  3   force =    -0.00005297    0.00046061   -0.00014326
     atom   95 type  1   force =     0.00049585   -0.00018652   -0.00086860
     atom   96 type  1   force =    -0.00049585    0.00018652    0.00086860
     atom   97 type  1   force =    -0.00097891   -0.00027105   -0.00096617
     atom   98 type  1   force =     0.00097891    0.00027105    0.00096617
     atom   99 type  3   force =    -0.00016118   -0.00019565    0.00008414
     atom  100 type  3   force =     0.00016118    0.00019565   -0.00008414
     atom  101 type  2   force =     0.00022280    0.00084091    0.00007700
     atom  102 type  2   force =    -0.00022280   -0.00084091   -0.00007700
     atom  103 type  1   force =     0.00036353   -0.00044134    0.00052753
     atom  104 type  1   force =    -0.00036353    0.00044134   -0.00052753
     atom  105 type  1   force =    -0.00069479   -0.00043336    0.00064696
     atom  106 type  1   force =     0.00069479    0.00043336   -0.00064696
     atom  107 type  1   force =     0.00008673   -0.00020240   -0.00032584
     atom  108 type  1   force =    -0.00008673    0.00020240    0.00032584
     atom  109 type  3   force =    -0.00054725    0.00018649   -0.00023474
     atom  110 type  3   force =     0.00054725   -0.00018649    0.00023474
     atom  111 type  3   force =    -0.00000474    0.00025104    0.00020824
     atom  112 type  3   force =     0.00000474   -0.00025104   -0.00020824
     atom  113 type  1   force =    -0.00008604    0.00020554   -0.00018799
     atom  114 type  1   force =     0.00008604   -0.00020554    0.00018799
     atom  115 type  3   force =     0.00000912    0.00016786   -0.00014562
     atom  116 type  3   force =    -0.00000912   -0.00016786    0.00014562
     atom  117 type  3   force =    -0.00030669   -0.00005111    0.00023136
     atom  118 type  3   force =     0.00030669    0.00005111   -0.00023136
     atom  119 type  3   force =    -0.00012250    0.00028788   -0.00015301
     atom  120 type  3   force =     0.00012250   -0.00028788    0.00015301
     atom  121 type  1   force =     0.00022639   -0.00023302    0.00071704
     atom  122 type  1   force =    -0.00022639    0.00023302   -0.00071704
     atom  123 type  1   force =    -0.00040673   -0.00022005   -0.00030323
     atom  124 type  1   force =     0.00040673    0.00022005    0.00030323
     atom  125 type  3   force =     0.00034727    0.00002674    0.00027921
     atom  126 type  3   force =    -0.00034727   -0.00002674   -0.00027921
     atom  127 type  3   force =     0.00038416    0.00000777    0.00029017
     atom  128 type  3   force =    -0.00038416   -0.00000777   -0.00029017
     atom  129 type  1   force =     0.00031420    0.00022351    0.00017020
     atom  130 type  1   force =    -0.00031420   -0.00022351   -0.00017020
     atom  131 type  3   force =    -0.00001748   -0.00003288   -0.00006891
     atom  132 type  3   force =     0.00001748    0.00003288    0.00006891
     atom  133 type  3   force =     0.00001809    0.00012727   -0.00020395
     atom  134 type  3   force =    -0.00001809   -0.00012727    0.00020395
     atom  135 type  3   force =    -0.00012068   -0.00041775    0.00050367
     atom  136 type  3   force =     0.00012068    0.00041775   -0.00050367
     atom  137 type  1   force =    -0.00036949    0.00005906   -0.00026702
     atom  138 type  1   force =     0.00036949   -0.00005906    0.00026702
     atom  139 type  1   force =     0.00071903   -0.00035231   -0.00052771
     atom  140 type  1   force =    -0.00071903    0.00035231    0.00052771
     atom  141 type  3   force =    -0.00029483   -0.00000049   -0.00008062
     atom  142 type  3   force =     0.00029483    0.00000049    0.00008062
     atom  143 type  1   force =     0.00031533    0.00005865   -0.00023422
     atom  144 type  1   force =    -0.00031533   -0.00005865    0.00023422
     atom  145 type  2   force =    -0.00059395    0.00027925   -0.00049105
     atom  146 type  2   force =     0.00059395   -0.00027925    0.00049105
     atom  147 type  3   force =    -0.00065235    0.00041092   -0.00063817
     atom  148 type  3   force =     0.00065235   -0.00041092    0.00063817
     atom  149 type  1   force =     0.00035983   -0.00015676    0.00031809
     atom  150 type  1   force =    -0.00035983    0.00015676   -0.00031809
     atom  151 type  1   force =     0.00077070    0.00001831   -0.00038014
     atom  152 type  1   force =    -0.00077070   -0.00001831    0.00038014
     atom  153 type  3   force =    -0.00042922   -0.00000101    0.00007631
     atom  154 type  3   force =     0.00042922    0.00000101   -0.00007631
     atom  155 type  3   force =     0.00020804    0.00028542    0.00016296
     atom  156 type  3   force =    -0.00020804   -0.00028542   -0.00016296
     atom  157 type  1   force =    -0.00010119   -0.00021814    0.00029209
     atom  158 type  1   force =     0.00010119    0.00021814   -0.00029209
     atom  159 type  3   force =    -0.00024590    0.00015250    0.00006676
     atom  160 type  3   force =     0.00024590   -0.00015250   -0.00006676
     atom  161 type  3   force =    -0.00002797    0.00031136    0.00005705
     atom  162 type  3   force =     0.00002797   -0.00031136   -0.00005705
     atom  163 type  3   force =    -0.00014756    0.00026131    0.00004779
     atom  164 type  3   force =     0.00014756   -0.00026131   -0.00004779
     atom  165 type  1   force =    -0.00044926   -0.00067235    0.00085831
     atom  166 type  1   force =     0.00044926    0.00067235   -0.00085831
     atom  167 type  1   force =    -0.00010709    0.00073760   -0.00028494
     atom  168 type  1   force =     0.00010709   -0.00073760    0.00028494
     atom  169 type  3   force =    -0.00023887   -0.00005158   -0.00024890
     atom  170 type  3   force =     0.00023887    0.00005158    0.00024890
     atom  171 type  3   force =    -0.00038941   -0.00014161   -0.00040738
     atom  172 type  3   force =     0.00038941    0.00014161    0.00040738
     atom  173 type  1   force =     0.00025949   -0.00002998   -0.00069250
     atom  174 type  1   force =    -0.00025949    0.00002998    0.00069250
     atom  175 type  3   force =    -0.00038749    0.00045680   -0.00024819
     atom  176 type  3   force =     0.00038749   -0.00045680    0.00024819
     atom  177 type  3   force =    -0.00008964    0.00077567   -0.00015157
     atom  178 type  3   force =     0.00008964   -0.00077567    0.00015157
     atom  179 type  3   force =    -0.00007718    0.00011552    0.00009504
     atom  180 type  3   force =     0.00007718   -0.00011552   -0.00009504
     atom  181 type  1   force =     0.00049164   -0.00068029    0.00067182
     atom  182 type  1   force =    -0.00049164    0.00068029   -0.00067182

     Total force =     0.008553     Total SCF correction =     0.000110


     Computing stress (Cartesian axis) and pressure

          total   stress  (Ry/bohr**3)                   (kbar)     P=   -5.24
  -0.00003595   0.00000087  -0.00000062         -5.29      0.13     -0.09
   0.00000087  -0.00003206  -0.00000119          0.13     -4.72     -0.17
  -0.00000062  -0.00000119  -0.00003876         -0.09     -0.17     -5.70


     Writing output data file scf.save
 
     init_run     :    192.06s CPU    196.71s WALL (       1 calls)
     electrons    :  10148.35s CPU  10416.73s WALL (       1 calls)
     forces       :     83.71s CPU     84.26s WALL (       1 calls)
     stress       :    407.04s CPU    407.83s WALL (       1 calls)

     Called by init_run:
     wfcinit      :    172.23s CPU    176.59s WALL (       1 calls)
     potinit      :      6.90s CPU      6.96s WALL (       1 calls)

     Called by electrons:
     c_bands      :   9161.80s CPU   9390.75s WALL (      25 calls)
     sum_band     :    945.10s CPU    979.73s WALL (      25 calls)
     v_of_rho     :      6.98s CPU      7.55s WALL (      26 calls)
     newd         :     18.30s CPU     22.54s WALL (      26 calls)
     PAW_pot      :     14.37s CPU     14.38s WALL (      26 calls)
     mix_rho      :      1.70s CPU      1.78s WALL (      25 calls)

     Called by c_bands:
     init_us_2    :     33.48s CPU     33.66s WALL (     424 calls)
     cegterg      :   9030.81s CPU   9259.19s WALL (     200 calls)

     Called by sum_band:
     sum_band:bec :      0.30s CPU      0.30s WALL (     200 calls)
     addusdens    :     18.39s CPU     22.55s WALL (      25 calls)

     Called by *egterg:
     h_psi        :   4917.78s CPU   5098.47s WALL (     958 calls)
     s_psi        :   1162.45s CPU   1162.53s WALL (     958 calls)
     g_psi        :     15.55s CPU     15.55s WALL (     750 calls)
     cdiaghg      :    389.16s CPU    389.21s WALL (     950 calls)

     Called by h_psi:
     h_psi:pot    :   4894.94s CPU   5075.18s WALL (     958 calls)
     h_psi:calbec :   1139.33s CPU   1140.74s WALL (     958 calls)
     vloc_psi     :   2593.37s CPU   2771.85s WALL (     958 calls)
     add_vuspsi   :   1162.22s CPU   1162.58s WALL (     958 calls)

     General routines
     calbec       :   1604.48s CPU   1606.51s WALL (    1198 calls)
     fft          :      6.21s CPU      7.16s WALL (     362 calls)
     fftw         :   2633.33s CPU   2840.59s WALL (  372530 calls)
 
     Parallel routines
     fft_scatter  :    517.99s CPU    726.38s WALL (  372892 calls)
 
     PWSCF        :     3h 0m CPU        3h 6m WALL

 
   This run was terminated on:   8:15:22  21Dec2017            

=------------------------------------------------------------------------------=
   JOB DONE.
=------------------------------------------------------------------------------=
