
     Program PWSCF v.6.1 (svn rev. 13369) starts on 15Dec2017 at  6: 9:39 

     This program is part of the open-source Quantum ESPRESSO suite
     for quantum simulation of materials; please cite
         "P. Giannozzi et al., J. Phys.:Condens. Matter 21 395502 (2009);
          URL http://www.quantum-espresso.org", 
     in publications or presentations arising from this work. More details at
     http://www.quantum-espresso.org/quote

     Parallel version (MPI), running on     8 processors
     R & G space division:  proc/nbgrp/npool/nimage =       8
     Waiting for input...
     Reading input from standard input

     Current dimensions of program PWSCF are:
     Max number of different atomic species (ntypx) = 10
     Max number of k-points (npk) =  40000
     Max angular momentum in pseudopotentials (lmaxx) =  3
               file C.pbe-n-kjpaw_psl.0.1.UPF: wavefunction(s)  2P renormalized
               file N.pbe-n-kjpaw_psl.0.1.UPF: wavefunction(s)  2P renormalized
               file H.pbe-kjpaw_psl.0.1.UPF: wavefunction(s)  1S renormalized
               file O.pbe-n-kjpaw_psl.0.1.UPF: wavefunction(s)  2P renormalized

     -------------------------------------
     Parameters for Dispersion Correction:
     -------------------------------------
       atom      VdW radius       C_6     

        C          2.744         60.710
        N          2.640         42.670
        H          1.892          4.857
        O          2.536         24.284

     Subspace diagonalization in iterative solution of the eigenvalue problem:
     a serial algorithm will be used

 
     Parallelization info
     --------------------
     sticks:   dense  smooth     PW     G-vecs:    dense   smooth      PW
     Min        1548    1548    407               162782   162782   21975
     Max        1549    1549    409               162785   162785   21978
     Sum       12391   12391   3265              1302271  1302271  175805
 


     bravais-lattice index     =            0
     lattice parameter (alat)  =      17.9052  a.u.
     unit-cell volume          =    9639.0029 (a.u.)^3
     number of atoms/cell      =          176
     number of atomic types    =            4
     number of electrons       =       448.00
     number of Kohn-Sham states=          268
     kinetic-energy cutoff     =     100.0000  Ry
     charge density cutoff     =     400.0000  Ry
     convergence threshold     =      1.0E-08
     mixing beta               =       0.5000
     number of iterations used =            8  plain     mixing
     Exchange-correlation      =  SLA  PW   PBX  PBC ( 1  4  3  4 0 0)

     celldm(1)=  17.905155  celldm(2)=   0.000000  celldm(3)=   0.000000
     celldm(4)=   0.000000  celldm(5)=   0.000000  celldm(6)=   0.000000

     crystal axes: (cart. coord. in units of alat)
               a(1) = (   1.000000   0.000000   0.000000 )  
               a(2) = (   0.000000   1.214987   0.000000 )  
               a(3) = (   0.000000   0.000000   1.382058 )  

     reciprocal axes: (cart. coord. in units 2 pi/alat)
               b(1) = (  1.000000  0.000000  0.000000 )  
               b(2) = (  0.000000  0.823054  0.000000 )  
               b(3) = (  0.000000  0.000000  0.723559 )  


     PseudoPot. # 1 for  C read from file:
     /scratch/ahofstet/pseudo/C.pbe-n-kjpaw_psl.0.1.UPF
     MD5 check sum: 430fe95172b1e11ef3f8ed03bac87931
     Pseudo is Projector augmented-wave + core cor, Zval =  4.0
     Generated using "atomic" code by A. Dal Corso  v.5.0.99 svn rev. 10869
     Shape of augmentation charge: BESSEL
     Using radial grid of 1073 points,  4 beta functions with: 
                l(1) =   0
                l(2) =   0
                l(3) =   1
                l(4) =   1
     Q(r) pseudized with 0 coefficients 


     PseudoPot. # 2 for  N read from file:
     /scratch/ahofstet/pseudo/N.pbe-n-kjpaw_psl.0.1.UPF
     MD5 check sum: f73187c8b701007e77325f868c9291d7
     Pseudo is Projector augmented-wave + core cor, Zval =  5.0
     Generated using "atomic" code by A. Dal Corso  v.5.0.99 svn rev. 10869
     Shape of augmentation charge: PSQ
     Using radial grid of 1085 points,  4 beta functions with: 
                l(1) =   0
                l(2) =   0
                l(3) =   1
                l(4) =   1
     Q(r) pseudized with 0 coefficients 


     PseudoPot. # 3 for  H read from file:
     /scratch/ahofstet/pseudo/H.pbe-kjpaw_psl.0.1.UPF
     MD5 check sum: 94e484f906d9e9773b2f6e52662335b2
     Pseudo is Projector augmented-wave, Zval =  1.0
     Generated using "atomic" code by A. Dal Corso  v.5.0.99 svn rev. 10869
     Shape of augmentation charge: PSQ
     Using radial grid of  929 points,  2 beta functions with: 
                l(1) =   0
                l(2) =   0
     Q(r) pseudized with 0 coefficients 


     PseudoPot. # 4 for  O read from file:
     /scratch/ahofstet/pseudo/O.pbe-n-kjpaw_psl.0.1.UPF
     MD5 check sum: 3f94a2996a3169367d6eb21d9b593f20
     Pseudo is Projector augmented-wave + core cor, Zval =  6.0
     Generated using "atomic" code by A. Dal Corso  v.5.0.99 svn rev. 10869
     Shape of augmentation charge: BESSEL
     Using radial grid of 1095 points,  4 beta functions with: 
                l(1) =   0
                l(2) =   0
                l(3) =   1
                l(4) =   1
     Q(r) pseudized with 0 coefficients 


     atomic species   valence    mass     pseudopotential
        C              4.00    12.01070      C( 1.00)
        N              5.00    14.00670      N( 1.00)
        H              1.00     1.00794      H( 1.00)
        O              6.00    15.99940      O( 1.00)

      4 Sym. Ops., with inversion, found ( 2 have fractional translation)



   Cartesian axes

     site n.     atom                  positions (alat units)
         1           C   tau(   1) = (   0.1126662   0.4781645   0.1247531  )
         2           C   tau(   2) = (   0.3873144   0.7368008   0.8157017  )
         3           C   tau(   3) = (   0.6126662   0.1293289   1.2573050  )
         4           C   tau(   4) = (   0.8873144   1.0856794   0.5663564  )
         5           C   tau(   5) = (   0.8873338   0.7368223   1.2573050  )
         6           C   tau(   6) = (   0.6126856   0.4781860   0.5663564  )
         7           C   tau(   7) = (   0.3873338   1.0856579   0.1247531  )
         8           C   tau(   8) = (   0.1126856   0.1293074   0.8157017  )
         9           C   tau(   9) = (   0.2474220   0.2742736   0.0349256  )
        10           C   tau(  10) = (   0.2525382   0.9406477   0.7257970  )
        11           C   tau(  11) = (   0.7474220   0.3332198   1.3471325  )
        12           C   tau(  12) = (   0.7525382   0.8818325   0.6562611  )
        13           C   tau(  13) = (   0.7525780   0.9407132   1.3471325  )
        14           C   tau(  14) = (   0.7474618   0.2743391   0.6562611  )
        15           C   tau(  15) = (   0.2525780   0.8817670   0.0349256  )
        16           C   tau(  16) = (   0.2474618   0.3331543   0.7257970  )
        17           C   tau(  17) = (   0.3639751   0.4563432   0.1742671  )
        18           C   tau(  18) = (   0.1360223   0.7586474   0.8653041  )
        19           C   tau(  19) = (   0.8639751   0.1511502   1.2077909  )
        20           C   tau(  20) = (   0.6360223   1.0638328   0.5167539  )
        21           C   tau(  21) = (   0.6360249   0.7586436   1.2077909  )
        22           C   tau(  22) = (   0.8639777   0.4563394   0.5167539  )
        23           C   tau(  23) = (   0.1360249   1.0638366   0.1742671  )
        24           C   tau(  24) = (   0.3639777   0.1511540   0.8653041  )
        25           N   tau(  25) = (   0.2289159   0.3750853   0.1559216  )
        26           N   tau(  26) = (   0.2710732   0.8398964   0.8468455  )
        27           N   tau(  27) = (   0.7289159   0.2324081   1.2261365  )
        28           N   tau(  28) = (   0.7710732   0.9825839   0.5352126  )
        29           N   tau(  29) = (   0.7710841   0.8399015   1.2261365  )
        30           N   tau(  30) = (   0.7289268   0.3750905   0.5352126  )
        31           N   tau(  31) = (   0.2710841   0.9825787   0.1559216  )
        32           N   tau(  32) = (   0.2289268   0.2324029   0.8468455  )
        33           C   tau(  33) = (   0.1994385   0.2967796   0.2923750  )
        34           C   tau(  34) = (   0.3005879   0.9182678   0.9832447  )
        35           C   tau(  35) = (   0.6994385   0.3107138   1.0896831  )
        36           C   tau(  36) = (   0.8005879   0.9042124   0.3988133  )
        37           C   tau(  37) = (   0.8005615   0.9182072   1.0896831  )
        38           C   tau(  38) = (   0.6994121   0.2967190   0.3988133  )
        39           C   tau(  39) = (   0.3005615   0.9042730   0.2923750  )
        40           C   tau(  40) = (   0.1994121   0.3107744   0.9832447  )
        41           C   tau(  41) = (   0.0649177   0.2053114   0.3004662  )
        42           C   tau(  42) = (   0.4351161   1.0097364   0.9912533  )
        43           C   tau(  43) = (   0.5649177   0.4021820   1.0815919  )
        44           C   tau(  44) = (   0.9351161   0.8127438   0.3908047  )
        45           C   tau(  45) = (   0.9350823   1.0096754   1.0815919  )
        46           C   tau(  46) = (   0.5648839   0.2052504   0.3908047  )
        47           C   tau(  47) = (   0.4350823   0.8128048   0.3004662  )
        48           C   tau(  48) = (   0.0648839   0.4022430   0.9912533  )
        49           O   tau(  49) = (   0.0465856   0.1503089   0.4208758  )
        50           O   tau(  50) = (   0.4534625   1.0647797   1.1116647  )
        51           O   tau(  51) = (   0.5465856   0.4571845   0.9611823  )
        52           O   tau(  52) = (   0.9534625   0.7577006   0.2703933  )
        53           O   tau(  53) = (   0.9534144   1.0646779   0.9611823  )
        54           O   tau(  54) = (   0.5465375   0.1502072   0.2703933  )
        55           O   tau(  55) = (   0.4534144   0.7578023   0.4208758  )
        56           O   tau(  56) = (   0.0465375   0.4572862   1.1116647  )
        57           O   tau(  57) = (   0.9860721   0.1914846   0.1942274  )
        58           O   tau(  58) = (   0.5139204   1.0235395   0.8850187  )
        59           O   tau(  59) = (   0.4860721   0.4160088   1.1878306  )
        60           O   tau(  60) = (   0.0139204   0.7989407   0.4970394  )
        61           O   tau(  61) = (   0.0139279   1.0235022   1.1878306  )
        62           O   tau(  62) = (   0.4860796   0.1914473   0.4970394  )
        63           O   tau(  63) = (   0.5139279   0.7989780   0.1942274  )
        64           O   tau(  64) = (   0.9860796   0.4160461   0.8850187  )
        65           H   tau(  65) = (   0.0151143   0.4181874   0.1111322  )
        66           H   tau(  66) = (   0.4848727   0.7967681   0.8020814  )
        67           H   tau(  67) = (   0.5151143   0.1893060   1.2709258  )
        68           H   tau(  68) = (   0.9848727   1.0257121   0.5799767  )
        69           H   tau(  69) = (   0.9848857   0.7967994   1.2709258  )
        70           H   tau(  70) = (   0.5151273   0.4182187   0.5799767  )
        71           H   tau(  71) = (   0.4848857   1.0256808   0.1111322  )
        72           H   tau(  72) = (   0.0151273   0.1892747   0.8020814  )
        73           H   tau(  73) = (   0.1414069   0.5345213   0.0277549  )
        74           H   tau(  74) = (   0.3585791   0.6804218   0.7187177  )
        75           H   tau(  75) = (   0.6414069   0.0729721   1.3543032  )
        76           H   tau(  76) = (   0.8585791   1.1420584   0.6633404  )
        77           H   tau(  77) = (   0.8585931   0.6804655   1.3543032  )
        78           H   tau(  78) = (   0.6414209   0.5345650   0.6633404  )
        79           H   tau(  79) = (   0.3585931   1.1420147   0.0277549  )
        80           H   tau(  80) = (   0.1414209   0.0729284   0.7187177  )
        81           H   tau(  81) = (   0.1033627   0.5514926   0.2139189  )
        82           H   tau(  82) = (   0.3966033   0.6634959   0.9048886  )
        83           H   tau(  83) = (   0.6033627   0.0560008   1.1681392  )
        84           H   tau(  84) = (   0.8966033   1.1589843   0.4771694  )
        85           H   tau(  85) = (   0.8966373   0.6634942   1.1681392  )
        86           H   tau(  86) = (   0.6033967   0.5514909   0.4771694  )
        87           H   tau(  87) = (   0.3966373   1.1589860   0.2139189  )
        88           H   tau(  88) = (   0.1033967   0.0560025   0.9048886  )
        89           H   tau(  89) = (   0.1486087   0.2173690   0.0193643  )
        90           H   tau(  90) = (   0.3513494   0.9975474   0.7101982  )
        91           H   tau(  91) = (   0.6486087   0.3901244   1.3626937  )
        92           H   tau(  92) = (   0.8513494   0.8249329   0.6718598  )
        93           H   tau(  93) = (   0.8513913   0.9976178   1.3626937  )
        94           H   tau(  94) = (   0.6486506   0.2174395   0.6718598  )
        95           H   tau(  95) = (   0.3513913   0.8248624   0.0193643  )
        96           H   tau(  96) = (   0.1486506   0.3900540   0.7101982  )
        97           H   tau(  97) = (   0.3323818   0.2011441   0.0633449  )
        98           H   tau(  98) = (   0.1675852   1.0137896   0.7542050  )
        99           H   tau(  99) = (   0.8323818   0.4063493   1.3187132  )
       100           H   tau( 100) = (   0.6675852   0.8086906   0.6278530  )
       101           H   tau( 101) = (   0.6676182   1.0138427   1.3187132  )
       102           H   tau( 102) = (   0.8324148   0.2011972   0.6278530  )
       103           H   tau( 103) = (   0.1676182   0.8086375   0.0633449  )
       104           H   tau( 104) = (   0.3324148   0.4062962   0.7542050  )
       105           H   tau( 105) = (   0.2765565   0.3355593   1.3234402  )
       106           H   tau( 106) = (   0.2233881   0.8793167   0.6322927  )
       107           H   tau( 107) = (   0.7765565   0.2719341   0.0586178  )
       108           H   tau( 108) = (   0.7233881   0.9431635   0.7497654  )
       109           H   tau( 109) = (   0.7234435   0.8794275   0.0586178  )
       110           H   tau( 110) = (   0.7766119   0.3356701   0.7497654  )
       111           H   tau( 111) = (   0.2234435   0.9430527   1.3234402  )
       112           H   tau( 112) = (   0.2766119   0.2718233   0.6322927  )
       113           H   tau( 113) = (   0.3529825   0.5244512   0.2671176  )
       114           H   tau( 114) = (   0.1470678   0.6905718   0.9581716  )
       115           H   tau( 115) = (   0.8529825   0.0830422   1.1149404  )
       116           H   tau( 116) = (   0.6470678   1.1319084   0.4238865  )
       117           H   tau( 117) = (   0.6470175   0.6905357   1.1149404  )
       118           H   tau( 118) = (   0.8529322   0.5244150   0.4238865  )
       119           H   tau( 119) = (   0.1470175   1.1319446   0.2671176  )
       120           H   tau( 120) = (   0.3529322   0.0830784   0.9581716  )
       121           H   tau( 121) = (   0.3809185   0.5189154   0.0784271  )
       122           H   tau( 122) = (   0.1190172   0.6960445   0.7694961  )
       123           H   tau( 123) = (   0.8809185   0.0885780   1.3036310  )
       124           H   tau( 124) = (   0.6190172   1.1264357   0.6125619  )
       125           H   tau( 125) = (   0.6190815   0.6960714   1.3036310  )
       126           H   tau( 126) = (   0.8809828   0.5189423   0.6125619  )
       127           H   tau( 127) = (   0.1190815   1.1264088   0.0784271  )
       128           H   tau( 128) = (   0.3809828   0.0885511   0.7694961  )
       129           H   tau( 129) = (   0.4499095   0.3803635   0.1890443  )
       130           H   tau( 130) = (   0.0500991   0.8346350   0.8800962  )
       131           H   tau( 131) = (   0.9499095   0.2271299   1.1930137  )
       132           H   tau( 132) = (   0.5500991   0.9878452   0.5019618  )
       133           H   tau( 133) = (   0.5500905   0.8346233   1.1930137  )
       134           H   tau( 134) = (   0.9499009   0.3803518   0.5019618  )
       135           H   tau( 135) = (   0.0500905   0.9878570   0.1890443  )
       136           H   tau( 136) = (   0.4499009   0.2271416   0.8800962  )
       137           H   tau( 137) = (   0.2915929   0.2289287   0.3120638  )
       138           H   tau( 138) = (   0.2084360   0.9861209   1.0029392  )
       139           H   tau( 139) = (   0.7915929   0.3785647   1.0699942  )
       140           H   tau( 140) = (   0.7084360   0.8363593   0.3791189  )
       141           H   tau( 141) = (   0.7084071   0.9860581   1.0699942  )
       142           H   tau( 142) = (   0.7915640   0.2288659   0.3791189  )
       143           H   tau( 143) = (   0.2084071   0.8364221   0.3120638  )
       144           H   tau( 144) = (   0.2915640   0.3786275   1.0029392  )
       145           H   tau( 145) = (   0.1959681   0.3778603   0.3754783  )
       146           H   tau( 146) = (   0.3040881   0.8372318   1.0663886  )
       147           H   tau( 147) = (   0.6959681   0.2296331   1.0065798  )
       148           H   tau( 148) = (   0.8040881   0.9852484   0.3156694  )
       149           H   tau( 149) = (   0.8040319   0.8371265   1.0065798  )
       150           H   tau( 150) = (   0.6959119   0.3777550   0.3156694  )
       151           H   tau( 151) = (   0.3040319   0.9853537   0.3754783  )
       152           H   tau( 152) = (   0.1959119   0.2297384   1.0663886  )
       153           O   tau( 153) = (   0.2765519   1.2021652   0.5031188  )
       154           O   tau( 154) = (   0.2234473   0.0127661   1.1941550  )
       155           O   tau( 155) = (   0.7765519   0.6203150   0.8789392  )
       156           O   tau( 156) = (   0.7234473   0.5947273   0.1879031  )
       157           O   tau( 157) = (   0.7234481   0.0128216   0.8789392  )
       158           O   tau( 158) = (   0.7765527   1.2022207   0.1879031  )
       159           O   tau( 159) = (   0.2234481   0.5946718   0.5031188  )
       160           O   tau( 160) = (   0.2765527   0.6202595   1.1941550  )
       161           H   tau( 161) = (   0.1927439   0.0446167   0.4792384  )
       162           H   tau( 162) = (   0.3072672   1.1703543   1.1702043  )
       163           H   tau( 163) = (   0.6927439   0.5628767   0.9028197  )
       164           H   tau( 164) = (   0.8072672   0.6521259   0.2118538  )
       165           H   tau( 165) = (   0.8072561   1.1703701   0.9028197  )
       166           H   tau( 166) = (   0.6927328   0.0446325   0.2118538  )
       167           H   tau( 167) = (   0.3072561   0.6521101   0.4792384  )
       168           H   tau( 168) = (   0.1927328   0.5628609   1.1702043  )
       169           H   tau( 169) = (   0.3556131   0.0552954   0.4934319  )
       170           H   tau( 170) = (   0.1443966   1.1596483   1.1843598  )
       171           H   tau( 171) = (   0.8556131   0.5521980   0.8886261  )
       172           H   tau( 172) = (   0.6443966   0.6628319   0.1976982  )
       173           H   tau( 173) = (   0.6443869   1.1596914   0.8886261  )
       174           H   tau( 174) = (   0.8556034   0.0553385   0.1976982  )
       175           H   tau( 175) = (   0.1443869   0.6627889   0.4934319  )
       176           H   tau( 176) = (   0.3556034   0.5521549   1.1843598  )

     number of k points=     8
                       cart. coord. in units 2pi/alat
        k(    1) = (   0.0000000   0.0000000   0.0000000), wk =   0.2500000
        k(    2) = (   0.0000000   0.0000000  -0.3617793), wk =   0.2500000
        k(    3) = (   0.0000000  -0.4115271   0.0000000), wk =   0.2500000
        k(    4) = (   0.0000000  -0.4115271  -0.3617793), wk =   0.2500000
        k(    5) = (  -0.5000000   0.0000000   0.0000000), wk =   0.2500000
        k(    6) = (  -0.5000000   0.0000000  -0.3617793), wk =   0.2500000
        k(    7) = (  -0.5000000  -0.4115271   0.0000000), wk =   0.2500000
        k(    8) = (  -0.5000000  -0.4115271  -0.3617793), wk =   0.2500000

     Dense  grid:  1302271 G-vectors     FFT dimensions: ( 120, 144, 160)

     Estimated max dynamical RAM per process >    1792.49MB

     Estimated total allocated dynamical RAM >   14339.94MB

     Check: negative/imaginary core charge=   -0.000002    0.000000

     Initial potential from superposition of free atoms

     starting charge  447.99725, renormalised to  448.00000
     Starting wfc are  392 randomized atomic wfcs
     Checking if some PAW data can be deallocated... 

     total cpu time spent up to now is      129.4 secs

     per-process dynamical memory:  1159.0 Mb

     Self-consistent Calculation

     iteration #  1     ecut=   100.00 Ry     beta=0.50
     Davidson diagonalization with overlap
     ethr =  1.00E-02,  avg # of iterations =  3.6

     total cpu time spent up to now is      557.5 secs

     total energy              =   -2084.24903098 Ry
     Harris-Foulkes estimate   =   -2093.20925510 Ry
     estimated scf accuracy    <      17.12073721 Ry

     iteration #  2     ecut=   100.00 Ry     beta=0.50
     Davidson diagonalization with overlap
     ethr =  3.82E-03,  avg # of iterations =  2.1

     total cpu time spent up to now is      810.1 secs

     total energy              =   -2086.59785037 Ry
     Harris-Foulkes estimate   =   -2087.61931942 Ry
     estimated scf accuracy    <       2.35892805 Ry

     iteration #  3     ecut=   100.00 Ry     beta=0.50
     Davidson diagonalization with overlap
     ethr =  5.27E-04,  avg # of iterations =  7.0

     total cpu time spent up to now is     1251.7 secs

     total energy              =   -2087.53322883 Ry
     Harris-Foulkes estimate   =   -2087.89278695 Ry
     estimated scf accuracy    <       0.92101734 Ry

     iteration #  4     ecut=   100.00 Ry     beta=0.50
     Davidson diagonalization with overlap
     ethr =  2.06E-04,  avg # of iterations =  1.8

     total cpu time spent up to now is     1463.5 secs

     total energy              =   -2087.46897203 Ry
     Harris-Foulkes estimate   =   -2087.58867928 Ry
     estimated scf accuracy    <       0.22334624 Ry

     iteration #  5     ecut=   100.00 Ry     beta=0.50
     Davidson diagonalization with overlap
     ethr =  4.99E-05,  avg # of iterations =  5.0

     total cpu time spent up to now is     1967.3 secs

     total energy              =   -2087.63435410 Ry
     Harris-Foulkes estimate   =   -2087.78290703 Ry
     estimated scf accuracy    <       0.50173404 Ry

     iteration #  6     ecut=   100.00 Ry     beta=0.50
     Davidson diagonalization with overlap
     ethr =  4.99E-05,  avg # of iterations =  2.8

     total cpu time spent up to now is     2179.7 secs

     total energy              =   -2087.56442683 Ry
     Harris-Foulkes estimate   =   -2087.64536308 Ry
     estimated scf accuracy    <       0.22762958 Ry

     iteration #  7     ecut=   100.00 Ry     beta=0.50
     Davidson diagonalization with overlap
     ethr =  4.99E-05,  avg # of iterations =  4.0

     total cpu time spent up to now is     2499.3 secs

     total energy              =   -2087.62267758 Ry
     Harris-Foulkes estimate   =   -2087.62397261 Ry
     estimated scf accuracy    <       0.00249145 Ry

     iteration #  8     ecut=   100.00 Ry     beta=0.50
     Davidson diagonalization with overlap
     ethr =  5.56E-07,  avg # of iterations =  6.0

     total cpu time spent up to now is     2989.3 secs

     total energy              =   -2087.62395293 Ry
     Harris-Foulkes estimate   =   -2087.62464469 Ry
     estimated scf accuracy    <       0.00157980 Ry

     iteration #  9     ecut=   100.00 Ry     beta=0.50
     Davidson diagonalization with overlap
     ethr =  3.53E-07,  avg # of iterations =  2.9

     total cpu time spent up to now is     3204.1 secs

     total energy              =   -2087.62392018 Ry
     Harris-Foulkes estimate   =   -2087.62406084 Ry
     estimated scf accuracy    <       0.00024183 Ry

     iteration # 10     ecut=   100.00 Ry     beta=0.50
     Davidson diagonalization with overlap
     ethr =  5.40E-08,  avg # of iterations =  4.6

     total cpu time spent up to now is     3647.2 secs

     total energy              =   -2087.62427730 Ry
     Harris-Foulkes estimate   =   -2087.62439584 Ry
     estimated scf accuracy    <       0.00054089 Ry

     iteration # 11     ecut=   100.00 Ry     beta=0.50
     Davidson diagonalization with overlap
     ethr =  5.40E-08,  avg # of iterations =  1.1

     total cpu time spent up to now is     3842.1 secs

     total energy              =   -2087.62408589 Ry
     Harris-Foulkes estimate   =   -2087.62428287 Ry
     estimated scf accuracy    <       0.00031767 Ry

     iteration # 12     ecut=   100.00 Ry     beta=0.50
     Davidson diagonalization with overlap
     ethr =  5.40E-08,  avg # of iterations =  4.0

     total cpu time spent up to now is     4211.7 secs

     total energy              =   -2087.62421803 Ry
     Harris-Foulkes estimate   =   -2087.62426517 Ry
     estimated scf accuracy    <       0.00011874 Ry

     iteration # 13     ecut=   100.00 Ry     beta=0.50
     Davidson diagonalization with overlap
     ethr =  2.65E-08,  avg # of iterations =  1.0

     total cpu time spent up to now is     4407.5 secs

     total energy              =   -2087.62421539 Ry
     Harris-Foulkes estimate   =   -2087.62422308 Ry
     estimated scf accuracy    <       0.00003361 Ry

     iteration # 14     ecut=   100.00 Ry     beta=0.50
     Davidson diagonalization with overlap
     ethr =  7.50E-09,  avg # of iterations =  3.1

     total cpu time spent up to now is     4738.5 secs

     total energy              =   -2087.62422955 Ry
     Harris-Foulkes estimate   =   -2087.62422959 Ry
     estimated scf accuracy    <       0.00000013 Ry

     iteration # 15     ecut=   100.00 Ry     beta=0.50
     Davidson diagonalization with overlap
     ethr =  2.99E-11,  avg # of iterations =  4.0

     total cpu time spent up to now is     5111.6 secs

     total energy              =   -2087.62422963 Ry
     Harris-Foulkes estimate   =   -2087.62422964 Ry
     estimated scf accuracy    <       0.00000005 Ry

     iteration # 16     ecut=   100.00 Ry     beta=0.50
     Davidson diagonalization with overlap
     ethr =  1.21E-11,  avg # of iterations =  1.0

     total cpu time spent up to now is     5306.6 secs

     total energy              =   -2087.62422962 Ry
     Harris-Foulkes estimate   =   -2087.62422964 Ry
     estimated scf accuracy    <       0.00000004 Ry

     iteration # 17     ecut=   100.00 Ry     beta=0.50
     Davidson diagonalization with overlap
     ethr =  9.44E-12,  avg # of iterations =  3.0

     total cpu time spent up to now is     5544.5 secs

     End of self-consistent calculation

          k = 0.0000 0.0000 0.0000 (162923 PWs)   bands (ev):

   -20.3172 -20.3104 -20.3084 -20.3030 -20.2722 -20.2714 -20.2705 -20.2701
   -19.3105 -19.3081 -19.3079 -19.3055 -19.2998 -19.2950 -19.2906 -19.2865
   -18.2975 -18.2963 -18.2930 -18.2874 -18.1181 -18.1165 -18.1160 -18.1128
   -17.9571 -17.9549 -17.9539 -17.9528 -17.7950 -17.7927 -17.7862 -17.7860
   -12.6639 -12.6561 -12.6333 -12.6104 -12.5960 -12.5772 -12.5729 -12.5669
   -12.3958 -12.3924 -12.3493 -12.3443 -12.3276 -12.3256 -12.3237 -12.3187
   -12.3164 -12.3086 -12.3032 -12.2962 -12.2902 -12.2897 -12.2729 -12.2645
    -9.6370  -9.6076  -9.5635  -9.5406  -9.4824  -9.4676  -9.4642  -9.4612
    -7.6723  -7.6330  -7.6257  -7.6198  -7.5696  -7.5208  -7.5186  -7.5172
    -6.9288  -6.8651  -6.8298  -6.8193  -6.8114  -6.7979  -6.7925  -6.7685
    -6.7448  -6.7136  -6.6943  -6.6864  -6.6839  -6.6693  -6.6677  -6.6408
    -6.5188  -6.5172  -6.3273  -6.2734  -6.2664  -6.2338  -6.2079  -6.1856
    -6.0779  -6.0478  -5.9795  -5.9229  -5.5609  -5.5288  -5.5278  -5.5153
    -5.4215  -5.4016  -5.2720  -5.2131  -5.1768  -5.1366  -5.1269  -5.1235
    -4.9056  -4.8570  -4.8369  -4.8235  -4.8195  -4.8176  -4.8042  -4.7652
    -4.7277  -4.6941  -4.5063  -4.4951  -4.4408  -4.4279  -4.3969  -4.3158
    -4.2591  -4.2538  -4.2500  -4.2445  -4.2015  -4.1808  -4.1790  -4.1005
    -4.0707  -4.0671  -4.0422  -4.0308  -4.0206  -3.9848  -3.9055  -3.8964
    -3.8527  -3.7669  -3.7608  -3.7202  -3.6885  -3.6840  -3.6780  -3.6659
    -3.6425  -3.6182  -3.6019  -3.5942  -3.5793  -3.5607  -3.5171  -3.5016
    -3.4964  -3.4889  -3.4839  -3.4645  -3.4218  -3.4156  -3.4131  -3.3684
    -3.3303  -3.3131  -3.2916  -3.2656  -3.2519  -3.2505  -3.2497  -3.2449
    -3.2187  -3.1844  -3.1135  -3.0398  -2.7999  -2.7756  -2.7491  -2.6994
    -2.5585  -2.5298  -2.4870  -2.4303  -2.4144  -2.4071  -2.4018  -2.3815
    -0.7175  -0.6965  -0.6658  -0.6499  -0.6469  -0.6334  -0.6193  -0.6004
    -0.5255  -0.5010  -0.4674  -0.4572  -0.4554  -0.4533  -0.4261  -0.4233
    -0.2378  -0.1731  -0.1705  -0.1209  -0.0679  -0.0353  -0.0093  -0.0071
     0.0628   0.0643   0.0657   0.0723   0.0760   0.0834   0.1052   0.1329
     5.3888   5.4046   5.4205   5.4400   5.4611   5.4905   5.5056   5.5632
     5.6452   6.0587   6.3316   6.3563   6.3751   6.4445   6.4829   6.5781
     6.5852   6.6439   6.8141   6.8595   6.9333   6.9825   7.0411   7.0626
     7.1831   7.2144   7.2154   7.2402   7.4256   7.4585   7.5158   7.5716
     7.6511   7.7059   7.7671   7.8462   7.8634   7.8696   7.8979   7.9049
     7.9778   8.0718   8.1277   8.1468

          k = 0.0000 0.0000-0.3618 (162734 PWs)   bands (ev):

   -20.3140 -20.3139 -20.3058 -20.3057 -20.2713 -20.2712 -20.2707 -20.2706
   -19.3090 -19.3090 -19.3067 -19.3067 -19.2976 -19.2975 -19.2887 -19.2887
   -18.2969 -18.2969 -18.2902 -18.2902 -18.1173 -18.1173 -18.1144 -18.1144
   -17.9555 -17.9555 -17.9538 -17.9538 -17.7939 -17.7938 -17.7861 -17.7861
   -12.6502 -12.6502 -12.6388 -12.6387 -12.5813 -12.5810 -12.5677 -12.5676
   -12.3941 -12.3939 -12.3470 -12.3470 -12.3299 -12.3297 -12.3157 -12.3157
   -12.3156 -12.3156 -12.2963 -12.2961 -12.2941 -12.2939 -12.2682 -12.2679
    -9.6280  -9.6277  -9.5275  -9.5274  -9.4968  -9.4964  -9.4596  -9.4596
    -7.6544  -7.6543  -7.6245  -7.6244  -7.5413  -7.5412  -7.5180  -7.5180
    -6.8936  -6.8935  -6.8202  -6.8202  -6.8012  -6.8011  -6.7670  -6.7669
    -6.7548  -6.7547  -6.7468  -6.7465  -6.6497  -6.6496  -6.6224  -6.6222
    -6.5208  -6.5207  -6.2940  -6.2939  -6.2538  -6.2537  -6.1897  -6.1896
    -6.0781  -6.0780  -5.9528  -5.9527  -5.5445  -5.5443  -5.5196  -5.5194
    -5.4145  -5.4144  -5.2492  -5.2491  -5.1612  -5.1612  -5.1294  -5.1293
    -4.8651  -4.8645  -4.8529  -4.8525  -4.7815  -4.7812  -4.7710  -4.7709
    -4.6642  -4.6638  -4.6010  -4.6008  -4.4260  -4.4256  -4.3779  -4.3776
    -4.2682  -4.2680  -4.2678  -4.2677  -4.1750  -4.1749  -4.0748  -4.0741
    -4.0611  -4.0606  -4.0287  -4.0286  -3.9792  -3.9787  -3.9348  -3.9340
    -3.7810  -3.7809  -3.7537  -3.7536  -3.7054  -3.7052  -3.6455  -3.6453
    -3.6112  -3.6112  -3.6077  -3.6072  -3.5192  -3.5189  -3.5153  -3.5152
    -3.4980  -3.4980  -3.4740  -3.4738  -3.4585  -3.4582  -3.3785  -3.3779
    -3.3552  -3.3550  -3.3252  -3.3247  -3.2522  -3.2518  -3.2312  -3.2310
    -3.2205  -3.2198  -3.0639  -3.0632  -2.7736  -2.7735  -2.7440  -2.7435
    -2.5316  -2.5311  -2.4509  -2.4505  -2.4135  -2.4133  -2.3940  -2.3939
    -0.6862  -0.6862  -0.6635  -0.6633  -0.6459  -0.6458  -0.6076  -0.6076
    -0.4916  -0.4911  -0.4892  -0.4891  -0.4518  -0.4513  -0.4454  -0.4452
    -0.1992  -0.1989  -0.1524  -0.1522  -0.0319  -0.0318  -0.0197  -0.0196
     0.0690   0.0691   0.0701   0.0703   0.0837   0.0840   0.1102   0.1107
     5.3787   5.3790   5.4624   5.4629   5.4828   5.4831   5.5105   5.5111
     5.9533   5.9542   6.1350   6.1353   6.3540   6.3542   6.6405   6.6409
     6.6990   6.6991   6.8694   6.8699   6.9257   6.9267   7.0838   7.0848
     7.1182   7.1187   7.2401   7.2406   7.4733   7.4735   7.6191   7.6192
     7.7475   7.7479   7.7649   7.7664   7.7990   7.8000   7.8670   7.8672
     8.0256   8.0257   8.1124   8.1140

          k = 0.0000-0.4115 0.0000 (162790 PWs)   bands (ev):

   -20.3128 -20.3128 -20.3067 -20.3067 -20.2718 -20.2718 -20.2703 -20.2703
   -19.3093 -19.3093 -19.3067 -19.3067 -19.2953 -19.2953 -19.2906 -19.2906
   -18.2957 -18.2957 -18.2914 -18.2914 -18.1175 -18.1175 -18.1142 -18.1142
   -17.9560 -17.9560 -17.9533 -17.9533 -17.7907 -17.7907 -17.7893 -17.7893
   -12.6598 -12.6598 -12.6198 -12.6198 -12.5867 -12.5867 -12.5721 -12.5721
   -12.3751 -12.3751 -12.3598 -12.3598 -12.3264 -12.3264 -12.3102 -12.3102
   -12.3083 -12.3083 -12.3008 -12.3008 -12.2916 -12.2916 -12.2892 -12.2892
    -9.5872  -9.5872  -9.5574  -9.5574  -9.4937  -9.4937  -9.4722  -9.4722
    -7.6260  -7.6260  -7.5845  -7.5845  -7.5685  -7.5685  -7.5660  -7.5660
    -6.9033  -6.9033  -6.7957  -6.7957  -6.7927  -6.7927  -6.7666  -6.7666
    -6.7454  -6.7454  -6.7089  -6.7089  -6.6875  -6.6875  -6.6633  -6.6633
    -6.4469  -6.4469  -6.3709  -6.3709  -6.2456  -6.2456  -6.2213  -6.2213
    -6.0210  -6.0210  -5.9761  -5.9761  -5.5548  -5.5548  -5.4972  -5.4972
    -5.2906  -5.2906  -5.2807  -5.2807  -5.2418  -5.2418  -5.1762  -5.1762
    -4.8625  -4.8625  -4.8579  -4.8579  -4.7813  -4.7813  -4.7572  -4.7572
    -4.7350  -4.7350  -4.5487  -4.5487  -4.4288  -4.4288  -4.3095  -4.3095
    -4.2510  -4.2510  -4.2450  -4.2450  -4.2020  -4.2020  -4.1351  -4.1351
    -4.0522  -4.0522  -4.0379  -4.0379  -3.9776  -3.9776  -3.9115  -3.9115
    -3.7577  -3.7577  -3.7135  -3.7135  -3.6835  -3.6835  -3.6707  -3.6707
    -3.6013  -3.6013  -3.5797  -3.5797  -3.5788  -3.5788  -3.5622  -3.5622
    -3.5507  -3.5507  -3.4804  -3.4804  -3.4313  -3.4313  -3.3740  -3.3740
    -3.3052  -3.3052  -3.2982  -3.2982  -3.2804  -3.2804  -3.2068  -3.2068
    -3.1974  -3.1974  -3.1203  -3.1203  -2.7981  -2.7981  -2.7206  -2.7206
    -2.5528  -2.5528  -2.4427  -2.4427  -2.4175  -2.4175  -2.3788  -2.3788
    -0.6751  -0.6751  -0.6653  -0.6653  -0.6566  -0.6566  -0.6141  -0.6141
    -0.5149  -0.5149  -0.4601  -0.4601  -0.4559  -0.4559  -0.4252  -0.4252
    -0.2174  -0.2174  -0.1381  -0.1381  -0.0530  -0.0530  -0.0014  -0.0014
     0.0634   0.0634   0.0741   0.0741   0.0906   0.0906   0.1002   0.1002
     5.4136   5.4136   5.4389   5.4389   5.4610   5.4610   5.4992   5.4992
     6.0849   6.0849   6.1256   6.1256   6.3587   6.3587   6.4954   6.4954
     6.7304   6.7304   6.8650   6.8650   6.8731   6.8731   6.9435   6.9435
     7.0860   7.0860   7.3946   7.3946   7.5279   7.5279   7.6569   7.6569
     7.7604   7.7604   7.7921   7.7921   7.9011   7.9011   7.9337   7.9337
     7.9772   7.9772   8.0076   8.0076

          k = 0.0000-0.4115-0.3618 (162816 PWs)   bands (ev):

   -20.3099 -20.3099 -20.3098 -20.3098 -20.2710 -20.2710 -20.2709 -20.2709
   -19.3079 -19.3079 -19.3079 -19.3079 -19.2931 -19.2931 -19.2931 -19.2931
   -18.2936 -18.2936 -18.2936 -18.2936 -18.1159 -18.1159 -18.1159 -18.1159
   -17.9547 -17.9547 -17.9547 -17.9547 -17.7900 -17.7900 -17.7900 -17.7900
   -12.6435 -12.6435 -12.6434 -12.6434 -12.5755 -12.5755 -12.5753 -12.5753
   -12.3683 -12.3683 -12.3682 -12.3682 -12.3195 -12.3195 -12.3195 -12.3195
   -12.3022 -12.3022 -12.3021 -12.3021 -12.2915 -12.2915 -12.2912 -12.2912
    -9.5708  -9.5708  -9.5705  -9.5705  -9.4844  -9.4844  -9.4842  -9.4842
    -7.6068  -7.6068  -7.6068  -7.6068  -7.5656  -7.5656  -7.5654  -7.5654
    -6.8587  -6.8587  -6.8587  -6.8587  -6.7715  -6.7715  -6.7714  -6.7714
    -6.7541  -6.7541  -6.7541  -6.7541  -6.6482  -6.6482  -6.6480  -6.6480
    -6.4075  -6.4075  -6.4074  -6.4074  -6.2315  -6.2315  -6.2315  -6.2315
    -6.0058  -6.0058  -6.0057  -6.0057  -5.5247  -5.5247  -5.5245  -5.5245
    -5.2894  -5.2894  -5.2893  -5.2893  -5.2138  -5.2138  -5.2136  -5.2136
    -4.8473  -4.8473  -4.8467  -4.8467  -4.7723  -4.7723  -4.7721  -4.7721
    -4.6326  -4.6326  -4.6325  -4.6325  -4.4212  -4.4212  -4.4209  -4.4209
    -4.2423  -4.2423  -4.2422  -4.2422  -4.1444  -4.1444  -4.1439  -4.1439
    -4.0418  -4.0418  -4.0413  -4.0413  -3.9419  -3.9419  -3.9414  -3.9414
    -3.7052  -3.7052  -3.7051  -3.7051  -3.6588  -3.6588  -3.6587  -3.6587
    -3.5986  -3.5986  -3.5984  -3.5984  -3.5527  -3.5527  -3.5525  -3.5525
    -3.5228  -3.5228  -3.5224  -3.5224  -3.4277  -3.4277  -3.4275  -3.4275
    -3.3273  -3.3273  -3.3271  -3.3271  -3.2582  -3.2582  -3.2581  -3.2581
    -3.1438  -3.1438  -3.1431  -3.1431  -2.7618  -2.7618  -2.7614  -2.7614
    -2.4929  -2.4929  -2.4927  -2.4927  -2.3981  -2.3981  -2.3978  -2.3978
    -0.6714  -0.6714  -0.6712  -0.6712  -0.6269  -0.6269  -0.6267  -0.6267
    -0.4901  -0.4901  -0.4898  -0.4898  -0.4492  -0.4492  -0.4490  -0.4490
    -0.1779  -0.1779  -0.1778  -0.1778  -0.0230  -0.0230  -0.0229  -0.0229
     0.0731   0.0731   0.0733   0.0733   0.0913   0.0913   0.0916   0.0916
     5.4183   5.4183   5.4186   5.4186   5.4921   5.4921   5.4927   5.4927
     6.1706   6.1706   6.1713   6.1713   6.3372   6.3372   6.3380   6.3380
     6.7238   6.7238   6.7241   6.7241   7.0532   7.0532   7.0537   7.0537
     7.1890   7.1890   7.1901   7.1901   7.5985   7.5985   7.5991   7.5991
     7.7481   7.7481   7.7484   7.7484   7.9664   7.9664   7.9672   7.9672
     8.0397   8.0397   8.0404   8.0404

          k =-0.5000 0.0000 0.0000 (162744 PWs)   bands (ev):

   -20.2949 -20.2949 -20.2920 -20.2920 -20.2890 -20.2890 -20.2869 -20.2869
   -19.3052 -19.3052 -19.3011 -19.3011 -19.2994 -19.2994 -19.2958 -19.2958
   -18.2282 -18.2282 -18.2269 -18.2269 -18.2238 -18.2238 -18.2190 -18.2190
   -17.8571 -17.8571 -17.8544 -17.8544 -17.8496 -17.8496 -17.8484 -17.8484
   -12.6211 -12.6211 -12.6139 -12.6139 -12.6136 -12.6136 -12.5917 -12.5917
   -12.3872 -12.3872 -12.3648 -12.3648 -12.3346 -12.3346 -12.3231 -12.3231
   -12.3068 -12.3068 -12.2904 -12.2904 -12.2805 -12.2805 -12.2698 -12.2698
    -9.5732  -9.5732  -9.5677  -9.5677  -9.5137  -9.5137  -9.4631  -9.4631
    -7.6527  -7.6527  -7.6430  -7.6430  -7.5380  -7.5380  -7.5136  -7.5136
    -6.8327  -6.8327  -6.8066  -6.8066  -6.8033  -6.8033  -6.7774  -6.7774
    -6.7484  -6.7484  -6.6806  -6.6806  -6.6717  -6.6717  -6.6566  -6.6566
    -6.3762  -6.3762  -6.3567  -6.3567  -6.3343  -6.3343  -6.3320  -6.3320
    -5.8586  -5.8586  -5.8262  -5.8262  -5.7899  -5.7899  -5.7819  -5.7819
    -5.3582  -5.3582  -5.3295  -5.3295  -5.1751  -5.1751  -5.1439  -5.1439
    -4.8041  -4.8041  -4.7475  -4.7475  -4.7469  -4.7469  -4.6666  -4.6666
    -4.5119  -4.5119  -4.5099  -4.5099  -4.4301  -4.4301  -4.3916  -4.3916
    -4.2605  -4.2605  -4.2570  -4.2570  -4.2076  -4.2076  -4.1631  -4.1631
    -4.1234  -4.1234  -4.0982  -4.0982  -4.0236  -4.0236  -4.0121  -4.0121
    -3.7523  -3.7523  -3.6907  -3.6907  -3.6861  -3.6861  -3.6325  -3.6325
    -3.5756  -3.5756  -3.5203  -3.5203  -3.5162  -3.5162  -3.5147  -3.5147
    -3.4959  -3.4959  -3.4811  -3.4811  -3.4436  -3.4436  -3.3868  -3.3868
    -3.3832  -3.3832  -3.3320  -3.3320  -3.2562  -3.2562  -3.1988  -3.1988
    -3.0600  -3.0600  -3.0007  -3.0007  -2.9538  -2.9538  -2.9257  -2.9257
    -2.4900  -2.4900  -2.4877  -2.4877  -2.4463  -2.4463  -2.3907  -2.3907
    -0.7117  -0.7117  -0.6516  -0.6516  -0.6262  -0.6262  -0.6227  -0.6227
    -0.5043  -0.5043  -0.4867  -0.4867  -0.4311  -0.4311  -0.4309  -0.4309
    -0.1325  -0.1325  -0.1182  -0.1182  -0.0848  -0.0848  -0.0564  -0.0564
     0.0655   0.0655   0.0720   0.0720   0.0819   0.0819   0.1147   0.1147
     5.4134   5.4134   5.4153   5.4153   5.4901   5.4901   5.5198   5.5198
     6.0965   6.0965   6.3525   6.3525   6.5060   6.5060   6.5750   6.5750
     6.6670   6.6670   6.7408   6.7408   6.8264   6.8264   7.0114   7.0114
     7.2231   7.2231   7.3316   7.3316   7.5121   7.5121   7.5257   7.5257
     7.6049   7.6049   7.6835   7.6835   7.6949   7.6949   7.9265   7.9265
     8.0816   8.0816   8.1259   8.1259

          k =-0.5000 0.0000-0.3618 (162752 PWs)   bands (ev):

   -20.2938 -20.2938 -20.2932 -20.2932 -20.2883 -20.2883 -20.2876 -20.2876
   -19.3033 -19.3033 -19.3030 -19.3030 -19.2977 -19.2977 -19.2975 -19.2975
   -18.2277 -18.2277 -18.2274 -18.2274 -18.2216 -18.2216 -18.2212 -18.2212
   -17.8559 -17.8559 -17.8557 -17.8557 -17.8491 -17.8491 -17.8489 -17.8489
   -12.6175 -12.6175 -12.6174 -12.6174 -12.6027 -12.6027 -12.6025 -12.6025
   -12.3778 -12.3778 -12.3776 -12.3776 -12.3298 -12.3298 -12.3297 -12.3297
   -12.2977 -12.2977 -12.2975 -12.2975 -12.2739 -12.2739 -12.2737 -12.2737
    -9.5721  -9.5721  -9.5718  -9.5718  -9.4867  -9.4867  -9.4865  -9.4865
    -7.6481  -7.6481  -7.6481  -7.6481  -7.5256  -7.5256  -7.5255  -7.5255
    -6.8209  -6.8209  -6.8208  -6.8208  -6.7924  -6.7924  -6.7923  -6.7923
    -6.7132  -6.7132  -6.7130  -6.7130  -6.6641  -6.6641  -6.6638  -6.6638
    -6.3649  -6.3649  -6.3644  -6.3644  -6.3329  -6.3329  -6.3325  -6.3325
    -5.8383  -5.8383  -5.8381  -5.8381  -5.7962  -5.7962  -5.7960  -5.7960
    -5.3434  -5.3434  -5.3432  -5.3432  -5.1612  -5.1612  -5.1610  -5.1610
    -4.7790  -4.7790  -4.7784  -4.7784  -4.7146  -4.7146  -4.7139  -4.7139
    -4.4922  -4.4922  -4.4919  -4.4919  -4.4160  -4.4160  -4.4157  -4.4157
    -4.2453  -4.2453  -4.2449  -4.2449  -4.1819  -4.1819  -4.1818  -4.1818
    -4.1135  -4.1135  -4.1131  -4.1131  -4.0305  -4.0305  -4.0300  -4.0300
    -3.7124  -3.7124  -3.7122  -3.7122  -3.6324  -3.6324  -3.6320  -3.6320
    -3.5821  -3.5821  -3.5818  -3.5818  -3.5066  -3.5066  -3.5063  -3.5063
    -3.4677  -3.4677  -3.4674  -3.4674  -3.4410  -3.4410  -3.4409  -3.4409
    -3.3510  -3.3510  -3.3508  -3.3508  -3.2453  -3.2453  -3.2449  -3.2449
    -3.0292  -3.0292  -3.0291  -3.0291  -2.9447  -2.9447  -2.9442  -2.9442
    -2.4845  -2.4845  -2.4841  -2.4841  -2.4157  -2.4157  -2.4153  -2.4153
    -0.6752  -0.6752  -0.6752  -0.6752  -0.6260  -0.6260  -0.6260  -0.6260
    -0.4954  -0.4954  -0.4954  -0.4954  -0.4407  -0.4407  -0.4405  -0.4405
    -0.1217  -0.1217  -0.1214  -0.1214  -0.0724  -0.0724  -0.0717  -0.0717
     0.0663   0.0663   0.0664   0.0664   0.1024   0.1024   0.1028   0.1028
     5.4208   5.4208   5.4212   5.4212   5.4974   5.4974   5.4980   5.4980
     6.2806   6.2806   6.2809   6.2809   6.4748   6.4748   6.4752   6.4752
     6.7384   6.7384   6.7388   6.7388   6.8191   6.8191   6.8197   6.8197
     7.3640   7.3640   7.3650   7.3650   7.5462   7.5462   7.5466   7.5466
     7.6576   7.6576   7.6583   7.6583   7.7666   7.7666   7.7675   7.7675
     8.1741   8.1743   8.1753   8.1754

          k =-0.5000-0.4115 0.0000 (162744 PWs)   bands (ev):

   -20.2921 -20.2921 -20.2920 -20.2920 -20.2895 -20.2895 -20.2893 -20.2893
   -19.3024 -19.3024 -19.3023 -19.3023 -19.2984 -19.2984 -19.2983 -19.2983
   -18.2265 -18.2265 -18.2265 -18.2265 -18.2225 -18.2225 -18.2225 -18.2225
   -17.8535 -17.8535 -17.8532 -17.8532 -17.8515 -17.8515 -17.8513 -17.8513
   -12.6181 -12.6181 -12.6180 -12.6180 -12.6024 -12.6024 -12.6023 -12.6023
   -12.3627 -12.3627 -12.3625 -12.3625 -12.3378 -12.3378 -12.3377 -12.3377
   -12.2971 -12.2971 -12.2971 -12.2971 -12.2818 -12.2818 -12.2818 -12.2818
    -9.5474  -9.5474  -9.5473  -9.5473  -9.5109  -9.5109  -9.5107  -9.5107
    -7.6028  -7.6028  -7.6027  -7.6027  -7.5721  -7.5721  -7.5719  -7.5719
    -6.8332  -6.8332  -6.8332  -6.8332  -6.7744  -6.7744  -6.7744  -6.7744
    -6.7169  -6.7169  -6.7169  -6.7169  -6.6651  -6.6651  -6.6649  -6.6649
    -6.3714  -6.3714  -6.3708  -6.3708  -6.3272  -6.3272  -6.3268  -6.3268
    -5.8432  -5.8432  -5.8430  -5.8430  -5.7944  -5.7944  -5.7942  -5.7942
    -5.2762  -5.2762  -5.2759  -5.2759  -5.2344  -5.2344  -5.2341  -5.2341
    -4.7773  -4.7773  -4.7771  -4.7771  -4.7061  -4.7061  -4.7061  -4.7061
    -4.5045  -4.5045  -4.5043  -4.5043  -4.4300  -4.4300  -4.4298  -4.4298
    -4.2270  -4.2270  -4.2269  -4.2269  -4.1703  -4.1703  -4.1702  -4.1702
    -4.0921  -4.0921  -4.0920  -4.0920  -4.0462  -4.0462  -4.0459  -4.0459
    -3.7019  -3.7019  -3.7018  -3.7018  -3.6193  -3.6193  -3.6190  -3.6190
    -3.5747  -3.5747  -3.5747  -3.5747  -3.5492  -3.5492  -3.5491  -3.5491
    -3.4861  -3.4861  -3.4860  -3.4860  -3.4233  -3.4233  -3.4232  -3.4232
    -3.3315  -3.3315  -3.3314  -3.3314  -3.2679  -3.2679  -3.2677  -3.2677
    -3.0021  -3.0021  -3.0019  -3.0019  -2.9629  -2.9629  -2.9627  -2.9627
    -2.4833  -2.4833  -2.4831  -2.4831  -2.4189  -2.4189  -2.4187  -2.4187
    -0.6756  -0.6756  -0.6754  -0.6754  -0.6302  -0.6302  -0.6301  -0.6301
    -0.4879  -0.4879  -0.4878  -0.4878  -0.4369  -0.4369  -0.4369  -0.4369
    -0.1173  -0.1173  -0.1171  -0.1171  -0.0803  -0.0803  -0.0799  -0.0799
     0.0700   0.0700   0.0702   0.0702   0.0973   0.0973   0.0976   0.0976
     5.4280   5.4280   5.4283   5.4283   5.4904   5.4904   5.4908   5.4908
     6.2526   6.2526   6.2529   6.2529   6.5462   6.5462   6.5464   6.5464
     6.6896   6.6896   6.6896   6.6896   6.8386   6.8386   6.8387   6.8387
     7.3329   7.3329   7.3332   7.3332   7.4653   7.4653   7.4654   7.4654
     7.7451   7.7451   7.7460   7.7460   7.9336   7.9336   7.9338   7.9339
     8.0245   8.0245   8.0247   8.0247

          k =-0.5000-0.4115-0.3618 (162768 PWs)   bands (ev):

   -20.2913 -20.2913 -20.2910 -20.2910 -20.2904 -20.2904 -20.2901 -20.2901
   -19.3009 -19.3009 -19.3005 -19.3005 -19.3002 -19.3002 -19.2998 -19.2998
   -18.2251 -18.2251 -18.2247 -18.2247 -18.2243 -18.2243 -18.2239 -18.2239
   -17.8529 -17.8529 -17.8525 -17.8525 -17.8523 -17.8523 -17.8518 -17.8518
   -12.6137 -12.6137 -12.6134 -12.6134 -12.6068 -12.6068 -12.6065 -12.6065
   -12.3613 -12.3613 -12.3611 -12.3611 -12.3423 -12.3423 -12.3422 -12.3422
   -12.2890 -12.2890 -12.2887 -12.2887 -12.2874 -12.2874 -12.2872 -12.2872
    -9.5408  -9.5408  -9.5406  -9.5406  -9.5173  -9.5173  -9.5170  -9.5170
    -7.5989  -7.5989  -7.5988  -7.5988  -7.5760  -7.5760  -7.5758  -7.5758
    -6.8200  -6.8200  -6.8199  -6.8199  -6.7943  -6.7943  -6.7941  -6.7941
    -6.6953  -6.6953  -6.6951  -6.6951  -6.6823  -6.6823  -6.6821  -6.6821
    -6.3661  -6.3661  -6.3656  -6.3656  -6.3299  -6.3299  -6.3295  -6.3295
    -5.8340  -5.8340  -5.8338  -5.8338  -5.8079  -5.8079  -5.8075  -5.8075
    -5.2692  -5.2692  -5.2688  -5.2688  -5.2433  -5.2433  -5.2429  -5.2429
    -4.7656  -4.7656  -4.7649  -4.7649  -4.7270  -4.7270  -4.7265  -4.7265
    -4.4680  -4.4680  -4.4676  -4.4676  -4.4629  -4.4629  -4.4625  -4.4625
    -4.1941  -4.1941  -4.1940  -4.1940  -4.1621  -4.1621  -4.1620  -4.1620
    -4.1042  -4.1042  -4.1039  -4.1039  -4.0671  -4.0671  -4.0664  -4.0664
    -3.6724  -3.6724  -3.6721  -3.6721  -3.6547  -3.6547  -3.6544  -3.6544
    -3.5708  -3.5708  -3.5708  -3.5708  -3.5117  -3.5117  -3.5114  -3.5114
    -3.4746  -3.4746  -3.4743  -3.4743  -3.4391  -3.4391  -3.4389  -3.4389
    -3.3259  -3.3259  -3.3255  -3.3255  -3.3056  -3.3056  -3.3055  -3.3055
    -2.9841  -2.9841  -2.9838  -2.9838  -2.9820  -2.9820  -2.9817  -2.9817
    -2.4705  -2.4705  -2.4701  -2.4701  -2.4310  -2.4310  -2.4305  -2.4305
    -0.6568  -0.6568  -0.6565  -0.6565  -0.6432  -0.6432  -0.6430  -0.6430
    -0.4730  -0.4730  -0.4724  -0.4724  -0.4611  -0.4611  -0.4604  -0.4604
    -0.1037  -0.1037  -0.1033  -0.1033  -0.0906  -0.0906  -0.0902  -0.0902
     0.0736   0.0736   0.0739   0.0739   0.0941   0.0941   0.0945   0.0945
     5.4355   5.4355   5.4359   5.4359   5.4852   5.4852   5.4858   5.4858
     6.3578   6.3578   6.3581   6.3581   6.4089   6.4089   6.4095   6.4095
     6.7188   6.7188   6.7195   6.7195   6.8338   6.8338   6.8347   6.8347
     7.3414   7.3414   7.3422   7.3422   7.4673   7.4673   7.4678   7.4678
     7.8251   7.8251   7.8257   7.8257   7.8331   7.8332   7.8336   7.8336
     8.1328   8.1390   8.1413   8.1422

     highest occupied, lowest unoccupied level (ev):     0.1329    5.3787

!    total energy              =   -2087.62422962 Ry
     Harris-Foulkes estimate   =   -2087.62422962 Ry
     estimated scf accuracy    <          4.9E-09 Ry

     total all-electron energy =     -7660.903663 Ry

     The total energy is the sum of the following terms:

     one-electron contribution =   -1098.41515297 Ry
     hartree contribution      =     716.52803622 Ry
     xc contribution           =    -462.20637266 Ry
     ewald contribution        =    -682.18283045 Ry
     Dispersion Correction     =      -0.79971520 Ry
     one-center paw contrib.   =    -560.54819457 Ry

     convergence has been achieved in  17 iterations

     Forces acting on atoms (cartesian axes, Ry/au):

     atom    1 type  1   force =     0.00022707    0.00005660   -0.00005863
     atom    2 type  1   force =    -0.00022262   -0.00004405    0.00000413
     atom    3 type  1   force =     0.00022707   -0.00005660    0.00005863
     atom    4 type  1   force =    -0.00022262    0.00004405   -0.00000413
     atom    5 type  1   force =    -0.00022707   -0.00005660    0.00005863
     atom    6 type  1   force =     0.00022262    0.00004405   -0.00000413
     atom    7 type  1   force =    -0.00022707    0.00005660   -0.00005863
     atom    8 type  1   force =     0.00022262   -0.00004405    0.00000413
     atom    9 type  1   force =     0.00028522    0.00014653    0.00026711
     atom   10 type  1   force =    -0.00026690   -0.00014770    0.00037290
     atom   11 type  1   force =     0.00028522   -0.00014653   -0.00026711
     atom   12 type  1   force =    -0.00026690    0.00014770   -0.00037290
     atom   13 type  1   force =    -0.00028522   -0.00014653   -0.00026711
     atom   14 type  1   force =     0.00026690    0.00014770   -0.00037290
     atom   15 type  1   force =    -0.00028522    0.00014653    0.00026711
     atom   16 type  1   force =     0.00026690   -0.00014770    0.00037290
     atom   17 type  1   force =     0.00007306   -0.00026196    0.00053242
     atom   18 type  1   force =    -0.00006723    0.00026515    0.00043485
     atom   19 type  1   force =     0.00007306    0.00026196   -0.00053242
     atom   20 type  1   force =    -0.00006723   -0.00026515   -0.00043485
     atom   21 type  1   force =    -0.00007306    0.00026196   -0.00053242
     atom   22 type  1   force =     0.00006723   -0.00026515   -0.00043485
     atom   23 type  1   force =    -0.00007306   -0.00026196    0.00053242
     atom   24 type  1   force =     0.00006723    0.00026515    0.00043485
     atom   25 type  2   force =    -0.00009600   -0.00014670   -0.00007774
     atom   26 type  2   force =     0.00006729    0.00011662   -0.00008051
     atom   27 type  2   force =    -0.00009600    0.00014670    0.00007774
     atom   28 type  2   force =     0.00006729   -0.00011662    0.00008051
     atom   29 type  2   force =     0.00009600    0.00014670    0.00007774
     atom   30 type  2   force =    -0.00006729   -0.00011662    0.00008051
     atom   31 type  2   force =     0.00009600   -0.00014670   -0.00007774
     atom   32 type  2   force =    -0.00006729    0.00011662   -0.00008051
     atom   33 type  1   force =     0.00003767    0.00018747   -0.00005542
     atom   34 type  1   force =     0.00000854   -0.00016668   -0.00002888
     atom   35 type  1   force =     0.00003767   -0.00018747    0.00005542
     atom   36 type  1   force =     0.00000854    0.00016668    0.00002888
     atom   37 type  1   force =    -0.00003767   -0.00018747    0.00005542
     atom   38 type  1   force =    -0.00000854    0.00016668    0.00002888
     atom   39 type  1   force =    -0.00003767    0.00018747   -0.00005542
     atom   40 type  1   force =    -0.00000854   -0.00016668   -0.00002888
     atom   41 type  1   force =    -0.00034908    0.00002509   -0.00081395
     atom   42 type  1   force =    -0.00001096    0.00006379   -0.00001428
     atom   43 type  1   force =    -0.00034908   -0.00002509    0.00081395
     atom   44 type  1   force =    -0.00001096   -0.00006379    0.00001428
     atom   45 type  1   force =     0.00034908   -0.00002509    0.00081395
     atom   46 type  1   force =     0.00001096   -0.00006379    0.00001428
     atom   47 type  1   force =     0.00034908    0.00002509   -0.00081395
     atom   48 type  1   force =     0.00001096    0.00006379   -0.00001428
     atom   49 type  4   force =    -0.00016735   -0.00028806   -0.00005907
     atom   50 type  4   force =     0.00016094    0.00015165   -0.00033320
     atom   51 type  4   force =    -0.00016735    0.00028806    0.00005907
     atom   52 type  4   force =     0.00016094   -0.00015165    0.00033320
     atom   53 type  4   force =     0.00016735    0.00028806    0.00005907
     atom   54 type  4   force =    -0.00016094   -0.00015165    0.00033320
     atom   55 type  4   force =     0.00016735   -0.00028806   -0.00005907
     atom   56 type  4   force =    -0.00016094    0.00015165   -0.00033320
     atom   57 type  4   force =     0.00020755   -0.00071905    0.00044875
     atom   58 type  4   force =     0.00011569    0.00078504    0.00002421
     atom   59 type  4   force =     0.00020755    0.00071905   -0.00044875
     atom   60 type  4   force =     0.00011569   -0.00078504   -0.00002421
     atom   61 type  4   force =    -0.00020755    0.00071905   -0.00044875
     atom   62 type  4   force =    -0.00011569   -0.00078504   -0.00002421
     atom   63 type  4   force =    -0.00020755   -0.00071905    0.00044875
     atom   64 type  4   force =    -0.00011569    0.00078504    0.00002421
     atom   65 type  3   force =    -0.00041055    0.00012126   -0.00039543
     atom   66 type  3   force =     0.00040548   -0.00013140   -0.00042084
     atom   67 type  3   force =    -0.00041055   -0.00012126    0.00039543
     atom   68 type  3   force =     0.00040548    0.00013140    0.00042084
     atom   69 type  3   force =     0.00041055   -0.00012126    0.00039543
     atom   70 type  3   force =    -0.00040548    0.00013140    0.00042084
     atom   71 type  3   force =     0.00041055    0.00012126   -0.00039543
     atom   72 type  3   force =    -0.00040548   -0.00013140   -0.00042084
     atom   73 type  3   force =     0.00026750   -0.00000185    0.00009334
     atom   74 type  3   force =    -0.00027153   -0.00000111    0.00008347
     atom   75 type  3   force =     0.00026750    0.00000185   -0.00009334
     atom   76 type  3   force =    -0.00027153    0.00000111   -0.00008347
     atom   77 type  3   force =    -0.00026750    0.00000185   -0.00009334
     atom   78 type  3   force =     0.00027153    0.00000111   -0.00008347
     atom   79 type  3   force =    -0.00026750   -0.00000185    0.00009334
     atom   80 type  3   force =     0.00027153   -0.00000111    0.00008347
     atom   81 type  3   force =     0.00042459    0.00034364   -0.00042774
     atom   82 type  3   force =    -0.00041866   -0.00034631   -0.00044020
     atom   83 type  3   force =     0.00042459   -0.00034364    0.00042774
     atom   84 type  3   force =    -0.00041866    0.00034631    0.00044020
     atom   85 type  3   force =    -0.00042459   -0.00034364    0.00042774
     atom   86 type  3   force =     0.00041866    0.00034631    0.00044020
     atom   87 type  3   force =    -0.00042459    0.00034364   -0.00042774
     atom   88 type  3   force =     0.00041866   -0.00034631   -0.00044020
     atom   89 type  3   force =    -0.00027295   -0.00019918   -0.00030737
     atom   90 type  3   force =     0.00025726    0.00019259   -0.00032114
     atom   91 type  3   force =    -0.00027295    0.00019918    0.00030737
     atom   92 type  3   force =     0.00025726   -0.00019259    0.00032114
     atom   93 type  3   force =     0.00027295    0.00019918    0.00030737
     atom   94 type  3   force =    -0.00025726   -0.00019259    0.00032114
     atom   95 type  3   force =     0.00027295   -0.00019918   -0.00030737
     atom   96 type  3   force =    -0.00025726    0.00019259   -0.00032114
     atom   97 type  3   force =     0.00042117    0.00024920    0.00032344
     atom   98 type  3   force =    -0.00042024   -0.00025423    0.00031419
     atom   99 type  3   force =     0.00042117   -0.00024920   -0.00032344
     atom  100 type  3   force =    -0.00042024    0.00025423   -0.00031419
     atom  101 type  3   force =    -0.00042117   -0.00024920   -0.00032344
     atom  102 type  3   force =     0.00042024    0.00025423   -0.00031419
     atom  103 type  3   force =    -0.00042117    0.00024920    0.00032344
     atom  104 type  3   force =     0.00042024   -0.00025423    0.00031419
     atom  105 type  3   force =     0.00020116   -0.00012247    0.00022450
     atom  106 type  3   force =    -0.00019885    0.00011859    0.00021854
     atom  107 type  3   force =     0.00020116    0.00012247   -0.00022450
     atom  108 type  3   force =    -0.00019885   -0.00011859   -0.00021854
     atom  109 type  3   force =    -0.00020116    0.00012247   -0.00022450
     atom  110 type  3   force =     0.00019885   -0.00011859   -0.00021854
     atom  111 type  3   force =    -0.00020116   -0.00012247    0.00022450
     atom  112 type  3   force =     0.00019885    0.00011859    0.00021854
     atom  113 type  3   force =    -0.00051384    0.00051828   -0.00020400
     atom  114 type  3   force =     0.00051466   -0.00051222   -0.00019379
     atom  115 type  3   force =    -0.00051384   -0.00051828    0.00020400
     atom  116 type  3   force =     0.00051466    0.00051222    0.00019379
     atom  117 type  3   force =     0.00051384   -0.00051828    0.00020400
     atom  118 type  3   force =    -0.00051466    0.00051222    0.00019379
     atom  119 type  3   force =     0.00051384    0.00051828   -0.00020400
     atom  120 type  3   force =    -0.00051466   -0.00051222   -0.00019379
     atom  121 type  3   force =     0.00005146   -0.00036013    0.00014075
     atom  122 type  3   force =    -0.00004868    0.00034680    0.00013874
     atom  123 type  3   force =     0.00005146    0.00036013   -0.00014075
     atom  124 type  3   force =    -0.00004868   -0.00034680   -0.00013874
     atom  125 type  3   force =    -0.00005146    0.00036013   -0.00014075
     atom  126 type  3   force =     0.00004868   -0.00034680   -0.00013874
     atom  127 type  3   force =    -0.00005146   -0.00036013    0.00014075
     atom  128 type  3   force =     0.00004868    0.00034680    0.00013874
     atom  129 type  3   force =    -0.00007994   -0.00052285    0.00013791
     atom  130 type  3   force =     0.00008393    0.00052039    0.00013264
     atom  131 type  3   force =    -0.00007994    0.00052285   -0.00013791
     atom  132 type  3   force =     0.00008393   -0.00052039   -0.00013264
     atom  133 type  3   force =     0.00007994    0.00052285   -0.00013791
     atom  134 type  3   force =    -0.00008393   -0.00052039   -0.00013264
     atom  135 type  3   force =     0.00007994   -0.00052285    0.00013791
     atom  136 type  3   force =    -0.00008393    0.00052039    0.00013264
     atom  137 type  3   force =     0.00041875    0.00009827   -0.00027338
     atom  138 type  3   force =    -0.00040523   -0.00009793   -0.00027925
     atom  139 type  3   force =     0.00041875   -0.00009827    0.00027338
     atom  140 type  3   force =    -0.00040523    0.00009793    0.00027925
     atom  141 type  3   force =    -0.00041875   -0.00009827    0.00027338
     atom  142 type  3   force =     0.00040523    0.00009793    0.00027925
     atom  143 type  3   force =    -0.00041875    0.00009827   -0.00027338
     atom  144 type  3   force =     0.00040523   -0.00009793   -0.00027925
     atom  145 type  3   force =    -0.00014723    0.00033368    0.00000232
     atom  146 type  3   force =     0.00014353   -0.00034722    0.00000864
     atom  147 type  3   force =    -0.00014723   -0.00033368   -0.00000232
     atom  148 type  3   force =     0.00014353    0.00034722   -0.00000864
     atom  149 type  3   force =     0.00014723   -0.00033368   -0.00000232
     atom  150 type  3   force =    -0.00014353    0.00034722   -0.00000864
     atom  151 type  3   force =     0.00014723    0.00033368    0.00000232
     atom  152 type  3   force =    -0.00014353   -0.00034722    0.00000864
     atom  153 type  4   force =     0.00008369    0.00075475    0.00001818
     atom  154 type  4   force =     0.00003063   -0.00070460   -0.00000178
     atom  155 type  4   force =     0.00008369   -0.00075475   -0.00001818
     atom  156 type  4   force =     0.00003063    0.00070460    0.00000178
     atom  157 type  4   force =    -0.00008369   -0.00075475   -0.00001818
     atom  158 type  4   force =    -0.00003063    0.00070460    0.00000178
     atom  159 type  4   force =    -0.00008369    0.00075475    0.00001818
     atom  160 type  4   force =    -0.00003063   -0.00070460   -0.00000178
     atom  161 type  3   force =     0.00022845    0.00019301   -0.00035282
     atom  162 type  3   force =    -0.00026416   -0.00017348   -0.00035047
     atom  163 type  3   force =     0.00022845   -0.00019301    0.00035282
     atom  164 type  3   force =    -0.00026416    0.00017348    0.00035047
     atom  165 type  3   force =    -0.00022845   -0.00019301    0.00035282
     atom  166 type  3   force =     0.00026416    0.00017348    0.00035047
     atom  167 type  3   force =    -0.00022845    0.00019301   -0.00035282
     atom  168 type  3   force =     0.00026416   -0.00017348   -0.00035047
     atom  169 type  3   force =    -0.00004451    0.00019787    0.00069238
     atom  170 type  3   force =    -0.00002500   -0.00027070    0.00070066
     atom  171 type  3   force =    -0.00004451   -0.00019787   -0.00069238
     atom  172 type  3   force =    -0.00002500    0.00027070   -0.00070066
     atom  173 type  3   force =     0.00004451   -0.00019787   -0.00069238
     atom  174 type  3   force =     0.00002500    0.00027070   -0.00070066
     atom  175 type  3   force =     0.00004451    0.00019787    0.00069238
     atom  176 type  3   force =     0.00002500   -0.00027070    0.00070066

     Total force =     0.007005     Total SCF correction =     0.000090


     Computing stress (Cartesian axis) and pressure

          total   stress  (Ry/bohr**3)                   (kbar)     P=   -8.83
  -0.00004992   0.00000000   0.00000000         -7.34      0.00      0.00
   0.00000000  -0.00006597  -0.00000000          0.00     -9.71     -0.00
   0.00000000  -0.00000000  -0.00006411          0.00     -0.00     -9.43


     Writing output data file scf.save
 
     init_run     :    124.37s CPU    128.67s WALL (       1 calls)
     electrons    :   5247.25s CPU   5415.33s WALL (       1 calls)
     forces       :     59.13s CPU     59.56s WALL (       1 calls)
     stress       :    298.79s CPU    299.41s WALL (       1 calls)

     Called by init_run:
     wfcinit      :    114.89s CPU    118.95s WALL (       1 calls)
     potinit      :      3.35s CPU      3.40s WALL (       1 calls)

     Called by electrons:
     c_bands      :   4782.12s CPU   4926.43s WALL (      17 calls)
     sum_band     :    438.58s CPU    459.53s WALL (      17 calls)
     v_of_rho     :      3.51s CPU      3.89s WALL (      18 calls)
     newd         :     10.13s CPU     12.64s WALL (      18 calls)
     PAW_pot      :     11.81s CPU     11.81s WALL (      18 calls)
     mix_rho      :      0.89s CPU      0.94s WALL (      17 calls)

     Called by c_bands:
     init_us_2    :     18.13s CPU     18.19s WALL (     296 calls)
     cegterg      :   4704.26s CPU   4848.52s WALL (     136 calls)

     Called by sum_band:
     sum_band:bec :      0.15s CPU      0.15s WALL (     136 calls)
     addusdens    :      9.82s CPU     12.26s WALL (      17 calls)

     Called by *egterg:
     h_psi        :   2349.59s CPU   2468.02s WALL (     600 calls)
     s_psi        :    591.00s CPU    590.95s WALL (     600 calls)
     g_psi        :      9.12s CPU      9.12s WALL (     456 calls)
     cdiaghg      :    206.87s CPU    206.92s WALL (     592 calls)

     Called by h_psi:
     h_psi:pot    :   2337.22s CPU   2455.44s WALL (     600 calls)
     h_psi:calbec :    606.66s CPU    607.29s WALL (     600 calls)
     vloc_psi     :   1139.26s CPU   1256.88s WALL (     600 calls)
     add_vuspsi   :    591.29s CPU    591.25s WALL (     600 calls)

     General routines
     calbec       :    877.83s CPU    878.73s WALL (     776 calls)
     fft          :      5.85s CPU      6.48s WALL (     258 calls)
     fftw         :   1243.69s CPU   1379.33s WALL (  254232 calls)
 
     Parallel routines
     fft_scatter  :    440.01s CPU    575.67s WALL (  254490 calls)
 
     PWSCF        :     1h35m CPU        1h40m WALL

 
   This run was terminated on:   7:49:46  15Dec2017            

=------------------------------------------------------------------------------=
   JOB DONE.
=------------------------------------------------------------------------------=
