
     Program PWSCF v.6.1 (svn rev. 13369) starts on  7Dec2017 at 11:50:14 

     This program is part of the open-source Quantum ESPRESSO suite
     for quantum simulation of materials; please cite
         "P. Giannozzi et al., J. Phys.:Condens. Matter 21 395502 (2009);
          URL http://www.quantum-espresso.org", 
     in publications or presentations arising from this work. More details at
     http://www.quantum-espresso.org/quote

     Parallel version (MPI), running on     8 processors
     R & G space division:  proc/nbgrp/npool/nimage =       8
     Waiting for input...
     Reading input from standard input

     Current dimensions of program PWSCF are:
     Max number of different atomic species (ntypx) = 10
     Max number of k-points (npk) =  40000
     Max angular momentum in pseudopotentials (lmaxx) =  3
               file C.pbe-n-kjpaw_psl.0.1.UPF: wavefunction(s)  2P renormalized
               file N.pbe-n-kjpaw_psl.0.1.UPF: wavefunction(s)  2P renormalized
               file H.pbe-kjpaw_psl.0.1.UPF: wavefunction(s)  1S renormalized
               file O.pbe-n-kjpaw_psl.0.1.UPF: wavefunction(s)  2P renormalized

     -------------------------------------
     Parameters for Dispersion Correction:
     -------------------------------------
       atom      VdW radius       C_6     

        C          2.744         60.710
        N          2.640         42.670
        H          1.892          4.857
        O          2.536         24.284

     Subspace diagonalization in iterative solution of the eigenvalue problem:
     a serial algorithm will be used

 
     Parallelization info
     --------------------
     sticks:   dense  smooth     PW     G-vecs:    dense   smooth      PW
     Min        1016    1016    268                97487    97487   13267
     Max        1017    1017    269                97491    97491   13271
     Sum        8135    8135   2151               779911   779911  106159
 


     bravais-lattice index     =            0
     lattice parameter (alat)  =      21.3539  a.u.
     unit-cell volume          =    5774.8356 (a.u.)^3
     number of atoms/cell      =           92
     number of atomic types    =            4
     number of electrons       =       336.00
     number of Kohn-Sham states=          201
     kinetic-energy cutoff     =     100.0000  Ry
     charge density cutoff     =     400.0000  Ry
     convergence threshold     =      1.0E-08
     mixing beta               =       0.5000
     number of iterations used =            8  plain     mixing
     Exchange-correlation      =  SLA  PW   PBX  PBC ( 1  4  3  4 0 0)

     celldm(1)=  21.353905  celldm(2)=   0.000000  celldm(3)=   0.000000
     celldm(4)=   0.000000  celldm(5)=   0.000000  celldm(6)=   0.000000

     crystal axes: (cart. coord. in units of alat)
               a(1) = (   1.000000   0.000000   0.000000 )  
               a(2) = (   0.000000   0.561062   0.000000 )  
               a(3) = (  -0.232408   0.000000   1.057053 )  

     reciprocal axes: (cart. coord. in units 2 pi/alat)
               b(1) = (  1.000000  0.000000  0.219864 )  
               b(2) = (  0.000000  1.782334  0.000000 )  
               b(3) = (  0.000000  0.000000  0.946026 )  


     PseudoPot. # 1 for  C read from file:
     /scratch/ahofstet/pseudo/C.pbe-n-kjpaw_psl.0.1.UPF
     MD5 check sum: 430fe95172b1e11ef3f8ed03bac87931
     Pseudo is Projector augmented-wave + core cor, Zval =  4.0
     Generated using "atomic" code by A. Dal Corso  v.5.0.99 svn rev. 10869
     Shape of augmentation charge: BESSEL
     Using radial grid of 1073 points,  4 beta functions with: 
                l(1) =   0
                l(2) =   0
                l(3) =   1
                l(4) =   1
     Q(r) pseudized with 0 coefficients 


     PseudoPot. # 2 for  N read from file:
     /scratch/ahofstet/pseudo/N.pbe-n-kjpaw_psl.0.1.UPF
     MD5 check sum: f73187c8b701007e77325f868c9291d7
     Pseudo is Projector augmented-wave + core cor, Zval =  5.0
     Generated using "atomic" code by A. Dal Corso  v.5.0.99 svn rev. 10869
     Shape of augmentation charge: PSQ
     Using radial grid of 1085 points,  4 beta functions with: 
                l(1) =   0
                l(2) =   0
                l(3) =   1
                l(4) =   1
     Q(r) pseudized with 0 coefficients 


     PseudoPot. # 3 for  H read from file:
     /scratch/ahofstet/pseudo/H.pbe-kjpaw_psl.0.1.UPF
     MD5 check sum: 94e484f906d9e9773b2f6e52662335b2
     Pseudo is Projector augmented-wave, Zval =  1.0
     Generated using "atomic" code by A. Dal Corso  v.5.0.99 svn rev. 10869
     Shape of augmentation charge: PSQ
     Using radial grid of  929 points,  2 beta functions with: 
                l(1) =   0
                l(2) =   0
     Q(r) pseudized with 0 coefficients 


     PseudoPot. # 4 for  O read from file:
     /scratch/ahofstet/pseudo/O.pbe-n-kjpaw_psl.0.1.UPF
     MD5 check sum: 3f94a2996a3169367d6eb21d9b593f20
     Pseudo is Projector augmented-wave + core cor, Zval =  6.0
     Generated using "atomic" code by A. Dal Corso  v.5.0.99 svn rev. 10869
     Shape of augmentation charge: BESSEL
     Using radial grid of 1095 points,  4 beta functions with: 
                l(1) =   0
                l(2) =   0
                l(3) =   1
                l(4) =   1
     Q(r) pseudized with 0 coefficients 


     atomic species   valence    mass     pseudopotential
        C              4.00    12.01070      C( 1.00)
        N              5.00    14.00670      N( 1.00)
        H              1.00     1.00794      H( 1.00)
        O              6.00    15.99940      O( 1.00)

      2 Sym. Ops. (no inversion) found ( 1 have fractional translation)



   Cartesian axes

     site n.     atom                  positions (alat units)
         1           C   tau(   1) = (   0.6439487   0.3951537   0.9142602  )
         2           C   tau(   2) = (   0.7601529   0.1659083   0.3857336  )
         3           C   tau(   3) = (   0.7257259   0.0255474   0.8214756  )
         4           C   tau(   4) = (   0.8419300   0.5355145   0.2929490  )
         5           C   tau(   5) = (  -0.1263081   0.4410773   0.7430794  )
         6           C   tau(   6) = (  -0.0101040   0.1199847   0.2145527  )
         7           C   tau(   7) = (   0.8164251   0.3272891   0.7908667  )
         8           C   tau(   8) = (   0.9326292   0.2337728   0.2623400  )
         9           N   tau(   9) = (   0.6886225   0.3388422   0.8100102  )
        10           N   tau(  10) = (   0.8048266   0.2222198   0.2814836  )
        11           N   tau(  11) = (   0.6571345   0.5258926   0.9114827  )
        12           N   tau(  12) = (   0.7733386   0.0351693   0.3829560  )
        13           N   tau(  13) = (  -0.1539038   0.5438114   0.8161449  )
        14           N   tau(  14) = (  -0.0376997   0.0172506   0.2876182  )
        15           N   tau(  15) = (   0.6150487   0.3359239   0.7103575  )
        16           N   tau(  16) = (   0.7312528   0.2251381   0.1818309  )
        17           O   tau(  17) = (   0.6588839   0.2973218   0.6184070  )
        18           O   tau(  18) = (   0.7750880   0.2637401   0.0898804  )
        19           O   tau(  19) = (   0.5115733   0.3690347   0.7232220  )
        20           O   tau(  20) = (   0.6277775   0.1920272   0.1946954  )
        21           N   tau(  21) = (   0.6128326   0.0308138   0.9978789  )
        22           N   tau(  22) = (   0.7290367   0.5302482   0.4693523  )
        23           O   tau(  23) = (   0.7860108   0.5361183   0.0149178  )
        24           O   tau(  24) = (   0.6698066   0.0249436   0.5434445  )
        25           N   tau(  25) = (  -0.0758607   0.0239016   0.8993335  )
        26           N   tau(  26) = (   0.0403434   0.5371603   0.3708069  )
        27           O   tau(  27) = (   0.0257643   0.5430908   0.9001838  )
        28           O   tau(  28) = (   0.1419684   0.0179711   0.3716571  )
        29           O   tau(  29) = (  -0.1112786   0.1030005   0.9665904  )
        30           O   tau(  30) = (   0.0049255   0.4580615   0.4380638  )
        31           C   tau(  31) = (   0.3581265   0.2921503   0.0138881  )
        32           C   tau(  32) = (   0.2419224   0.2689117   0.5424147  )
        33           C   tau(  33) = (   0.3003312   0.4841738   0.1255678  )
        34           C   tau(  34) = (   0.1841271   0.0768881   0.6540944  )
        35           C   tau(  35) = (   0.4957964   0.5279540   0.0263823  )
        36           C   tau(  36) = (   0.3795923   0.0331080   0.5549089  )
        37           C   tau(  37) = (   0.3027827   0.4165259   1.0169566  )
        38           C   tau(  38) = (   0.4189868   0.1445360   0.4884300  )
        39           N   tau(  39) = (   0.2014813   0.3445619   0.9818007  )
        40           N   tau(  40) = (   0.3176854   0.2165001   0.4532741  )
        41           N   tau(  41) = (   0.2692875   0.3744559   0.0599997  )
        42           N   tau(  42) = (   0.1530834   0.1866060   0.5885263  )
        43           N   tau(  43) = (   0.4259710   0.4997535   0.1317693  )
        44           N   tau(  44) = (   0.3097669   0.0613084   0.6602960  )
        45           N   tau(  45) = (   0.1664444   0.3392561   0.8656850  )
        46           N   tau(  46) = (   0.2826486   0.2218059   0.3371583  )
        47           O   tau(  47) = (   0.2259894   0.3938559   0.7916054  )
        48           O   tau(  48) = (   0.3421935   0.1672060   0.2630788  )
        49           O   tau(  49) = (   0.0782993   0.2784245   0.8425978  )
        50           O   tau(  50) = (   0.1945034   0.2826375   0.3140711  )
        51           N   tau(  51) = (   0.1574782   0.3530923   0.0319370  )
        52           N   tau(  52) = (   0.0412741   0.2079696   0.5604636  )
        53           O   tau(  53) = (   0.0853629   0.4267829   0.0710441  )
        54           O   tau(  54) = (  -0.0308413   0.1342790   0.5995707  )
        55           N   tau(  55) = (   0.4857256   0.4637243   0.2326643  )
        56           N   tau(  56) = (   0.3695215   0.0973376   0.7611910  )
        57           O   tau(  57) = (   0.5948140   0.4650238   0.2274038  )
        58           O   tau(  58) = (   0.4786099   0.0960382   0.7559304  )
        59           O   tau(  59) = (   0.4266624   0.4354994   0.3204617  )
        60           O   tau(  60) = (   0.3104583   0.1255626   0.8489883  )
        61           H   tau(  61) = (   0.5505870   0.3736596   0.9273618  )
        62           H   tau(  62) = (   0.6667911   0.1874023   0.3988352  )
        63           H   tau(  63) = (   0.6939755   0.3619942   0.9908189  )
        64           H   tau(  64) = (   0.8101796   0.1990678   0.4622922  )
        65           H   tau(  65) = (   0.7231606   0.1197247   0.8428584  )
        66           H   tau(  66) = (   0.8393647   0.4413372   0.3143318  )
        67           H   tau(  67) = (   0.6873691   0.0105794   0.7333582  )
        68           H   tau(  68) = (   0.8035733   0.5504826   0.2048315  )
        69           H   tau(  69) = (   0.8408450   0.4603600   0.6536769  )
        70           H   tau(  70) = (   0.9570491   0.1007019   0.1251503  )
        71           H   tau(  71) = (  -0.0304221   0.4293909   0.7392956  )
        72           H   tau(  72) = (   0.0857821   0.1316711   0.2107689  )
        73           H   tau(  73) = (  -0.1450854   0.3026984   0.8765721  )
        74           H   tau(  74) = (  -0.0288813   0.2583635   0.3480454  )
        75           H   tau(  75) = (   0.8325245   0.2559329   0.7273067  )
        76           H   tau(  76) = (   0.9487286   0.3051291   0.1987800  )
        77           H   tau(  77) = (   0.0766695   0.2177445   1.0331181  )
        78           H   tau(  78) = (   0.1928736   0.3433175   0.5045914  )
        79           H   tau(  79) = (   0.4153865   0.2622573   0.0864833  )
        80           H   tau(  80) = (   0.2991824   0.2988047   0.6150099  )
        81           H   tau(  81) = (   0.2620498   0.4803748   0.2144475  )
        82           H   tau(  82) = (   0.1458457   0.0806872   0.7429741  )
        83           H   tau(  83) = (   0.2606186   0.5591248   0.0779323  )
        84           H   tau(  84) = (   0.1444145   0.0019372   0.6064589  )
        85           H   tau(  85) = (   0.2058124   0.0203297   1.0264447  )
        86           H   tau(  86) = (   0.3220165   0.5407323   0.4979181  )
        87           H   tau(  87) = (   0.5732729   0.0190350   0.0523497  )
        88           H   tau(  88) = (   0.4570688   0.5420269   0.5808763  )
        89           H   tau(  89) = (   0.5928756   0.3617359   0.0158686  )
        90           H   tau(  90) = (   0.4766715   0.1993261   0.5443952  )
        91           H   tau(  91) = (   0.3514923   0.4417540   0.9373327  )
        92           H   tau(  92) = (   0.4676964   0.1193080   0.4088061  )

     number of k points=     8
                       cart. coord. in units 2pi/alat
        k(    1) = (   0.0000000   0.0000000   0.0000000), wk =   0.1666667
        k(    2) = (   0.0000000   0.0000000  -0.4730131), wk =   0.1666667
        k(    3) = (   0.0000000   0.5941115   0.0000000), wk =   0.3333333
        k(    4) = (   0.0000000   0.5941115  -0.4730131), wk =   0.3333333
        k(    5) = (  -0.5000000   0.0000000  -0.1099321), wk =   0.1666667
        k(    6) = (  -0.5000000   0.0000000  -0.5829452), wk =   0.1666667
        k(    7) = (  -0.5000000   0.5941115  -0.1099321), wk =   0.3333333
        k(    8) = (  -0.5000000   0.5941115  -0.5829452), wk =   0.3333333

     Dense  grid:   779911 G-vectors     FFT dimensions: ( 135,  80, 150)

     Estimated max dynamical RAM per process >     815.70MB

     Estimated total allocated dynamical RAM >    6525.60MB

     Check: negative/imaginary core charge=   -0.000002    0.000000

     Initial potential from superposition of free atoms

     starting charge  335.99882, renormalised to  336.00000
     Starting wfc are  272 randomized atomic wfcs
     Checking if some PAW data can be deallocated... 

     total cpu time spent up to now is       41.5 secs

     per-process dynamical memory:   568.2 Mb

     Self-consistent Calculation

     iteration #  1     ecut=   100.00 Ry     beta=0.50
     Davidson diagonalization with overlap
     ethr =  1.00E-02,  avg # of iterations =  3.0

     total cpu time spent up to now is      145.8 secs

     total energy              =   -1839.22411588 Ry
     Harris-Foulkes estimate   =   -1843.83232068 Ry
     estimated scf accuracy    <       8.66533370 Ry

     iteration #  2     ecut=   100.00 Ry     beta=0.50
     Davidson diagonalization with overlap
     ethr =  2.58E-03,  avg # of iterations =  3.0

     total cpu time spent up to now is      225.8 secs

     total energy              =   -1840.57832747 Ry
     Harris-Foulkes estimate   =   -1841.86135973 Ry
     estimated scf accuracy    <       2.80084367 Ry

     iteration #  3     ecut=   100.00 Ry     beta=0.50
     Davidson diagonalization with overlap
     ethr =  8.34E-04,  avg # of iterations =  5.8

     total cpu time spent up to now is      310.2 secs

     total energy              =   -1841.13267876 Ry
     Harris-Foulkes estimate   =   -1841.35422477 Ry
     estimated scf accuracy    <       0.52658032 Ry

     iteration #  4     ecut=   100.00 Ry     beta=0.50
     Davidson diagonalization with overlap
     ethr =  1.57E-04,  avg # of iterations =  7.9

     total cpu time spent up to now is      400.6 secs

     total energy              =   -1841.21918919 Ry
     Harris-Foulkes estimate   =   -1841.29907453 Ry
     estimated scf accuracy    <       0.22110329 Ry

     iteration #  5     ecut=   100.00 Ry     beta=0.50
     Davidson diagonalization with overlap
     ethr =  6.58E-05,  avg # of iterations =  3.0

     total cpu time spent up to now is      464.9 secs

     total energy              =   -1841.25396390 Ry
     Harris-Foulkes estimate   =   -1841.25952884 Ry
     estimated scf accuracy    <       0.01610691 Ry

     iteration #  6     ecut=   100.00 Ry     beta=0.50
     Davidson diagonalization with overlap
     ethr =  4.79E-06,  avg # of iterations =  9.4

     total cpu time spent up to now is      606.8 secs

     total energy              =   -1841.25926561 Ry
     Harris-Foulkes estimate   =   -1841.26312675 Ry
     estimated scf accuracy    <       0.01088253 Ry

     iteration #  7     ecut=   100.00 Ry     beta=0.50
     Davidson diagonalization with overlap
     ethr =  3.24E-06,  avg # of iterations =  5.5

     total cpu time spent up to now is      674.1 secs

     total energy              =   -1841.26072104 Ry
     Harris-Foulkes estimate   =   -1841.26111585 Ry
     estimated scf accuracy    <       0.00101565 Ry

     iteration #  8     ecut=   100.00 Ry     beta=0.50
     Davidson diagonalization with overlap
     ethr =  3.02E-07,  avg # of iterations =  6.5

     total cpu time spent up to now is      778.4 secs

     total energy              =   -1841.26109178 Ry
     Harris-Foulkes estimate   =   -1841.26121298 Ry
     estimated scf accuracy    <       0.00039754 Ry

     iteration #  9     ecut=   100.00 Ry     beta=0.50
     Davidson diagonalization with overlap
     ethr =  1.18E-07,  avg # of iterations =  2.9

     total cpu time spent up to now is      841.2 secs

     total energy              =   -1841.26112871 Ry
     Harris-Foulkes estimate   =   -1841.26115421 Ry
     estimated scf accuracy    <       0.00006983 Ry

     iteration # 10     ecut=   100.00 Ry     beta=0.50
     Davidson diagonalization with overlap
     ethr =  2.08E-08,  avg # of iterations =  3.0

     total cpu time spent up to now is      930.7 secs

     total energy              =   -1841.26115057 Ry
     Harris-Foulkes estimate   =   -1841.26115367 Ry
     estimated scf accuracy    <       0.00001112 Ry

     iteration # 11     ecut=   100.00 Ry     beta=0.50
     Davidson diagonalization with overlap
     ethr =  3.31E-09,  avg # of iterations =  2.0

     total cpu time spent up to now is      994.1 secs

     total energy              =   -1841.26115139 Ry
     Harris-Foulkes estimate   =   -1841.26115241 Ry
     estimated scf accuracy    <       0.00000296 Ry

     iteration # 12     ecut=   100.00 Ry     beta=0.50
     Davidson diagonalization with overlap
     ethr =  8.82E-10,  avg # of iterations =  3.0

     total cpu time spent up to now is     1078.1 secs

     total energy              =   -1841.26115221 Ry
     Harris-Foulkes estimate   =   -1841.26115244 Ry
     estimated scf accuracy    <       0.00000072 Ry

     iteration # 13     ecut=   100.00 Ry     beta=0.50
     Davidson diagonalization with overlap
     ethr =  2.14E-10,  avg # of iterations =  2.1

     total cpu time spent up to now is     1142.5 secs

     total energy              =   -1841.26115232 Ry
     Harris-Foulkes estimate   =   -1841.26115235 Ry
     estimated scf accuracy    <       0.00000007 Ry

     iteration # 14     ecut=   100.00 Ry     beta=0.50
     Davidson diagonalization with overlap
     ethr =  2.19E-11,  avg # of iterations =  3.1

     total cpu time spent up to now is     1239.8 secs

     total energy              =   -1841.26115235 Ry
     Harris-Foulkes estimate   =   -1841.26115236 Ry
     estimated scf accuracy    <       0.00000003 Ry

     iteration # 15     ecut=   100.00 Ry     beta=0.50
     Davidson diagonalization with overlap
     ethr =  8.94E-12,  avg # of iterations =  2.0

     total cpu time spent up to now is     1302.6 secs

     End of self-consistent calculation

          k = 0.0000 0.0000 0.0000 ( 97489 PWs)   bands (ev):

   -24.0613 -24.0590 -24.0396 -24.0396 -24.0016 -23.9908 -23.9658 -23.9560
   -21.6619 -21.6601 -21.6040 -21.6012 -19.3822 -19.3818 -19.2915 -19.2910
   -19.2746 -19.2727 -19.2332 -19.2312 -18.2743 -18.2604 -18.2268 -18.1882
   -17.3343 -17.3319 -17.3075 -17.2846 -16.6713 -16.6588 -16.6357 -16.6308
   -12.6284 -12.6100 -12.5684 -12.5653 -12.1827 -12.1811 -12.1138 -12.0688
   -12.0346 -11.9780 -11.9521 -11.9200 -10.5267 -10.5215 -10.4431 -10.4122
    -9.0076  -8.9851  -8.9411  -8.9368  -7.7353  -7.7077  -7.6445  -7.6161
    -7.3892  -7.3853  -7.3353  -7.3044  -7.1737  -7.1425  -7.0012  -6.8884
    -6.8562  -6.8332  -6.8031  -6.7811  -6.5952  -6.5493  -6.5145  -6.5110
    -6.3797  -6.3344  -6.2565  -6.2372  -5.9822  -5.9469  -5.8290  -5.6788
    -5.6676  -5.5515  -5.5476  -5.5412  -5.4685  -5.4076  -5.3806  -5.3589
    -5.1804  -5.1417  -5.0963  -5.0481  -4.9083  -4.9063  -4.7862  -4.7841
    -4.4766  -4.3308  -4.3285  -4.2515  -4.2094  -4.0664  -4.0651  -3.9628
    -3.6627  -3.6605  -3.5925  -3.5811  -3.5382  -3.3683  -3.3478  -3.1646
    -3.1048  -3.0431  -2.9655  -2.9649  -2.6595  -2.6480  -2.5498  -2.5488
    -2.3681  -2.3457  -2.2853  -2.1989  -2.1347  -2.0770  -2.0092  -1.9884
    -0.7579  -0.7563  -0.7433  -0.6697  -0.6677  -0.6241  -0.6053  -0.5709
    -0.5687  -0.5411  -0.4347  -0.4298  -0.3028  -0.2991  -0.2559  -0.2073
    -0.0856   0.0244   0.1096   0.1113   0.2139   0.2918   0.3045   0.3292
     0.4130   0.4295   0.4446   0.4516   0.5038   0.5712   0.6038   0.6365
     0.6912   0.7907   0.8626   0.9039   1.8929   1.8973   1.9726   1.9783
     4.5939   4.6084   4.6657   4.6889   4.7246   4.7405   4.7472   4.8022
     4.8361   4.9062   4.9802   5.0352   7.4323   7.8111   7.9262   8.0076
     8.2035   8.2276   8.3761   8.6164   8.6876   8.7668   8.8471   8.8691
     9.0040   9.1193   9.2180   9.2476   9.3835   9.4226   9.4792   9.5305
     9.5475

          k = 0.0000 0.0000-0.4730 ( 97402 PWs)   bands (ev):

   -24.0602 -24.0602 -24.0396 -24.0396 -23.9969 -23.9969 -23.9602 -23.9602
   -21.6610 -21.6610 -21.6026 -21.6026 -19.3820 -19.3820 -19.2912 -19.2912
   -19.2737 -19.2737 -19.2322 -19.2322 -18.2678 -18.2678 -18.2074 -18.2074
   -17.3331 -17.3331 -17.2955 -17.2955 -16.6651 -16.6651 -16.6334 -16.6334
   -12.6197 -12.6197 -12.5667 -12.5667 -12.1820 -12.1820 -12.0912 -12.0912
   -11.9926 -11.9926 -11.9502 -11.9502 -10.5239 -10.5239 -10.4282 -10.4282
    -8.9966  -8.9966  -8.9386  -8.9386  -7.7229  -7.7229  -7.6330  -7.6330
    -7.3963  -7.3963  -7.3153  -7.3153  -7.1304  -7.1304  -6.9015  -6.9015
    -6.8764  -6.8764  -6.8212  -6.8212  -6.5832  -6.5832  -6.5051  -6.5051
    -6.3150  -6.3150  -6.2969  -6.2969  -5.9279  -5.9279  -5.7675  -5.7675
    -5.6008  -5.6008  -5.5322  -5.5322  -5.4846  -5.4846  -5.4104  -5.4104
    -5.1160  -5.1160  -5.0808  -5.0808  -4.9200  -4.9200  -4.7823  -4.7823
    -4.3874  -4.3874  -4.3019  -4.3019  -4.1158  -4.1158  -4.0246  -4.0246
    -3.6510  -3.6510  -3.5885  -3.5885  -3.4102  -3.4102  -3.2988  -3.2988
    -3.0660  -3.0660  -2.9644  -2.9644  -2.6601  -2.6601  -2.5490  -2.5490
    -2.3758  -2.3758  -2.2213  -2.2213  -2.1138  -2.1138  -1.9999  -1.9999
    -0.7584  -0.7584  -0.6919  -0.6919  -0.6429  -0.6429  -0.5751  -0.5751
    -0.5679  -0.5679  -0.4364  -0.4364  -0.3050  -0.3050  -0.2260  -0.2260
    -0.0421  -0.0421   0.1084   0.1084   0.2714   0.2714   0.3230   0.3230
     0.4212   0.4212   0.4541   0.4541   0.5320   0.5320   0.6180   0.6180
     0.7299   0.7299   0.8700   0.8700   1.8943   1.8943   1.9791   1.9791
     4.6093   4.6093   4.6727   4.6727   4.7237   4.7237   4.7840   4.7840
     4.9221   4.9221   4.9580   4.9580   7.5321   7.5321   8.0403   8.0403
     8.2091   8.2091   8.5783   8.5783   8.6876   8.6876   8.8786   8.8786
     9.0716   9.0716   9.2781   9.2781   9.3401   9.3402   9.4585   9.4585
     9.6467

          k = 0.0000 0.5941 0.0000 ( 97512 PWs)   bands (ev):

   -24.0569 -24.0559 -24.0392 -24.0390 -23.9992 -23.9880 -23.9725 -23.9623
   -21.6617 -21.6605 -21.6042 -21.6006 -19.3822 -19.3804 -19.2920 -19.2916
   -19.2766 -19.2743 -19.2328 -19.2300 -18.2663 -18.2529 -18.2157 -18.1938
   -17.3445 -17.3405 -17.3039 -17.2924 -16.6771 -16.6538 -16.6413 -16.6380
   -12.6226 -12.6053 -12.5790 -12.5556 -12.1896 -12.1851 -12.1154 -12.0815
   -12.0349 -12.0198 -11.9477 -11.9422 -10.4983 -10.4783 -10.4207 -10.4040
    -9.0107  -8.9982  -8.9551  -8.9197  -7.7407  -7.7046  -7.6456  -7.6416
    -7.3090  -7.2694  -7.2504  -7.2300  -7.1485  -7.0692  -6.9927  -6.9801
    -6.9165  -6.9033  -6.8250  -6.7918  -6.5890  -6.5558  -6.5000  -6.4504
    -6.3843  -6.3363  -6.3109  -6.2774  -5.9949  -5.8478  -5.7164  -5.6930
    -5.6476  -5.5978  -5.5146  -5.4948  -5.4896  -5.4526  -5.4119  -5.3242
    -5.1634  -5.1296  -5.0659  -5.0235  -4.9236  -4.8853  -4.8515  -4.8119
    -4.4626  -4.3714  -4.3487  -4.2326  -4.2131  -4.1263  -4.0488  -4.0253
    -3.8054  -3.7763  -3.6420  -3.6376  -3.4791  -3.3893  -3.3147  -3.1498
    -3.1270  -3.0905  -3.0273  -2.9538  -2.7231  -2.6302  -2.5403  -2.4975
    -2.4064  -2.3076  -2.2746  -2.1763  -2.1555  -2.1104  -2.0229  -1.9498
    -0.7636  -0.7423  -0.6833  -0.6736  -0.6207  -0.6067  -0.5839  -0.5582
    -0.5375  -0.4926  -0.4412  -0.4308  -0.3548  -0.3411  -0.3158  -0.2799
    -0.0161   0.0475   0.1108   0.1321   0.1727   0.2361   0.3144   0.3870
     0.3940   0.4089   0.4617   0.4728   0.4933   0.5486   0.5776   0.6363
     0.6770   0.8051   0.8590   0.8884   1.8850   1.8912   1.9266   2.0277
     4.5976   4.6222   4.6351   4.6673   4.6921   4.7487   4.7709   4.7930
     4.8616   4.8949   4.9460   5.0395   7.7272   7.9859   8.0950   8.1751
     8.3045   8.3867   8.4410   8.4958   8.7278   8.7987   8.8576   8.9359
     9.0056   9.0526   9.1391   9.1784   9.2502   9.3090   9.3676   9.4921
     9.5230

          k = 0.0000 0.5941-0.4730 ( 97546 PWs)   bands (ev):

   -24.0564 -24.0564 -24.0391 -24.0391 -23.9947 -23.9947 -23.9664 -23.9664
   -21.6611 -21.6611 -21.6024 -21.6024 -19.3813 -19.3813 -19.2918 -19.2918
   -19.2755 -19.2755 -19.2314 -19.2314 -18.2593 -18.2593 -18.2052 -18.2052
   -17.3426 -17.3426 -17.2982 -17.2982 -16.6652 -16.6652 -16.6397 -16.6397
   -12.6136 -12.6136 -12.5677 -12.5677 -12.1869 -12.1869 -12.0927 -12.0927
   -12.0170 -12.0170 -11.9627 -11.9627 -10.4883 -10.4883 -10.4125 -10.4125
    -9.0026  -9.0026  -8.9369  -8.9369  -7.7141  -7.7141  -7.6577  -7.6577
    -7.2993  -7.2993  -7.2207  -7.2207  -7.1101  -7.1101  -6.9627  -6.9627
    -6.9259  -6.9259  -6.8222  -6.8222  -6.5727  -6.5727  -6.4586  -6.4586
    -6.3640  -6.3640  -6.3120  -6.3120  -5.8924  -5.8924  -5.7209  -5.7209
    -5.5973  -5.5973  -5.5370  -5.5370  -5.4722  -5.4722  -5.3687  -5.3687
    -5.1777  -5.1777  -5.0262  -5.0262  -4.9105  -4.9105  -4.8415  -4.8415
    -4.4116  -4.4116  -4.2775  -4.2775  -4.1393  -4.1393  -4.0675  -4.0675
    -3.7783  -3.7783  -3.6305  -3.6305  -3.3792  -3.3792  -3.3109  -3.3109
    -3.1020  -3.1020  -2.9798  -2.9798  -2.6780  -2.6780  -2.5080  -2.5080
    -2.3450  -2.3450  -2.2709  -2.2709  -2.1366  -2.1366  -1.9669  -1.9669
    -0.7492  -0.7492  -0.6742  -0.6742  -0.6018  -0.6018  -0.5698  -0.5698
    -0.5306  -0.5306  -0.4381  -0.4381  -0.3476  -0.3476  -0.2969  -0.2969
     0.0244   0.0244   0.1218   0.1218   0.2445   0.2445   0.3241   0.3241
     0.4102   0.4102   0.4604   0.4604   0.5085   0.5085   0.6020   0.6020
     0.7272   0.7272   0.8741   0.8741   1.8898   1.8898   1.9783   1.9783
     4.6110   4.6110   4.6582   4.6582   4.7029   4.7029   4.8069   4.8069
     4.9047   4.9047   4.9541   4.9541   7.8453   7.8453   8.1435   8.1435
     8.3560   8.3560   8.5209   8.5209   8.6954   8.6954   8.8863   8.8863
     9.0375   9.0375   9.2105   9.2106   9.2451   9.2452   9.4128   9.4128
     9.6097

          k =-0.5000 0.0000-0.1099 ( 97428 PWs)   bands (ev):

   -24.0588 -24.0581 -24.0434 -24.0410 -24.0000 -23.9900 -23.9661 -23.9563
   -21.6618 -21.6602 -21.6039 -21.6013 -19.3822 -19.3817 -19.2911 -19.2907
   -19.2750 -19.2730 -19.2332 -19.2313 -18.2762 -18.2564 -18.2248 -18.1927
   -17.3343 -17.3319 -17.3073 -17.2848 -16.6696 -16.6581 -16.6365 -16.6322
   -12.6307 -12.6180 -12.5758 -12.5470 -12.1832 -12.1822 -12.1102 -12.0748
   -12.0195 -11.9953 -11.9459 -11.9197 -10.5274 -10.5221 -10.4431 -10.4110
    -9.0194  -8.9935  -8.9321  -8.9295  -7.7511  -7.6941  -7.6423  -7.6141
    -7.4578  -7.3960  -7.3068  -7.2666  -7.1612  -7.1410  -6.9405  -6.9102
    -6.8992  -6.8287  -6.7979  -6.7814  -6.5764  -6.5337  -6.5169  -6.5086
    -6.4894  -6.3963  -6.1862  -6.1578  -5.9230  -5.8510  -5.7772  -5.7532
    -5.6589  -5.6311  -5.6080  -5.4864  -5.4746  -5.4426  -5.4153  -5.4080
    -5.1822  -5.1153  -5.1028  -5.0572  -4.9628  -4.8418  -4.8149  -4.7640
    -4.4292  -4.3804  -4.3228  -4.2268  -4.2050  -4.0759  -4.0737  -3.9787
    -3.6345  -3.6301  -3.5934  -3.5611  -3.5411  -3.3667  -3.3340  -3.2055
    -3.0995  -3.0537  -2.9558  -2.9488  -2.7100  -2.6381  -2.6151  -2.5344
    -2.3389  -2.2989  -2.2231  -2.2175  -2.1321  -2.1023  -2.0498  -1.9747
    -0.7844  -0.7781  -0.7190  -0.7088  -0.6621  -0.6137  -0.6103  -0.5858
    -0.5800  -0.5260  -0.4397  -0.4184  -0.3056  -0.2744  -0.2301  -0.2077
    -0.1060   0.0119   0.1131   0.1245   0.2500   0.2838   0.3078   0.3594
     0.4106   0.4366   0.4462   0.4824   0.5151   0.5215   0.5953   0.6362
     0.6899   0.7580   0.8771   0.8919   1.8859   1.8960   1.9778   1.9857
     4.5926   4.6455   4.6624   4.6923   4.7121   4.7173   4.7475   4.8018
     4.8456   4.8715   4.9888   5.0524   7.5003   7.7029   7.7263   8.0051
     8.2098   8.2667   8.4923   8.5919   8.7041   8.8320   8.9136   8.9551
     9.0771   9.1337   9.1378   9.2054   9.3627   9.3723   9.3774   9.4153
     9.5607

          k =-0.5000 0.0000-0.5829 ( 97502 PWs)   bands (ev):

   -24.0585 -24.0585 -24.0422 -24.0422 -23.9958 -23.9958 -23.9604 -23.9604
   -21.6610 -21.6610 -21.6026 -21.6026 -19.3820 -19.3820 -19.2909 -19.2909
   -19.2740 -19.2740 -19.2322 -19.2322 -18.2662 -18.2662 -18.2092 -18.2092
   -17.3330 -17.3330 -17.2956 -17.2956 -16.6637 -16.6637 -16.6346 -16.6346
   -12.6268 -12.6268 -12.5591 -12.5591 -12.1818 -12.1818 -12.0940 -12.0940
   -11.9805 -11.9805 -11.9596 -11.9596 -10.5243 -10.5243 -10.4279 -10.4279
    -9.0061  -9.0061  -8.9308  -8.9308  -7.7320  -7.7320  -7.6278  -7.6278
    -7.4289  -7.4289  -7.2728  -7.2728  -7.1098  -7.1098  -6.9506  -6.9506
    -6.8650  -6.8650  -6.8159  -6.8159  -6.5569  -6.5569  -6.5084  -6.5084
    -6.4288  -6.4288  -6.1883  -6.1883  -5.8262  -5.8262  -5.7469  -5.7469
    -5.6616  -5.6616  -5.6170  -5.6170  -5.4924  -5.4924  -5.3940  -5.3940
    -5.1545  -5.1545  -5.0797  -5.0797  -4.8796  -4.8796  -4.8092  -4.8092
    -4.3606  -4.3606  -4.2966  -4.2966  -4.1337  -4.1337  -4.0259  -4.0259
    -3.6402  -3.6402  -3.5674  -3.5674  -3.3802  -3.3802  -3.3281  -3.3281
    -3.0888  -3.0888  -2.9470  -2.9470  -2.6985  -2.6985  -2.5570  -2.5570
    -2.3279  -2.3279  -2.2053  -2.2053  -2.1272  -2.1272  -2.0120  -2.0120
    -0.7817  -0.7817  -0.6904  -0.6904  -0.6421  -0.6421  -0.5870  -0.5870
    -0.5706  -0.5706  -0.4330  -0.4330  -0.2891  -0.2891  -0.2176  -0.2176
    -0.0556  -0.0556   0.1113   0.1113   0.2843   0.2843   0.3444   0.3444
     0.4172   0.4172   0.4721   0.4721   0.5399   0.5399   0.5895   0.5895
     0.7416   0.7416   0.8445   0.8445   1.8910   1.8910   1.9850   1.9850
     4.6181   4.6181   4.6890   4.6890   4.7124   4.7124   4.7668   4.7668
     4.9021   4.9021   4.9823   4.9823   7.5697   7.5697   7.7931   7.7931
     8.4052   8.4052   8.5606   8.5606   8.7722   8.7722   8.9016   8.9016
     9.0415   9.0415   9.2082   9.2082   9.3523   9.3523   9.4457   9.4458
     9.6531

          k =-0.5000 0.5941-0.1099 ( 97530 PWs)   bands (ev):

   -24.0560 -24.0555 -24.0408 -24.0394 -23.9985 -23.9877 -23.9728 -23.9625
   -21.6617 -21.6604 -21.6041 -21.6007 -19.3822 -19.3804 -19.2914 -19.2911
   -19.2771 -19.2747 -19.2329 -19.2301 -18.2673 -18.2493 -18.2167 -18.1957
   -17.3447 -17.3405 -17.3039 -17.2924 -16.6753 -16.6567 -16.6427 -16.6352
   -12.6282 -12.6116 -12.5739 -12.5482 -12.1875 -12.1856 -12.1179 -12.0799
   -12.0323 -12.0225 -11.9476 -11.9429 -10.4963 -10.4766 -10.4209 -10.4074
    -9.0268  -9.0178  -8.9321  -8.9105  -7.7384  -7.7238  -7.6736  -7.5984
    -7.3437  -7.2763  -7.2610  -7.2135  -7.1494  -7.0605  -7.0043  -6.9476
    -6.8742  -6.8481  -6.8060  -6.7809  -6.6457  -6.6091  -6.5351  -6.4561
    -6.4443  -6.3624  -6.2459  -6.1983  -5.9229  -5.8437  -5.8172  -5.6597
    -5.6182  -5.5887  -5.5616  -5.5315  -5.4878  -5.4452  -5.3916  -5.3264
    -5.1791  -5.1063  -5.0971  -5.0377  -4.9539  -4.9118  -4.8426  -4.7787
    -4.4570  -4.3749  -4.3020  -4.2491  -4.2110  -4.1099  -4.0694  -4.0281
    -3.8097  -3.8005  -3.5986  -3.5813  -3.5034  -3.3802  -3.3165  -3.1828
    -3.1318  -3.0844  -3.0269  -2.9677  -2.7147  -2.6197  -2.5822  -2.5620
    -2.3535  -2.2736  -2.2115  -2.1793  -2.1717  -2.1436  -2.0177  -1.9581
    -0.7796  -0.7492  -0.7060  -0.6633  -0.6287  -0.6027  -0.5850  -0.5577
    -0.5400  -0.4879  -0.4394  -0.4348  -0.3475  -0.3305  -0.3037  -0.2860
    -0.0166   0.0577   0.1017   0.1342   0.1671   0.2565   0.2982   0.3741
     0.4018   0.4201   0.4685   0.4945   0.5181   0.5290   0.5860   0.6430
     0.6972   0.7803   0.8478   0.8597   1.8808   1.8871   1.9329   2.0328
     4.6100   4.6134   4.6473   4.6714   4.6882   4.7352   4.7707   4.7981
     4.8507   4.8865   4.9500   5.0480   7.7048   7.9446   8.0292   8.1506
     8.3168   8.3939   8.5407   8.6086   8.6669   8.7679   8.8100   8.8829
     8.9841   9.0573   9.1196   9.2148   9.2573   9.3549   9.4314   9.4559
     9.5814

          k =-0.5000 0.5941-0.5829 ( 97566 PWs)   bands (ev):

   -24.0557 -24.0557 -24.0401 -24.0401 -23.9942 -23.9942 -23.9666 -23.9666
   -21.6611 -21.6611 -21.6024 -21.6024 -19.3813 -19.3813 -19.2913 -19.2913
   -19.2759 -19.2759 -19.2315 -19.2315 -18.2581 -18.2581 -18.2065 -18.2065
   -17.3426 -17.3426 -17.2982 -17.2982 -16.6651 -16.6651 -16.6398 -16.6398
   -12.6210 -12.6210 -12.5600 -12.5600 -12.1863 -12.1863 -12.0960 -12.0960
   -12.0069 -12.0069 -11.9701 -11.9701 -10.4865 -10.4865 -10.4145 -10.4145
    -9.0186  -9.0186  -8.9223  -8.9223  -7.7345  -7.7345  -7.6372  -7.6372
    -7.3221  -7.3221  -7.2058  -7.2058  -7.1217  -7.1217  -6.9685  -6.9685
    -6.8602  -6.8602  -6.8032  -6.8032  -6.6338  -6.6338  -6.4819  -6.4819
    -6.4008  -6.4008  -6.2375  -6.2375  -5.8503  -5.8503  -5.7175  -5.7175
    -5.6635  -5.6635  -5.5519  -5.5519  -5.4399  -5.4399  -5.3761  -5.3761
    -5.1543  -5.1543  -5.0785  -5.0785  -4.9153  -4.9153  -4.8282  -4.8282
    -4.4008  -4.4008  -4.2606  -4.2606  -4.1545  -4.1545  -4.0677  -4.0677
    -3.7864  -3.7864  -3.5913  -3.5913  -3.3605  -3.3605  -3.3387  -3.3387
    -3.1076  -3.1076  -2.9900  -2.9900  -2.6744  -2.6744  -2.5561  -2.5561
    -2.3174  -2.3174  -2.2284  -2.2284  -2.1422  -2.1422  -1.9839  -1.9839
    -0.7623  -0.7623  -0.6701  -0.6701  -0.6217  -0.6217  -0.5633  -0.5633
    -0.5254  -0.5254  -0.4385  -0.4385  -0.3404  -0.3404  -0.2939  -0.2939
     0.0161   0.0161   0.1267   0.1267   0.2638   0.2638   0.3044   0.3044
     0.4139   0.4139   0.4691   0.4691   0.5311   0.5311   0.5983   0.5983
     0.7432   0.7432   0.8361   0.8361   1.8861   1.8861   1.9833   1.9833
     4.6106   4.6106   4.6688   4.6688   4.7040   4.7040   4.7914   4.7914
     4.9029   4.9029   4.9607   4.9607   7.8190   7.8190   8.1020   8.1020
     8.3747   8.3747   8.5103   8.5103   8.7194   8.7194   8.8952   8.8952
     9.0578   9.0578   9.1690   9.1690   9.2681   9.2682   9.4592   9.4592
     9.6193

     highest occupied, lowest unoccupied level (ev):     2.0328    4.5926

!    total energy              =   -1841.26115235 Ry
     Harris-Foulkes estimate   =   -1841.26115235 Ry
     estimated scf accuracy    <          4.8E-09 Ry

     total all-electron energy =     -6893.595712 Ry

     The total energy is the sum of the following terms:

     one-electron contribution =    -993.35096056 Ry
     hartree contribution      =     635.15278682 Ry
     xc contribution           =    -366.61704894 Ry
     ewald contribution        =    -620.48689144 Ry
     Dispersion Correction     =      -0.45372528 Ry
     one-center paw contrib.   =    -495.50531294 Ry

     convergence has been achieved in  15 iterations

     Forces acting on atoms (cartesian axes, Ry/au):

     atom    1 type  1   force =    -0.00266290   -0.00284708    0.00546296
     atom    2 type  1   force =    -0.00266290    0.00284708    0.00546296
     atom    3 type  1   force =    -0.00252568   -0.00353843   -0.00423537
     atom    4 type  1   force =    -0.00252568    0.00353843   -0.00423537
     atom    5 type  1   force =    -0.00080122   -0.00082901   -0.00317022
     atom    6 type  1   force =    -0.00080122    0.00082901   -0.00317022
     atom    7 type  1   force =     0.00128863    0.00421314   -0.00015632
     atom    8 type  1   force =     0.00128863   -0.00421314   -0.00015632
     atom    9 type  2   force =     0.00221430    0.00316079   -0.00638019
     atom   10 type  2   force =     0.00221430   -0.00316079   -0.00638019
     atom   11 type  2   force =    -0.00323769    0.00111569    0.00741131
     atom   12 type  2   force =    -0.00323769   -0.00111569    0.00741131
     atom   13 type  2   force =     0.00349423    0.00169374   -0.00252971
     atom   14 type  2   force =     0.00349423   -0.00169374   -0.00252971
     atom   15 type  2   force =     0.00204221    0.00092432   -0.00029920
     atom   16 type  2   force =     0.00204221   -0.00092432   -0.00029920
     atom   17 type  4   force =     0.00001272   -0.00101696   -0.00114748
     atom   18 type  4   force =     0.00001272    0.00101696   -0.00114748
     atom   19 type  4   force =    -0.00313864   -0.00007100    0.00135596
     atom   20 type  4   force =    -0.00313864    0.00007100    0.00135596
     atom   21 type  2   force =    -0.00053111   -0.00119062   -0.00252688
     atom   22 type  2   force =    -0.00053111    0.00119062   -0.00252688
     atom   23 type  4   force =     0.00232807    0.00166705    0.00002379
     atom   24 type  4   force =     0.00232807   -0.00166705    0.00002379
     atom   25 type  2   force =     0.00231678    0.00551011    0.00260523
     atom   26 type  2   force =     0.00231678   -0.00551011    0.00260523
     atom   27 type  4   force =    -0.00168945   -0.00087410   -0.00014322
     atom   28 type  4   force =    -0.00168945    0.00087410   -0.00014322
     atom   29 type  4   force =     0.00265524   -0.00452002    0.00127573
     atom   30 type  4   force =     0.00265524    0.00452002    0.00127573
     atom   31 type  1   force =     0.00058565    0.00103752    0.00169955
     atom   32 type  1   force =     0.00058565   -0.00103752    0.00169955
     atom   33 type  1   force =     0.00085017    0.00158199    0.00081248
     atom   34 type  1   force =     0.00085017   -0.00158199    0.00081248
     atom   35 type  1   force =    -0.00200018    0.00013565    0.00020751
     atom   36 type  1   force =    -0.00200018   -0.00013565    0.00020751
     atom   37 type  1   force =    -0.00000039    0.00080528    0.00040530
     atom   38 type  1   force =    -0.00000039   -0.00080528    0.00040530
     atom   39 type  2   force =     0.00102551   -0.00211735    0.00113538
     atom   40 type  2   force =     0.00102551    0.00211735    0.00113538
     atom   41 type  2   force =     0.00020853    0.00049044   -0.00263205
     atom   42 type  2   force =     0.00020853   -0.00049044   -0.00263205
     atom   43 type  2   force =     0.00104048   -0.00065676    0.00033434
     atom   44 type  2   force =     0.00104048    0.00065676    0.00033434
     atom   45 type  2   force =    -0.00048392    0.00141620   -0.00147263
     atom   46 type  2   force =    -0.00048392   -0.00141620   -0.00147263
     atom   47 type  4   force =     0.00041791   -0.00043100    0.00031393
     atom   48 type  4   force =     0.00041791    0.00043100    0.00031393
     atom   49 type  4   force =     0.00001375   -0.00078681   -0.00031741
     atom   50 type  4   force =     0.00001375    0.00078681   -0.00031741
     atom   51 type  2   force =     0.00010087    0.00120324    0.00085398
     atom   52 type  2   force =     0.00010087   -0.00120324    0.00085398
     atom   53 type  4   force =     0.00115196   -0.00037283   -0.00111553
     atom   54 type  4   force =     0.00115196    0.00037283   -0.00111553
     atom   55 type  2   force =    -0.00028655   -0.00036579    0.00008718
     atom   56 type  2   force =    -0.00028655    0.00036579    0.00008718
     atom   57 type  4   force =     0.00136652   -0.00004714   -0.00053738
     atom   58 type  4   force =     0.00136652    0.00004714   -0.00053738
     atom   59 type  4   force =    -0.00073243    0.00035561   -0.00094301
     atom   60 type  4   force =    -0.00073243   -0.00035561   -0.00094301
     atom   61 type  3   force =    -0.00119970   -0.00042772    0.00031837
     atom   62 type  3   force =    -0.00119970    0.00042772    0.00031837
     atom   63 type  3   force =    -0.00004469    0.00002639    0.00074356
     atom   64 type  3   force =    -0.00004469   -0.00002639    0.00074356
     atom   65 type  3   force =    -0.00297936    0.00093670    0.00079249
     atom   66 type  3   force =    -0.00297936   -0.00093670    0.00079249
     atom   67 type  3   force =    -0.00044154    0.00037243    0.00073691
     atom   68 type  3   force =    -0.00044154   -0.00037243    0.00073691
     atom   69 type  3   force =     0.00022761    0.00017966    0.00023568
     atom   70 type  3   force =     0.00022761   -0.00017966    0.00023568
     atom   71 type  3   force =     0.00021767    0.00004176   -0.00062453
     atom   72 type  3   force =     0.00021767   -0.00004176   -0.00062453
     atom   73 type  3   force =    -0.00071578   -0.00004738    0.00031750
     atom   74 type  3   force =    -0.00071578    0.00004738    0.00031750
     atom   75 type  3   force =     0.00161678   -0.00177180    0.00031982
     atom   76 type  3   force =     0.00161678    0.00177180    0.00031982
     atom   77 type  3   force =    -0.00146187   -0.00253008    0.00104295
     atom   78 type  3   force =    -0.00146187    0.00253008    0.00104295
     atom   79 type  3   force =    -0.00054639    0.00064194   -0.00011645
     atom   80 type  3   force =    -0.00054639   -0.00064194   -0.00011645
     atom   81 type  3   force =     0.00018947   -0.00061434    0.00180611
     atom   82 type  3   force =     0.00018947    0.00061434    0.00180611
     atom   83 type  3   force =     0.00049126   -0.00056768   -0.00149706
     atom   84 type  3   force =     0.00049126    0.00056768   -0.00149706
     atom   85 type  3   force =    -0.00021170    0.00054531    0.00046070
     atom   86 type  3   force =    -0.00021170   -0.00054531    0.00046070
     atom   87 type  3   force =     0.00004114   -0.00013697   -0.00064297
     atom   88 type  3   force =     0.00004114    0.00013697   -0.00064297
     atom   89 type  3   force =    -0.00048349    0.00001240    0.00014784
     atom   90 type  3   force =    -0.00048349   -0.00001240    0.00014784
     atom   91 type  3   force =     0.00027725    0.00005929   -0.00041894
     atom   92 type  3   force =     0.00027725   -0.00005929   -0.00041894

     Total force =     0.029973     Total SCF correction =     0.000154


     Computing stress (Cartesian axis) and pressure

          total   stress  (Ry/bohr**3)                   (kbar)     P=   -2.24
  -0.00001379   0.00000000  -0.00000495         -2.03      0.00     -0.73
   0.00000000  -0.00001456   0.00000000          0.00     -2.14      0.00
  -0.00000495   0.00000000  -0.00001733         -0.73      0.00     -2.55


     Writing output data file scf.save
 
     init_run     :     39.30s CPU     40.86s WALL (       1 calls)
     electrons    :   1206.84s CPU   1261.25s WALL (       1 calls)
     forces       :     20.78s CPU     20.93s WALL (       1 calls)
     stress       :    140.88s CPU    141.08s WALL (       1 calls)

     Called by init_run:
     wfcinit      :     28.20s CPU     29.63s WALL (       1 calls)
     potinit      :      3.90s CPU      3.93s WALL (       1 calls)

     Called by electrons:
     c_bands      :   1078.42s CPU   1124.46s WALL (      15 calls)
     sum_band     :    114.91s CPU    122.18s WALL (      15 calls)
     v_of_rho     :      1.82s CPU      2.01s WALL (      16 calls)
     newd         :      4.45s CPU      5.37s WALL (      16 calls)
     PAW_pot      :      6.58s CPU      6.58s WALL (      16 calls)
     mix_rho      :      0.50s CPU      0.52s WALL (      15 calls)

     Called by c_bands:
     init_us_2    :      8.68s CPU      8.70s WALL (     264 calls)
     cegterg      :   1045.46s CPU   1091.45s WALL (     120 calls)

     Called by sum_band:
     sum_band:bec :      0.09s CPU      0.09s WALL (     120 calls)
     addusdens    :      4.76s CPU      5.65s WALL (      15 calls)

     Called by *egterg:
     h_psi        :    578.92s CPU    613.45s WALL (     625 calls)
     s_psi        :    108.95s CPU    108.95s WALL (     625 calls)
     g_psi        :      4.24s CPU      4.24s WALL (     497 calls)
     cdiaghg      :     84.50s CPU     84.50s WALL (     617 calls)

     Called by h_psi:
     h_psi:pot    :    573.72s CPU    608.15s WALL (     625 calls)
     h_psi:calbec :    103.87s CPU    104.15s WALL (     625 calls)
     vloc_psi     :    361.02s CPU    395.15s WALL (     625 calls)
     add_vuspsi   :    108.83s CPU    108.85s WALL (     625 calls)

     General routines
     calbec       :    160.82s CPU    161.24s WALL (     785 calls)
     fft          :      1.39s CPU      1.72s WALL (     232 calls)
     fftw         :    388.37s CPU    425.76s WALL (  158524 calls)
 
     Parallel routines
     fft_scatter  :     88.45s CPU    118.25s WALL (  158756 calls)
 
     PWSCF        : 23m38.83s CPU    25m25.86s WALL

 
   This run was terminated on:  12:15:40   7Dec2017            

=------------------------------------------------------------------------------=
   JOB DONE.
=------------------------------------------------------------------------------=
