
     Program PWSCF v.6.1 (svn rev. 13369) starts on  4Nov2017 at  5: 9:38 

     This program is part of the open-source Quantum ESPRESSO suite
     for quantum simulation of materials; please cite
         "P. Giannozzi et al., J. Phys.:Condens. Matter 21 395502 (2009);
          URL http://www.quantum-espresso.org", 
     in publications or presentations arising from this work. More details at
     http://www.quantum-espresso.org/quote

     Parallel version (MPI), running on     8 processors
     R & G space division:  proc/nbgrp/npool/nimage =       8
     Waiting for input...
     Reading input from standard input

     Current dimensions of program PWSCF are:
     Max number of different atomic species (ntypx) = 10
     Max number of k-points (npk) =  40000
     Max angular momentum in pseudopotentials (lmaxx) =  3
               file C.pbe-n-kjpaw_psl.0.1.UPF: wavefunction(s)  2P renormalized
               file N.pbe-n-kjpaw_psl.0.1.UPF: wavefunction(s)  2P renormalized
               file H.pbe-kjpaw_psl.0.1.UPF: wavefunction(s)  1S renormalized
               file O.pbe-n-kjpaw_psl.0.1.UPF: wavefunction(s)  2P renormalized

     -------------------------------------
     Parameters for Dispersion Correction:
     -------------------------------------
       atom      VdW radius       C_6     

        C          2.744         60.710
        N          2.640         42.670
        H          1.892          4.857
        O          2.536         24.284

     Subspace diagonalization in iterative solution of the eigenvalue problem:
     a serial algorithm will be used

 
     Parallelization info
     --------------------
     sticks:   dense  smooth     PW     G-vecs:    dense   smooth      PW
     Min        1216    1216    322               151583   151583   20631
     Max        1218    1218    323               151584   151584   20633
     Sum        9735    9735   2577              1212669  1212669  165051
 


     bravais-lattice index     =            0
     lattice parameter (alat)  =      16.9898  a.u.
     unit-cell volume          =    8976.5843 (a.u.)^3
     number of atoms/cell      =          132
     number of atomic types    =            4
     number of electrons       =       464.00
     number of Kohn-Sham states=          278
     kinetic-energy cutoff     =     100.0000  Ry
     charge density cutoff     =     400.0000  Ry
     convergence threshold     =      1.0E-08
     mixing beta               =       0.5000
     number of iterations used =            8  plain     mixing
     Exchange-correlation      =  SLA  PW   PBX  PBC ( 1  4  3  4 0 0)

     celldm(1)=  16.989772  celldm(2)=   0.000000  celldm(3)=   0.000000
     celldm(4)=   0.000000  celldm(5)=   0.000000  celldm(6)=   0.000000

     crystal axes: (cart. coord. in units of alat)
               a(1) = (   1.000000   0.000000   0.000000 )  
               a(2) = (   0.000000   1.058583   0.000000 )  
               a(3) = (  -0.276804   0.000000   1.729113 )  

     reciprocal axes: (cart. coord. in units 2 pi/alat)
               b(1) = (  1.000000  0.000000  0.160085 )  
               b(2) = (  0.000000  0.944659  0.000000 )  
               b(3) = (  0.000000  0.000000  0.578331 )  


     PseudoPot. # 1 for  C read from file:
     /scratch/ahofstet/pseudo/C.pbe-n-kjpaw_psl.0.1.UPF
     MD5 check sum: 430fe95172b1e11ef3f8ed03bac87931
     Pseudo is Projector augmented-wave + core cor, Zval =  4.0
     Generated using "atomic" code by A. Dal Corso  v.5.0.99 svn rev. 10869
     Shape of augmentation charge: BESSEL
     Using radial grid of 1073 points,  4 beta functions with: 
                l(1) =   0
                l(2) =   0
                l(3) =   1
                l(4) =   1
     Q(r) pseudized with 0 coefficients 


     PseudoPot. # 2 for  N read from file:
     /scratch/ahofstet/pseudo/N.pbe-n-kjpaw_psl.0.1.UPF
     MD5 check sum: f73187c8b701007e77325f868c9291d7
     Pseudo is Projector augmented-wave + core cor, Zval =  5.0
     Generated using "atomic" code by A. Dal Corso  v.5.0.99 svn rev. 10869
     Shape of augmentation charge: PSQ
     Using radial grid of 1085 points,  4 beta functions with: 
                l(1) =   0
                l(2) =   0
                l(3) =   1
                l(4) =   1
     Q(r) pseudized with 0 coefficients 


     PseudoPot. # 3 for  H read from file:
     /scratch/ahofstet/pseudo/H.pbe-kjpaw_psl.0.1.UPF
     MD5 check sum: 94e484f906d9e9773b2f6e52662335b2
     Pseudo is Projector augmented-wave, Zval =  1.0
     Generated using "atomic" code by A. Dal Corso  v.5.0.99 svn rev. 10869
     Shape of augmentation charge: PSQ
     Using radial grid of  929 points,  2 beta functions with: 
                l(1) =   0
                l(2) =   0
     Q(r) pseudized with 0 coefficients 


     PseudoPot. # 4 for  O read from file:
     /scratch/ahofstet/pseudo/O.pbe-n-kjpaw_psl.0.1.UPF
     MD5 check sum: 3f94a2996a3169367d6eb21d9b593f20
     Pseudo is Projector augmented-wave + core cor, Zval =  6.0
     Generated using "atomic" code by A. Dal Corso  v.5.0.99 svn rev. 10869
     Shape of augmentation charge: BESSEL
     Using radial grid of 1095 points,  4 beta functions with: 
                l(1) =   0
                l(2) =   0
                l(3) =   1
                l(4) =   1
     Q(r) pseudized with 0 coefficients 


     atomic species   valence    mass     pseudopotential
        C              4.00    12.01070      C( 1.00)
        N              5.00    14.00670      N( 1.00)
        H              1.00     1.00794      H( 1.00)
        O              6.00    15.99940      O( 1.00)

      4 Sym. Ops., with inversion, found ( 2 have fractional translation)



   Cartesian axes

     site n.     atom                  positions (alat units)
         1           N   tau(   1) = (   0.2564979   0.3805845   0.1131781  )
         2           N   tau(   2) = (   0.6050999   0.9098762   0.7513784  )
         3           N   tau(   3) = (   0.4666978   0.6779989   1.6159350  )
         4           N   tau(   4) = (   0.1180958   0.1487072   0.9777346  )
         5           N   tau(   5) = (   0.3127903   0.5795974   0.2671893  )
         6           N   tau(   6) = (   0.5488075   0.0503057   0.5973673  )
         7           N   tau(   7) = (   0.4104054   0.4789860   1.4619238  )
         8           N   tau(   8) = (   0.1743882   1.0082777   1.1317458  )
         9           N   tau(   9) = (   0.2717615   0.5725901   0.5284217  )
        10           N   tau(  10) = (   0.5898364   0.0432984   0.3361348  )
        11           N   tau(  11) = (   0.4514343   0.4859934   1.2006914  )
        12           N   tau(  12) = (   0.1333593   1.0152851   1.3929783  )
        13           N   tau(  13) = (   0.0726401   0.0206812   0.1753149  )
        14           N   tau(  14) = (   0.7889578   0.5499729   0.6892417  )
        15           N   tau(  15) = (   0.6505556   1.0379022   1.5537982  )
        16           N   tau(  16) = (  -0.0657621   0.5086105   1.0398714  )
        17           N   tau(  17) = (   0.0987372   0.9757440   0.6399996  )
        18           N   tau(  18) = (   0.7628607   0.4464523   0.2245569  )
        19           N   tau(  19) = (   0.6244586   0.0828394   1.0891135  )
        20           N   tau(  20) = (  -0.0396650   0.6121312   1.5045561  )
        21           N   tau(  21) = (  -0.1024599   0.0884555   0.6714685  )
        22           N   tau(  22) = (   0.9640578   0.6177472   0.1930880  )
        23           N   tau(  23) = (   0.8256556   0.9701280   1.0576446  )
        24           N   tau(  24) = (  -0.2408620   0.4408363   1.5360250  )
        25           O   tau(  25) = (   0.3497904   0.7858119   0.4110609  )
        26           O   tau(  26) = (   0.5118075   0.2565202   0.4534956  )
        27           O   tau(  27) = (   0.3734054   0.2727715   1.3180521  )
        28           O   tau(  28) = (   0.2113882   0.8020633   1.2756175  )
        29           O   tau(  29) = (   0.2106237   0.3553898   0.6436048  )
        30           O   tau(  30) = (   0.6509742   0.8846815   0.2209517  )
        31           O   tau(  31) = (   0.5125721   0.7031936   1.0855082  )
        32           O   tau(  32) = (   0.0722215   0.1739019   1.5081614  )
        33           O   tau(  33) = (   0.1373445   1.0017860   0.0814903  )
        34           O   tau(  34) = (   0.7242534   0.4724943   0.7830662  )
        35           O   tau(  35) = (   0.5858512   0.0567974   1.6476227  )
        36           O   tau(  36) = (  -0.0010576   0.5860891   0.9460469  )
        37           O   tau(  37) = (   0.9551367   1.0444804   0.2378483  )
        38           O   tau(  38) = (  -0.0935388   0.5151887   0.6267082  )
        39           O   tau(  39) = (  -0.2319409   0.0141030   1.4912648  )
        40           O   tau(  40) = (   0.8167345   0.5433947   1.1024048  )
        41           C   tau(  41) = (   0.2564075   0.4382718   0.2511633  )
        42           C   tau(  42) = (   0.6051904   0.9675635   0.6133932  )
        43           C   tau(  43) = (   0.4667882   0.6203116   1.4779498  )
        44           C   tau(  44) = (   0.1180053   0.0910199   1.1157198  )
        45           C   tau(  45) = (   0.2036413   0.3602617   0.3777070  )
        46           C   tau(  46) = (   0.6579565   0.8895534   0.4868495  )
        47           C   tau(  47) = (   0.5195544   0.6983217   1.3514060  )
        48           C   tau(  48) = (   0.0652392   0.1690300   1.2422636  )
        49           C   tau(  49) = (   0.1387662   0.2196245   0.3572458  )
        50           C   tau(  50) = (   0.7228316   0.7489162   0.5073107  )
        51           C   tau(  51) = (   0.5844295   0.8389590   1.3718672  )
        52           C   tau(  52) = (   0.0003641   0.3096673   1.2218024  )
        53           C   tau(  53) = (   0.1393237   0.1638173   0.2116282  )
        54           C   tau(  54) = (   0.7222741   0.6931090   0.6529283  )
        55           C   tau(  55) = (   0.5838720   0.8947661   1.5174849  )
        56           C   tau(  56) = (   0.0009216   0.3654744   1.0761847  )
        57           C   tau(  57) = (   0.2017276   0.2451154   0.0945005  )
        58           C   tau(  58) = (   0.6598702   0.7744071   0.7700560  )
        59           C   tau(  59) = (   0.5214681   0.8134680   1.6346126  )
        60           C   tau(  60) = (   0.0633255   0.2841763   0.9590571  )
        61           H   tau(  61) = (  -0.0734212   0.1987819   1.7113365  )
        62           H   tau(  62) = (   0.6582148   0.7280736   0.8823331  )
        63           H   tau(  63) = (   0.7966169   0.8598016   0.0177766  )
        64           H   tau(  64) = (   0.0649809   0.3305099   0.8467800  )
        65           C   tau(  65) = (   0.3123320   0.6547770   0.4028949  )
        66           C   tau(  66) = (   0.5492658   0.1254853   0.4616617  )
        67           C   tau(  67) = (   0.4108637   0.4038064   1.3262182  )
        68           C   tau(  68) = (   0.1739299   0.9330981   1.2674514  )
        69           C   tau(  69) = (   0.2272772   0.4239423   0.5266099  )
        70           C   tau(  70) = (   0.6343206   0.9532340   0.3379466  )
        71           C   tau(  71) = (   0.4959185   0.6346411   1.2025032  )
        72           C   tau(  72) = (   0.0888751   0.1053494   1.3911664  )
        73           C   tau(  73) = (   0.3605782   0.6663911   0.1367841  )
        74           C   tau(  74) = (   0.5010197   0.1370993   0.7277725  )
        75           C   tau(  75) = (   0.3626176   0.3921924   1.5923290  )
        76           C   tau(  76) = (   0.2221760   0.9214841   1.0013406  )
        77           H   tau(  77) = (   0.3843369   0.5892676   0.0461806  )
        78           H   tau(  78) = (   0.4772609   0.0599759   0.8183759  )
        79           H   tau(  79) = (   0.3388588   0.4693158   1.6829324  )
        80           H   tau(  80) = (   0.2459348   0.9986075   0.9107372  )
        81           H   tau(  81) = (   0.4593500   0.7307597   0.1666851  )
        82           H   tau(  82) = (   0.4022478   0.2014680   0.6978715  )
        83           H   tau(  83) = (   0.2638457   0.3278237   1.5624280  )
        84           H   tau(  84) = (   0.3209479   0.8571154   1.0312416  )
        85           H   tau(  85) = (   0.2705143   0.7416211   0.1032811  )
        86           H   tau(  86) = (   0.5910835   0.2123294   0.7612754  )
        87           H   tau(  87) = (   0.4526814   0.3169623   1.6258320  )
        88           H   tau(  88) = (   0.1321122   0.8462540   0.9678376  )
        89           C   tau(  89) = (   0.2849092   0.6442555   0.6746454  )
        90           C   tau(  90) = (   0.5766886   0.1149638   0.1899111  )
        91           C   tau(  91) = (   0.4382865   0.4143279   1.0544677  )
        92           C   tau(  92) = (   0.1465071   0.9436196   1.5392019  )
        93           H   tau(  93) = (   0.1964433   0.6011333   0.7462761  )
        94           H   tau(  94) = (   0.6651545   0.0718416   0.1182804  )
        95           H   tau(  95) = (   0.5267524   0.4574501   0.9828369  )
        96           H   tau(  96) = (   0.0580412   0.9867418   1.6108327  )
        97           H   tau(  97) = (   0.2724634   0.7644203   0.6609940  )
        98           H   tau(  98) = (   0.5891344   0.2351286   0.2035626  )
        99           H   tau(  99) = (   0.4507323   0.2941631   1.0681191  )
       100           H   tau( 100) = (   0.1340613   0.8234548   1.5255505  )
       101           H   tau( 101) = (   0.3930847   0.6171855   0.7249224  )
       102           H   tau( 102) = (   0.4685132   0.0878938   0.1396341  )
       103           H   tau( 103) = (   0.3301111   0.4413979   1.0041907  )
       104           H   tau( 104) = (   0.2546825   0.9706896   1.5894789  )
       105           C   tau( 105) = (   0.0795440   0.1306533   0.4819956  )
       106           C   tau( 106) = (   0.7820538   0.6599451   0.3825609  )
       107           C   tau( 107) = (   0.6436517   0.9279301   1.2471174  )
       108           C   tau( 108) = (  -0.0588581   0.3986384   1.3465522  )
       109           C   tau( 109) = (   0.1497419   1.0582090   0.5269873  )
       110           C   tau( 110) = (   0.7118560   0.5289173   0.3375693  )
       111           C   tau( 111) = (   0.5734539   0.0003744   1.2021258  )
       112           C   tau( 112) = (   0.0113397   0.5296661   1.3915438  )
       113           H   tau( 113) = (   0.2494211   1.0173897   0.4706520  )
       114           H   tau( 114) = (   0.6121767   0.4880980   0.3939045  )
       115           H   tau( 115) = (   0.4737746   0.0411937   1.2584610  )
       116           H   tau( 116) = (   0.1110190   0.5704854   1.3352086  )
       117           C   tau( 117) = (  -0.0239164   1.0253134   0.7080995  )
       118           C   tau( 118) = (   0.8855142   0.4960217   0.1564571  )
       119           C   tau( 119) = (   0.7471121   0.0332700   1.0210136  )
       120           C   tau( 120) = (  -0.1623185   0.5625617   1.5726560  )
       121           H   tau( 121) = (  -0.0642704   0.9608793   0.8030602  )
       122           H   tau( 122) = (   0.9258682   0.4315876   0.0614963  )
       123           H   tau( 123) = (   0.7874661   0.0977041   0.9260529  )
       124           H   tau( 124) = (  -0.2026725   0.6269958   1.6676167  )
       125           C   tau( 125) = (  -0.0504713   0.1693424   0.5581967  )
       126           C   tau( 126) = (   0.9120692   0.6986341   0.3063598  )
       127           C   tau( 127) = (   0.7736670   0.8892411   1.1709163  )
       128           C   tau( 128) = (  -0.1888735   0.3599493   1.4227533  )
       129           H   tau( 129) = (   0.8869158   0.2686055   0.5272865  )
       130           H   tau( 130) = (  -0.0253179   0.7978972   0.3372700  )
       131           H   tau( 131) = (  -0.1637200   0.7899779   1.2018266  )
       132           H   tau( 132) = (   0.7485136   0.2606862   1.3918430  )

     number of k points=     8
                       cart. coord. in units 2pi/alat
        k(    1) = (   0.0000000   0.0000000   0.0000000), wk =   0.2500000
        k(    2) = (   0.0000000   0.0000000  -0.2891656), wk =   0.2500000
        k(    3) = (   0.0000000  -0.4723293   0.0000000), wk =   0.2500000
        k(    4) = (   0.0000000  -0.4723293  -0.2891656), wk =   0.2500000
        k(    5) = (  -0.5000000   0.0000000  -0.0800423), wk =   0.2500000
        k(    6) = (  -0.5000000   0.0000000  -0.3692079), wk =   0.2500000
        k(    7) = (  -0.5000000  -0.4723293  -0.0800423), wk =   0.2500000
        k(    8) = (  -0.5000000  -0.4723293  -0.3692079), wk =   0.2500000

     Dense  grid:  1212669 G-vectors     FFT dimensions: ( 120, 120, 192)

     Estimated max dynamical RAM per process >    1734.91MB

     Estimated total allocated dynamical RAM >   13879.25MB

     Check: negative/imaginary core charge=   -0.000002    0.000000

     Initial potential from superposition of free atoms

     starting charge  463.99726, renormalised to  464.00000
     Starting wfc are  408 randomized atomic wfcs
     Checking if some PAW data can be deallocated... 

     total cpu time spent up to now is      115.1 secs

     per-process dynamical memory:  1134.4 Mb

     Self-consistent Calculation

     iteration #  1     ecut=   100.00 Ry     beta=0.50
     Davidson diagonalization with overlap
     ethr =  1.00E-02,  avg # of iterations =  3.4

     total cpu time spent up to now is      441.6 secs

     total energy              =   -2346.90005089 Ry
     Harris-Foulkes estimate   =   -2354.03611354 Ry
     estimated scf accuracy    <      13.53887020 Ry

     iteration #  2     ecut=   100.00 Ry     beta=0.50
     Davidson diagonalization with overlap
     ethr =  2.92E-03,  avg # of iterations =  3.0

     total cpu time spent up to now is      624.1 secs

     total energy              =   -2348.08427016 Ry
     Harris-Foulkes estimate   =   -2349.38565153 Ry
     estimated scf accuracy    <       2.64199526 Ry

     iteration #  3     ecut=   100.00 Ry     beta=0.50
     Davidson diagonalization with overlap
     ethr =  5.69E-04,  avg # of iterations =  8.0

     total cpu time spent up to now is      966.8 secs

     total energy              =   -2349.22148663 Ry
     Harris-Foulkes estimate   =   -2349.66226592 Ry
     estimated scf accuracy    <       1.06124675 Ry

     iteration #  4     ecut=   100.00 Ry     beta=0.50
     Davidson diagonalization with overlap
     ethr =  2.29E-04,  avg # of iterations =  2.8

     total cpu time spent up to now is     1132.8 secs

     total energy              =   -2349.26430015 Ry
     Harris-Foulkes estimate   =   -2349.34609933 Ry
     estimated scf accuracy    <       0.16994421 Ry

     iteration #  5     ecut=   100.00 Ry     beta=0.50
     Davidson diagonalization with overlap
     ethr =  3.66E-05,  avg # of iterations =  8.5

     total cpu time spent up to now is     1502.6 secs

     total energy              =   -2349.37325449 Ry
     Harris-Foulkes estimate   =   -2349.42195609 Ry
     estimated scf accuracy    <       0.13983189 Ry

     iteration #  6     ecut=   100.00 Ry     beta=0.50
     Davidson diagonalization with overlap
     ethr =  3.01E-05,  avg # of iterations =  1.0

     total cpu time spent up to now is     1658.7 secs

     total energy              =   -2349.36482649 Ry
     Harris-Foulkes estimate   =   -2349.38292125 Ry
     estimated scf accuracy    <       0.05014013 Ry

     iteration #  7     ecut=   100.00 Ry     beta=0.50
     Davidson diagonalization with overlap
     ethr =  1.08E-05,  avg # of iterations =  6.0

     total cpu time spent up to now is     1907.5 secs

     total energy              =   -2349.38042664 Ry
     Harris-Foulkes estimate   =   -2349.38185155 Ry
     estimated scf accuracy    <       0.00462471 Ry

     iteration #  8     ecut=   100.00 Ry     beta=0.50
     Davidson diagonalization with overlap
     ethr =  9.97E-07,  avg # of iterations =  7.1

     total cpu time spent up to now is     2200.7 secs

     total energy              =   -2349.38133174 Ry
     Harris-Foulkes estimate   =   -2349.38255896 Ry
     estimated scf accuracy    <       0.00323347 Ry

     iteration #  9     ecut=   100.00 Ry     beta=0.50
     Davidson diagonalization with overlap
     ethr =  6.97E-07,  avg # of iterations =  2.0

     total cpu time spent up to now is     2361.1 secs

     total energy              =   -2349.38109500 Ry
     Harris-Foulkes estimate   =   -2349.38154570 Ry
     estimated scf accuracy    <       0.00089093 Ry

     iteration # 10     ecut=   100.00 Ry     beta=0.50
     Davidson diagonalization with overlap
     ethr =  1.92E-07,  avg # of iterations =  4.0

     total cpu time spent up to now is     2644.2 secs

     total energy              =   -2349.38162762 Ry
     Harris-Foulkes estimate   =   -2349.38173342 Ry
     estimated scf accuracy    <       0.00027462 Ry

     iteration # 11     ecut=   100.00 Ry     beta=0.50
     Davidson diagonalization with overlap
     ethr =  5.92E-08,  avg # of iterations =  2.0

     total cpu time spent up to now is     2805.2 secs

     total energy              =   -2349.38159927 Ry
     Harris-Foulkes estimate   =   -2349.38164043 Ry
     estimated scf accuracy    <       0.00008789 Ry

     iteration # 12     ecut=   100.00 Ry     beta=0.50
     Davidson diagonalization with overlap
     ethr =  1.89E-08,  avg # of iterations =  4.0

     total cpu time spent up to now is     3084.0 secs

     total energy              =   -2349.38164803 Ry
     Harris-Foulkes estimate   =   -2349.38165648 Ry
     estimated scf accuracy    <       0.00002168 Ry

     iteration # 13     ecut=   100.00 Ry     beta=0.50
     Davidson diagonalization with overlap
     ethr =  4.67E-09,  avg # of iterations =  2.0

     total cpu time spent up to now is     3244.5 secs

     total energy              =   -2349.38164504 Ry
     Harris-Foulkes estimate   =   -2349.38164909 Ry
     estimated scf accuracy    <       0.00000635 Ry

     iteration # 14     ecut=   100.00 Ry     beta=0.50
     Davidson diagonalization with overlap
     ethr =  1.37E-09,  avg # of iterations =  4.0

     total cpu time spent up to now is     3551.0 secs

     total energy              =   -2349.38164985 Ry
     Harris-Foulkes estimate   =   -2349.38165198 Ry
     estimated scf accuracy    <       0.00000617 Ry

     iteration # 15     ecut=   100.00 Ry     beta=0.50
     Davidson diagonalization with overlap
     ethr =  1.33E-09,  avg # of iterations =  1.4

     total cpu time spent up to now is     3708.4 secs

     total energy              =   -2349.38164885 Ry
     Harris-Foulkes estimate   =   -2349.38165002 Ry
     estimated scf accuracy    <       0.00000237 Ry

     iteration # 16     ecut=   100.00 Ry     beta=0.50
     Davidson diagonalization with overlap
     ethr =  5.10E-10,  avg # of iterations =  4.0

     total cpu time spent up to now is     3980.6 secs

     total energy              =   -2349.38165010 Ry
     Harris-Foulkes estimate   =   -2349.38165019 Ry
     estimated scf accuracy    <       0.00000038 Ry

     iteration # 17     ecut=   100.00 Ry     beta=0.50
     Davidson diagonalization with overlap
     ethr =  8.08E-11,  avg # of iterations =  1.0

     total cpu time spent up to now is     4136.6 secs

     total energy              =   -2349.38165004 Ry
     Harris-Foulkes estimate   =   -2349.38165011 Ry
     estimated scf accuracy    <       0.00000022 Ry

     iteration # 18     ecut=   100.00 Ry     beta=0.50
     Davidson diagonalization with overlap
     ethr =  4.81E-11,  avg # of iterations =  4.0

     total cpu time spent up to now is     4327.4 secs

     total energy              =   -2349.38165007 Ry
     Harris-Foulkes estimate   =   -2349.38165008 Ry
     estimated scf accuracy    <       0.00000002 Ry

     iteration # 19     ecut=   100.00 Ry     beta=0.50
     Davidson diagonalization with overlap
     ethr =  5.39E-12,  avg # of iterations =  4.6

     total cpu time spent up to now is     4598.9 secs

     End of self-consistent calculation

          k = 0.0000 0.0000 0.0000 (151625 PWs)   bands (ev):

   -24.0226 -24.0225 -23.9573 -23.9573 -20.1258 -20.1249 -20.0838 -20.0833
   -19.5611 -19.5598 -19.5455 -19.5444 -19.3371 -19.3363 -19.2943 -19.2938
   -18.1148 -18.1076 -18.0889 -18.0859 -17.6694 -17.6684 -17.6551 -17.6546
   -16.8476 -16.8413 -16.8386 -16.8339 -16.3866 -16.3733 -16.3668 -16.3553
   -15.1750 -15.1714 -15.1699 -15.1644 -14.7296 -14.7244 -14.7200 -14.7087
   -13.4464 -13.4426 -13.4320 -13.4110 -12.7653 -12.7643 -12.7592 -12.7086
   -11.3500 -11.3442 -11.3435 -11.3022 -11.1915 -11.1870 -11.1842 -11.1588
   -10.4915 -10.4510 -10.4222 -10.4206  -9.9662  -9.8829  -9.8652  -9.8596
    -9.3825  -9.3771  -9.3436  -9.3388  -9.2046  -9.2024  -9.1702  -9.0966
    -8.8401  -8.8097  -8.8079  -8.8026  -8.4143  -8.4051  -8.3840  -8.3621
    -7.5137  -7.5060  -7.4874  -7.4650  -7.0415  -7.0246  -6.9873  -6.9676
    -6.8596  -6.8038  -6.6851  -6.6814  -6.2676  -6.2579  -6.2369  -6.0995
    -6.0935  -6.0912  -6.0102  -5.9430  -5.9407  -5.9032  -5.8947  -5.8315
    -5.8294  -5.8125  -5.7230  -5.7128  -5.5738  -5.5455  -5.5353  -5.5157
    -5.4575  -5.4093  -5.3625  -5.3253  -5.0065  -4.9617  -4.9190  -4.8960
    -4.4748  -4.4146  -4.3877  -4.3392  -4.2898  -4.2879  -4.2075  -4.1989
    -4.1727  -4.1313  -4.0996  -4.0371  -4.0348  -4.0249  -4.0029  -3.9259
    -3.9023  -3.8263  -3.6884  -3.6716  -3.6114  -3.6105  -3.5928  -3.4663
    -3.4585  -3.3958  -3.3721  -3.2364  -3.2189  -3.1896  -3.1504  -3.1422
    -3.0759  -3.0613  -3.0580  -2.9982  -2.9678  -2.9644  -2.8375  -2.7780
    -2.5912  -2.5798  -2.5460  -2.5400  -2.5229  -2.4930  -2.4828  -2.4041
    -2.3988  -2.3189  -2.2924  -2.2689  -2.2592  -2.2130  -2.1986  -2.1604
    -1.4497  -1.4360  -1.4095  -1.3693  -1.1018  -1.0894  -1.0720  -1.0612
    -0.9774  -0.9658  -0.8517  -0.8491  -0.8042  -0.7869  -0.7476  -0.6180
    -0.6168  -0.5704  -0.5462  -0.4803  -0.3818  -0.3681  -0.2724  -0.2317
    -0.2097  -0.1508  -0.1173  -0.0659  -0.0389  -0.0291  -0.0039   0.0435
     0.0590   0.1472   0.1736   0.2077   0.2583   0.3177   0.3355   0.3532
     0.4051   0.4121   0.4888   0.5184   0.9074   0.9201   0.9213   0.9583
     1.0420   1.0501   1.0883   1.0900   1.1416   1.1815   1.1981   1.2219
     3.4498   3.4636   3.4980   3.5149   4.0147   4.0766   4.1341   4.2370
     4.7898   4.8048   4.8181   4.8225   5.0718   5.1081   5.1187   5.1246
     5.3732   5.4241   5.4326   5.5152   6.0350   6.0520   6.0748   6.1072
     7.0255   7.1826   7.1936   7.2882   7.4283   7.4613   7.7134   8.0198
     8.1610   8.2512   8.4013   8.4643   8.5209   8.6200   8.6508   8.6800
     8.6815   8.7312   8.7591   8.7901   8.8826   8.9474

          k = 0.0000 0.0000-0.2892 (151564 PWs)   bands (ev):

   -24.0226 -24.0226 -23.9573 -23.9573 -20.1253 -20.1253 -20.0836 -20.0836
   -19.5605 -19.5605 -19.5450 -19.5450 -19.3367 -19.3367 -19.2940 -19.2940
   -18.1115 -18.1115 -18.0871 -18.0871 -17.6689 -17.6689 -17.6548 -17.6548
   -16.8432 -16.8432 -16.8376 -16.8376 -16.3799 -16.3799 -16.3610 -16.3610
   -15.1740 -15.1740 -15.1663 -15.1663 -14.7249 -14.7249 -14.7165 -14.7165
   -13.4467 -13.4467 -13.4196 -13.4196 -12.7685 -12.7685 -12.7302 -12.7302
   -11.3442 -11.3442 -11.3219 -11.3219 -11.1916 -11.1916 -11.1745 -11.1745
   -10.4563 -10.4563 -10.4359 -10.4359  -9.9200  -9.9200  -9.8679  -9.8679
    -9.3832  -9.3832  -9.3345  -9.3345  -9.1958  -9.1958  -9.1438  -9.1438
    -8.8212  -8.8212  -8.8078  -8.8078  -8.4035  -8.4035  -8.3801  -8.3801
    -7.4976  -7.4976  -7.4881  -7.4881  -7.0150  -7.0150  -6.9942  -6.9942
    -6.8340  -6.8340  -6.6809  -6.6809  -6.2635  -6.2635  -6.1981  -6.1981
    -6.0867  -6.0867  -5.9542  -5.9542  -5.9220  -5.9220  -5.8588  -5.8588
    -5.7993  -5.7993  -5.7349  -5.7349  -5.5729  -5.5729  -5.5000  -5.5000
    -5.4628  -5.4628  -5.3385  -5.3385  -4.9600  -4.9600  -4.9233  -4.9233
    -4.4316  -4.4316  -4.3679  -4.3679  -4.2907  -4.2907  -4.2376  -4.2376
    -4.1981  -4.1981  -4.0425  -4.0425  -4.0067  -4.0067  -3.9492  -3.9492
    -3.8256  -3.8256  -3.7328  -3.7328  -3.6337  -3.6337  -3.5152  -3.5152
    -3.3735  -3.3735  -3.2869  -3.2869  -3.2021  -3.2021  -3.1870  -3.1870
    -3.0817  -3.0817  -3.0100  -3.0100  -2.9601  -2.9601  -2.8430  -2.8430
    -2.5801  -2.5801  -2.5584  -2.5584  -2.4864  -2.4864  -2.4382  -2.4382
    -2.3445  -2.3445  -2.2853  -2.2853  -2.2480  -2.2480  -2.1737  -2.1737
    -1.4423  -1.4423  -1.3863  -1.3863  -1.0984  -1.0984  -1.0448  -1.0448
    -0.9843  -0.9843  -0.8649  -0.8649  -0.8150  -0.8150  -0.6660  -0.6660
    -0.6046  -0.6046  -0.5074  -0.5074  -0.3721  -0.3721  -0.2617  -0.2617
    -0.1675  -0.1675  -0.0825  -0.0825  -0.0093  -0.0093   0.0022   0.0022
     0.1048   0.1048   0.1716   0.1716   0.2903   0.2903   0.3418   0.3418
     0.4305   0.4305   0.4792   0.4792   0.9202   0.9202   1.0059   1.0059
     1.0213   1.0213   1.0496   1.0496   1.1591   1.1591   1.2142   1.2142
     3.4575   3.4575   3.5058   3.5058   4.0467   4.0467   4.1858   4.1858
     4.8047   4.8047   4.8127   4.8127   5.0909   5.0909   5.1199   5.1199
     5.3997   5.3997   5.4659   5.4659   6.0401   6.0401   6.0995   6.0995
     7.1355   7.1355   7.1967   7.1967   7.4413   7.4413   7.9522   7.9522
     8.1165   8.1165   8.4709   8.4709   8.4771   8.4771   8.6136   8.6136
     8.7403   8.7403   8.8149   8.8149   8.9083   8.9083

          k = 0.0000-0.4723 0.0000 (151522 PWs)   bands (ev):

   -24.0226 -24.0226 -23.9573 -23.9573 -20.1052 -20.1052 -20.1047 -20.1047
   -19.5604 -19.5604 -19.5450 -19.5450 -19.3155 -19.3155 -19.3146 -19.3146
   -18.1029 -18.1029 -18.0976 -18.0976 -17.6678 -17.6678 -17.6534 -17.6534
   -16.8444 -16.8444 -16.8359 -16.8359 -16.3753 -16.3753 -16.3648 -16.3648
   -15.1732 -15.1732 -15.1674 -15.1674 -14.7270 -14.7270 -14.7143 -14.7143
   -13.4432 -13.4432 -13.4266 -13.4266 -12.7712 -12.7712 -12.7381 -12.7381
   -11.3457 -11.3457 -11.3303 -11.3303 -11.1670 -11.1670 -11.1546 -11.1546
   -10.4692 -10.4692 -10.4472 -10.4472  -9.9078  -9.9078  -9.8355  -9.8355
    -9.3553  -9.3553  -9.3509  -9.3509  -9.2109  -9.2109  -9.1689  -9.1689
    -8.8503  -8.8503  -8.8219  -8.8219  -8.4147  -8.4147  -8.3906  -8.3906
    -7.4842  -7.4842  -7.4450  -7.4450  -7.0099  -7.0099  -6.9741  -6.9741
    -6.8043  -6.8043  -6.6682  -6.6682  -6.2646  -6.2646  -6.2213  -6.2213
    -6.0501  -6.0501  -5.9959  -5.9959  -5.9281  -5.9281  -5.8601  -5.8601
    -5.7595  -5.7595  -5.7399  -5.7399  -5.7218  -5.7218  -5.5672  -5.5672
    -5.3816  -5.3816  -5.3449  -5.3449  -4.9642  -4.9642  -4.8581  -4.8581
    -4.4923  -4.4923  -4.3763  -4.3763  -4.2472  -4.2472  -4.1988  -4.1988
    -4.1837  -4.1837  -4.0664  -4.0664  -4.0301  -4.0301  -3.9542  -3.9542
    -3.7879  -3.7879  -3.6707  -3.6707  -3.6139  -3.6139  -3.5077  -3.5077
    -3.4255  -3.4255  -3.3666  -3.3666  -3.2557  -3.2557  -3.1198  -3.1198
    -3.0233  -3.0233  -2.9908  -2.9908  -2.9678  -2.9678  -2.7956  -2.7956
    -2.6181  -2.6181  -2.5782  -2.5782  -2.5179  -2.5179  -2.4576  -2.4576
    -2.3667  -2.3667  -2.3020  -2.3020  -2.2637  -2.2637  -2.1547  -2.1547
    -1.4092  -1.4092  -1.3891  -1.3891  -1.0774  -1.0774  -1.0141  -1.0141
    -0.9058  -0.9058  -0.8827  -0.8827  -0.7816  -0.7816  -0.7081  -0.7081
    -0.5750  -0.5750  -0.5449  -0.5449  -0.3867  -0.3867  -0.2438  -0.2438
    -0.1855  -0.1855  -0.0934  -0.0934  -0.0493  -0.0493   0.0294   0.0294
     0.0982   0.0982   0.2148   0.2148   0.2452   0.2452   0.3230   0.3230
     0.4222   0.4222   0.5070   0.5070   0.9022   0.9022   0.9466   0.9466
     0.9745   0.9745   1.1039   1.1039   1.1810   1.1810   1.1960   1.1960
     3.4946   3.4946   3.5495   3.5495   4.0696   4.0696   4.1541   4.1541
     4.7714   4.7714   4.8054   4.8054   5.1057   5.1057   5.1446   5.1446
     5.3504   5.3504   5.4436   5.4436   6.0622   6.0622   6.0965   6.0965
     7.2568   7.2568   7.3121   7.3121   7.4233   7.4233   7.6117   7.6117
     8.1133   8.1133   8.2491   8.2491   8.5119   8.5119   8.6114   8.6114
     8.7439   8.7439   9.0161   9.0161   9.0923   9.0923

          k = 0.0000-0.4723-0.2892 (151512 PWs)   bands (ev):

   -24.0226 -24.0226 -23.9573 -23.9573 -20.1050 -20.1050 -20.1049 -20.1049
   -19.5604 -19.5604 -19.5450 -19.5450 -19.3154 -19.3154 -19.3147 -19.3147
   -18.1029 -18.1029 -18.0977 -18.0977 -17.6677 -17.6677 -17.6535 -17.6535
   -16.8403 -16.8403 -16.8401 -16.8401 -16.3701 -16.3701 -16.3699 -16.3699
   -15.1732 -15.1732 -15.1674 -15.1674 -14.7214 -14.7214 -14.7199 -14.7199
   -13.4427 -13.4427 -13.4273 -13.4273 -12.7670 -12.7670 -12.7421 -12.7421
   -11.3401 -11.3401 -11.3358 -11.3358 -11.1632 -11.1632 -11.1594 -11.1594
   -10.4668 -10.4668 -10.4469 -10.4469  -9.8803  -9.8803  -9.8678  -9.8678
    -9.3528  -9.3528  -9.3523  -9.3523  -9.2065  -9.2065  -9.1725  -9.1725
    -8.8420  -8.8420  -8.8310  -8.8310  -8.4042  -8.4042  -8.3989  -8.3989
    -7.4702  -7.4702  -7.4594  -7.4594  -6.9936  -6.9936  -6.9910  -6.9910
    -6.8057  -6.8057  -6.6663  -6.6663  -6.2606  -6.2606  -6.2284  -6.2284
    -6.0293  -6.0293  -6.0110  -6.0110  -5.9369  -5.9369  -5.8549  -5.8549
    -5.7508  -5.7508  -5.7390  -5.7390  -5.6859  -5.6859  -5.6173  -5.6173
    -5.3828  -5.3828  -5.3537  -5.3537  -4.9389  -4.9389  -4.8780  -4.8780
    -4.4601  -4.4601  -4.3877  -4.3877  -4.2208  -4.2208  -4.2031  -4.2031
    -4.1550  -4.1550  -4.1159  -4.1159  -4.0384  -4.0384  -3.9746  -3.9746
    -3.7473  -3.7473  -3.7338  -3.7338  -3.6125  -3.6125  -3.5319  -3.5319
    -3.3780  -3.3780  -3.2826  -3.2826  -3.2254  -3.2254  -3.2202  -3.2202
    -3.0241  -3.0241  -2.9907  -2.9907  -2.9639  -2.9639  -2.7908  -2.7908
    -2.6364  -2.6364  -2.5924  -2.5924  -2.5062  -2.5062  -2.4284  -2.4284
    -2.3714  -2.3714  -2.3451  -2.3451  -2.2078  -2.2078  -2.1805  -2.1805
    -1.4002  -1.4002  -1.3909  -1.3909  -1.0848  -1.0848  -0.9866  -0.9866
    -0.9472  -0.9472  -0.8528  -0.8528  -0.7672  -0.7672  -0.7525  -0.7525
    -0.5817  -0.5817  -0.5372  -0.5372  -0.3821  -0.3821  -0.2188  -0.2188
    -0.2010  -0.2010  -0.0776  -0.0776  -0.0468  -0.0468   0.0161   0.0161
     0.1028   0.1028   0.1834   0.1834   0.2858   0.2858   0.3108   0.3108
     0.4236   0.4236   0.4882   0.4882   0.9145   0.9145   0.9548   0.9548
     1.0224   1.0224   1.0489   1.0489   1.1805   1.1805   1.1937   1.1937
     3.4963   3.4963   3.5478   3.5478   4.0950   4.0950   4.1314   4.1314
     4.7836   4.7836   4.7931   4.7931   5.1207   5.1207   5.1209   5.1209
     5.3846   5.3846   5.4112   5.4112   6.0667   6.0667   6.0953   6.0953
     7.2910   7.2910   7.2918   7.2918   7.4593   7.4593   7.5698   7.5698
     8.1524   8.1524   8.1955   8.1955   8.5672   8.5672   8.5722   8.5722
     8.8029   8.8029   8.8531   8.8531   9.0259   9.0259

          k =-0.5000 0.0000-0.0800 (151588 PWs)   bands (ev):

   -24.0226 -24.0225 -23.9573 -23.9573 -20.1257 -20.1247 -20.0839 -20.0835
   -19.5615 -19.5597 -19.5458 -19.5444 -19.3355 -19.3350 -19.2954 -19.2949
   -18.1132 -18.1129 -18.0867 -18.0824 -17.6706 -17.6699 -17.6561 -17.6544
   -16.8452 -16.8435 -16.8370 -16.8352 -16.3856 -16.3740 -16.3680 -16.3547
   -15.1746 -15.1706 -15.1693 -15.1634 -14.7280 -14.7261 -14.7182 -14.7107
   -13.4514 -13.4279 -13.4278 -13.4261 -12.7711 -12.7510 -12.7467 -12.7258
   -11.3559 -11.3417 -11.3397 -11.3041 -11.1911 -11.1837 -11.1818 -11.1702
   -10.4808 -10.4602 -10.4258 -10.4162  -9.9263  -9.9051  -9.8927  -9.8447
    -9.3786  -9.3744  -9.3430  -9.3381  -9.2371  -9.1766  -9.1430  -9.1264
    -8.8362  -8.8265  -8.8153  -8.7887  -8.4025  -8.4025  -8.3948  -8.3675
    -7.5130  -7.5080  -7.4797  -7.4750  -7.0435  -7.0341  -6.9887  -6.9644
    -6.8248  -6.8167  -6.7080  -6.6620  -6.2799  -6.2654  -6.2440  -6.1458
    -6.1214  -6.0939  -6.0264  -6.0080  -5.9335  -5.9168  -5.8775  -5.8346
    -5.8085  -5.8060  -5.7649  -5.7279  -5.5637  -5.5537  -5.5081  -5.4076
    -5.4001  -5.3940  -5.2743  -5.2452  -5.0369  -4.9427  -4.8966  -4.8908
    -4.4804  -4.4272  -4.3981  -4.3491  -4.3248  -4.3063  -4.2185  -4.1989
    -4.1931  -4.1434  -4.0557  -4.0512  -4.0426  -4.0098  -3.9900  -3.9225
    -3.8998  -3.8679  -3.7804  -3.7125  -3.6458  -3.5956  -3.5053  -3.4473
    -3.3727  -3.3707  -3.3594  -3.3565  -3.2373  -3.2259  -3.1905  -3.1027
    -3.1003  -3.0718  -3.0643  -3.0397  -3.0161  -2.9812  -2.7763  -2.7710
    -2.6314  -2.5952  -2.5566  -2.5099  -2.4896  -2.4506  -2.4462  -2.4258
    -2.4133  -2.3149  -2.3088  -2.2765  -2.2543  -2.2058  -2.1676  -2.1563
    -1.4436  -1.4268  -1.4066  -1.3919  -1.1345  -1.0943  -1.0560  -1.0444
    -0.9866  -0.9667  -0.8688  -0.8133  -0.8084  -0.7291  -0.7031  -0.6456
    -0.6020  -0.5683  -0.5237  -0.5091  -0.4073  -0.3642  -0.2632  -0.2144
    -0.2010  -0.1916  -0.0745  -0.0629  -0.0426  -0.0191   0.0176   0.0416
     0.0650   0.1387   0.1556   0.2434   0.2721   0.2945   0.3010   0.3359
     0.3651   0.4169   0.4896   0.4988   0.9318   0.9360   0.9647   0.9772
     0.9959   1.0541   1.0825   1.0956   1.1426   1.1707   1.2101   1.2184
     3.4201   3.4680   3.4889   3.5146   4.0079   4.0828   4.1356   4.2241
     4.7915   4.7926   4.8038   4.8243   5.0756   5.0900   5.0932   5.1111
     5.3318   5.4096   5.4795   5.5518   6.0397   6.0590   6.0664   6.0948
     7.2161   7.2308   7.3567   7.4085   7.5520   7.7747   7.7924   7.9854
     8.1001   8.1602   8.1616   8.1934   8.3398   8.5269   8.6003   8.6500
     8.7229   8.8542   8.8552   8.8789   8.9028   8.9630

          k =-0.5000 0.0000-0.3692 (151638 PWs)   bands (ev):

   -24.0226 -24.0226 -23.9573 -23.9573 -20.1252 -20.1252 -20.0837 -20.0837
   -19.5607 -19.5607 -19.5451 -19.5451 -19.3352 -19.3352 -19.2952 -19.2952
   -18.1131 -18.1131 -18.0845 -18.0845 -17.6703 -17.6703 -17.6552 -17.6552
   -16.8412 -16.8412 -16.8394 -16.8394 -16.3798 -16.3798 -16.3613 -16.3613
   -15.1735 -15.1735 -15.1654 -15.1654 -14.7232 -14.7232 -14.7183 -14.7183
   -13.4430 -13.4430 -13.4238 -13.4238 -12.7606 -12.7606 -12.7366 -12.7366
   -11.3469 -11.3469 -11.3207 -11.3207 -11.1876 -11.1876 -11.1803 -11.1803
   -10.4579 -10.4579 -10.4333 -10.4333  -9.9017  -9.9017  -9.8836  -9.8836
    -9.3793  -9.3793  -9.3355  -9.3355  -9.1920  -9.1920  -9.1500  -9.1500
    -8.8349  -8.8349  -8.7992  -8.7992  -8.4028  -8.4028  -8.3814  -8.3814
    -7.5001  -7.5001  -7.4871  -7.4871  -7.0169  -7.0169  -6.9964  -6.9964
    -6.8223  -6.8223  -6.6845  -6.6845  -6.2658  -6.2658  -6.2331  -6.2331
    -6.0799  -6.0799  -6.0290  -6.0290  -5.9078  -5.9078  -5.8340  -5.8340
    -5.8076  -5.8076  -5.7615  -5.7615  -5.5649  -5.5649  -5.4729  -5.4729
    -5.3931  -5.3931  -5.2591  -5.2591  -4.9673  -4.9673  -4.9083  -4.9083
    -4.4424  -4.4424  -4.3731  -4.3731  -4.2920  -4.2920  -4.2456  -4.2456
    -4.2264  -4.2264  -4.0126  -4.0126  -3.9956  -3.9956  -3.9614  -3.9614
    -3.8994  -3.8994  -3.7733  -3.7733  -3.5731  -3.5731  -3.4830  -3.4830
    -3.3778  -3.3778  -3.3051  -3.3051  -3.2374  -3.2374  -3.2028  -3.2028
    -3.0799  -3.0799  -3.0522  -3.0522  -3.0051  -3.0051  -2.7606  -2.7606
    -2.6218  -2.6218  -2.5384  -2.5384  -2.4842  -2.4842  -2.4186  -2.4186
    -2.3524  -2.3524  -2.2911  -2.2911  -2.2386  -2.2386  -2.1608  -2.1608
    -1.4311  -1.4311  -1.3989  -1.3989  -1.0977  -1.0977  -1.0649  -1.0649
    -0.9839  -0.9839  -0.8400  -0.8400  -0.7741  -0.7741  -0.6777  -0.6777
    -0.5899  -0.5899  -0.5102  -0.5102  -0.3868  -0.3868  -0.2408  -0.2408
    -0.1908  -0.1908  -0.0597  -0.0597  -0.0115  -0.0115   0.0155   0.0155
     0.0937   0.0937   0.1901   0.1901   0.2840   0.2840   0.3249   0.3249
     0.4035   0.4035   0.4735   0.4735   0.9625   0.9625   1.0045   1.0045
     1.0213   1.0213   1.0390   1.0390   1.1583   1.1583   1.2141   1.2141
     3.4397   3.4397   3.5058   3.5058   4.0463   4.0463   4.1815   4.1815
     4.7894   4.7894   4.8175   4.8175   5.0753   5.0753   5.1073   5.1073
     5.3660   5.3660   5.5132   5.5132   6.0425   6.0425   6.0927   6.0927
     7.2264   7.2264   7.3847   7.3847   7.6598   7.6598   7.8858   7.8858
     8.0779   8.0779   8.2534   8.2534   8.4145   8.4145   8.6187   8.6187
     8.6846   8.6846   8.8635   8.8635   8.9244   8.9244

          k =-0.5000-0.4723-0.0800 (151596 PWs)   bands (ev):

   -24.0226 -24.0226 -23.9573 -23.9573 -20.1052 -20.1052 -20.1046 -20.1046
   -19.5605 -19.5605 -19.5450 -19.5450 -19.3151 -19.3151 -19.3148 -19.3148
   -18.1013 -18.1013 -18.0986 -18.0986 -17.6687 -17.6687 -17.6537 -17.6537
   -16.8444 -16.8444 -16.8359 -16.8359 -16.3753 -16.3753 -16.3649 -16.3649
   -15.1727 -15.1727 -15.1667 -15.1667 -14.7270 -14.7270 -14.7143 -14.7143
   -13.4426 -13.4426 -13.4271 -13.4271 -12.7729 -12.7729 -12.7366 -12.7366
   -11.3495 -11.3495 -11.3254 -11.3254 -11.1716 -11.1716 -11.1490 -11.1490
   -10.4729 -10.4729 -10.4452 -10.4452  -9.9176  -9.9176  -9.8270  -9.8270
    -9.3565  -9.3565  -9.3519  -9.3519  -9.2158  -9.2158  -9.1638  -9.1638
    -8.8509  -8.8509  -8.8183  -8.8183  -8.4241  -8.4241  -8.3800  -8.3800
    -7.4860  -7.4860  -7.4439  -7.4439  -7.0155  -7.0155  -6.9766  -6.9766
    -6.8162  -6.8162  -6.6571  -6.6571  -6.3033  -6.3033  -6.2421  -6.2421
    -6.0676  -6.0676  -5.9996  -5.9996  -5.9310  -5.9310  -5.8632  -5.8632
    -5.7630  -5.7630  -5.7253  -5.7253  -5.6778  -5.6778  -5.4953  -5.4953
    -5.3722  -5.3722  -5.3391  -5.3391  -4.9496  -4.9496  -4.8632  -4.8632
    -4.4996  -4.4996  -4.3598  -4.3598  -4.2597  -4.2597  -4.1835  -4.1835
    -4.1492  -4.1492  -4.0689  -4.0689  -4.0412  -4.0412  -3.9870  -3.9870
    -3.8002  -3.8002  -3.7143  -3.7143  -3.6232  -3.6232  -3.4980  -3.4980
    -3.4499  -3.4499  -3.3217  -3.3217  -3.2892  -3.2892  -3.1656  -3.1656
    -3.0541  -3.0541  -2.9791  -2.9791  -2.9504  -2.9504  -2.7127  -2.7127
    -2.6534  -2.6534  -2.6016  -2.6016  -2.4993  -2.4993  -2.4468  -2.4468
    -2.3652  -2.3652  -2.3073  -2.3073  -2.2811  -2.2811  -2.1690  -2.1690
    -1.4244  -1.4244  -1.3937  -1.3937  -1.0674  -1.0674  -1.0041  -1.0041
    -0.9026  -0.9026  -0.8609  -0.8609  -0.7791  -0.7791  -0.6992  -0.6992
    -0.5749  -0.5749  -0.5406  -0.5406  -0.3753  -0.3753  -0.2356  -0.2356
    -0.1738  -0.1738  -0.1105  -0.1105  -0.0514  -0.0514   0.0311   0.0311
     0.1010   0.1010   0.2123   0.2123   0.2533   0.2533   0.3151   0.3151
     0.4243   0.4243   0.5047   0.5047   0.9313   0.9313   0.9361   0.9361
     0.9531   0.9531   1.0912   1.0912   1.1953   1.1953   1.2046   1.2046
     3.4833   3.4833   3.5427   3.5427   4.0742   4.0742   4.1523   4.1523
     4.7540   4.7540   4.7929   4.7929   5.0988   5.0988   5.1540   5.1540
     5.3492   5.3492   5.4416   5.4416   6.0524   6.0524   6.0966   6.0966
     7.2592   7.2592   7.3281   7.3281   7.7556   7.7556   7.9494   7.9494
     8.0537   8.0537   8.2151   8.2151   8.3598   8.3598   8.4970   8.4970
     8.5261   8.5261   8.8818   8.8818   8.9352   8.9352

          k =-0.5000-0.4723-0.3692 (151624 PWs)   bands (ev):

   -24.0226 -24.0226 -23.9573 -23.9573 -20.1050 -20.1050 -20.1048 -20.1048
   -19.5605 -19.5605 -19.5450 -19.5450 -19.3151 -19.3151 -19.3148 -19.3148
   -18.1012 -18.1012 -18.0986 -18.0986 -17.6686 -17.6686 -17.6538 -17.6538
   -16.8405 -16.8405 -16.8400 -16.8400 -16.3703 -16.3703 -16.3698 -16.3698
   -15.1726 -15.1726 -15.1667 -15.1667 -14.7215 -14.7215 -14.7198 -14.7198
   -13.4423 -13.4423 -13.4276 -13.4276 -12.7664 -12.7664 -12.7430 -12.7430
   -11.3417 -11.3417 -11.3329 -11.3329 -11.1642 -11.1642 -11.1580 -11.1580
   -10.4580 -10.4580 -10.4572 -10.4572  -9.8907  -9.8907  -9.8592  -9.8592
    -9.3541  -9.3541  -9.3534  -9.3534  -9.2063  -9.2063  -9.1730  -9.1730
    -8.8390  -8.8390  -8.8291  -8.8291  -8.4101  -8.4101  -8.3922  -8.3922
    -7.4693  -7.4693  -7.4611  -7.4611  -6.9971  -6.9971  -6.9967  -6.9967
    -6.8136  -6.8136  -6.6597  -6.6597  -6.3010  -6.3010  -6.2460  -6.2460
    -6.0549  -6.0549  -6.0105  -6.0105  -5.9331  -5.9331  -5.8561  -5.8561
    -5.7596  -5.7596  -5.7329  -5.7329  -5.6371  -5.6371  -5.5465  -5.5465
    -5.3652  -5.3652  -5.3477  -5.3477  -4.9109  -4.9109  -4.9006  -4.9006
    -4.4581  -4.4581  -4.3954  -4.3954  -4.2013  -4.2013  -4.1921  -4.1921
    -4.1280  -4.1280  -4.1195  -4.1195  -4.0556  -4.0556  -4.0084  -4.0084
    -3.7888  -3.7888  -3.7244  -3.7244  -3.6032  -3.6032  -3.5585  -3.5585
    -3.3750  -3.3750  -3.3178  -3.3178  -3.2350  -3.2350  -3.2064  -3.2064
    -3.0538  -3.0538  -3.0429  -3.0429  -2.9207  -2.9207  -2.7180  -2.7180
    -2.6540  -2.6540  -2.6042  -2.6042  -2.4868  -2.4868  -2.4506  -2.4506
    -2.3626  -2.3626  -2.3389  -2.3389  -2.2196  -2.2196  -2.1993  -2.1993
    -1.4151  -1.4151  -1.3997  -1.3997  -1.0714  -1.0714  -0.9742  -0.9742
    -0.9300  -0.9300  -0.8809  -0.8809  -0.7393  -0.7393  -0.7338  -0.7338
    -0.5744  -0.5744  -0.5389  -0.5389  -0.3707  -0.3707  -0.2064  -0.2064
    -0.2025  -0.2025  -0.0898  -0.0898  -0.0518  -0.0518   0.0122   0.0122
     0.1355   0.1355   0.1538   0.1538   0.2858   0.2858   0.3076   0.3076
     0.4563   0.4563   0.4655   0.4655   0.9317   0.9317   0.9452   0.9452
     1.0186   1.0186   1.0290   1.0290   1.1932   1.1932   1.2031   1.2031
     3.4855   3.4855   3.5406   3.5406   4.1088   4.1088   4.1205   4.1205
     4.7563   4.7563   4.7886   4.7886   5.1186   5.1186   5.1286   5.1286
     5.3670   5.3670   5.4238   5.4238   6.0567   6.0567   6.0967   6.0967
     7.2634   7.2634   7.3267   7.3267   7.8513   7.8513   7.8850   7.8850
     8.0728   8.0728   8.1435   8.1435   8.3957   8.3957   8.4307   8.4307
     8.5971   8.5971   8.7815   8.7815   8.9482   8.9484

     highest occupied, lowest unoccupied level (ev):     1.2219    3.4201

!    total energy              =   -2349.38165008 Ry
     Harris-Foulkes estimate   =   -2349.38165008 Ry
     estimated scf accuracy    <          2.2E-09 Ry

     total all-electron energy =     -9045.836256 Ry

     The total energy is the sum of the following terms:

     one-electron contribution =   -1266.41725770 Ry
     hartree contribution      =     817.59200056 Ry
     xc contribution           =    -491.81656922 Ry
     ewald contribution        =    -711.13693267 Ry
     Dispersion Correction     =      -0.63460117 Ry
     one-center paw contrib.   =    -696.96828989 Ry

     convergence has been achieved in  19 iterations

     Forces acting on atoms (cartesian axes, Ry/au):

     atom    1 type  2   force =    -0.00019559    0.00018988   -0.00015280
     atom    2 type  2   force =     0.00019559    0.00018988    0.00015280
     atom    3 type  2   force =     0.00019559   -0.00018988    0.00015280
     atom    4 type  2   force =    -0.00019559   -0.00018988   -0.00015280
     atom    5 type  2   force =     0.00021602    0.00065625   -0.00139786
     atom    6 type  2   force =    -0.00021602    0.00065625    0.00139786
     atom    7 type  2   force =    -0.00021602   -0.00065625    0.00139786
     atom    8 type  2   force =     0.00021602   -0.00065625   -0.00139786
     atom    9 type  2   force =     0.00023680    0.00047771   -0.00053945
     atom   10 type  2   force =    -0.00023680    0.00047771    0.00053945
     atom   11 type  2   force =    -0.00023680   -0.00047771    0.00053945
     atom   12 type  2   force =     0.00023680   -0.00047771   -0.00053945
     atom   13 type  2   force =     0.00088906    0.00098346    0.00027750
     atom   14 type  2   force =    -0.00088906    0.00098346   -0.00027750
     atom   15 type  2   force =    -0.00088906   -0.00098346   -0.00027750
     atom   16 type  2   force =     0.00088906   -0.00098346    0.00027750
     atom   17 type  2   force =    -0.00025681   -0.00014305   -0.00012303
     atom   18 type  2   force =     0.00025681   -0.00014305    0.00012303
     atom   19 type  2   force =     0.00025681    0.00014305    0.00012303
     atom   20 type  2   force =    -0.00025681    0.00014305   -0.00012303
     atom   21 type  2   force =     0.00008152   -0.00127947   -0.00118456
     atom   22 type  2   force =    -0.00008152   -0.00127947    0.00118456
     atom   23 type  2   force =    -0.00008152    0.00127947    0.00118456
     atom   24 type  2   force =     0.00008152    0.00127947   -0.00118456
     atom   25 type  4   force =     0.00039753   -0.00030925   -0.00004386
     atom   26 type  4   force =    -0.00039753   -0.00030925    0.00004386
     atom   27 type  4   force =    -0.00039753    0.00030925    0.00004386
     atom   28 type  4   force =     0.00039753    0.00030925   -0.00004386
     atom   29 type  4   force =    -0.00039120   -0.00013911   -0.00026053
     atom   30 type  4   force =     0.00039120   -0.00013911    0.00026053
     atom   31 type  4   force =     0.00039120    0.00013911    0.00026053
     atom   32 type  4   force =    -0.00039120    0.00013911   -0.00026053
     atom   33 type  4   force =    -0.00040459   -0.00122426    0.00004921
     atom   34 type  4   force =     0.00040459   -0.00122426   -0.00004921
     atom   35 type  4   force =     0.00040459    0.00122426   -0.00004921
     atom   36 type  4   force =    -0.00040459    0.00122426    0.00004921
     atom   37 type  4   force =     0.00028201    0.00006140   -0.00037866
     atom   38 type  4   force =    -0.00028201    0.00006140    0.00037866
     atom   39 type  4   force =    -0.00028201   -0.00006140    0.00037866
     atom   40 type  4   force =     0.00028201   -0.00006140   -0.00037866
     atom   41 type  1   force =    -0.00050513   -0.00008496    0.00046277
     atom   42 type  1   force =     0.00050513   -0.00008496   -0.00046277
     atom   43 type  1   force =     0.00050513    0.00008496   -0.00046277
     atom   44 type  1   force =    -0.00050513    0.00008496    0.00046277
     atom   45 type  1   force =    -0.00073143   -0.00021842   -0.00034210
     atom   46 type  1   force =     0.00073143   -0.00021842    0.00034210
     atom   47 type  1   force =     0.00073143    0.00021842    0.00034210
     atom   48 type  1   force =    -0.00073143    0.00021842   -0.00034210
     atom   49 type  1   force =    -0.00052725    0.00128443    0.00097858
     atom   50 type  1   force =     0.00052725    0.00128443   -0.00097858
     atom   51 type  1   force =     0.00052725   -0.00128443   -0.00097858
     atom   52 type  1   force =    -0.00052725   -0.00128443    0.00097858
     atom   53 type  1   force =    -0.00000134   -0.00110189   -0.00017472
     atom   54 type  1   force =     0.00000134   -0.00110189    0.00017472
     atom   55 type  1   force =     0.00000134    0.00110189    0.00017472
     atom   56 type  1   force =    -0.00000134    0.00110189   -0.00017472
     atom   57 type  1   force =     0.00010194    0.00056089   -0.00066412
     atom   58 type  1   force =    -0.00010194    0.00056089    0.00066412
     atom   59 type  1   force =    -0.00010194   -0.00056089    0.00066412
     atom   60 type  1   force =     0.00010194   -0.00056089   -0.00066412
     atom   61 type  3   force =     0.00011507    0.00018345    0.00024572
     atom   62 type  3   force =    -0.00011507    0.00018345   -0.00024572
     atom   63 type  3   force =    -0.00011507   -0.00018345   -0.00024572
     atom   64 type  3   force =     0.00011507   -0.00018345    0.00024572
     atom   65 type  1   force =    -0.00012246    0.00045217    0.00034934
     atom   66 type  1   force =     0.00012246    0.00045217   -0.00034934
     atom   67 type  1   force =     0.00012246   -0.00045217   -0.00034934
     atom   68 type  1   force =    -0.00012246   -0.00045217    0.00034934
     atom   69 type  1   force =     0.00001339   -0.00054718    0.00084818
     atom   70 type  1   force =    -0.00001339   -0.00054718   -0.00084818
     atom   71 type  1   force =    -0.00001339    0.00054718   -0.00084818
     atom   72 type  1   force =     0.00001339    0.00054718    0.00084818
     atom   73 type  1   force =     0.00032262   -0.00136561    0.00131114
     atom   74 type  1   force =    -0.00032262   -0.00136561   -0.00131114
     atom   75 type  1   force =    -0.00032262    0.00136561   -0.00131114
     atom   76 type  1   force =     0.00032262    0.00136561    0.00131114
     atom   77 type  3   force =    -0.00012300    0.00014212   -0.00033191
     atom   78 type  3   force =     0.00012300    0.00014212    0.00033191
     atom   79 type  3   force =     0.00012300   -0.00014212    0.00033191
     atom   80 type  3   force =    -0.00012300   -0.00014212   -0.00033191
     atom   81 type  3   force =     0.00002330    0.00053750   -0.00028857
     atom   82 type  3   force =    -0.00002330    0.00053750    0.00028857
     atom   83 type  3   force =    -0.00002330   -0.00053750    0.00028857
     atom   84 type  3   force =     0.00002330   -0.00053750   -0.00028857
     atom   85 type  3   force =    -0.00079759    0.00141542    0.00016012
     atom   86 type  3   force =     0.00079759    0.00141542   -0.00016012
     atom   87 type  3   force =     0.00079759   -0.00141542   -0.00016012
     atom   88 type  3   force =    -0.00079759   -0.00141542    0.00016012
     atom   89 type  1   force =     0.00009814   -0.00007891    0.00035793
     atom   90 type  1   force =    -0.00009814   -0.00007891   -0.00035793
     atom   91 type  1   force =    -0.00009814    0.00007891   -0.00035793
     atom   92 type  1   force =     0.00009814    0.00007891    0.00035793
     atom   93 type  3   force =     0.00013946   -0.00017528   -0.00027551
     atom   94 type  3   force =    -0.00013946   -0.00017528    0.00027551
     atom   95 type  3   force =    -0.00013946    0.00017528    0.00027551
     atom   96 type  3   force =     0.00013946    0.00017528   -0.00027551
     atom   97 type  3   force =    -0.00018510   -0.00056010   -0.00030566
     atom   98 type  3   force =     0.00018510   -0.00056010    0.00030566
     atom   99 type  3   force =     0.00018510    0.00056010    0.00030566
     atom  100 type  3   force =    -0.00018510    0.00056010   -0.00030566
     atom  101 type  3   force =    -0.00003362    0.00028094   -0.00020680
     atom  102 type  3   force =     0.00003362    0.00028094    0.00020680
     atom  103 type  3   force =     0.00003362   -0.00028094    0.00020680
     atom  104 type  3   force =    -0.00003362   -0.00028094   -0.00020680
     atom  105 type  1   force =     0.00125992    0.00024986   -0.00038747
     atom  106 type  1   force =    -0.00125992    0.00024986    0.00038747
     atom  107 type  1   force =    -0.00125992   -0.00024986    0.00038747
     atom  108 type  1   force =     0.00125992   -0.00024986   -0.00038747
     atom  109 type  1   force =    -0.00094163   -0.00042905    0.00087383
     atom  110 type  1   force =     0.00094163   -0.00042905   -0.00087383
     atom  111 type  1   force =     0.00094163    0.00042905   -0.00087383
     atom  112 type  1   force =    -0.00094163    0.00042905    0.00087383
     atom  113 type  3   force =    -0.00009327   -0.00007683    0.00023273
     atom  114 type  3   force =     0.00009327   -0.00007683   -0.00023273
     atom  115 type  3   force =     0.00009327    0.00007683   -0.00023273
     atom  116 type  3   force =    -0.00009327    0.00007683    0.00023273
     atom  117 type  1   force =     0.00066490    0.00026515    0.00030624
     atom  118 type  1   force =    -0.00066490    0.00026515   -0.00030624
     atom  119 type  1   force =    -0.00066490   -0.00026515   -0.00030624
     atom  120 type  1   force =     0.00066490   -0.00026515    0.00030624
     atom  121 type  3   force =     0.00045879    0.00066781   -0.00018928
     atom  122 type  3   force =    -0.00045879    0.00066781    0.00018928
     atom  123 type  3   force =    -0.00045879   -0.00066781    0.00018928
     atom  124 type  3   force =     0.00045879   -0.00066781   -0.00018928
     atom  125 type  1   force =    -0.00065164   -0.00087483    0.00114034
     atom  126 type  1   force =     0.00065164   -0.00087483   -0.00114034
     atom  127 type  1   force =     0.00065164    0.00087483   -0.00114034
     atom  128 type  1   force =    -0.00065164    0.00087483    0.00114034
     atom  129 type  3   force =     0.00007678   -0.00034630   -0.00013831
     atom  130 type  3   force =    -0.00007678   -0.00034630    0.00013831
     atom  131 type  3   force =    -0.00007678    0.00034630    0.00013831
     atom  132 type  3   force =     0.00007678    0.00034630   -0.00013831

     Total force =     0.011551     Total SCF correction =     0.000108


     Computing stress (Cartesian axis) and pressure

          total   stress  (Ry/bohr**3)                   (kbar)     P=   -1.38
  -0.00001934   0.00000000  -0.00000597         -2.85      0.00     -0.88
   0.00000000   0.00000726   0.00000000          0.00      1.07      0.00
  -0.00000597   0.00000000  -0.00001598         -0.88      0.00     -2.35


     Writing output data file scf.save
 
     init_run     :    103.36s CPU    108.35s WALL (       1 calls)
     electrons    :   4317.23s CPU   4484.13s WALL (       1 calls)
     forces       :     48.96s CPU     49.35s WALL (       1 calls)
     stress       :    385.59s CPU    386.27s WALL (       1 calls)

     Called by init_run:
     wfcinit      :     86.04s CPU     90.10s WALL (       1 calls)
     potinit      :      6.07s CPU      6.22s WALL (       1 calls)

     Called by electrons:
     c_bands      :   3883.14s CPU   4027.34s WALL (      19 calls)
     sum_band     :    406.83s CPU    426.53s WALL (      19 calls)
     v_of_rho     :      4.07s CPU      4.40s WALL (      20 calls)
     newd         :     10.35s CPU     12.95s WALL (      20 calls)
     PAW_pot      :     11.66s CPU     11.69s WALL (      20 calls)
     mix_rho      :      1.15s CPU      1.25s WALL (      19 calls)

     Called by c_bands:
     init_us_2    :     21.92s CPU     21.99s WALL (     328 calls)
     cegterg      :   3789.81s CPU   3933.90s WALL (     152 calls)

     Called by sum_band:
     sum_band:bec :      0.20s CPU      0.20s WALL (     152 calls)
     addusdens    :     11.10s CPU     13.46s WALL (      19 calls)

     Called by *egterg:
     h_psi        :   2078.93s CPU   2191.52s WALL (     742 calls)
     s_psi        :    438.21s CPU    438.25s WALL (     742 calls)
     g_psi        :     12.21s CPU     12.21s WALL (     582 calls)
     cdiaghg      :    255.32s CPU    255.76s WALL (     734 calls)

     Called by h_psi:
     h_psi:pot    :   2064.89s CPU   2177.27s WALL (     742 calls)
     h_psi:calbec :    421.01s CPU    421.72s WALL (     742 calls)
     vloc_psi     :   1205.54s CPU   1317.16s WALL (     742 calls)
     add_vuspsi   :    438.34s CPU    438.39s WALL (     742 calls)

     General routines
     calbec       :    603.04s CPU    604.04s WALL (     934 calls)
     fft          :      3.62s CPU      4.68s WALL (     284 calls)
     fftw         :   1311.77s CPU   1439.94s WALL (  285116 calls)
 
     Parallel routines
     fft_scatter  :    286.90s CPU    414.73s WALL (  285400 calls)
 
     PWSCF        :     1h21m CPU        1h25m WALL

 
   This run was terminated on:   6:34:54   4Nov2017            

=------------------------------------------------------------------------------=
   JOB DONE.
=------------------------------------------------------------------------------=
