
     Program PWSCF v.6.1 (svn rev. 13369) starts on  4Nov2017 at 21:20:42 

     This program is part of the open-source Quantum ESPRESSO suite
     for quantum simulation of materials; please cite
         "P. Giannozzi et al., J. Phys.:Condens. Matter 21 395502 (2009);
          URL http://www.quantum-espresso.org", 
     in publications or presentations arising from this work. More details at
     http://www.quantum-espresso.org/quote

     Parallel version (MPI), running on     8 processors
     R & G space division:  proc/nbgrp/npool/nimage =       8
     Waiting for input...
     Reading input from standard input

     Current dimensions of program PWSCF are:
     Max number of different atomic species (ntypx) = 10
     Max number of k-points (npk) =  40000
     Max angular momentum in pseudopotentials (lmaxx) =  3
               file C.pbe-n-kjpaw_psl.0.1.UPF: wavefunction(s)  2P renormalized
               file N.pbe-n-kjpaw_psl.0.1.UPF: wavefunction(s)  2P renormalized
               file H.pbe-kjpaw_psl.0.1.UPF: wavefunction(s)  1S renormalized
               file O.pbe-n-kjpaw_psl.0.1.UPF: wavefunction(s)  2P renormalized

     -------------------------------------
     Parameters for Dispersion Correction:
     -------------------------------------
       atom      VdW radius       C_6     

        C          2.744         60.710
        N          2.640         42.670
        H          1.892          4.857
        O          2.536         24.284

     Subspace diagonalization in iterative solution of the eigenvalue problem:
     a serial algorithm will be used

 
     Parallelization info
     --------------------
     sticks:   dense  smooth     PW     G-vecs:    dense   smooth      PW
     Min         956     956    259               102485   102485   14477
     Max         957     957    260               102488   102488   14480
     Sum        7653    7653   2077               819891   819891  115827
 


     bravais-lattice index     =            0
     lattice parameter (alat)  =       8.5794  a.u.
     unit-cell volume          =    6069.9525 (a.u.)^3
     number of atoms/cell      =           92
     number of atomic types    =            4
     number of electrons       =       272.00
     number of Kohn-Sham states=          163
     kinetic-energy cutoff     =     100.0000  Ry
     charge density cutoff     =     400.0000  Ry
     convergence threshold     =      1.0E-08
     mixing beta               =       0.5000
     number of iterations used =            8  plain     mixing
     Exchange-correlation      =  SLA  PW   PBX  PBC ( 1  4  3  4 0 0)

     celldm(1)=   8.579357  celldm(2)=   0.000000  celldm(3)=   0.000000
     celldm(4)=   0.000000  celldm(5)=   0.000000  celldm(6)=   0.000000

     crystal axes: (cart. coord. in units of alat)
               a(1) = (   1.000000   0.000000   0.000000 )  
               a(2) = (   0.000000   3.262115   0.000000 )  
               a(3) = (  -0.296188   0.000000   2.946605 )  

     reciprocal axes: (cart. coord. in units 2 pi/alat)
               b(1) = (  1.000000  0.000000  0.100518 )  
               b(2) = (  0.000000  0.306550  0.000000 )  
               b(3) = (  0.000000  0.000000  0.339374 )  


     PseudoPot. # 1 for  C read from file:
     /scratch/ahofstet/pseudo/C.pbe-n-kjpaw_psl.0.1.UPF
     MD5 check sum: 430fe95172b1e11ef3f8ed03bac87931
     Pseudo is Projector augmented-wave + core cor, Zval =  4.0
     Generated using "atomic" code by A. Dal Corso  v.5.0.99 svn rev. 10869
     Shape of augmentation charge: BESSEL
     Using radial grid of 1073 points,  4 beta functions with: 
                l(1) =   0
                l(2) =   0
                l(3) =   1
                l(4) =   1
     Q(r) pseudized with 0 coefficients 


     PseudoPot. # 2 for  N read from file:
     /scratch/ahofstet/pseudo/N.pbe-n-kjpaw_psl.0.1.UPF
     MD5 check sum: f73187c8b701007e77325f868c9291d7
     Pseudo is Projector augmented-wave + core cor, Zval =  5.0
     Generated using "atomic" code by A. Dal Corso  v.5.0.99 svn rev. 10869
     Shape of augmentation charge: PSQ
     Using radial grid of 1085 points,  4 beta functions with: 
                l(1) =   0
                l(2) =   0
                l(3) =   1
                l(4) =   1
     Q(r) pseudized with 0 coefficients 


     PseudoPot. # 3 for  H read from file:
     /scratch/ahofstet/pseudo/H.pbe-kjpaw_psl.0.1.UPF
     MD5 check sum: 94e484f906d9e9773b2f6e52662335b2
     Pseudo is Projector augmented-wave, Zval =  1.0
     Generated using "atomic" code by A. Dal Corso  v.5.0.99 svn rev. 10869
     Shape of augmentation charge: PSQ
     Using radial grid of  929 points,  2 beta functions with: 
                l(1) =   0
                l(2) =   0
     Q(r) pseudized with 0 coefficients 


     PseudoPot. # 4 for  O read from file:
     /scratch/ahofstet/pseudo/O.pbe-n-kjpaw_psl.0.1.UPF
     MD5 check sum: 3f94a2996a3169367d6eb21d9b593f20
     Pseudo is Projector augmented-wave + core cor, Zval =  6.0
     Generated using "atomic" code by A. Dal Corso  v.5.0.99 svn rev. 10869
     Shape of augmentation charge: BESSEL
     Using radial grid of 1095 points,  4 beta functions with: 
                l(1) =   0
                l(2) =   0
                l(3) =   1
                l(4) =   1
     Q(r) pseudized with 0 coefficients 


     atomic species   valence    mass     pseudopotential
        C              4.00    12.01070      C( 1.00)
        N              5.00    14.00670      N( 1.00)
        H              1.00     1.00794      H( 1.00)
        O              6.00    15.99940      O( 1.00)

      2 Sym. Ops., with inversion, found



   Cartesian axes

     site n.     atom                  positions (alat units)
         1           N   tau(   1) = (   0.5510333   1.4105326   0.6403144  )
         2           N   tau(   2) = (   0.8005326   3.0416346   0.8326302  )
         3           N   tau(   3) = (   0.1527787   1.8515819   2.3062906  )
         4           N   tau(   4) = (  -0.0967206   0.2204800   2.1139748  )
         5           N   tau(   5) = (   0.6813415   1.0522827   0.3519674  )
         6           N   tau(   6) = (   0.6701423   2.6835607   1.1211534  )
         7           N   tau(   7) = (   0.0224705   2.2098318   2.5946376  )
         8           N   tau(   8) = (   0.0336697   0.5785538   1.8254516  )
         9           C   tau(   9) = (   0.7542527   1.1985525   0.6021059  )
        10           C   tau(  10) = (   0.5974563   2.8295213   0.8707875  )
        11           C   tau(  11) = (  -0.0504408   2.0635621   2.3444990  )
        12           C   tau(  12) = (   0.1063556   0.4325932   2.0758175  )
        13           C   tau(  13) = (   0.4335755   1.1723909   0.2321184  )
        14           C   tau(  14) = (  -0.0823383   2.8040139   1.2411881  )
        15           C   tau(  15) = (   0.2702365   2.0897237   2.7144866  )
        16           C   tau(  16) = (   0.7861503   0.4581006   1.7054169  )
        17           C   tau(  17) = (   0.3470964   1.3993882   0.4168555  )
        18           C   tau(  18) = (   1.0042593   3.0308411   1.0562633  )
        19           C   tau(  19) = (   0.3567156   1.8627264   2.5297495  )
        20           C   tau(  20) = (  -0.3004473   0.2312734   1.8903417  )
        21           C   tau(  21) = (   0.5424108   1.6248274   0.8836463  )
        22           C   tau(  22) = (   0.8091363   3.2560143   0.5893867  )
        23           C   tau(  23) = (   0.1614012   1.6372872   2.0629587  )
        24           C   tau(  24) = (  -0.1053243   0.0061003   2.3572182  )
        25           C   tau(  25) = (   0.2884105   1.5762180   1.0828339  )
        26           C   tau(  26) = (   1.0631783   3.2074627   0.3902487  )
        27           C   tau(  27) = (   0.4154015   1.6858965   1.8637711  )
        28           C   tau(  28) = (  -0.3593663   0.0546519   2.5563563  )
        29           C   tau(  29) = (   0.8441571   0.8000523   0.2443764  )
        30           C   tau(  30) = (  -0.4927984   2.4313780   1.2286681  )
        31           C   tau(  31) = (  -0.1403452   2.4620622   2.7022286  )
        32           C   tau(  32) = (   1.1966104   0.8307365   1.7179369  )
        33           H   tau(  33) = (   0.9191743   1.1180813   0.7572577  )
        34           H   tau(  34) = (   0.4328109   2.7486638   0.7155590  )
        35           H   tau(  35) = (  -0.2153623   2.1440333   2.1893473  )
        36           H   tau(  36) = (   0.2710011   0.5134507   2.2310460  )
        37           H   tau(  37) = (   0.3490691   1.1021253   0.0183943  )
        38           H   tau(  38) = (   0.0019840   2.7341236   1.4551173  )
        39           H   tau(  39) = (   0.3547429   2.1599892   2.9282107  )
        40           H   tau(  40) = (   0.7018279   0.5279909   1.4914877  )
        41           H   tau(  41) = (   0.1842015   1.5711129   0.3877661  )
        42           H   tau(  42) = (   0.1667571  -0.0591787   1.0855101  )
        43           H   tau(  43) = (   0.5196104   1.6910017   2.5588389  )
        44           H   tau(  44) = (   0.5370549   3.3212932   1.8610948  )
        45           H   tau(  45) = (   0.5464160   1.8458737   0.7848566  )
        46           H   tau(  46) = (   0.8052069   0.2148593   0.6883753  )
        47           H   tau(  47) = (   0.1573959   1.4162409   2.1617484  )
        48           H   tau(  48) = (  -0.1013949   3.0472552   2.2582296  )
        49           H   tau(  49) = (  -0.2399756   1.5991048   1.0046410  )
        50           H   tau(  50) = (   0.5915104   3.2305129   0.4683765  )
        51           H   tau(  51) = (   0.9437875   1.6630097   1.9419640  )
        52           H   tau(  52) = (   0.1123015   0.0316016   2.4782284  )
        53           H   tau(  53) = (   0.7684801   0.6035992   0.3632332  )
        54           H   tau(  54) = (  -0.4182851   2.2350165   1.1087925  )
        55           H   tau(  55) = (  -0.0646681   2.6585154   2.5833718  )
        56           H   tau(  56) = (   1.1220971   1.0270981   1.8378124  )
        57           H   tau(  57) = (   0.5151675   0.7793661   2.9523343  )
        58           H   tau(  58) = (   0.5411959   2.4098246   1.4669893  )
        59           H   tau(  59) = (   0.1886445   2.4827484  -0.0057293  )
        60           H   tau(  60) = (   0.1626161   0.8522899   1.4796157  )
        61           H   tau(  61) = (   1.0768090   0.8347597   0.2992521  )
        62           H   tau(  62) = (   0.2743236   2.4670904   1.1752389  )
        63           H   tau(  63) = (  -0.3729970   2.4273548   2.6473529  )
        64           H   tau(  64) = (   0.4294884   0.7950241   1.7713661  )
        65           H   tau(  65) = (   0.2845724   1.7466975   1.2541136  )
        66           H   tau(  66) = (   1.0669820   0.1158353   0.2189754  )
        67           H   tau(  67) = (   0.4192396   1.5154170   1.6924913  )
        68           H   tau(  68) = (  -0.3631701   3.1462792   2.7276296  )
        69           H   tau(  69) = (   0.2885526   1.3555677   1.1817151  )
        70           H   tau(  70) = (   1.0631260   2.9867738   0.2914421  )
        71           H   tau(  71) = (   0.4152594   1.9065468   1.7648898  )
        72           H   tau(  72) = (  -0.3593140   0.2753408   2.6551629  )
        73           H   tau(  73) = (   0.0738646   1.6047466   0.9576382  )
        74           H   tau(  74) = (   1.2776348  -0.0260727   0.5155765  )
        75           H   tau(  75) = (   0.6299474   1.6573680   1.9889667  )
        76           H   tau(  76) = (  -0.5738229   3.2881872   2.4310285  )
        77           N   tau(  77) = (   0.7428785   0.9762668   2.3548667  )
        78           N   tau(  78) = (   0.3132957   2.6076719   2.0648693  )
        79           N   tau(  79) = (  -0.0390666   2.2858477   0.5917383  )
        80           N   tau(  80) = (   0.3905162   0.6544427   0.8817357  )
        81           O   tau(  81) = (   0.6888521   1.0937449   2.1080269  )
        82           O   tau(  82) = (   0.3673028   2.7252856   2.3116597  )
        83           O   tau(  83) = (   0.0149599   2.1683696   0.8385781  )
        84           O   tau(  84) = (   0.3365091   0.5368289   0.6349453  )
        85           O   tau(  85) = (   0.5847101   0.7639183   2.4452387  )
        86           O   tau(  86) = (   0.4716030   2.3954056   1.9745512  )
        87           O   tau(  87) = (   0.1191019   2.4981963   0.5013663  )
        88           O   tau(  88) = (   0.2322090   0.8667089   0.9720538  )
        89           O   tau(  89) = (   0.9548700   1.0699637   2.5100937  )
        90           O   tau(  90) = (   0.1012289   2.7012228   1.9096706  )
        91           O   tau(  91) = (  -0.2510581   2.1921509   0.4365112  )
        92           O   tau(  92) = (   0.6025830   0.5608918   1.0369344  )

     number of k points=    12
                       cart. coord. in units 2pi/alat
        k(    1) = (   0.0000000   0.0000000   0.0000000), wk =   0.1250000
        k(    2) = (   0.0000000   0.0000000  -0.1696868), wk =   0.1250000
        k(    3) = (   0.0000000  -0.1532748   0.0000000), wk =   0.1250000
        k(    4) = (   0.0000000  -0.1532748  -0.1696868), wk =   0.1250000
        k(    5) = (   0.2500000   0.0000000   0.0251296), wk =   0.2500000
        k(    6) = (   0.2500000   0.0000000  -0.1445572), wk =   0.2500000
        k(    7) = (   0.2500000  -0.1532748   0.0251296), wk =   0.2500000
        k(    8) = (   0.2500000  -0.1532748  -0.1445572), wk =   0.2500000
        k(    9) = (  -0.5000000   0.0000000  -0.0502592), wk =   0.1250000
        k(   10) = (  -0.5000000   0.0000000  -0.2199460), wk =   0.1250000
        k(   11) = (  -0.5000000  -0.1532748  -0.0502592), wk =   0.1250000
        k(   12) = (  -0.5000000  -0.1532748  -0.2199460), wk =   0.1250000

     Dense  grid:   819891 G-vectors     FFT dimensions: (  60, 180, 162)

     Estimated max dynamical RAM per process >     836.92MB

     Estimated total allocated dynamical RAM >    6695.34MB

     Check: negative/imaginary core charge=   -0.000002    0.000000

     Initial potential from superposition of free atoms

     starting charge  271.99848, renormalised to  272.00000
     Starting wfc are  236 randomized atomic wfcs
     Checking if some PAW data can be deallocated... 

     total cpu time spent up to now is       50.7 secs

     per-process dynamical memory:   650.3 Mb

     Self-consistent Calculation

     iteration #  1     ecut=   100.00 Ry     beta=0.50
     Davidson diagonalization with overlap
     ethr =  1.00E-02,  avg # of iterations =  5.2

     total cpu time spent up to now is      186.8 secs

     total energy              =   -1330.68175396 Ry
     Harris-Foulkes estimate   =   -1335.46310197 Ry
     estimated scf accuracy    <       9.05352266 Ry

     iteration #  2     ecut=   100.00 Ry     beta=0.50
     Davidson diagonalization with overlap
     ethr =  3.33E-03,  avg # of iterations =  3.0

     total cpu time spent up to now is      271.1 secs

     total energy              =   -1331.73789984 Ry
     Harris-Foulkes estimate   =   -1332.53259426 Ry
     estimated scf accuracy    <       1.68089211 Ry

     iteration #  3     ecut=   100.00 Ry     beta=0.50
     Davidson diagonalization with overlap
     ethr =  6.18E-04,  avg # of iterations =  6.1

     total cpu time spent up to now is      406.1 secs

     total energy              =   -1332.36722462 Ry
     Harris-Foulkes estimate   =   -1332.58148359 Ry
     estimated scf accuracy    <       0.53936482 Ry

     iteration #  4     ecut=   100.00 Ry     beta=0.50
     Davidson diagonalization with overlap
     ethr =  1.98E-04,  avg # of iterations =  2.2

     total cpu time spent up to now is      477.4 secs

     total energy              =   -1332.35219657 Ry
     Harris-Foulkes estimate   =   -1332.40978916 Ry
     estimated scf accuracy    <       0.10534154 Ry

     iteration #  5     ecut=   100.00 Ry     beta=0.50
     Davidson diagonalization with overlap
     ethr =  3.87E-05,  avg # of iterations =  6.1

     total cpu time spent up to now is      622.8 secs

     total energy              =   -1332.42669235 Ry
     Harris-Foulkes estimate   =   -1332.48847757 Ry
     estimated scf accuracy    <       0.19225350 Ry

     iteration #  6     ecut=   100.00 Ry     beta=0.50
     Davidson diagonalization with overlap
     ethr =  3.87E-05,  avg # of iterations =  1.2

     total cpu time spent up to now is      690.7 secs

     total energy              =   -1332.40596715 Ry
     Harris-Foulkes estimate   =   -1332.43217322 Ry
     estimated scf accuracy    <       0.08029998 Ry

     iteration #  7     ecut=   100.00 Ry     beta=0.50
     Davidson diagonalization with overlap
     ethr =  2.95E-05,  avg # of iterations =  3.1

     total cpu time spent up to now is      778.8 secs

     total energy              =   -1332.42463159 Ry
     Harris-Foulkes estimate   =   -1332.42612523 Ry
     estimated scf accuracy    <       0.00312842 Ry

     iteration #  8     ecut=   100.00 Ry     beta=0.50
     Davidson diagonalization with overlap
     ethr =  1.15E-06,  avg # of iterations =  7.4

     total cpu time spent up to now is      933.1 secs

     total energy              =   -1332.42637117 Ry
     Harris-Foulkes estimate   =   -1332.42661553 Ry
     estimated scf accuracy    <       0.00058141 Ry

     iteration #  9     ecut=   100.00 Ry     beta=0.50
     Davidson diagonalization with overlap
     ethr =  2.14E-07,  avg # of iterations =  3.6

     total cpu time spent up to now is     1010.8 secs

     total energy              =   -1332.42645164 Ry
     Harris-Foulkes estimate   =   -1332.42646221 Ry
     estimated scf accuracy    <       0.00003669 Ry

     iteration # 10     ecut=   100.00 Ry     beta=0.50
     Davidson diagonalization with overlap
     ethr =  1.35E-08,  avg # of iterations =  4.0

     total cpu time spent up to now is     1145.4 secs

     total energy              =   -1332.42650052 Ry
     Harris-Foulkes estimate   =   -1332.42651547 Ry
     estimated scf accuracy    <       0.00005895 Ry

     iteration # 11     ecut=   100.00 Ry     beta=0.50
     Davidson diagonalization with overlap
     ethr =  1.35E-08,  avg # of iterations =  2.0

     total cpu time spent up to now is     1216.1 secs

     total energy              =   -1332.42649229 Ry
     Harris-Foulkes estimate   =   -1332.42650330 Ry
     estimated scf accuracy    <       0.00002833 Ry

     iteration # 12     ecut=   100.00 Ry     beta=0.50
     Davidson diagonalization with overlap
     ethr =  1.04E-08,  avg # of iterations =  3.0

     total cpu time spent up to now is     1305.7 secs

     total energy              =   -1332.42649806 Ry
     Harris-Foulkes estimate   =   -1332.42649865 Ry
     estimated scf accuracy    <       0.00000159 Ry

     iteration # 13     ecut=   100.00 Ry     beta=0.50
     Davidson diagonalization with overlap
     ethr =  5.84E-10,  avg # of iterations =  4.0

     total cpu time spent up to now is     1398.0 secs

     total energy              =   -1332.42649837 Ry
     Harris-Foulkes estimate   =   -1332.42649848 Ry
     estimated scf accuracy    <       0.00000022 Ry

     iteration # 14     ecut=   100.00 Ry     beta=0.50
     Davidson diagonalization with overlap
     ethr =  8.17E-11,  avg # of iterations =  4.0

     total cpu time spent up to now is     1522.3 secs

     total energy              =   -1332.42649851 Ry
     Harris-Foulkes estimate   =   -1332.42649856 Ry
     estimated scf accuracy    <       0.00000018 Ry

     iteration # 15     ecut=   100.00 Ry     beta=0.50
     Davidson diagonalization with overlap
     ethr =  6.50E-11,  avg # of iterations =  1.6

     total cpu time spent up to now is     1591.2 secs

     total energy              =   -1332.42649848 Ry
     Harris-Foulkes estimate   =   -1332.42649852 Ry
     estimated scf accuracy    <       0.00000009 Ry

     iteration # 16     ecut=   100.00 Ry     beta=0.50
     Davidson diagonalization with overlap
     ethr =  3.46E-11,  avg # of iterations =  3.2

     total cpu time spent up to now is     1679.7 secs

     End of self-consistent calculation

          k = 0.0000 0.0000 0.0000 (102569 PWs)   bands (ev):

   -24.3989 -24.3989 -24.3982 -24.3982 -21.1060 -21.1054 -21.1043 -21.1038
   -18.8890 -18.8880 -18.8867 -18.8865 -18.8808 -18.8807 -18.8798 -18.8794
   -18.1452 -18.1450 -18.1432 -18.1425 -14.2795 -14.2546 -14.2503 -14.2334
   -13.4670 -13.4639 -13.4441 -13.4423 -12.2908 -12.2424 -12.2213 -12.1986
   -10.6394 -10.6281 -10.5930 -10.5787  -9.7760  -9.7592  -9.7213  -9.6916
    -9.3045  -9.2695  -9.2285  -9.2179  -8.5018  -8.4505  -8.4043  -8.3512
    -7.7402  -7.7000  -7.6082  -7.5262  -6.9522  -6.8804  -6.8723  -6.8357
    -6.4356  -6.4263  -6.3779  -6.2976  -6.2924  -6.2887  -6.2219  -6.1962
    -6.1503  -6.1228  -6.0768  -6.0684  -5.9380  -5.8452  -5.8452  -5.8200
    -5.7419  -5.6622  -5.6526  -5.6127  -5.5479  -5.5003  -5.4501  -5.4354
    -5.0290  -4.9926  -4.9818  -4.9745  -4.9445  -4.9323  -4.9299  -4.9045
    -4.3910  -4.3596  -4.3207  -4.2828  -4.2099  -4.1940  -4.1036  -4.0635
    -3.9016  -3.8865  -3.8132  -3.7637  -3.6590  -3.6520  -3.4308  -3.3915
    -3.1687  -3.0537  -3.0394  -2.9342  -1.8915  -1.8145  -1.6919  -1.6239
    -1.1974  -1.1573  -1.0919  -1.0878  -0.9545  -0.9217  -0.8774  -0.8692
    -0.8246  -0.8208  -0.8168  -0.8076  -0.7988  -0.7919  -0.7566  -0.7482
    -0.5457  -0.5412  -0.5276  -0.5140   0.8885   0.9065   0.9185   0.9280
     4.3391   4.4583   4.4876   4.5272   4.5379   4.5746   4.5975   4.6158
     5.1153   5.1381   5.2072   5.2875   5.7609   5.8336   5.9541   6.0310
     6.5124   6.6650   6.9374   7.0165   7.2913   7.4414   7.4924   7.4963
     7.6900   7.9697   8.0013

          k = 0.0000 0.0000-0.1697 (102562 PWs)   bands (ev):

   -24.3989 -24.3989 -24.3982 -24.3982 -21.1059 -21.1054 -21.1043 -21.1038
   -18.8882 -18.8880 -18.8870 -18.8868 -18.8808 -18.8808 -18.8796 -18.8796
   -18.1453 -18.1443 -18.1437 -18.1427 -14.2697 -14.2688 -14.2403 -14.2393
   -13.4582 -13.4568 -13.4518 -13.4504 -12.2734 -12.2724 -12.2041 -12.2030
   -10.6387 -10.6361 -10.5831 -10.5801  -9.7637  -9.7630  -9.7143  -9.7132
    -9.2666  -9.2638  -9.2465  -9.2439  -8.4522  -8.4522  -8.4005  -8.4003
    -7.7211  -7.7211  -7.5681  -7.5679  -6.9121  -6.9120  -6.8555  -6.8553
    -6.4328  -6.4325  -6.3318  -6.3315  -6.2549  -6.2539  -6.2487  -6.2479
    -6.1449  -6.1447  -6.0707  -6.0704  -5.8941  -5.8928  -5.8225  -5.8212
    -5.7207  -5.7205  -5.6256  -5.6255  -5.5201  -5.5200  -5.4384  -5.4381
    -5.0143  -5.0130  -4.9708  -4.9683  -4.9583  -4.9573  -4.9115  -4.9114
    -4.3520  -4.3502  -4.3253  -4.3230  -4.2038  -4.2024  -4.0875  -4.0869
    -3.8554  -3.8553  -3.7768  -3.7755  -3.7031  -3.7007  -3.4051  -3.4025
    -3.1320  -3.1313  -2.9710  -2.9695  -1.8535  -1.8531  -1.6569  -1.6568
    -1.1822  -1.1786  -1.0891  -1.0854  -0.9128  -0.9117  -0.8913  -0.8904
    -0.8333  -0.8329  -0.8086  -0.8083  -0.7966  -0.7964  -0.7533  -0.7532
    -0.5365  -0.5363  -0.5258  -0.5257   0.9032   0.9033   0.9177   0.9178
     4.3986   4.4002   4.4812   4.4849   4.5764   4.5767   4.6090   4.6107
     5.0967   5.0972   5.2746   5.2766   5.8525   5.8540   5.9257   5.9263
     6.5914   6.5925   7.0069   7.0086   7.3252   7.3256   7.5657   7.5664
     7.7736   7.7749   7.8806

          k = 0.0000-0.1533 0.0000 (102474 PWs)   bands (ev):

   -24.3989 -24.3989 -24.3982 -24.3982 -21.1059 -21.1054 -21.1043 -21.1038
   -18.8885 -18.8884 -18.8866 -18.8866 -18.8806 -18.8805 -18.8799 -18.8799
   -18.1453 -18.1450 -18.1430 -18.1427 -14.2661 -14.2643 -14.2448 -14.2430
   -13.4662 -13.4648 -13.4440 -13.4424 -12.2585 -12.2569 -12.2198 -12.2180
   -10.6350 -10.6323 -10.5872 -10.5842  -9.7695  -9.7693  -9.7045  -9.7041
    -9.2903  -9.2868  -9.2233  -9.2196  -8.4782  -8.4780  -8.3819  -8.3816
    -7.6767  -7.6758  -7.6101  -7.6090  -6.9167  -6.9164  -6.8505  -6.8502
    -6.4120  -6.4107  -6.3614  -6.3598  -6.2924  -6.2924  -6.2091  -6.2088
    -6.1220  -6.1220  -6.0999  -6.0996  -5.8819  -5.8802  -5.8256  -5.8237
    -5.7029  -5.7018  -5.6378  -5.6365  -5.5001  -5.4993  -5.4645  -5.4639
    -5.0186  -5.0165  -4.9703  -4.9692  -4.9481  -4.9454  -4.9112  -4.9098
    -4.3794  -4.3778  -4.2997  -4.2975  -4.2046  -4.2034  -4.0769  -4.0762
    -3.8950  -3.8947  -3.7783  -3.7774  -3.6734  -3.6711  -3.4014  -3.3987
    -3.1197  -3.1183  -2.9982  -2.9960  -1.7875  -1.7873  -1.7159  -1.7155
    -1.1813  -1.1776  -1.0898  -1.0859  -0.9360  -0.9358  -0.8734  -0.8734
    -0.8263  -0.8260  -0.8102  -0.8100  -0.7769  -0.7763  -0.7680  -0.7676
    -0.5445  -0.5445  -0.5211  -0.5211   0.8973   0.8975   0.9235   0.9236
     4.4006   4.4014   4.4933   4.4942   4.5512   4.5521   4.6176   4.6178
     5.1219   5.1222   5.2634   5.2654   5.8296   5.8320   5.9158   5.9179
     6.6528   6.6543   6.9355   6.9376   7.3196   7.3212   7.5975   7.5991
     7.7926   7.7937   7.9834

          k = 0.0000-0.1533-0.1697 (102508 PWs)   bands (ev):

   -24.3989 -24.3989 -24.3982 -24.3982 -21.1059 -21.1054 -21.1043 -21.1038
   -18.8880 -18.8879 -18.8870 -18.8869 -18.8806 -18.8805 -18.8800 -18.8799
   -18.1453 -18.1442 -18.1437 -18.1427 -14.2631 -14.2613 -14.2480 -14.2461
   -13.4581 -13.4567 -13.4520 -13.4506 -12.2587 -12.2570 -12.2196 -12.2177
   -10.6380 -10.6353 -10.5836 -10.5806  -9.7611  -9.7603  -9.7167  -9.7156
    -9.2644  -9.2605  -9.2497  -9.2460  -8.4314  -8.4310  -8.4273  -8.4268
    -7.6555  -7.6529  -7.6348  -7.6320  -6.8866  -6.8858  -6.8791  -6.8784
    -6.3917  -6.3902  -6.3787  -6.3771  -6.2540  -6.2529  -6.2522  -6.2511
    -6.1171  -6.1166  -6.1060  -6.1055  -5.8722  -5.8702  -5.8299  -5.8278
    -5.6950  -5.6933  -5.6620  -5.6599  -5.4808  -5.4794  -5.4710  -5.4700
    -5.0031  -5.0012  -4.9909  -4.9881  -4.9455  -4.9427  -4.9184  -4.9173
    -4.3514  -4.3495  -4.3254  -4.3230  -4.2047  -4.2032  -4.0763  -4.0756
    -3.8675  -3.8671  -3.7789  -3.7778  -3.6879  -3.6852  -3.4110  -3.4085
    -3.1185  -3.1170  -2.9996  -2.9974  -1.7524  -1.7523  -1.7507  -1.7502
    -1.1769  -1.1730  -1.0958  -1.0921  -0.9068  -0.9055  -0.8938  -0.8927
    -0.8246  -0.8243  -0.8193  -0.8189  -0.7753  -0.7748  -0.7714  -0.7709
    -0.5329  -0.5326  -0.5305  -0.5303   0.9080   0.9088   0.9123   0.9131
     4.4319   4.4335   4.4484   4.4517   4.5793   4.5810   4.5973   4.5990
     5.1025   5.1032   5.2884   5.2906   5.8477   5.8504   5.8961   5.8979
     6.6727   6.6744   6.9033   6.9053   7.3427   7.3435   7.6169   7.6181
     7.7445   7.7471   8.0582

          k = 0.2500 0.0000 0.0251 (102484 PWs)   bands (ev):

   -24.3938 -24.3937 -24.3930 -24.3930 -21.0854 -21.0848 -21.0838 -21.0833
   -18.9020 -18.9018 -18.9015 -18.9013 -18.8796 -18.8786 -18.8773 -18.8766
   -18.1327 -18.1321 -18.1304 -18.1300 -14.2848 -14.2710 -14.2565 -14.2495
   -13.5375 -13.5296 -13.5124 -13.5090 -12.2770 -12.2399 -12.2071 -12.1903
   -10.7411 -10.7255 -10.6797 -10.6744  -9.7292  -9.6910  -9.6819  -9.6600
    -9.2906  -9.2493  -9.2478  -9.2292  -8.4379  -8.3937  -8.3676  -8.3301
    -7.8341  -7.8164  -7.7092  -7.7001  -6.9457  -6.8920  -6.8906  -6.8696
    -6.4558  -6.4382  -6.4085  -6.3856  -6.3729  -6.3289  -6.2958  -6.2887
    -6.1972  -6.1906  -6.1688  -6.0632  -6.0510  -6.0433  -5.9483  -5.9203
    -5.8047  -5.6919  -5.6222  -5.5685  -5.5583  -5.5418  -5.5121  -5.4993
    -5.3987  -5.3933  -5.2841  -5.2810  -4.9790  -4.9404  -4.8939  -4.8611
    -4.6450  -4.6108  -4.5090  -4.4983  -3.9518  -3.9495  -3.9052  -3.8458
    -3.6806  -3.6482  -3.5384  -3.4848  -3.3115  -3.2877  -3.2256  -3.1750
    -2.4968  -2.4835  -2.3974  -2.3842  -1.7932  -1.7504  -1.5873  -1.5517
    -0.9777  -0.9576  -0.9461  -0.9368  -0.8726  -0.8662  -0.8285  -0.8248
    -0.7507  -0.7373  -0.7061  -0.7045  -0.6422  -0.6244  -0.6085  -0.5812
    -0.4857  -0.4780  -0.4698  -0.4476   0.9109   0.9221   0.9256   0.9310
     4.1467   4.2182   4.2373   4.2616   4.4058   4.4492   4.4685   4.4945
     4.9845   4.9951   5.2179   5.2198   5.8731   5.9299   5.9981   6.0327
     6.6457   6.6729   6.9429   7.0186   7.1157   7.1713   7.3656   7.4848
     7.5231   7.6878   7.7720

          k = 0.2500 0.0000-0.1446 (102529 PWs)   bands (ev):

   -24.3938 -24.3937 -24.3930 -24.3930 -21.0854 -21.0848 -21.0838 -21.0833
   -18.9020 -18.9018 -18.9016 -18.9012 -18.8791 -18.8790 -18.8771 -18.8770
   -18.1327 -18.1321 -18.1306 -18.1299 -14.2811 -14.2735 -14.2549 -14.2525
   -13.5309 -13.5286 -13.5155 -13.5134 -12.2740 -12.2480 -12.2009 -12.1911
   -10.7391 -10.7300 -10.6770 -10.6737  -9.7283  -9.7075  -9.6762  -9.6530
    -9.2782  -9.2591  -9.2524  -9.2254  -8.4424  -8.4010  -8.3642  -8.3217
    -7.8331  -7.8102  -7.7441  -7.6701  -6.9252  -6.9175  -6.8807  -6.8779
    -6.4699  -6.4352  -6.4235  -6.4058  -6.3253  -6.3061  -6.2959  -6.2889
    -6.2356  -6.1830  -6.1426  -6.0891  -6.0493  -6.0382  -5.9416  -5.9306
    -5.7458  -5.7407  -5.6030  -5.5851  -5.5596  -5.5526  -5.5165  -5.4901
    -5.4104  -5.3877  -5.2939  -5.2691  -4.9980  -4.9131  -4.8810  -4.8725
    -4.6840  -4.6244  -4.4950  -4.4631  -3.9491  -3.9335  -3.8956  -3.8685
    -3.6990  -3.6660  -3.5092  -3.4756  -3.3217  -3.2795  -3.2309  -3.1753
    -2.5084  -2.4612  -2.4149  -2.3817  -1.7962  -1.7453  -1.5863  -1.5539
    -1.0050  -0.9809  -0.9177  -0.9047  -0.8831  -0.8575  -0.8268  -0.8175
    -0.7671  -0.7436  -0.7189  -0.7050  -0.6310  -0.6179  -0.6036  -0.5790
    -0.4943  -0.4767  -0.4728  -0.4429   0.9019   0.9178   0.9314   0.9383
     4.1640   4.1743   4.2590   4.2724   4.4141   4.4243   4.4606   4.5115
     4.9682   5.0307   5.1908   5.2267   5.8388   5.8913   6.0263   6.1429
     6.5473   6.6737   6.9573   6.9710   7.1006   7.2721   7.3800   7.4632
     7.5538   7.6626   7.7018

          k = 0.2500-0.1533 0.0251 (102496 PWs)   bands (ev):

   -24.3938 -24.3938 -24.3930 -24.3930 -21.0854 -21.0848 -21.0838 -21.0833
   -18.9020 -18.9018 -18.9015 -18.9013 -18.8789 -18.8788 -18.8773 -18.8772
   -18.1322 -18.1321 -18.1305 -18.1304 -14.2744 -14.2726 -14.2584 -14.2565
   -13.5348 -13.5326 -13.5118 -13.5096 -12.2482 -12.2465 -12.2107 -12.2089
   -10.7344 -10.7319 -10.6783 -10.6756  -9.7136  -9.7129  -9.6680  -9.6671
    -9.2772  -9.2757  -9.2340  -9.2322  -8.4046  -8.4043  -8.3628  -8.3623
    -7.7899  -7.7879  -7.7415  -7.7393  -6.9175  -6.9172  -6.8776  -6.8774
    -6.4277  -6.4273  -6.3930  -6.3923  -6.3719  -6.3707  -6.3187  -6.3185
    -6.2045  -6.2036  -6.0922  -6.0918  -6.0425  -6.0411  -5.9427  -5.9414
    -5.7119  -5.7113  -5.6212  -5.6200  -5.5443  -5.5435  -5.5209  -5.5204
    -5.3514  -5.3492  -5.3337  -5.3313  -4.9480  -4.9464  -4.8824  -4.8804
    -4.6337  -4.6317  -4.4986  -4.4961  -3.9400  -3.9389  -3.8772  -3.8763
    -3.6723  -3.6702  -3.5083  -3.5050  -3.2929  -3.2920  -3.2185  -3.2170
    -2.4912  -2.4886  -2.4021  -2.3995  -1.6881  -1.6870  -1.6439  -1.6427
    -0.9640  -0.9631  -0.9426  -0.9419  -0.8746  -0.8744  -0.8073  -0.8070
    -0.7573  -0.7564  -0.7104  -0.7099  -0.6298  -0.6296  -0.5982  -0.5974
    -0.4816  -0.4816  -0.4572  -0.4566   0.9173   0.9177   0.9272   0.9276
     4.1840   4.1845   4.2450   4.2458   4.4262   4.4264   4.4823   4.4830
     4.9949   4.9954   5.2127   5.2133   5.8924   5.8942   6.0372   6.0387
     6.6334   6.6346   6.9624   6.9641   7.1741   7.1762   7.4794   7.4820
     7.5530   7.5543   7.8281

          k = 0.2500-0.1533-0.1446 (102488 PWs)   bands (ev):

   -24.3937 -24.3937 -24.3930 -24.3930 -21.0854 -21.0848 -21.0838 -21.0833
   -18.9020 -18.9018 -18.9015 -18.9013 -18.8787 -18.8785 -18.8776 -18.8774
   -18.1324 -18.1318 -18.1309 -18.1302 -14.2715 -14.2697 -14.2614 -14.2596
   -13.5304 -13.5282 -13.5162 -13.5139 -12.2494 -12.2477 -12.2095 -12.2076
   -10.7353 -10.7329 -10.6769 -10.6741  -9.7171  -9.7162  -9.6662  -9.6650
    -9.2729  -9.2711  -9.2378  -9.2358  -8.4110  -8.4107  -8.3562  -8.3556
    -7.7966  -7.7948  -7.7336  -7.7316  -6.9045  -6.9041  -6.8928  -6.8925
    -6.4405  -6.4403  -6.4021  -6.4015  -6.3555  -6.3547  -6.3029  -6.3024
    -6.2085  -6.2083  -6.1037  -6.1037  -6.0341  -6.0324  -5.9407  -5.9395
    -5.6896  -5.6880  -5.6518  -5.6496  -5.5465  -5.5455  -5.5146  -5.5136
    -5.3565  -5.3551  -5.3298  -5.3287  -4.9610  -4.9595  -4.8656  -4.8634
    -4.6530  -4.6511  -4.4811  -4.4786  -3.9278  -3.9268  -3.8856  -3.8848
    -3.6806  -3.6784  -3.5029  -3.4998  -3.2924  -3.2915  -3.2184  -3.2170
    -2.4888  -2.4862  -2.4067  -2.4041  -1.6869  -1.6858  -1.6446  -1.6434
    -0.9942  -0.9939  -0.9064  -0.9059  -0.8621  -0.8619  -0.8314  -0.8313
    -0.7487  -0.7480  -0.7177  -0.7169  -0.6289  -0.6289  -0.5920  -0.5917
    -0.4857  -0.4854  -0.4552  -0.4547   0.9095   0.9097   0.9351   0.9353
     4.1805   4.1811   4.2476   4.2482   4.4355   4.4359   4.4723   4.4731
     5.0021   5.0026   5.2048   5.2055   5.8719   5.8740   6.0797   6.0811
     6.5975   6.5995   6.9819   6.9835   7.1813   7.1824   7.4460   7.4480
     7.5519   7.5540   7.8131

          k =-0.5000 0.0000-0.0503 (102416 PWs)   bands (ev):

   -24.3886 -24.3886 -24.3878 -24.3878 -21.0645 -21.0639 -21.0630 -21.0624
   -18.9172 -18.9170 -18.9167 -18.9165 -18.8755 -18.8755 -18.8743 -18.8743
   -18.1201 -18.1200 -18.1178 -18.1176 -14.3063 -14.3053 -14.2856 -14.2845
   -13.5736 -13.5712 -13.5477 -13.5451 -12.2350 -12.2341 -12.1692 -12.1681
   -10.8975 -10.8950 -10.8356 -10.8327  -9.6832  -9.6824  -9.6397  -9.6386
    -9.1716  -9.1705  -9.1598  -9.1584  -8.4122  -8.4117  -8.3161  -8.3154
    -7.9308  -7.9302  -7.8338  -7.8329  -7.0102  -7.0102  -6.9643  -6.9641
    -6.5159  -6.5156  -6.4768  -6.4758  -6.3538  -6.3535  -6.3242  -6.3238
    -6.2394  -6.2387  -6.1487  -6.1485  -6.1022  -6.1010  -5.9823  -5.9820
    -5.7777  -5.7775  -5.6342  -5.6333  -5.5606  -5.5590  -5.5289  -5.5279
    -5.4773  -5.4769  -5.4018  -5.4018  -4.9049  -4.9039  -4.7373  -4.7372
    -4.7229  -4.7229  -4.6913  -4.6893  -3.9062  -3.9057  -3.8706  -3.8704
    -3.7387  -3.7363  -3.4946  -3.4911  -3.2788  -3.2785  -3.1384  -3.1372
    -1.6275  -1.6271  -1.5516  -1.5492  -1.4725  -1.4708  -1.3679  -1.3672
    -0.9531  -0.9529  -0.9298  -0.9297  -0.8335  -0.8332  -0.7629  -0.7624
    -0.6405  -0.6403  -0.6258  -0.6258  -0.4535  -0.4535  -0.4311  -0.4310
    -0.2771  -0.2766  -0.1735  -0.1725   0.9315   0.9318   0.9334   0.9337
     3.8675   3.8681   3.9242   3.9248   4.2870   4.2871   4.3234   4.3234
     4.9571   4.9592   5.1995   5.2009   6.0732   6.0752   6.1684   6.1694
     6.5681   6.5699   6.7809   6.7848   6.9123   6.9124   6.9985   6.9993
     7.1327   7.1386   7.4511

          k =-0.5000 0.0000-0.2199 (102442 PWs)   bands (ev):

   -24.3886 -24.3886 -24.3878 -24.3878 -21.0644 -21.0639 -21.0630 -21.0624
   -18.9173 -18.9168 -18.9167 -18.9165 -18.8755 -18.8755 -18.8743 -18.8743
   -18.1203 -18.1199 -18.1181 -18.1173 -14.3073 -14.3013 -14.2879 -14.2854
   -13.5743 -13.5635 -13.5546 -13.5451 -12.2545 -12.2030 -12.1870 -12.1618
   -10.8982 -10.8893 -10.8391 -10.8341  -9.6846  -9.6824  -9.6633  -9.6140
    -9.1832  -9.1721  -9.1607  -9.1436  -8.4190  -8.3817  -8.3749  -8.2775
    -7.9683  -7.8812  -7.8687  -7.8119  -7.0154  -6.9976  -6.9685  -6.9584
    -6.5548  -6.5147  -6.4563  -6.4310  -6.3918  -6.3808  -6.3151  -6.3095
    -6.2540  -6.1873  -6.1665  -6.1372  -6.1167  -6.0847  -6.0803  -5.9212
    -5.7846  -5.7533  -5.6517  -5.6253  -5.5617  -5.5467  -5.5444  -5.5311
    -5.4900  -5.4551  -5.4100  -5.3909  -4.9219  -4.9027  -4.7669  -4.7464
    -4.7169  -4.7112  -4.6813  -4.6562  -3.9377  -3.8745  -3.8720  -3.8716
    -3.7828  -3.6654  -3.5469  -3.4789  -3.2587  -3.2512  -3.2190  -3.0967
    -1.6465  -1.6048  -1.5579  -1.5212  -1.5148  -1.4239  -1.4169  -1.3498
    -0.9682  -0.9644  -0.9270  -0.9171  -0.8337  -0.8082  -0.7729  -0.7636
    -0.6599  -0.6489  -0.6180  -0.6034  -0.4660  -0.4371  -0.4359  -0.4258
    -0.2955  -0.2624  -0.1842  -0.1617   0.9179   0.9213   0.9445   0.9447
     3.8603   3.8746   3.9174   3.9301   4.2678   4.2986   4.3123   4.3485
     4.9211   4.9970   5.1950   5.2081   5.9663   6.0904   6.2192   6.2548
     6.5140   6.6091   6.6223   6.8516   6.9399   6.9450   6.9781   7.0113
     7.1599   7.2500   7.4262

          k =-0.5000-0.1533-0.0503 (102456 PWs)   bands (ev):

   -24.3886 -24.3886 -24.3878 -24.3878 -21.0645 -21.0639 -21.0630 -21.0624
   -18.9171 -18.9169 -18.9168 -18.9165 -18.8755 -18.8755 -18.8743 -18.8743
   -18.1197 -18.1195 -18.1182 -18.1180 -14.3020 -14.2999 -14.2910 -14.2888
   -13.5728 -13.5702 -13.5490 -13.5462 -12.2206 -12.2188 -12.1845 -12.1825
   -10.8971 -10.8946 -10.8357 -10.8328  -9.6782  -9.6771  -9.6447  -9.6434
    -9.1719  -9.1707  -9.1612  -9.1598  -8.4008  -8.4004  -8.3261  -8.3253
    -7.9201  -7.9191  -7.8461  -7.8449  -6.9967  -6.9961  -6.9761  -6.9759
    -6.5059  -6.5050  -6.4799  -6.4784  -6.3724  -6.3718  -6.3321  -6.3317
    -6.2507  -6.2497  -6.1373  -6.1370  -6.0728  -6.0703  -6.0025  -6.0016
    -5.7086  -5.7075  -5.6705  -5.6686  -5.5608  -5.5585  -5.5270  -5.5250
    -5.4710  -5.4704  -5.4536  -5.4527  -4.8959  -4.8946  -4.7406  -4.7389
    -4.7257  -4.7234  -4.6774  -4.6761  -3.8924  -3.8915  -3.8885  -3.8879
    -3.7246  -3.7219  -3.5045  -3.5006  -3.2581  -3.2574  -3.1691  -3.1672
    -1.5786  -1.5777  -1.5579  -1.5551  -1.4917  -1.4897  -1.3874  -1.3862
    -0.9556  -0.9550  -0.9271  -0.9266  -0.8260  -0.8252  -0.7715  -0.7707
    -0.6390  -0.6387  -0.6254  -0.6253  -0.4476  -0.4463  -0.4389  -0.4377
    -0.2768  -0.2761  -0.1736  -0.1725   0.9319   0.9325   0.9329   0.9335
     3.8870   3.8894   3.9002   3.9026   4.2992   4.2995   4.3131   4.3132
     4.9554   4.9575   5.2001   5.2015   6.0850   6.0873   6.1758   6.1768
     6.5458   6.5470   6.7698   6.7745   6.9697   6.9739   7.0615   7.0627
     7.0649   7.0680   7.3340

          k =-0.5000-0.1533-0.2199 (102464 PWs)   bands (ev):

   -24.3886 -24.3886 -24.3878 -24.3878 -21.0644 -21.0639 -21.0630 -21.0624
   -18.9172 -18.9170 -18.9167 -18.9165 -18.8755 -18.8755 -18.8743 -18.8743
   -18.1198 -18.1196 -18.1181 -18.1179 -14.2987 -14.2968 -14.2941 -14.2922
   -13.5705 -13.5678 -13.5512 -13.5485 -12.2231 -12.2215 -12.1818 -12.1799
   -10.8948 -10.8924 -10.8379 -10.8350  -9.6865  -9.6856  -9.6364  -9.6352
    -9.1809  -9.1804  -9.1511  -9.1503  -8.4045  -8.4040  -8.3222  -8.3214
    -7.9274  -7.9264  -7.8391  -7.8379  -6.9965  -6.9963  -6.9718  -6.9716
    -6.5278  -6.5275  -6.4468  -6.4464  -6.4084  -6.4080  -6.3125  -6.3123
    -6.2283  -6.2282  -6.1372  -6.1368  -6.1147  -6.1134  -5.9840  -5.9827
    -5.6980  -5.6971  -5.6789  -5.6778  -5.5560  -5.5539  -5.5338  -5.5318
    -5.4813  -5.4806  -5.4406  -5.4400  -4.9033  -4.9020  -4.7449  -4.7430
    -4.7152  -4.7150  -4.6699  -4.6698  -3.9106  -3.9100  -3.8716  -3.8707
    -3.7251  -3.7225  -3.5072  -3.5032  -3.2514  -3.2507  -3.1754  -3.1737
    -1.5827  -1.5825  -1.5504  -1.5476  -1.4894  -1.4880  -1.3942  -1.3931
    -0.9690  -0.9686  -0.9142  -0.9136  -0.8207  -0.8201  -0.7743  -0.7740
    -0.6543  -0.6542  -0.6085  -0.6084  -0.4522  -0.4519  -0.4313  -0.4310
    -0.2805  -0.2799  -0.1718  -0.1708   0.9197   0.9197   0.9447   0.9448
     3.8872   3.8895   3.8988   3.9011   4.2855   4.2855   4.3298   4.3298
     4.9560   4.9581   5.2013   5.2027   6.0761   6.0780   6.1619   6.1626
     6.5615   6.5627   6.8362   6.8411   6.9357   6.9363   7.0409   7.0415
     7.1576   7.1610   7.1827

     highest occupied, lowest unoccupied level (ev):     0.9448    3.8603

!    total energy              =   -1332.42649850 Ry
     Harris-Foulkes estimate   =   -1332.42649850 Ry
     estimated scf accuracy    <          4.6E-09 Ry

     total all-electron energy =     -5000.513064 Ry

     The total energy is the sum of the following terms:

     one-electron contribution =    -932.70689955 Ry
     hartree contribution      =     564.56798702 Ry
     xc contribution           =    -284.70707069 Ry
     ewald contribution        =    -305.98652699 Ry
     Dispersion Correction     =      -0.38456922 Ry
     one-center paw contrib.   =    -373.20941907 Ry

     convergence has been achieved in  16 iterations

     Forces acting on atoms (cartesian axes, Ry/au):

     atom    1 type  2   force =     0.00368876    0.00454983    0.01243453
     atom    2 type  2   force =    -0.00379882    0.00456985   -0.01255156
     atom    3 type  2   force =    -0.00368876   -0.00454983   -0.01243453
     atom    4 type  2   force =     0.00379882   -0.00456985    0.01255156
     atom    5 type  2   force =     0.01438632    0.01087598    0.02513456
     atom    6 type  2   force =    -0.01416616    0.01081912   -0.02516662
     atom    7 type  2   force =    -0.01438632   -0.01087598   -0.02513456
     atom    8 type  2   force =     0.01416616   -0.01081912    0.02516662
     atom    9 type  1   force =    -0.03275500   -0.01686768   -0.01140396
     atom   10 type  1   force =     0.03262345   -0.01670123    0.01142445
     atom   11 type  1   force =     0.03275500    0.01686768    0.01140396
     atom   12 type  1   force =    -0.03262345    0.01670123   -0.01142445
     atom   13 type  1   force =    -0.01100905    0.02995347   -0.00255693
     atom   14 type  1   force =     0.01109022    0.02986146    0.00260346
     atom   15 type  1   force =     0.01100905   -0.02995347    0.00255693
     atom   16 type  1   force =    -0.01109022   -0.02986146   -0.00260346
     atom   17 type  1   force =     0.02403822   -0.00759576   -0.02845640
     atom   18 type  1   force =    -0.02413389   -0.00752781    0.02868976
     atom   19 type  1   force =    -0.02403822    0.00759576    0.02845640
     atom   20 type  1   force =     0.02413389    0.00752781   -0.02868976
     atom   21 type  1   force =     0.06166815   -0.00144401    0.00204430
     atom   22 type  1   force =    -0.06161867   -0.00139914   -0.00202041
     atom   23 type  1   force =    -0.06166815    0.00144401   -0.00204430
     atom   24 type  1   force =     0.06161867    0.00139914    0.00202041
     atom   25 type  1   force =    -0.06133669    0.00184654   -0.00116912
     atom   26 type  1   force =     0.06129608    0.00185834    0.00124107
     atom   27 type  1   force =     0.06133669   -0.00184654    0.00116912
     atom   28 type  1   force =    -0.06129608   -0.00185834   -0.00124107
     atom   29 type  1   force =     0.00369738   -0.01200965   -0.00164498
     atom   30 type  1   force =    -0.00375103   -0.01213528    0.00131045
     atom   31 type  1   force =    -0.00369738    0.01200965    0.00164498
     atom   32 type  1   force =     0.00375103    0.01213528   -0.00131045
     atom   33 type  3   force =     0.00368672    0.00471713   -0.00084425
     atom   34 type  3   force =    -0.00384153    0.00480989    0.00075250
     atom   35 type  3   force =    -0.00368672   -0.00471713    0.00084425
     atom   36 type  3   force =     0.00384153   -0.00480989   -0.00075250
     atom   37 type  3   force =     0.00086869    0.00020124    0.00203381
     atom   38 type  3   force =    -0.00089410    0.00014929   -0.00208068
     atom   39 type  3   force =    -0.00086869   -0.00020124   -0.00203381
     atom   40 type  3   force =     0.00089410   -0.00014929    0.00208068
     atom   41 type  3   force =    -0.00274820   -0.00224694    0.00349762
     atom   42 type  3   force =     0.00281596   -0.00237361   -0.00351941
     atom   43 type  3   force =     0.00274820    0.00224694   -0.00349762
     atom   44 type  3   force =    -0.00281596    0.00237361    0.00351941
     atom   45 type  3   force =    -0.00270268   -0.00093757   -0.00067184
     atom   46 type  3   force =     0.00271659   -0.00091289    0.00059407
     atom   47 type  3   force =     0.00270268    0.00093757    0.00067184
     atom   48 type  3   force =    -0.00271659    0.00091289   -0.00059407
     atom   49 type  3   force =    -0.05426774    0.00422074   -0.01968459
     atom   50 type  3   force =     0.05425989    0.00409230    0.01970177
     atom   51 type  3   force =     0.05426774   -0.00422074    0.01968459
     atom   52 type  3   force =    -0.05425989   -0.00409230   -0.01970177
     atom   53 type  3   force =    -0.00205687   -0.00013961   -0.00374593
     atom   54 type  3   force =     0.00186904    0.00027824    0.00386762
     atom   55 type  3   force =     0.00205687    0.00013961    0.00374593
     atom   56 type  3   force =    -0.00186904   -0.00027824   -0.00386762
     atom   57 type  3   force =     0.00215729    0.00078472    0.00019043
     atom   58 type  3   force =    -0.00213449    0.00078434    0.00023476
     atom   59 type  3   force =    -0.00215729   -0.00078472   -0.00019043
     atom   60 type  3   force =     0.00213449   -0.00078434   -0.00023476
     atom   61 type  3   force =    -0.00777528   -0.00818967   -0.00343904
     atom   62 type  3   force =     0.00802552   -0.00839373    0.00343048
     atom   63 type  3   force =     0.00777528    0.00818967    0.00343904
     atom   64 type  3   force =    -0.00802552    0.00839373   -0.00343048
     atom   65 type  3   force =     0.00206154   -0.00125984    0.00082772
     atom   66 type  3   force =    -0.00200244   -0.00131016   -0.00082969
     atom   67 type  3   force =    -0.00206154    0.00125984   -0.00082772
     atom   68 type  3   force =     0.00200244    0.00131016    0.00082969
     atom   69 type  3   force =     0.00257656    0.00033457    0.00098674
     atom   70 type  3   force =    -0.00258758    0.00040382   -0.00103828
     atom   71 type  3   force =    -0.00257656   -0.00033457   -0.00098674
     atom   72 type  3   force =     0.00258758   -0.00040382    0.00103828
     atom   73 type  3   force =     0.05370953   -0.00396101    0.01802605
     atom   74 type  3   force =    -0.05365000   -0.00396903   -0.01808678
     atom   75 type  3   force =    -0.05370953    0.00396101   -0.01802605
     atom   76 type  3   force =     0.05365000    0.00396903    0.01808678
     atom   77 type  2   force =    -0.00429697    0.00169414   -0.00167110
     atom   78 type  2   force =     0.00429508    0.00166122    0.00158383
     atom   79 type  2   force =     0.00429697   -0.00169414    0.00167110
     atom   80 type  2   force =    -0.00429508   -0.00166122   -0.00158383
     atom   81 type  4   force =     0.00122291    0.00208975    0.00452129
     atom   82 type  4   force =    -0.00119988    0.00204202   -0.00440312
     atom   83 type  4   force =    -0.00122291   -0.00208975   -0.00452129
     atom   84 type  4   force =     0.00119988   -0.00204202    0.00440312
     atom   85 type  4   force =     0.00684880   -0.00157885    0.00138992
     atom   86 type  4   force =    -0.00692621   -0.00162540   -0.00134643
     atom   87 type  4   force =    -0.00684880    0.00157885   -0.00138992
     atom   88 type  4   force =     0.00692621    0.00162540    0.00134643
     atom   89 type  4   force =    -0.00561778    0.00137066    0.00279826
     atom   90 type  4   force =     0.00564679    0.00134935   -0.00282695
     atom   91 type  4   force =     0.00561778   -0.00137066   -0.00279826
     atom   92 type  4   force =    -0.00564679   -0.00134935    0.00282695

     Total force =     0.281484     Total SCF correction =     0.000118


     Computing stress (Cartesian axis) and pressure

          total   stress  (Ry/bohr**3)                   (kbar)     P=    1.76
   0.00007863   0.00000021  -0.00008110         11.57      0.03    -11.93
   0.00000021  -0.00002035  -0.00000016          0.03     -2.99     -0.02
  -0.00008110  -0.00000016  -0.00002228        -11.93     -0.02     -3.28


     Writing output data file scf.save
 
     init_run     :     48.35s CPU     50.02s WALL (       1 calls)
     electrons    :   1566.60s CPU   1629.25s WALL (       1 calls)
     forces       :     22.26s CPU     22.48s WALL (       1 calls)
     stress       :    142.21s CPU    142.64s WALL (       1 calls)

     Called by init_run:
     wfcinit      :     36.52s CPU     38.07s WALL (       1 calls)
     potinit      :      4.07s CPU      4.10s WALL (       1 calls)

     Called by electrons:
     c_bands      :   1395.98s CPU   1451.12s WALL (      16 calls)
     sum_band     :    156.44s CPU    162.55s WALL (      16 calls)
     v_of_rho     :      2.02s CPU      2.21s WALL (      17 calls)
     newd         :      4.60s CPU      5.69s WALL (      17 calls)
     PAW_pot      :      6.94s CPU      6.94s WALL (      17 calls)
     mix_rho      :      0.49s CPU      0.55s WALL (      16 calls)

     Called by c_bands:
     init_us_2    :     12.31s CPU     12.34s WALL (     420 calls)
     cegterg      :   1353.66s CPU   1408.72s WALL (     192 calls)

     Called by sum_band:
     sum_band:bec :      0.09s CPU      0.09s WALL (     192 calls)
     addusdens    :      4.94s CPU      5.97s WALL (      16 calls)

     Called by *egterg:
     h_psi        :    810.61s CPU    850.06s WALL (     920 calls)
     s_psi        :    137.27s CPU    137.30s WALL (     920 calls)
     g_psi        :      6.23s CPU      6.23s WALL (     716 calls)
     cdiaghg      :     83.84s CPU     83.85s WALL (     908 calls)

     Called by h_psi:
     h_psi:pot    :    803.47s CPU    842.80s WALL (     920 calls)
     h_psi:calbec :    128.33s CPU    128.70s WALL (     920 calls)
     vloc_psi     :    537.95s CPU    576.88s WALL (     920 calls)
     add_vuspsi   :    137.19s CPU    137.21s WALL (     920 calls)

     General routines
     calbec       :    184.43s CPU    184.96s WALL (    1172 calls)
     fft          :      1.25s CPU      1.57s WALL (     245 calls)
     fftw         :    577.16s CPU    617.57s WALL (  214130 calls)
 
     Parallel routines
     fft_scatter  :    109.16s CPU    140.27s WALL (  214375 calls)
 
     PWSCF        : 29m53.21s CPU    31m57.94s WALL

 
   This run was terminated on:  21:52:40   4Nov2017            

=------------------------------------------------------------------------------=
   JOB DONE.
=------------------------------------------------------------------------------=
