
     Program PWSCF v.6.1 (svn rev. 13369) starts on 22Dec2017 at  9:40:44 

     This program is part of the open-source Quantum ESPRESSO suite
     for quantum simulation of materials; please cite
         "P. Giannozzi et al., J. Phys.:Condens. Matter 21 395502 (2009);
          URL http://www.quantum-espresso.org", 
     in publications or presentations arising from this work. More details at
     http://www.quantum-espresso.org/quote

     Parallel version (MPI), running on     8 processors
     R & G space division:  proc/nbgrp/npool/nimage =       8
     Waiting for input...
     Reading input from standard input

     Current dimensions of program PWSCF are:
     Max number of different atomic species (ntypx) = 10
     Max number of k-points (npk) =  40000
     Max angular momentum in pseudopotentials (lmaxx) =  3
               file C.pbe-n-kjpaw_psl.0.1.UPF: wavefunction(s)  2P renormalized
               file N.pbe-n-kjpaw_psl.0.1.UPF: wavefunction(s)  2P renormalized
               file H.pbe-kjpaw_psl.0.1.UPF: wavefunction(s)  1S renormalized
               file O.pbe-n-kjpaw_psl.0.1.UPF: wavefunction(s)  2P renormalized

     -------------------------------------
     Parameters for Dispersion Correction:
     -------------------------------------
       atom      VdW radius       C_6     

        C          2.744         60.710
        N          2.640         42.670
        H          1.892          4.857
        O          2.536         24.284

     Subspace diagonalization in iterative solution of the eigenvalue problem:
     a serial algorithm will be used

 
     Parallelization info
     --------------------
     sticks:   dense  smooth     PW     G-vecs:    dense   smooth      PW
     Min        1351    1351    360               127856   127856   17625
     Max        1352    1352    361               127858   127858   17628
     Sum       10809   10809   2885              1022855  1022855  141013
 


     bravais-lattice index     =            0
     lattice parameter (alat)  =      17.7506  a.u.
     unit-cell volume          =    7571.0411 (a.u.)^3
     number of atoms/cell      =          120
     number of atomic types    =            4
     number of electrons       =       396.00
     number of Kohn-Sham states=          237
     kinetic-energy cutoff     =     100.0000  Ry
     charge density cutoff     =     400.0000  Ry
     convergence threshold     =      1.0E-08
     mixing beta               =       0.5000
     number of iterations used =            8  plain     mixing
     Exchange-correlation      =  SLA  PW   PBX  PBC ( 1  4  3  4 0 0)

     celldm(1)=  17.750576  celldm(2)=   0.000000  celldm(3)=   0.000000
     celldm(4)=   0.000000  celldm(5)=   0.000000  celldm(6)=   0.000000

     crystal axes: (cart. coord. in units of alat)
               a(1) = (   1.000000   0.000000   0.000000 )  
               a(2) = (  -0.043124   1.077481   0.000000 )  
               a(3) = (  -0.264500  -0.320513   1.256344 )  

     reciprocal axes: (cart. coord. in units 2 pi/alat)
               b(1) = (  1.000000  0.040023  0.220742 )  
               b(2) = (  0.000000  0.928090  0.236770 )  
               b(3) = (  0.000000  0.000000  0.795960 )  


     PseudoPot. # 1 for  C read from file:
     /scratch/ahofstet/pseudo/C.pbe-n-kjpaw_psl.0.1.UPF
     MD5 check sum: 430fe95172b1e11ef3f8ed03bac87931
     Pseudo is Projector augmented-wave + core cor, Zval =  4.0
     Generated using "atomic" code by A. Dal Corso  v.5.0.99 svn rev. 10869
     Shape of augmentation charge: BESSEL
     Using radial grid of 1073 points,  4 beta functions with: 
                l(1) =   0
                l(2) =   0
                l(3) =   1
                l(4) =   1
     Q(r) pseudized with 0 coefficients 


     PseudoPot. # 2 for  N read from file:
     /scratch/ahofstet/pseudo/N.pbe-n-kjpaw_psl.0.1.UPF
     MD5 check sum: f73187c8b701007e77325f868c9291d7
     Pseudo is Projector augmented-wave + core cor, Zval =  5.0
     Generated using "atomic" code by A. Dal Corso  v.5.0.99 svn rev. 10869
     Shape of augmentation charge: PSQ
     Using radial grid of 1085 points,  4 beta functions with: 
                l(1) =   0
                l(2) =   0
                l(3) =   1
                l(4) =   1
     Q(r) pseudized with 0 coefficients 


     PseudoPot. # 3 for  H read from file:
     /scratch/ahofstet/pseudo/H.pbe-kjpaw_psl.0.1.UPF
     MD5 check sum: 94e484f906d9e9773b2f6e52662335b2
     Pseudo is Projector augmented-wave, Zval =  1.0
     Generated using "atomic" code by A. Dal Corso  v.5.0.99 svn rev. 10869
     Shape of augmentation charge: PSQ
     Using radial grid of  929 points,  2 beta functions with: 
                l(1) =   0
                l(2) =   0
     Q(r) pseudized with 0 coefficients 


     PseudoPot. # 4 for  O read from file:
     /scratch/ahofstet/pseudo/O.pbe-n-kjpaw_psl.0.1.UPF
     MD5 check sum: 3f94a2996a3169367d6eb21d9b593f20
     Pseudo is Projector augmented-wave + core cor, Zval =  6.0
     Generated using "atomic" code by A. Dal Corso  v.5.0.99 svn rev. 10869
     Shape of augmentation charge: BESSEL
     Using radial grid of 1095 points,  4 beta functions with: 
                l(1) =   0
                l(2) =   0
                l(3) =   1
                l(4) =   1
     Q(r) pseudized with 0 coefficients 


     atomic species   valence    mass     pseudopotential
        C              4.00    12.01070      C( 1.00)
        N              5.00    14.00670      N( 1.00)
        H              1.00     1.00794      H( 1.00)
        O              6.00    15.99940      O( 1.00)

      2 Sym. Ops., with inversion, found



   Cartesian axes

     site n.     atom                  positions (alat units)
         1           O   tau(   1) = (   0.4841056   0.7994653   0.2574465  )
         2           O   tau(   2) = (   0.2082710  -0.0424966   0.9988975  )
         3           O   tau(   3) = (   0.6836587  -0.1106311   0.7835576  )
         4           O   tau(   4) = (   0.0087179   0.8675998   0.4727863  )
         5           N   tau(   5) = (   0.6159466   0.7739660   0.4596046  )
         6           N   tau(   6) = (   0.0764299  -0.0169974   0.7967393  )
         7           N   tau(   7) = (   0.6506021   0.8223991   0.5912176  )
         8           N   tau(   8) = (   0.0417744  -0.0654304   0.6651264  )
         9           N   tau(   9) = (   0.4865289   0.1038242   0.7787870  )
        10           N   tau(  10) = (   0.2058476   0.6531444   0.4775570  )
        11           C   tau(  11) = (   0.5164081   0.8412556   0.3896320  )
        12           C   tau(  12) = (   0.1759684  -0.0842869   0.8667120  )
        13           C   tau(  13) = (   0.6356508  -0.1427705   0.6609574  )
        14           C   tau(  14) = (   0.0567257   0.8997392   0.5953865  )
        15           C   tau(  15) = (   0.5222590  -0.0682726   0.5868463  )
        16           C   tau(  16) = (   0.1701175   0.8252412   0.6694976  )
        17           C   tau(  17) = (   0.4522342   0.0527427   0.6462671  )
        18           C   tau(  18) = (   0.2401423   0.7042260   0.6100768  )
        19           C   tau(  19) = (   0.3445186   0.1185209   0.5656253  )
        20           C   tau(  20) = (   0.3478580   0.6384478   0.6907186  )
        21           C   tau(  21) = (   0.3063230   0.0682950   0.4317122  )
        22           C   tau(  22) = (   0.3860535   0.6886737   0.8246317  )
        23           C   tau(  23) = (   0.3745606  -0.0486843   0.3715630  )
        24           C   tau(  24) = (   0.3178159   0.8056530   0.8847810  )
        25           C   tau(  25) = (   0.4825557  -0.1164354   0.4485845  )
        26           C   tau(  26) = (   0.2529444  -0.2040772   0.8077594  )
        27           H   tau(  27) = (   0.5519770   0.7222975   0.2180969  )
        28           H   tau(  28) = (   0.1403995   0.0346712   1.0382470  )
        29           H   tau(  29) = (   0.7299128   0.7637227   0.6436042  )
        30           H   tau(  30) = (  -0.0375363  -0.0067540   0.6127397  )
        31           H   tau(  31) = (   0.5778973   0.0633839   0.8215374  )
        32           H   tau(  32) = (   0.1144793   0.6935847   0.4348066  )
        33           H   tau(  33) = (   0.4677087   0.2089157   0.7963276  )
        34           H   tau(  34) = (   0.2246678   0.5480530   0.4600164  )
        35           H   tau(  35) = (   0.2909568   0.2120151   0.6087073  )
        36           H   tau(  36) = (   0.4014197   0.5449536   0.6476367  )
        37           H   tau(  37) = (   0.2219899   0.1233718   0.3740356  )
        38           H   tau(  38) = (   0.4703867   0.6335969   0.8823084  )
        39           H   tau(  39) = (   0.3029711   0.9900264   0.2663049  )
        40           H   tau(  40) = (   0.3894054  -0.2330578   0.9900390  )
        41           O   tau(  41) = (   0.8768688  -0.0534895   0.3189348  )
        42           O   tau(  42) = (  -0.1844923   0.8104582   0.9374091  )
        43           O   tau(  43) = (   0.6005365   0.3740938   0.5845431  )
        44           O   tau(  44) = (   0.0918400   0.3828749   0.6718008  )
        45           N   tau(  45) = (   0.8363652   0.0877765   0.5121317  )
        46           N   tau(  46) = (  -0.1439887   0.6691922   0.7442122  )
        47           N   tau(  47) = (   0.7637112   0.1975314   0.5719798  )
        48           N   tau(  48) = (  -0.0713346   0.5594373   0.6843642  )
        49           N   tau(  49) = (   0.4384081   0.4203236   0.3469719  )
        50           N   tau(  50) = (   0.2539684   0.3366451   0.9093720  )
        51           C   tau(  51) = (   0.8074734   0.0542965   0.3799993  )
        52           C   tau(  52) = (  -0.1150969   0.7026722   0.8763446  )
        53           C   tau(  53) = (   0.6594662   0.2765377   0.5106500  )
        54           C   tau(  54) = (   0.0329104   0.4804310   0.7456940  )
        55           C   tau(  55) = (   0.6248047   0.2413939   0.3644025  )
        56           C   tau(  56) = (   0.0675718   0.5155748   0.8919415  )
        57           C   tau(  57) = (   0.5155055   0.3138961   0.2870037  )
        58           C   tau(  58) = (   0.1768710   0.4430726   0.9693402  )
        59           C   tau(  59) = (   0.4888716   0.2718746   0.1452993  )
        60           C   tau(  60) = (   0.2035049   0.4850940   1.1110446  )
        61           C   tau(  61) = (   0.5666484   0.1634547   0.0814817  )
        62           C   tau(  62) = (   0.1257281   0.5935140   1.1748622  )
        63           C   tau(  63) = (   0.6728449   0.0909060   0.1555178  )
        64           C   tau(  64) = (   0.0195316   0.6660627   1.1008261  )
        65           C   tau(  65) = (   0.7011559   0.1290109   0.2966623  )
        66           C   tau(  66) = (  -0.0087794   0.6279577   0.9596816  )
        67           H   tau(  67) = (  -0.0573687  -0.1061590   0.3879974  )
        68           H   tau(  68) = (   0.7497452   0.8631277   0.8683466  )
        69           H   tau(  69) = (   0.7868340   0.2165992   0.6792561  )
        70           H   tau(  70) = (  -0.0944575   0.5403695   0.5770879  )
        71           H   tau(  71) = (   0.4694890   0.4567637   0.4440951  )
        72           H   tau(  72) = (   0.2228875   0.3002050   0.8122488  )
        73           H   tau(  73) = (   0.3678975   0.4750885   0.2859838  )
        74           H   tau(  74) = (   0.3244790   0.2818802   0.9703601  )
        75           H   tau(  75) = (   0.4063330   0.3271971   0.0850385  )
        76           H   tau(  76) = (   0.2860436   0.4297716   1.1713054  )
        77           H   tau(  77) = (   0.2789454  -0.1842762   1.2273403  )
        78           H   tau(  78) = (   0.4134311   0.9412449   0.0290037  )
        79           H   tau(  79) = (   0.7338464   0.0059820   0.1058640  )
        80           H   tau(  80) = (  -0.0414699   0.7509867   1.1504800  )
        81           O   tau(  81) = (   0.0714670   0.3472968   0.3945270  )
        82           O   tau(  82) = (   0.6209095   0.4096719   0.8618170  )
        83           O   tau(  83) = (   0.6345440   0.6085422   0.1288921  )
        84           O   tau(  84) = (   0.0578325   0.1484265   1.1274519  )
        85           N   tau(  85) = (  -0.1141777   0.5034386   0.3907096  )
        86           N   tau(  86) = (   0.8065542   0.2535301   0.8656343  )
        87           N   tau(  87) = (   0.7778885   0.5654997   0.3173431  )
        88           N   tau(  88) = (  -0.0855119   0.1914689   0.9390008  )
        89           N   tau(  89) = (   0.4223583   0.1366962   1.1404622  )
        90           N   tau(  90) = (   0.2700182   0.6202725   0.1158818  )
        91           C   tau(  91) = (  -0.0336579   0.4119554   0.3233586  )
        92           C   tau(  92) = (   0.7260344   0.3450133   0.9329853  )
        93           C   tau(  93) = (   0.7415154   0.5421366   0.1796745  )
        94           C   tau(  94) = (  -0.0491389   0.2148321   1.0766695  )
        95           C   tau(  95) = (   0.8296202   0.4418769   0.1019966  )
        96           C   tau(  96) = (  -0.1372437   0.3150917   1.1543473  )
        97           C   tau(  97) = (   0.5366611   0.0825133   1.2142678  )
        98           C   tau(  98) = (   0.1557154   0.6744554   0.0420761  )
        99           C   tau(  99) = (   0.6291341  -0.0146334   1.1475329  )
       100           C   tau( 100) = (   0.0632424   0.7716020   0.1088110  )
       101           C   tau( 101) = (  -0.2553254  -0.0733234   1.2193189  )
       102           C   tau( 102) = (   0.9477019   0.8302920   0.0370250  )
       103           C   tau( 103) = (   0.0361671   0.2809400   0.1048329  )
       104           C   tau( 104) = (   0.6562094   0.4760287   1.1515111  )
       105           C   tau( 105) = (  -0.0535740   0.3772883   0.1743518  )
       106           C   tau( 106) = (   0.7459505   0.3796803   1.0819921  )
       107           H   tau( 107) = (   0.0673681   0.3673331   0.5016743  )
       108           H   tau( 108) = (   0.6250084   0.3896355   0.7546696  )
       109           H   tau( 109) = (   0.7181007   0.6394561   0.3758762  )
       110           H   tau( 110) = (  -0.0257241   0.1175126   0.8804678  )
       111           H   tau( 111) = (   0.3484485   0.1858159   1.2032041  )
       112           H   tau( 112) = (   0.3439280   0.5711527   0.0531399  )
       113           H   tau( 113) = (   0.3813109   0.0706186   1.0644563  )
       114           H   tau( 114) = (   0.3110656   0.6863501   0.1918876  )
       115           H   tau( 115) = (   0.6084473  -0.0450102   1.0372847  )
       116           H   tau( 116) = (   0.0839292   0.8019789   0.2190592  )
       117           H   tau( 117) = (  -0.1866778  -0.1476715   1.1625064  )
       118           H   tau( 118) = (   0.8790543   0.9046401   0.0938375  )
       119           H   tau( 119) = (   0.1248906   0.2338058   0.1623591  )
       120           H   tau( 120) = (   0.5674859   0.5231629   1.0939848  )

     number of k points=     8
                       cart. coord. in units 2pi/alat
        k(    1) = (   0.0000000   0.0000000   0.0000000), wk =   0.2500000
        k(    2) = (   0.0000000   0.0000000  -0.3979802), wk =   0.2500000
        k(    3) = (   0.0000000  -0.4640452  -0.1183850), wk =   0.2500000
        k(    4) = (   0.0000000  -0.4640452  -0.5163652), wk =   0.2500000
        k(    5) = (  -0.5000000  -0.0200113  -0.1103709), wk =   0.2500000
        k(    6) = (  -0.5000000  -0.0200113  -0.5083511), wk =   0.2500000
        k(    7) = (  -0.5000000  -0.4840565  -0.2287560), wk =   0.2500000
        k(    8) = (  -0.5000000  -0.4840565  -0.6267362), wk =   0.2500000

     Dense  grid:  1022855 G-vectors     FFT dimensions: ( 120, 125, 150)

     Estimated max dynamical RAM per process >    1261.74MB

     Estimated total allocated dynamical RAM >   10093.94MB

     Check: negative/imaginary core charge=   -0.000002    0.000000

     Initial potential from superposition of free atoms

     starting charge  395.99745, renormalised to  396.00000
     Starting wfc are  354 randomized atomic wfcs
     Checking if some PAW data can be deallocated... 

     total cpu time spent up to now is       90.8 secs

     per-process dynamical memory:   834.7 Mb

     Self-consistent Calculation

     iteration #  1     ecut=   100.00 Ry     beta=0.50
     Davidson diagonalization with overlap
     ethr =  1.00E-02,  avg # of iterations =  3.0

     total cpu time spent up to now is      361.8 secs

     total energy              =   -1940.96351708 Ry
     Harris-Foulkes estimate   =   -1947.56482353 Ry
     estimated scf accuracy    <      12.35948242 Ry

     iteration #  2     ecut=   100.00 Ry     beta=0.50
     Davidson diagonalization with overlap
     ethr =  3.12E-03,  avg # of iterations =  3.0

     total cpu time spent up to now is      516.7 secs

     total energy              =   -1942.16755749 Ry
     Harris-Foulkes estimate   =   -1942.99214358 Ry
     estimated scf accuracy    <       1.68111720 Ry

     iteration #  3     ecut=   100.00 Ry     beta=0.50
     Davidson diagonalization with overlap
     ethr =  4.25E-04,  avg # of iterations =  7.9

     total cpu time spent up to now is      839.1 secs

     total energy              =   -1942.95283297 Ry
     Harris-Foulkes estimate   =   -1943.51542882 Ry
     estimated scf accuracy    <       1.46142368 Ry

     iteration #  4     ecut=   100.00 Ry     beta=0.50
     Davidson diagonalization with overlap
     ethr =  3.69E-04,  avg # of iterations =  3.8

     total cpu time spent up to now is      981.1 secs

     total energy              =   -1943.06127159 Ry
     Harris-Foulkes estimate   =   -1943.15862807 Ry
     estimated scf accuracy    <       0.20062661 Ry

     iteration #  5     ecut=   100.00 Ry     beta=0.50
     Davidson diagonalization with overlap
     ethr =  5.07E-05,  avg # of iterations =  7.9

     total cpu time spent up to now is     1302.4 secs

     total energy              =   -1943.17691799 Ry
     Harris-Foulkes estimate   =   -1943.23325711 Ry
     estimated scf accuracy    <       0.19080918 Ry

     iteration #  6     ecut=   100.00 Ry     beta=0.50
     Davidson diagonalization with overlap
     ethr =  4.82E-05,  avg # of iterations =  2.0

     total cpu time spent up to now is     1435.1 secs

     total energy              =   -1943.16753365 Ry
     Harris-Foulkes estimate   =   -1943.19232925 Ry
     estimated scf accuracy    <       0.05800824 Ry

     iteration #  7     ecut=   100.00 Ry     beta=0.50
     Davidson diagonalization with overlap
     ethr =  1.46E-05,  avg # of iterations =  6.5

     total cpu time spent up to now is     1675.6 secs

     total energy              =   -1943.18767129 Ry
     Harris-Foulkes estimate   =   -1943.18923373 Ry
     estimated scf accuracy    <       0.00648510 Ry

     iteration #  8     ecut=   100.00 Ry     beta=0.50
     Davidson diagonalization with overlap
     ethr =  1.64E-06,  avg # of iterations =  2.8

     total cpu time spent up to now is     1818.7 secs

     total energy              =   -1943.18734894 Ry
     Harris-Foulkes estimate   =   -1943.18849939 Ry
     estimated scf accuracy    <       0.00293841 Ry

     iteration #  9     ecut=   100.00 Ry     beta=0.50
     Davidson diagonalization with overlap
     ethr =  7.42E-07,  avg # of iterations =  4.0

     total cpu time spent up to now is     1992.9 secs

     total energy              =   -1943.18795663 Ry
     Harris-Foulkes estimate   =   -1943.18806399 Ry
     estimated scf accuracy    <       0.00030311 Ry

     iteration # 10     ecut=   100.00 Ry     beta=0.50
     Davidson diagonalization with overlap
     ethr =  7.65E-08,  avg # of iterations =  4.0

     total cpu time spent up to now is     2213.4 secs

     total energy              =   -1943.18805522 Ry
     Harris-Foulkes estimate   =   -1943.18808571 Ry
     estimated scf accuracy    <       0.00007139 Ry

     iteration # 11     ecut=   100.00 Ry     beta=0.50
     Davidson diagonalization with overlap
     ethr =  1.80E-08,  avg # of iterations =  4.1

     total cpu time spent up to now is     2374.7 secs

     total energy              =   -1943.18807017 Ry
     Harris-Foulkes estimate   =   -1943.18807182 Ry
     estimated scf accuracy    <       0.00000614 Ry

     iteration # 12     ecut=   100.00 Ry     beta=0.50
     Davidson diagonalization with overlap
     ethr =  1.55E-09,  avg # of iterations =  4.0

     total cpu time spent up to now is     2657.0 secs

     total energy              =   -1943.18807367 Ry
     Harris-Foulkes estimate   =   -1943.18807581 Ry
     estimated scf accuracy    <       0.00000522 Ry

     iteration # 13     ecut=   100.00 Ry     beta=0.50
     Davidson diagonalization with overlap
     ethr =  1.32E-09,  avg # of iterations =  1.4

     total cpu time spent up to now is     2787.1 secs

     total energy              =   -1943.18807389 Ry
     Harris-Foulkes estimate   =   -1943.18807421 Ry
     estimated scf accuracy    <       0.00000062 Ry

     iteration # 14     ecut=   100.00 Ry     beta=0.50
     Davidson diagonalization with overlap
     ethr =  1.57E-10,  avg # of iterations =  5.0

     total cpu time spent up to now is     3086.4 secs

     total energy              =   -1943.18807457 Ry
     Harris-Foulkes estimate   =   -1943.18807488 Ry
     estimated scf accuracy    <       0.00000110 Ry

     iteration # 15     ecut=   100.00 Ry     beta=0.50
     Davidson diagonalization with overlap
     ethr =  1.57E-10,  avg # of iterations =  1.0

     total cpu time spent up to now is     3215.1 secs

     total energy              =   -1943.18807442 Ry
     Harris-Foulkes estimate   =   -1943.18807460 Ry
     estimated scf accuracy    <       0.00000044 Ry

     iteration # 16     ecut=   100.00 Ry     beta=0.50
     Davidson diagonalization with overlap
     ethr =  1.12E-10,  avg # of iterations =  4.0

     total cpu time spent up to now is     3427.3 secs

     total energy              =   -1943.18807457 Ry
     Harris-Foulkes estimate   =   -1943.18807458 Ry
     estimated scf accuracy    <       0.00000002 Ry

     iteration # 17     ecut=   100.00 Ry     beta=0.50
     Davidson diagonalization with overlap
     ethr =  6.10E-12,  avg # of iterations =  3.0

     total cpu time spent up to now is     3575.2 secs

     End of self-consistent calculation

          k = 0.0000 0.0000 0.0000 (127939 PWs)   bands (ev):

   -19.9310 -19.8848 -19.7922 -19.7784 -19.7608 -19.7340 -19.1632 -19.1569
   -19.1196 -19.1053 -18.9818 -18.9559 -18.0071 -17.9757 -17.8208 -17.8137
   -17.7832 -17.7723 -16.0464 -16.0337 -15.9461 -15.9330 -15.8845 -15.8774
   -14.1523 -14.0647 -14.0438 -14.0407 -13.9933 -13.9769 -13.5705 -13.5499
   -13.5401 -13.5075 -13.2986 -13.2829 -12.2120 -12.2003 -12.1336 -12.1203
   -12.1014 -12.1013 -11.2353 -11.2253 -11.1905 -11.1896 -11.1686 -11.1523
    -9.5334  -9.5175  -9.4935  -9.4777  -9.4520  -9.4356  -9.2558  -9.2184
    -9.2155  -9.1779  -9.0819  -9.0758  -8.0492  -7.9666  -7.7402  -7.6988
    -7.6836  -7.6712  -7.4906  -7.4894  -7.3821  -7.3726  -7.3391  -7.3220
    -7.0272  -7.0136  -6.7935  -6.7773  -6.7719  -6.7520  -6.1009  -6.0650
    -6.0087  -5.8775  -5.8595  -5.8185  -5.5552  -5.5395  -5.4239  -5.4232
    -5.3714  -5.2965  -5.2281  -5.1629  -5.1388  -5.1222  -5.0881  -5.0746
    -4.9762  -4.7275  -4.5385  -4.3685  -4.3574  -4.2812  -4.2472  -4.2307
    -4.2128  -4.1491  -4.1313  -4.1053  -4.0664  -4.0480  -4.0067  -3.9909
    -3.9792  -3.9251  -3.6570  -3.6017  -3.5786  -3.5602  -3.4915  -3.4837
    -3.2252  -3.1890  -3.0951  -3.0738  -3.0567  -3.0248  -2.9954  -2.9780
    -2.9717  -2.9328  -2.7994  -2.7193  -2.5763  -2.4525  -2.3616  -2.3038
    -2.2890  -2.2612  -2.2415  -2.1872  -2.1422  -2.0559  -1.8982  -1.8773
    -1.7842  -1.7693  -1.7495  -1.7220  -1.7027  -1.6685  -1.6156  -1.5564
    -1.5215  -1.5045  -1.4496  -1.4364  -1.3726  -1.1434  -1.0173  -0.9869
    -0.8965  -0.8325  -0.7208  -0.6450  -0.6231  -0.6094  -0.5725  -0.5704
    -0.5569  -0.5002  -0.4742  -0.4578  -0.3901  -0.3808   0.3668   0.4666
     0.4769   0.5748   0.5957   0.6168   0.6553   0.6622   0.6807   0.6859
     1.1329   1.1473   1.3023   1.3917   1.4469   1.5235   1.5833   1.6087
     2.0464   2.1097   2.1496   2.1969   2.2305   2.2641   4.7929   4.8611
     4.9390   5.0060   5.0719   5.0845   5.1988   5.2504   5.3862   5.4117
     5.4459   5.5440   6.9179   7.0512   7.1195   7.1927   7.2322   7.3128
     7.3866   7.6553   7.6556   7.7964   7.8518   7.9060   7.9069   7.9604
     8.0699   8.1668   8.4079   8.5671   8.6213   8.7051   8.9717   9.0724
     9.1345   9.2719   9.2776   9.3700   9.4294

          k = 0.0000 0.0000-0.3980 (127862 PWs)   bands (ev):

   -19.9294 -19.8866 -19.7925 -19.7784 -19.7611 -19.7331 -19.1659 -19.1538
   -19.1200 -19.1055 -18.9829 -18.9544 -18.0104 -17.9711 -17.8210 -17.8143
   -17.7844 -17.7719 -16.0391 -16.0385 -15.9445 -15.9322 -15.8860 -15.8815
   -14.1244 -14.0941 -14.0443 -14.0411 -13.9958 -13.9713 -13.5655 -13.5605
   -13.5347 -13.5095 -13.2940 -13.2827 -12.1966 -12.1915 -12.1325 -12.1313
   -12.1144 -12.1105 -11.2379 -11.2328 -11.2255 -11.1853 -11.1430 -11.1309
    -9.5674  -9.5587  -9.4522  -9.4361  -9.4352  -9.4250  -9.2533  -9.2387
    -9.2119  -9.2058  -9.1045  -9.0553  -7.9180  -7.9107  -7.8359  -7.7694
    -7.7141  -7.6820  -7.5166  -7.5113  -7.3680  -7.3310  -7.3245  -7.3174
    -7.0691  -6.9871  -6.8056  -6.7992  -6.7501  -6.7391  -6.0598  -6.0537
    -5.9626  -5.8723  -5.8615  -5.7670  -5.6740  -5.5684  -5.4854  -5.4614
    -5.3142  -5.3002  -5.2086  -5.1740  -5.1223  -5.1172  -5.1064  -5.0722
    -4.9772  -4.7941  -4.4784  -4.3930  -4.3677  -4.3448  -4.2222  -4.2122
    -4.2015  -4.1663  -4.1268  -4.0910  -4.0693  -4.0462  -4.0196  -3.9978
    -3.8552  -3.8096  -3.6793  -3.6460  -3.5677  -3.5471  -3.5012  -3.4904
    -3.2495  -3.1817  -3.0845  -3.0814  -3.0349  -3.0192  -2.9867  -2.9827
    -2.9404  -2.9205  -2.8078  -2.7520  -2.5299  -2.5095  -2.3628  -2.2878
    -2.2762  -2.2650  -2.1402  -2.1237  -2.1071  -2.1050  -2.0143  -2.0086
    -1.8406  -1.8119  -1.7677  -1.7641  -1.7446  -1.6992  -1.5853  -1.5206
    -1.4794  -1.4714  -1.4667  -1.4450  -1.3749  -1.1511  -1.0125  -0.9909
    -0.8546  -0.8297  -0.7699  -0.6800  -0.5990  -0.5625  -0.5544  -0.5224
    -0.5189  -0.4938  -0.4770  -0.4301  -0.4080  -0.3889   0.4146   0.4242
     0.4599   0.5884   0.5889   0.6199   0.6238   0.6575   0.6584   0.6907
     1.1589   1.1713   1.3376   1.3800   1.4416   1.5165   1.5662   1.5987
     2.0669   2.1260   2.1561   2.1688   2.2350   2.2583   4.8367   4.8818
     4.9101   4.9707   5.0311   5.1284   5.1576   5.3084   5.3298   5.4133
     5.4511   5.5796   6.9199   7.0963   7.1387   7.1715   7.2418   7.3221
     7.3410   7.5612   7.7097   7.7273   7.7929   7.8844   7.9097   8.0074
     8.0794   8.3080   8.3670   8.5003   8.5796   8.6953   8.9976   9.0849
     9.1029   9.1546   9.2498   9.2830   9.3958

          k = 0.0000-0.4640-0.1184 (127814 PWs)   bands (ev):

   -19.9128 -19.9011 -19.8061 -19.7840 -19.7427 -19.7345 -19.1634 -19.1565
   -19.1177 -19.1077 -18.9713 -18.9662 -17.9933 -17.9877 -17.8269 -17.8072
   -17.7871 -17.7705 -16.0416 -16.0339 -15.9526 -15.9298 -15.8843 -15.8797
   -14.1049 -14.1022 -14.0567 -14.0429 -14.0030 -13.9611 -13.5795 -13.5488
   -13.5318 -13.5093 -13.2914 -13.2862 -12.1947 -12.1890 -12.1472 -12.1257
   -12.1222 -12.0993 -11.2645 -11.2244 -11.1911 -11.1795 -11.1609 -11.1347
    -9.5765  -9.5544  -9.4470  -9.4387  -9.4293  -9.4250  -9.2528  -9.2502
    -9.2042  -9.1968  -9.0896  -9.0797  -7.9302  -7.8630  -7.8210  -7.8079
    -7.7061  -7.7030  -7.5229  -7.5125  -7.3597  -7.3456  -7.3134  -7.3015
    -7.0419  -7.0348  -6.8092  -6.7825  -6.7615  -6.7345  -6.0738  -6.0540
    -5.9267  -5.8544  -5.8517  -5.8312  -5.6492  -5.6213  -5.4178  -5.3803
    -5.3653  -5.3005  -5.2220  -5.1908  -5.1502  -5.1460  -5.0759  -5.0725
    -4.8870  -4.8615  -4.5501  -4.4444  -4.3861  -4.3187  -4.2304  -4.1846
    -4.1749  -4.1700  -4.1318  -4.1036  -4.0717  -4.0255  -4.0219  -3.9483
    -3.8506  -3.8006  -3.6825  -3.6081  -3.5694  -3.5693  -3.5173  -3.4695
    -3.2517  -3.1811  -3.1314  -3.0767  -3.0633  -3.0231  -2.9864  -2.9731
    -2.9562  -2.8741  -2.7958  -2.7790  -2.4952  -2.4860  -2.3324  -2.3085
    -2.2947  -2.2353  -2.1930  -2.1855  -2.1011  -2.0815  -2.0368  -1.9967
    -1.8148  -1.7915  -1.7570  -1.7520  -1.7154  -1.6932  -1.5634  -1.5567
    -1.5225  -1.5131  -1.4406  -1.4264  -1.2697  -1.1929  -1.1081  -0.9991
    -0.8265  -0.8056  -0.7391  -0.6479  -0.6061  -0.6004  -0.5416  -0.5213
    -0.5083  -0.5021  -0.4700  -0.4536  -0.4160  -0.3927   0.4036   0.4102
     0.4782   0.5900   0.5959   0.6187   0.6222   0.6296   0.6427   0.7007
     1.1693   1.1698   1.3061   1.3676   1.4862   1.5231   1.5674   1.5794
     2.0560   2.1322   2.1560   2.1672   2.2368   2.2584   4.8268   4.9033
     4.9164   4.9489   5.0662   5.0773   5.2519   5.2623   5.2851   5.3828
     5.5164   5.5935   7.0420   7.0520   7.1556   7.1620   7.2380   7.2649
     7.4584   7.6407   7.6964   7.7294   7.7950   7.8515   7.9317   7.9515
     7.9860   8.2129   8.2975   8.3498   8.5259   8.7503   8.8480   8.9673
     9.1748   9.2345   9.2772   9.3409   9.4559

          k = 0.0000-0.4640-0.5164 (127850 PWs)   bands (ev):

   -19.9113 -19.9029 -19.8058 -19.7836 -19.7425 -19.7352 -19.1661 -19.1532
   -19.1181 -19.1079 -18.9700 -18.9675 -17.9914 -17.9893 -17.8270 -17.8079
   -17.7860 -17.7711 -16.0388 -16.0352 -15.9530 -15.9305 -15.8860 -15.8785
   -14.1018 -14.0890 -14.0812 -14.0387 -13.9831 -13.9758 -13.5679 -13.5641
   -13.5301 -13.5091 -13.2887 -13.2881 -12.2122 -12.1737 -12.1425 -12.1288
   -12.1164 -12.1040 -11.2659 -11.2453 -11.1992 -11.1941 -11.1249 -11.1235
    -9.5598  -9.5488  -9.4592  -9.4553  -9.4321  -9.4291  -9.2550  -9.2249
    -9.2185  -9.1985  -9.0848  -9.0828  -7.9277  -7.8407  -7.8249  -7.8075
    -7.7508  -7.6948  -7.5230  -7.5126  -7.3633  -7.3470  -7.3211  -7.2856
    -7.0278  -7.0188  -6.7900  -6.7717  -6.7715  -6.7608  -6.1093  -6.0652
    -5.9359  -5.8344  -5.8027  -5.7979  -5.6787  -5.6164  -5.4038  -5.3899
    -5.3797  -5.3276  -5.2454  -5.1862  -5.1317  -5.1076  -5.1069  -5.0953
    -4.8911  -4.8222  -4.6323  -4.3684  -4.3645  -4.3216  -4.2440  -4.1974
    -4.1795  -4.1693  -4.1377  -4.1371  -4.0874  -4.0017  -3.9774  -3.9760
    -3.8427  -3.7863  -3.6836  -3.6487  -3.5706  -3.5226  -3.5012  -3.4881
    -3.2619  -3.1568  -3.1004  -3.0830  -3.0364  -3.0139  -2.9979  -2.9790
    -2.9374  -2.9148  -2.8092  -2.7936  -2.5286  -2.4674  -2.3510  -2.3220
    -2.2854  -2.2218  -2.1849  -2.1834  -2.1500  -2.0735  -2.0105  -1.9914
    -1.8251  -1.8097  -1.7833  -1.7382  -1.7323  -1.6881  -1.5703  -1.5475
    -1.5110  -1.4947  -1.4148  -1.3976  -1.2505  -1.1915  -1.1296  -0.9916
    -0.8168  -0.8004  -0.7869  -0.6262  -0.6219  -0.5948  -0.5853  -0.5327
    -0.5114  -0.4756  -0.4701  -0.4231  -0.4111  -0.4013   0.3767   0.4090
     0.5102   0.5406   0.5852   0.5916   0.6604   0.6691   0.6742   0.6849
     1.1556   1.1663   1.3069   1.3859   1.4389   1.5260   1.5735   1.6083
     2.0461   2.1110   2.1606   2.1737   2.2349   2.2758   4.8301   4.8728
     4.8778   4.9711   5.0742   5.0895   5.2355   5.2472   5.3560   5.3894
     5.5133   5.5715   7.0329   7.0820   7.0961   7.2172   7.2186   7.3411
     7.3719   7.6850   7.7246   7.7521   7.8053   7.8140   7.9066   7.9452
     8.0124   8.0303   8.1726   8.5692   8.6291   8.7782   8.7949   8.9691
     9.1113   9.1756   9.3288   9.3950   9.5132

          k =-0.5000-0.0200-0.1104 (127836 PWs)   bands (ev):

   -19.9285 -19.8863 -19.7914 -19.7808 -19.7610 -19.7332 -19.1664 -19.1530
   -19.1205 -19.1059 -18.9832 -18.9539 -18.0106 -17.9708 -17.8208 -17.8137
   -17.7849 -17.7721 -16.0424 -16.0322 -15.9466 -15.9355 -15.8938 -15.8709
   -14.1243 -14.0903 -14.0483 -14.0370 -13.9860 -13.9838 -13.5669 -13.5599
   -13.5329 -13.5128 -13.2954 -13.2806 -12.1989 -12.1887 -12.1339 -12.1327
   -12.1204 -12.1029 -11.2492 -11.2303 -11.2219 -11.2035 -11.1391 -11.1102
    -9.5634  -9.5488  -9.4542  -9.4429  -9.4376  -9.4324  -9.2449  -9.2369
    -9.2129  -9.2041  -9.1064  -9.0640  -7.9191  -7.8435  -7.8180  -7.8171
    -7.7357  -7.7032  -7.5304  -7.5088  -7.3556  -7.3544  -7.3212  -7.3038
    -7.0491  -6.9966  -6.7947  -6.7819  -6.7627  -6.7527  -6.0923  -6.0563
    -5.9075  -5.8607  -5.8317  -5.7786  -5.6937  -5.5988  -5.4075  -5.4016
    -5.3933  -5.3274  -5.2237  -5.1993  -5.1206  -5.1133  -5.1020  -5.0843
    -4.9185  -4.8337  -4.4591  -4.4461  -4.3712  -4.2739  -4.2447  -4.2073
    -4.2003  -4.1744  -4.1473  -4.1230  -4.0764  -4.0600  -4.0259  -3.9747
    -3.8434  -3.7883  -3.6828  -3.6472  -3.5472  -3.5431  -3.5019  -3.4966
    -3.2590  -3.1724  -3.1507  -3.1484  -3.0283  -3.0114  -2.9739  -2.9701
    -2.9442  -2.9248  -2.8566  -2.6735  -2.4879  -2.4620  -2.3361  -2.3046
    -2.2635  -2.2387  -2.2171  -2.2169  -2.1063  -2.0679  -2.0076  -1.9917
    -1.8394  -1.7713  -1.7678  -1.7565  -1.7323  -1.7204  -1.5605  -1.5602
    -1.5076  -1.5047  -1.4243  -1.3909  -1.3496  -1.1179  -0.9984  -0.9740
    -0.8904  -0.8410  -0.7155  -0.6738  -0.6383  -0.5769  -0.5536  -0.5356
    -0.5056  -0.5051  -0.4938  -0.4395  -0.4058  -0.4000   0.4304   0.4425
     0.4551   0.5553   0.5584   0.6018   0.6218   0.6753   0.6778   0.6980
     1.1589   1.1710   1.3428   1.3650   1.4635   1.4753   1.5624   1.6409
     2.0208   2.1212   2.1533   2.1665   2.2439   2.2777   4.8374   4.8560
     4.9050   4.9530   5.0461   5.1176   5.2137   5.3157   5.3374   5.4062
     5.4202   5.5731   6.9922   7.0569   7.0585   7.2493   7.2554   7.3139
     7.3736   7.4950   7.6525   7.7578   7.8120   7.8690   7.9807   8.0481
     8.0941   8.2161   8.3242   8.4455   8.5302   8.7807   8.8078   8.9066
     9.0771   9.1987   9.3237   9.3480   9.4466

          k =-0.5000-0.0200-0.5084 (127836 PWs)   bands (ev):

   -19.9291 -19.8855 -19.7909 -19.7809 -19.7608 -19.7340 -19.1642 -19.1558
   -19.1201 -19.1054 -18.9820 -18.9553 -18.0067 -17.9753 -17.8210 -17.8134
   -17.7840 -17.7725 -16.0381 -16.0381 -15.9466 -15.9344 -15.8954 -15.8686
   -14.1117 -14.1083 -14.0613 -14.0242 -13.9892 -13.9755 -13.5676 -13.5578
   -13.5337 -13.5115 -13.3003 -13.2771 -12.2053 -12.1752 -12.1493 -12.1306
   -12.1192 -12.0987 -11.2623 -11.2346 -11.1910 -11.1677 -11.1645 -11.1342
    -9.5885  -9.5402  -9.4526  -9.4514  -9.4213  -9.4169  -9.2567  -9.2408
    -9.2318  -9.1776  -9.0887  -9.0782  -7.9414  -7.8752  -7.8108  -7.8085
    -7.7063  -7.7006  -7.5273  -7.5090  -7.3572  -7.3509  -7.2975  -7.2967
    -7.0562  -7.0166  -6.7951  -6.7947  -6.7507  -6.7446  -6.1194  -6.0135
    -5.9604  -5.8693  -5.8236  -5.8220  -5.6681  -5.6053  -5.4091  -5.3969
    -5.3702  -5.2826  -5.2384  -5.2097  -5.1475  -5.1249  -5.0734  -5.0682
    -4.8780  -4.8543  -4.5159  -4.3726  -4.3641  -4.3465  -4.2334  -4.2135
    -4.1802  -4.1770  -4.1388  -4.1077  -4.0899  -4.0364  -4.0183  -4.0083
    -3.8522  -3.7926  -3.6661  -3.6341  -3.5674  -3.5645  -3.4943  -3.4907
    -3.2111  -3.2102  -3.1316  -3.1309  -3.0448  -3.0086  -2.9759  -2.9745
    -2.9532  -2.9027  -2.8597  -2.7060  -2.5094  -2.4439  -2.3293  -2.3227
    -2.2748  -2.2158  -2.1880  -2.1594  -2.1562  -2.1010  -2.0147  -2.0007
    -1.7994  -1.7896  -1.7746  -1.7689  -1.7113  -1.6826  -1.5709  -1.5471
    -1.5252  -1.5150  -1.4394  -1.4220  -1.3549  -1.1426  -0.9837  -0.9710
    -0.8845  -0.8064  -0.7849  -0.6720  -0.6271  -0.5706  -0.5391  -0.5262
    -0.5083  -0.4937  -0.4810  -0.4402  -0.4121  -0.3723   0.4149   0.4558
     0.4807   0.5184   0.6014   0.6063   0.6326   0.6474   0.6695   0.6720
     1.1581   1.1735   1.3669   1.4115   1.4134   1.4636   1.5228   1.6611
     2.0735   2.1025   2.1366   2.1580   2.2526   2.2762   4.8210   4.8563
     4.8678   4.9467   5.0891   5.1184   5.1908   5.2697   5.3727   5.4305
     5.4603   5.5623   6.9726   7.0338   7.1506   7.2043   7.2788   7.3035
     7.4473   7.4496   7.7003   7.7468   7.7878   7.8478   7.8970   7.9741
     8.0536   8.1635   8.4089   8.4642   8.5793   8.8284   8.8688   8.9776
     9.1154   9.1408   9.2251   9.3179   9.3950

          k =-0.5000-0.4841-0.2288 (127884 PWs)   bands (ev):

   -19.9115 -19.9013 -19.8047 -19.7857 -19.7429 -19.7352 -19.1658 -19.1542
   -19.1176 -19.1080 -18.9701 -18.9674 -17.9923 -17.9884 -17.8276 -17.8079
   -17.7863 -17.7699 -16.0410 -16.0355 -15.9500 -15.9275 -15.8967 -15.8708
   -14.0992 -14.0969 -14.0572 -14.0501 -14.0118 -13.9544 -13.5683 -13.5582
   -13.5320 -13.5136 -13.2924 -13.2838 -12.2046 -12.1879 -12.1431 -12.1240
   -12.1097 -12.1093 -11.2744 -11.2248 -11.1944 -11.1860 -11.1416 -11.1319
    -9.5814  -9.5369  -9.4646  -9.4428  -9.4322  -9.4196  -9.2657  -9.2396
    -9.2049  -9.1980  -9.0865  -9.0724  -7.9442  -7.8922  -7.8511  -7.7571
    -7.7090  -7.6882  -7.5224  -7.5041  -7.3606  -7.3326  -7.3160  -7.3115
    -7.0332  -7.0258  -6.8095  -6.7917  -6.7492  -6.7356  -6.0914  -6.0493
    -5.9686  -5.8856  -5.8209  -5.7845  -5.6284  -5.6216  -5.4734  -5.4677
    -5.3228  -5.2923  -5.1854  -5.1735  -5.1400  -5.1224  -5.1147  -5.0497
    -4.9177  -4.7323  -4.5652  -4.4962  -4.3528  -4.3153  -4.2634  -4.2141
    -4.1915  -4.1879  -4.1371  -4.1005  -4.0784  -4.0522  -3.9885  -3.9591
    -3.8696  -3.7945  -3.6616  -3.6576  -3.5668  -3.5159  -3.5084  -3.4940
    -3.2680  -3.1826  -3.1263  -3.0914  -3.0773  -3.0122  -3.0092  -2.9665
    -2.9417  -2.9221  -2.8452  -2.7011  -2.5069  -2.4213  -2.3395  -2.3373
    -2.2606  -2.2091  -2.1818  -2.1335  -2.1295  -2.0760  -2.0192  -2.0171
    -1.8072  -1.7875  -1.7783  -1.7699  -1.7514  -1.7072  -1.5658  -1.5294
    -1.4747  -1.4692  -1.4616  -1.4534  -1.2545  -1.1949  -1.0741  -0.9820
    -0.8659  -0.7685  -0.7304  -0.6526  -0.6220  -0.5711  -0.5542  -0.5467
    -0.5330  -0.5069  -0.4998  -0.4571  -0.4065  -0.3695   0.4309   0.4404
     0.4556   0.5348   0.5836   0.6008   0.6344   0.6472   0.6608   0.6961
     1.1567   1.1660   1.3529   1.4037   1.4281   1.4391   1.5581   1.6465
     2.0634   2.1337   2.1353   2.1606   2.2466   2.2596   4.8258   4.8522
     4.9065   4.9302   5.0513   5.0938   5.2497   5.2988   5.3213   5.3692
     5.5447   5.5741   6.9720   7.0836   7.1686   7.2083   7.2391   7.3005
     7.3951   7.5842   7.7134   7.7250   7.8173   7.8344   7.8808   7.9839
     8.0015   8.1437   8.2685   8.3025   8.6797   8.7632   8.7795   8.9827
     9.1523   9.1673   9.2640   9.3034   9.5195

          k =-0.5000-0.4841-0.6267 (127834 PWs)   bands (ev):

   -19.9121 -19.9006 -19.8053 -19.7862 -19.7427 -19.7344 -19.1636 -19.1571
   -19.1171 -19.1077 -18.9715 -18.9662 -17.9931 -17.9887 -17.8272 -17.8068
   -17.7872 -17.7691 -16.0415 -16.0383 -15.9503 -15.9278 -15.8937 -15.8693
   -14.0964 -14.0907 -14.0770 -14.0597 -13.9746 -13.9734 -13.5736 -13.5491
   -13.5314 -13.5154 -13.2902 -13.2897 -12.2088 -12.2049 -12.1261 -12.1210
   -12.1099 -12.0993 -11.2350 -11.2312 -11.1883 -11.1828 -11.1650 -11.1595
    -9.5437  -9.5135  -9.4683  -9.4676  -9.4611  -9.4554  -9.2426  -9.2323
    -9.2047  -9.1884  -9.0813  -9.0752  -8.0372  -7.9797  -7.7387  -7.6932
    -7.6750  -7.6702  -7.4974  -7.4872  -7.3733  -7.3575  -7.3550  -7.3470
    -7.0348  -7.0060  -6.7889  -6.7834  -6.7674  -6.7590  -6.0856  -6.0678
    -5.9475  -5.9120  -5.8555  -5.8336  -5.5722  -5.5386  -5.4308  -5.4049
    -5.3776  -5.3125  -5.1903  -5.1849  -5.1262  -5.1120  -5.0861  -5.0696
    -4.8948  -4.7790  -4.5538  -4.5492  -4.3111  -4.3011  -4.2280  -4.2245
    -4.1967  -4.1906  -4.1074  -4.0996  -4.0511  -4.0347  -3.9910  -3.9783
    -3.9769  -3.9344  -3.6362  -3.6119  -3.5947  -3.5510  -3.4890  -3.4770
    -3.2370  -3.2084  -3.1183  -3.1137  -3.0822  -2.9936  -2.9898  -2.9777
    -2.9460  -2.9255  -2.8669  -2.7177  -2.5169  -2.4556  -2.3330  -2.3008
    -2.2408  -2.2378  -2.2168  -2.2096  -2.1357  -2.0831  -1.9125  -1.8732
    -1.7936  -1.7752  -1.7371  -1.7307  -1.6912  -1.6811  -1.5893  -1.5754
    -1.5204  -1.4917  -1.4505  -1.4374  -1.2205  -1.1851  -1.1107  -0.9767
    -0.8404  -0.7978  -0.7598  -0.6889  -0.6334  -0.5942  -0.5750  -0.5565
    -0.5524  -0.5440  -0.4781  -0.4573  -0.3861  -0.3392   0.3964   0.4545
     0.4705   0.5512   0.5978   0.6262   0.6302   0.6349   0.6748   0.7014
     1.1418   1.1421   1.3309   1.3748   1.4115   1.4827   1.5944   1.6385
     2.0133   2.1125   2.1295   2.1899   2.2528   2.2753   4.8139   4.8602
     4.8928   4.9584   5.0346   5.1299   5.2312   5.3246   5.3252   5.3716
     5.4944   5.5806   6.9621   7.0229   7.2390   7.2482   7.2581   7.2731
     7.4137   7.5245   7.6830   7.7531   7.8039   7.8396   7.9576   7.9867
     7.9905   8.0737   8.2928   8.4103   8.6334   8.8547   8.9076   8.9197
     8.9739   9.1870   9.3255   9.4447   9.5292

     highest occupied, lowest unoccupied level (ev):     2.2777    4.7929

!    total energy              =   -1943.18807457 Ry
     Harris-Foulkes estimate   =   -1943.18807458 Ry
     estimated scf accuracy    <          6.2E-09 Ry

     total all-electron energy =     -7485.405889 Ry

     The total energy is the sum of the following terms:

     one-electron contribution =   -1118.79893284 Ry
     hartree contribution      =     720.81547637 Ry
     xc contribution           =    -415.87840011 Ry
     ewald contribution        =    -546.29528958 Ry
     Dispersion Correction     =      -0.61952867 Ry
     one-center paw contrib.   =    -582.41139974 Ry

     convergence has been achieved in  17 iterations

     Forces acting on atoms (cartesian axes, Ry/au):

     atom    1 type  4   force =     0.00047754   -0.00030582   -0.00057442
     atom    2 type  4   force =    -0.00047754    0.00030582    0.00057442
     atom    3 type  4   force =     0.00020031   -0.00020958   -0.00047839
     atom    4 type  4   force =    -0.00020031    0.00020958    0.00047839
     atom    5 type  2   force =    -0.00015629   -0.00030346   -0.00042118
     atom    6 type  2   force =     0.00015629    0.00030346    0.00042118
     atom    7 type  2   force =     0.00079667   -0.00011758   -0.00034677
     atom    8 type  2   force =    -0.00079667    0.00011758    0.00034677
     atom    9 type  2   force =     0.00006232    0.00029147   -0.00015412
     atom   10 type  2   force =    -0.00006232   -0.00029147    0.00015412
     atom   11 type  1   force =    -0.00052721    0.00069660    0.00100599
     atom   12 type  1   force =     0.00052721   -0.00069660   -0.00100599
     atom   13 type  1   force =     0.00006381   -0.00028703    0.00047325
     atom   14 type  1   force =    -0.00006381    0.00028703   -0.00047325
     atom   15 type  1   force =     0.00061454   -0.00014776    0.00058343
     atom   16 type  1   force =    -0.00061454    0.00014776   -0.00058343
     atom   17 type  1   force =    -0.00021655    0.00052976    0.00018272
     atom   18 type  1   force =     0.00021655   -0.00052976   -0.00018272
     atom   19 type  1   force =     0.00039060    0.00087014    0.00071594
     atom   20 type  1   force =    -0.00039060   -0.00087014   -0.00071594
     atom   21 type  1   force =    -0.00039788   -0.00025430    0.00030253
     atom   22 type  1   force =     0.00039788    0.00025430   -0.00030253
     atom   23 type  1   force =     0.00014726    0.00002015    0.00101214
     atom   24 type  1   force =    -0.00014726   -0.00002015   -0.00101214
     atom   25 type  1   force =    -0.00052483    0.00035935   -0.00037986
     atom   26 type  1   force =     0.00052483   -0.00035935    0.00037986
     atom   27 type  3   force =    -0.00049381    0.00068308    0.00072609
     atom   28 type  3   force =     0.00049381   -0.00068308   -0.00072609
     atom   29 type  3   force =    -0.00004076   -0.00016892   -0.00039305
     atom   30 type  3   force =     0.00004076    0.00016892    0.00039305
     atom   31 type  3   force =    -0.00003175    0.00027540   -0.00025142
     atom   32 type  3   force =     0.00003175   -0.00027540    0.00025142
     atom   33 type  3   force =     0.00035738   -0.00063814   -0.00041893
     atom   34 type  3   force =    -0.00035738    0.00063814    0.00041893
     atom   35 type  3   force =    -0.00028321    0.00017127    0.00041178
     atom   36 type  3   force =     0.00028321   -0.00017127   -0.00041178
     atom   37 type  3   force =     0.00024998   -0.00003653    0.00000543
     atom   38 type  3   force =    -0.00024998    0.00003653   -0.00000543
     atom   39 type  3   force =     0.00004038    0.00004968   -0.00024037
     atom   40 type  3   force =    -0.00004038   -0.00004968    0.00024037
     atom   41 type  4   force =     0.00045912   -0.00045301    0.00045363
     atom   42 type  4   force =    -0.00045912    0.00045301   -0.00045363
     atom   43 type  4   force =    -0.00020418   -0.00010740   -0.00063679
     atom   44 type  4   force =     0.00020418    0.00010740    0.00063679
     atom   45 type  2   force =    -0.00058358    0.00033296   -0.00067607
     atom   46 type  2   force =     0.00058358   -0.00033296    0.00067607
     atom   47 type  2   force =     0.00004542   -0.00020075   -0.00042867
     atom   48 type  2   force =    -0.00004542    0.00020075    0.00042867
     atom   49 type  2   force =    -0.00070701    0.00044016    0.00032137
     atom   50 type  2   force =     0.00070701   -0.00044016   -0.00032137
     atom   51 type  1   force =     0.00022793    0.00063748    0.00066246
     atom   52 type  1   force =    -0.00022793   -0.00063748   -0.00066246
     atom   53 type  1   force =     0.00017367    0.00056620    0.00029315
     atom   54 type  1   force =    -0.00017367   -0.00056620   -0.00029315
     atom   55 type  1   force =    -0.00003591   -0.00029337   -0.00002105
     atom   56 type  1   force =     0.00003591    0.00029337    0.00002105
     atom   57 type  1   force =     0.00064521   -0.00016162   -0.00018136
     atom   58 type  1   force =    -0.00064521    0.00016162    0.00018136
     atom   59 type  1   force =    -0.00060236    0.00013343    0.00074412
     atom   60 type  1   force =     0.00060236   -0.00013343   -0.00074412
     atom   61 type  1   force =    -0.00013419   -0.00005333   -0.00058564
     atom   62 type  1   force =     0.00013419    0.00005333    0.00058564
     atom   63 type  1   force =    -0.00003143   -0.00026638    0.00011646
     atom   64 type  1   force =     0.00003143    0.00026638   -0.00011646
     atom   65 type  1   force =     0.00000838    0.00022462   -0.00018546
     atom   66 type  1   force =    -0.00000838   -0.00022462    0.00018546
     atom   67 type  3   force =    -0.00029398   -0.00013633   -0.00042290
     atom   68 type  3   force =     0.00029398    0.00013633    0.00042290
     atom   69 type  3   force =     0.00025669   -0.00008590   -0.00017104
     atom   70 type  3   force =    -0.00025669    0.00008590    0.00017104
     atom   71 type  3   force =    -0.00014228   -0.00030313   -0.00012856
     atom   72 type  3   force =     0.00014228    0.00030313    0.00012856
     atom   73 type  3   force =     0.00063017    0.00010745    0.00021042
     atom   74 type  3   force =    -0.00063017   -0.00010745   -0.00021042
     atom   75 type  3   force =    -0.00001966    0.00023266    0.00037999
     atom   76 type  3   force =     0.00001966   -0.00023266   -0.00037999
     atom   77 type  3   force =     0.00005772   -0.00031785    0.00020165
     atom   78 type  3   force =    -0.00005772    0.00031785   -0.00020165
     atom   79 type  3   force =    -0.00042891   -0.00025866    0.00032480
     atom   80 type  3   force =     0.00042891    0.00025866   -0.00032480
     atom   81 type  4   force =    -0.00001760    0.00057080    0.00065092
     atom   82 type  4   force =     0.00001760   -0.00057080   -0.00065092
     atom   83 type  4   force =     0.00140086   -0.00078447   -0.00038823
     atom   84 type  4   force =    -0.00140086    0.00078447    0.00038823
     atom   85 type  2   force =    -0.00032940    0.00004510    0.00009699
     atom   86 type  2   force =     0.00032940   -0.00004510   -0.00009699
     atom   87 type  2   force =     0.00015933    0.00046719    0.00081964
     atom   88 type  2   force =    -0.00015933   -0.00046719   -0.00081964
     atom   89 type  2   force =    -0.00013726   -0.00021431   -0.00019452
     atom   90 type  2   force =     0.00013726    0.00021431    0.00019452
     atom   91 type  1   force =     0.00027011    0.00048576   -0.00048679
     atom   92 type  1   force =    -0.00027011   -0.00048576    0.00048679
     atom   93 type  1   force =    -0.00069919    0.00042249   -0.00028061
     atom   94 type  1   force =     0.00069919   -0.00042249    0.00028061
     atom   95 type  1   force =    -0.00006245   -0.00003589   -0.00036651
     atom   96 type  1   force =     0.00006245    0.00003589    0.00036651
     atom   97 type  1   force =    -0.00016918    0.00024828    0.00000482
     atom   98 type  1   force =     0.00016918   -0.00024828   -0.00000482
     atom   99 type  1   force =    -0.00037917   -0.00007679   -0.00040154
     atom  100 type  1   force =     0.00037917    0.00007679    0.00040154
     atom  101 type  1   force =     0.00057001    0.00001164   -0.00006238
     atom  102 type  1   force =    -0.00057001   -0.00001164    0.00006238
     atom  103 type  1   force =     0.00008858    0.00016142   -0.00029111
     atom  104 type  1   force =    -0.00008858   -0.00016142    0.00029111
     atom  105 type  1   force =    -0.00000368   -0.00017638    0.00062408
     atom  106 type  1   force =     0.00000368    0.00017638   -0.00062408
     atom  107 type  3   force =     0.00030491   -0.00053274    0.00006336
     atom  108 type  3   force =    -0.00030491    0.00053274   -0.00006336
     atom  109 type  3   force =     0.00024644    0.00014208    0.00007242
     atom  110 type  3   force =    -0.00024644   -0.00014208   -0.00007242
     atom  111 type  3   force =     0.00006016    0.00004014   -0.00040915
     atom  112 type  3   force =    -0.00006016   -0.00004014    0.00040915
     atom  113 type  3   force =     0.00001567    0.00031340    0.00040727
     atom  114 type  3   force =    -0.00001567   -0.00031340   -0.00040727
     atom  115 type  3   force =    -0.00007971   -0.00003027   -0.00031965
     atom  116 type  3   force =     0.00007971    0.00003027    0.00031965
     atom  117 type  3   force =    -0.00003467   -0.00017165    0.00014031
     atom  118 type  3   force =     0.00003467    0.00017165   -0.00014031
     atom  119 type  3   force =     0.00041241   -0.00011712    0.00003969
     atom  120 type  3   force =    -0.00041241    0.00011712   -0.00003969

     Total force =     0.007476     Total SCF correction =     0.000151


     Computing stress (Cartesian axis) and pressure

          total   stress  (Ry/bohr**3)                   (kbar)     P=   -5.49
  -0.00003217  -0.00000287  -0.00000529         -4.73     -0.42     -0.78
  -0.00000287  -0.00003577   0.00000404         -0.42     -5.26      0.59
  -0.00000529   0.00000404  -0.00004406         -0.78      0.59     -6.48


     Writing output data file scf.save
 
     init_run     :     87.31s CPU     90.12s WALL (       1 calls)
     electrons    :   3377.84s CPU   3484.54s WALL (       1 calls)
     forces       :     43.81s CPU     44.10s WALL (       1 calls)
     stress       :    204.13s CPU    204.63s WALL (       1 calls)

     Called by init_run:
     wfcinit      :     74.10s CPU     76.75s WALL (       1 calls)
     potinit      :      4.73s CPU      4.75s WALL (       1 calls)

     Called by electrons:
     c_bands      :   3075.13s CPU   3167.41s WALL (      17 calls)
     sum_band     :    283.76s CPU    296.38s WALL (      17 calls)
     v_of_rho     :      2.74s CPU      3.01s WALL (      18 calls)
     newd         :      7.20s CPU      8.74s WALL (      18 calls)
     PAW_pot      :      8.36s CPU      8.37s WALL (      18 calls)
     mix_rho      :      0.64s CPU      0.68s WALL (      17 calls)

     Called by c_bands:
     init_us_2    :     12.50s CPU     12.56s WALL (     296 calls)
     cegterg      :   3022.11s CPU   3114.25s WALL (     136 calls)

     Called by sum_band:
     sum_band:bec :      0.14s CPU      0.15s WALL (     136 calls)
     addusdens    :      7.42s CPU      8.74s WALL (      17 calls)

     Called by *egterg:
     h_psi        :   1533.11s CPU   1606.09s WALL (     682 calls)
     s_psi        :    385.93s CPU    386.04s WALL (     682 calls)
     g_psi        :      6.41s CPU      6.41s WALL (     538 calls)
     cdiaghg      :    194.55s CPU    194.57s WALL (     674 calls)

     Called by h_psi:
     h_psi:pot    :   1523.53s CPU   1596.33s WALL (     682 calls)
     h_psi:calbec :    379.96s CPU    380.66s WALL (     682 calls)
     vloc_psi     :    757.23s CPU    829.23s WALL (     682 calls)
     add_vuspsi   :    386.33s CPU    386.45s WALL (     682 calls)

     General routines
     calbec       :    550.39s CPU    551.33s WALL (     858 calls)
     fft          :      1.76s CPU      2.21s WALL (     258 calls)
     fftw         :    795.45s CPU    878.08s WALL (  222366 calls)
 
     Parallel routines
     fft_scatter  :    143.54s CPU    220.58s WALL (  222624 calls)
 
     PWSCF        :     1h 2m CPU        1h 5m WALL

 
   This run was terminated on:  10:45:55  22Dec2017            

=------------------------------------------------------------------------------=
   JOB DONE.
=------------------------------------------------------------------------------=
