
     Program PWSCF v.6.1 (svn rev. 13369) starts on  4Nov2017 at  5:51:26 

     This program is part of the open-source Quantum ESPRESSO suite
     for quantum simulation of materials; please cite
         "P. Giannozzi et al., J. Phys.:Condens. Matter 21 395502 (2009);
          URL http://www.quantum-espresso.org", 
     in publications or presentations arising from this work. More details at
     http://www.quantum-espresso.org/quote

     Parallel version (MPI), running on     8 processors
     R & G space division:  proc/nbgrp/npool/nimage =       8
     Waiting for input...
     Reading input from standard input

     Current dimensions of program PWSCF are:
     Max number of different atomic species (ntypx) = 10
     Max number of k-points (npk) =  40000
     Max angular momentum in pseudopotentials (lmaxx) =  3
               file C.pbe-n-kjpaw_psl.0.1.UPF: wavefunction(s)  2P renormalized
               file N.pbe-n-kjpaw_psl.0.1.UPF: wavefunction(s)  2P renormalized
               file H.pbe-kjpaw_psl.0.1.UPF: wavefunction(s)  1S renormalized
               file O.pbe-n-kjpaw_psl.0.1.UPF: wavefunction(s)  2P renormalized

     -------------------------------------
     Parameters for Dispersion Correction:
     -------------------------------------
       atom      VdW radius       C_6     

        C          2.744         60.710
        N          2.640         42.670
        H          1.892          4.857
        O          2.536         24.284

     Subspace diagonalization in iterative solution of the eigenvalue problem:
     a serial algorithm will be used

 
     Parallelization info
     --------------------
     sticks:   dense  smooth     PW     G-vecs:    dense   smooth      PW
     Min        1284    1284    337                88192    88192   11888
     Max        1285    1285    338                88194    88194   11890
     Sum       10273   10273   2703               705539   705539   95113
 


     bravais-lattice index     =            0
     lattice parameter (alat)  =      14.7886  a.u.
     unit-cell volume          =    5222.7434 (a.u.)^3
     number of atoms/cell      =           84
     number of atomic types    =            4
     number of electrons       =       248.00
     number of Kohn-Sham states=          148
     kinetic-energy cutoff     =     100.0000  Ry
     charge density cutoff     =     400.0000  Ry
     convergence threshold     =      1.0E-08
     mixing beta               =       0.5000
     number of iterations used =            8  plain     mixing
     Exchange-correlation      =  SLA  PW   PBX  PBC ( 1  4  3  4 0 0)

     celldm(1)=  14.788619  celldm(2)=   0.000000  celldm(3)=   0.000000
     celldm(4)=   0.000000  celldm(5)=   0.000000  celldm(6)=   0.000000

     crystal axes: (cart. coord. in units of alat)
               a(1) = (   1.000000   0.000000   0.000000 )  
               a(2) = (   0.000000   1.477676   0.000000 )  
               a(3) = (  -0.250864   0.000000   1.092789 )  

     reciprocal axes: (cart. coord. in units 2 pi/alat)
               b(1) = (  1.000000  0.000000  0.229563 )  
               b(2) = (  0.000000  0.676738  0.000000 )  
               b(3) = (  0.000000  0.000000  0.915089 )  


     PseudoPot. # 1 for  C read from file:
     /scratch/ahofstet/pseudo/C.pbe-n-kjpaw_psl.0.1.UPF
     MD5 check sum: 430fe95172b1e11ef3f8ed03bac87931
     Pseudo is Projector augmented-wave + core cor, Zval =  4.0
     Generated using "atomic" code by A. Dal Corso  v.5.0.99 svn rev. 10869
     Shape of augmentation charge: BESSEL
     Using radial grid of 1073 points,  4 beta functions with: 
                l(1) =   0
                l(2) =   0
                l(3) =   1
                l(4) =   1
     Q(r) pseudized with 0 coefficients 


     PseudoPot. # 2 for  N read from file:
     /scratch/ahofstet/pseudo/N.pbe-n-kjpaw_psl.0.1.UPF
     MD5 check sum: f73187c8b701007e77325f868c9291d7
     Pseudo is Projector augmented-wave + core cor, Zval =  5.0
     Generated using "atomic" code by A. Dal Corso  v.5.0.99 svn rev. 10869
     Shape of augmentation charge: PSQ
     Using radial grid of 1085 points,  4 beta functions with: 
                l(1) =   0
                l(2) =   0
                l(3) =   1
                l(4) =   1
     Q(r) pseudized with 0 coefficients 


     PseudoPot. # 3 for  H read from file:
     /scratch/ahofstet/pseudo/H.pbe-kjpaw_psl.0.1.UPF
     MD5 check sum: 94e484f906d9e9773b2f6e52662335b2
     Pseudo is Projector augmented-wave, Zval =  1.0
     Generated using "atomic" code by A. Dal Corso  v.5.0.99 svn rev. 10869
     Shape of augmentation charge: PSQ
     Using radial grid of  929 points,  2 beta functions with: 
                l(1) =   0
                l(2) =   0
     Q(r) pseudized with 0 coefficients 


     PseudoPot. # 4 for  O read from file:
     /scratch/ahofstet/pseudo/O.pbe-n-kjpaw_psl.0.1.UPF
     MD5 check sum: 3f94a2996a3169367d6eb21d9b593f20
     Pseudo is Projector augmented-wave + core cor, Zval =  6.0
     Generated using "atomic" code by A. Dal Corso  v.5.0.99 svn rev. 10869
     Shape of augmentation charge: BESSEL
     Using radial grid of 1095 points,  4 beta functions with: 
                l(1) =   0
                l(2) =   0
                l(3) =   1
                l(4) =   1
     Q(r) pseudized with 0 coefficients 


     atomic species   valence    mass     pseudopotential
        C              4.00    12.01070      C( 1.00)
        N              5.00    14.00670      N( 1.00)
        H              1.00     1.00794      H( 1.00)
        O              6.00    15.99940      O( 1.00)

      2 Sym. Ops., with inversion, found



   Cartesian axes

     site n.     atom                  positions (alat units)
         1           O   tau(   1) = (   0.2919894   0.3341727   0.9575568  )
         2           O   tau(   2) = (   0.8318492   1.0729323   0.6819337  )
         3           O   tau(   3) = (   0.4571462   1.1435037   0.1352327  )
         4           O   tau(   4) = (  -0.0827136   0.4047441   0.4108558  )
         5           N   tau(   5) = (   0.5561388   0.1273922   0.2676872  )
         6           N   tau(   6) = (   0.8184438   0.8663159   0.2789275  )
         7           N   tau(   7) = (   0.1929968   1.3502842   0.8251023  )
         8           N   tau(   8) = (  -0.0693082   0.6113605   0.8138620  )
         9           N   tau(   9) = (   0.4814122   0.2299219   0.1442254  )
        10           N   tau(  10) = (   0.8931870   0.9688054   0.4024036  )
        11           N   tau(  11) = (   0.2677234   1.2477545   0.9485641  )
        12           N   tau(  12) = (  -0.1440514   0.5088710   0.6903859  )
        13           N   tau(  13) = (   0.2581377   0.3995215   0.0476808  )
        14           N   tau(  14) = (   0.1164836   1.1384304   0.4988870  )
        15           N   tau(  15) = (   0.4909979   1.0781549   1.0451086  )
        16           N   tau(  16) = (   0.6326520   0.3392460   0.5939025  )
        17           N   tau(  17) = (   0.2436974   0.2776301   0.3182504  )
        18           N   tau(  18) = (   0.1308246   1.0165418   0.2283266  )
        19           N   tau(  19) = (   0.5054382   1.2000463   0.7745391  )
        20           N   tau(  20) = (   0.6183110   0.4611346   0.8644629  )
        21           C   tau(  21) = (   0.8237513   1.4416139   0.2931650  )
        22           C   tau(  22) = (   0.5508193   0.7028370   0.2535298  )
        23           C   tau(  23) = (  -0.0746157   0.0360625   0.7996245  )
        24           C   tau(  24) = (   0.1983163   0.7748394   0.8392597  )
        25           C   tau(  25) = (   0.7031729   0.0757689   0.1969704  )
        26           C   tau(  26) = (   0.6714812   0.8145446   0.3497078  )
        27           C   tau(  27) = (   0.0459627   1.4019075   0.8958191  )
        28           C   tau(  28) = (   0.0776544   0.6631318   0.7430817  )
        29           C   tau(  29) = (   0.3247299   0.3041016   0.1715988  )
        30           C   tau(  30) = (   0.0498683   1.0430032   0.3750151  )
        31           C   tau(  31) = (   0.4244058   1.1735748   0.9211907  )
        32           C   tau(  32) = (   0.6992673   0.4346732   0.7177744  )
        33           C   tau(  33) = (   0.7268547   0.1410759   0.0310351  )
        34           C   tau(  34) = (   0.6479141   0.8797019   0.5157735  )
        35           C   tau(  35) = (   0.0222809   1.3366005   1.0617544  )
        36           C   tau(  36) = (   0.1012215   0.5979745   0.5770160  )
        37           C   tau(  37) = (   0.3339788   0.2424512   1.0869596  )
        38           C   tau(  38) = (   0.7898571   0.9811900   0.5525269  )
        39           C   tau(  39) = (   0.4151568   1.2352252   0.0058299  )
        40           C   tau(  40) = (  -0.0407215   0.4964864   0.5402626  )
        41           H   tau(  41) = (   0.0798583   0.4163453   1.0326853  )
        42           H   tau(  42) = (   0.0439462   1.1552526   0.6067368  )
        43           H   tau(  43) = (   0.6692773   1.0613311   0.0601042  )
        44           H   tau(  44) = (   0.7051894   0.3224238   0.4860527  )
        45           H   tau(  45) = (   0.1231289   0.3284877   0.3380014  )
        46           H   tau(  46) = (   0.2513780   1.0674199   0.2084605  )
        47           H   tau(  47) = (   0.6260067   1.1491887   0.7547881  )
        48           H   tau(  48) = (   0.4977576   0.4102565   0.8843290  )
        49           H   tau(  49) = (   0.2994491   0.2177134   0.4206908  )
        50           H   tau(  50) = (   0.0750410   0.9565249   0.1259729  )
        51           H   tau(  51) = (   0.4496865   1.2599630   0.6720987  )
        52           H   tau(  52) = (   0.6740946   0.5211515   0.9668166  )
        53           H   tau(  53) = (   0.1518545   0.4750775   0.0704220  )
        54           H   tau(  54) = (   0.2227562   1.2139692   0.4761161  )
        55           H   tau(  55) = (   0.5972811   1.0025989   1.0223675  )
        56           H   tau(  56) = (   0.5263794   0.2637072   0.6166734  )
        57           H   tau(  57) = (   0.5843976   0.1206159   1.0400775  )
        58           H   tau(  58) = (   0.5396079   0.8590860   0.5995789  )
        59           H   tau(  59) = (   0.1647380   1.3570605   0.0527120  )
        60           H   tau(  60) = (   0.2095277   0.6185904   0.4932106  )
        61           H   tau(  61) = (   0.7671931   1.3982608   0.4139119  )
        62           H   tau(  62) = (   0.6073218   0.6594275   0.1327670  )
        63           H   tau(  63) = (  -0.0180575   0.0794156   0.6788776  )
        64           H   tau(  64) = (   0.1418138   0.8182489   0.9600225  )
        65           H   tau(  65) = (   0.8579429   1.3289789   0.2161766  )
        66           H   tau(  66) = (   0.5165226   0.5902336   0.3305208  )
        67           H   tau(  67) = (  -0.1088073   0.1486975   0.8766129  )
        68           H   tau(  68) = (   0.2326130   0.8874428   0.7622687  )
        69           H   tau(  69) = (  -0.0573608   0.0343766   0.3212578  )
        70           H   tau(  70) = (   0.4319971   0.7733990   0.2254630  )
        71           H   tau(  71) = (   0.8064964   1.4432998   0.7715316  )
        72           H   tau(  72) = (   0.3171385   0.7042774   0.8673265  )
        73           O   tau(  73) = (   0.9532549   0.5781497   0.1123085  )
        74           O   tau(  74) = (   0.4213094   1.3169048   0.4339071  )
        75           O   tau(  75) = (  -0.2041193   0.8995267   0.9804810  )
        76           O   tau(  76) = (   0.3278262   0.1607716   0.6588824  )
        77           H   tau(  77) = (   0.9241690   0.6953495   0.1517114  )
        78           H   tau(  78) = (   0.4504534   1.4341110   0.3945224  )
        79           H   tau(  79) = (  -0.1750334   0.7823269   0.9410781  )
        80           H   tau(  80) = (   0.2986822   0.0435654   0.6982671  )
        81           H   tau(  81) = (   0.9252716   0.5079043   0.2147592  )
        82           H   tau(  82) = (   0.4492430   1.2466668   0.3314422  )
        83           H   tau(  83) = (  -0.1761360   0.9697721   0.8780303  )
        84           H   tau(  84) = (   0.2998926   0.2310096   0.7613473  )

     number of k points=     8
                       cart. coord. in units 2pi/alat
        k(    1) = (   0.0000000   0.0000000   0.0000000), wk =   0.1666667
        k(    2) = (   0.0000000   0.0000000  -0.4575447), wk =   0.1666667
        k(    3) = (   0.0000000  -0.3383691   0.0000000), wk =   0.1666667
        k(    4) = (   0.0000000  -0.3383691  -0.4575447), wk =   0.1666667
        k(    5) = (   0.3333333   0.0000000   0.0765211), wk =   0.3333333
        k(    6) = (   0.3333333   0.0000000  -0.3810236), wk =   0.3333333
        k(    7) = (   0.3333333  -0.3383691   0.0765211), wk =   0.3333333
        k(    8) = (   0.3333333  -0.3383691  -0.3810236), wk =   0.3333333

     Dense  grid:   705539 G-vectors     FFT dimensions: (  96, 144, 108)

     Estimated max dynamical RAM per process >     560.21MB

     Estimated total allocated dynamical RAM >    4481.71MB

     Check: negative/imaginary core charge=   -0.000002    0.000000

     Initial potential from superposition of free atoms

     starting charge  247.99866, renormalised to  248.00000
     Starting wfc are  216 randomized atomic wfcs
     Checking if some PAW data can be deallocated... 

     total cpu time spent up to now is       32.2 secs

     per-process dynamical memory:   390.8 Mb

     Self-consistent Calculation

     iteration #  1     ecut=   100.00 Ry     beta=0.50
     Davidson diagonalization with overlap
     ethr =  1.00E-02,  avg # of iterations =  4.1

     total cpu time spent up to now is      115.1 secs

     total energy              =   -1199.61185666 Ry
     Harris-Foulkes estimate   =   -1204.71123477 Ry
     estimated scf accuracy    <       9.26914708 Ry

     iteration #  2     ecut=   100.00 Ry     beta=0.50
     Davidson diagonalization with overlap
     ethr =  3.74E-03,  avg # of iterations =  3.0

     total cpu time spent up to now is      167.3 secs

     total energy              =   -1201.19942790 Ry
     Harris-Foulkes estimate   =   -1201.60545246 Ry
     estimated scf accuracy    <       0.92223861 Ry

     iteration #  3     ecut=   100.00 Ry     beta=0.50
     Davidson diagonalization with overlap
     ethr =  3.72E-04,  avg # of iterations =  8.0

     total cpu time spent up to now is      249.8 secs

     total energy              =   -1201.56759416 Ry
     Harris-Foulkes estimate   =   -1201.69137915 Ry
     estimated scf accuracy    <       0.32387341 Ry

     iteration #  4     ecut=   100.00 Ry     beta=0.50
     Davidson diagonalization with overlap
     ethr =  1.31E-04,  avg # of iterations =  2.0

     total cpu time spent up to now is      291.9 secs

     total energy              =   -1201.56631071 Ry
     Harris-Foulkes estimate   =   -1201.59696222 Ry
     estimated scf accuracy    <       0.07262560 Ry

     iteration #  5     ecut=   100.00 Ry     beta=0.50
     Davidson diagonalization with overlap
     ethr =  2.93E-05,  avg # of iterations =  6.6

     total cpu time spent up to now is      378.5 secs

     total energy              =   -1201.60512834 Ry
     Harris-Foulkes estimate   =   -1201.63167209 Ry
     estimated scf accuracy    <       0.08071058 Ry

     iteration #  6     ecut=   100.00 Ry     beta=0.50
     Davidson diagonalization with overlap
     ethr =  2.93E-05,  avg # of iterations =  1.0

     total cpu time spent up to now is      418.9 secs

     total energy              =   -1201.59550231 Ry
     Harris-Foulkes estimate   =   -1201.60819933 Ry
     estimated scf accuracy    <       0.03265965 Ry

     iteration #  7     ecut=   100.00 Ry     beta=0.50
     Davidson diagonalization with overlap
     ethr =  1.32E-05,  avg # of iterations =  4.1

     total cpu time spent up to now is      475.8 secs

     total energy              =   -1201.60639503 Ry
     Harris-Foulkes estimate   =   -1201.60663179 Ry
     estimated scf accuracy    <       0.00106759 Ry

     iteration #  8     ecut=   100.00 Ry     beta=0.50
     Davidson diagonalization with overlap
     ethr =  4.30E-07,  avg # of iterations =  5.2

     total cpu time spent up to now is      555.4 secs

     total energy              =   -1201.60633949 Ry
     Harris-Foulkes estimate   =   -1201.60695532 Ry
     estimated scf accuracy    <       0.00113816 Ry

     iteration #  9     ecut=   100.00 Ry     beta=0.50
     Davidson diagonalization with overlap
     ethr =  4.30E-07,  avg # of iterations =  4.5

     total cpu time spent up to now is      608.1 secs

     total energy              =   -1201.60662315 Ry
     Harris-Foulkes estimate   =   -1201.60662803 Ry
     estimated scf accuracy    <       0.00005047 Ry

     iteration # 10     ecut=   100.00 Ry     beta=0.50
     Davidson diagonalization with overlap
     ethr =  2.03E-08,  avg # of iterations =  4.0

     total cpu time spent up to now is      680.4 secs

     total energy              =   -1201.60662759 Ry
     Harris-Foulkes estimate   =   -1201.60665065 Ry
     estimated scf accuracy    <       0.00004843 Ry

     iteration # 11     ecut=   100.00 Ry     beta=0.50
     Davidson diagonalization with overlap
     ethr =  1.95E-08,  avg # of iterations =  3.0

     total cpu time spent up to now is      723.4 secs

     total energy              =   -1201.60662941 Ry
     Harris-Foulkes estimate   =   -1201.60663180 Ry
     estimated scf accuracy    <       0.00000569 Ry

     iteration # 12     ecut=   100.00 Ry     beta=0.50
     Davidson diagonalization with overlap
     ethr =  2.30E-09,  avg # of iterations =  4.0

     total cpu time spent up to now is      803.0 secs

     total energy              =   -1201.60663656 Ry
     Harris-Foulkes estimate   =   -1201.60663775 Ry
     estimated scf accuracy    <       0.00000416 Ry

     iteration # 13     ecut=   100.00 Ry     beta=0.50
     Davidson diagonalization with overlap
     ethr =  1.68E-09,  avg # of iterations =  1.0

     total cpu time spent up to now is      843.4 secs

     total energy              =   -1201.60663566 Ry
     Harris-Foulkes estimate   =   -1201.60663664 Ry
     estimated scf accuracy    <       0.00000193 Ry

     iteration # 14     ecut=   100.00 Ry     beta=0.50
     Davidson diagonalization with overlap
     ethr =  7.77E-10,  avg # of iterations =  4.0

     total cpu time spent up to now is      905.1 secs

     total energy              =   -1201.60663646 Ry
     Harris-Foulkes estimate   =   -1201.60663654 Ry
     estimated scf accuracy    <       0.00000024 Ry

     iteration # 15     ecut=   100.00 Ry     beta=0.50
     Davidson diagonalization with overlap
     ethr =  9.50E-11,  avg # of iterations =  1.0

     total cpu time spent up to now is      945.5 secs

     total energy              =   -1201.60663642 Ry
     Harris-Foulkes estimate   =   -1201.60663647 Ry
     estimated scf accuracy    <       0.00000010 Ry

     iteration # 16     ecut=   100.00 Ry     beta=0.50
     Davidson diagonalization with overlap
     ethr =  3.94E-11,  avg # of iterations =  4.0

     total cpu time spent up to now is     1015.0 secs

     total energy              =   -1201.60663647 Ry
     Harris-Foulkes estimate   =   -1201.60663648 Ry
     estimated scf accuracy    <       0.00000004 Ry

     iteration # 17     ecut=   100.00 Ry     beta=0.50
     Davidson diagonalization with overlap
     ethr =  1.71E-11,  avg # of iterations =  1.0

     total cpu time spent up to now is     1055.4 secs

     total energy              =   -1201.60663646 Ry
     Harris-Foulkes estimate   =   -1201.60663647 Ry
     estimated scf accuracy    <       0.00000001 Ry

     iteration # 18     ecut=   100.00 Ry     beta=0.50
     Davidson diagonalization with overlap
     ethr =  5.65E-12,  avg # of iterations =  4.0

     total cpu time spent up to now is     1122.9 secs

     End of self-consistent calculation

          k = 0.0000 0.0000 0.0000 ( 88275 PWs)   bands (ev):

   -20.6040 -20.5749 -20.5533 -20.5296 -19.0488 -19.0160 -18.9562 -18.9081
   -18.5235 -18.5188 -18.4861 -18.4056 -18.2009 -18.1915 -18.1876 -18.1020
   -16.0480 -16.0458 -16.0092 -16.0015 -14.7519 -14.7236 -14.6593 -14.6512
   -12.6123 -12.6095 -12.6048 -12.6030 -11.9043 -11.8830 -11.8702 -11.8589
    -9.9104  -9.8935  -9.7069  -9.6766  -8.7273  -8.7190  -8.7168  -8.6948
    -8.4563  -8.4284  -8.3602  -8.3559  -7.2927  -7.2391  -7.0184  -7.0128
    -6.9773  -6.9250  -6.6930  -6.6858  -6.5453  -6.5270  -6.3885  -6.2009
    -6.0854  -6.0270  -5.9847  -5.8928  -5.8691  -5.7897  -5.7453  -5.7326
    -5.6791  -5.4842  -5.3912  -5.3106  -4.6523  -4.6509  -4.6370  -4.5722
    -4.3123  -4.2913  -4.2160  -4.1830  -4.1556  -4.0974  -4.0841  -4.0341
    -3.6284  -3.5823  -3.5283  -3.4659  -3.3547  -3.3461  -3.3359  -3.2937
    -3.2356  -3.1179  -3.0358  -2.9479  -2.9342  -2.8763  -2.8314  -2.7993
    -2.0661  -2.0457  -2.0167  -1.9700  -1.4580  -1.4294  -1.3586  -1.2432
    -1.0083  -0.9277  -0.8925  -0.8551  -0.5135  -0.4951  -0.3673  -0.3613
    -0.2077  -0.1086  -0.0851  -0.0624  -0.0509   0.0124   0.0723   0.1175
     1.1926   1.1933   1.2011   1.2213   4.5612   4.6587   4.6802   4.7003
     5.7875   6.1258   6.1885   6.4298   6.5725   6.6536   6.9683   7.1104
     7.3192   7.3436   7.3876   7.4019   7.4660   7.6301   7.9009   7.9051
     8.1128   8.2208   8.2581   8.4704

          k = 0.0000 0.0000-0.4575 ( 88238 PWs)   bands (ev):

   -20.5764 -20.5756 -20.5528 -20.5519 -19.0399 -19.0384 -18.9816 -18.9800
   -18.4625 -18.4624 -18.4210 -18.4204 -18.2055 -18.2055 -18.1564 -18.1563
   -16.0362 -16.0361 -16.0318 -16.0318 -14.7068 -14.7064 -14.6867 -14.6863
   -12.6096 -12.6085 -12.6060 -12.6050 -11.8955 -11.8955 -11.8630 -11.8627
    -9.7964  -9.7957  -9.7747  -9.7742  -8.7548  -8.7546  -8.7325  -8.7324
    -8.3992  -8.3987  -8.3781  -8.3775  -7.1595  -7.1590  -7.0396  -7.0393
    -6.8740  -6.8732  -6.7156  -6.7145  -6.6097  -6.6093  -6.3243  -6.3243
    -6.1531  -6.1528  -5.9248  -5.9237  -5.7727  -5.7724  -5.7469  -5.7458
    -5.5672  -5.5670  -5.3735  -5.3731  -4.6823  -4.6815  -4.5774  -4.5767
    -4.2840  -4.2833  -4.2483  -4.2480  -4.1845  -4.1840  -3.9933  -3.9929
    -3.5847  -3.5842  -3.4767  -3.4767  -3.4346  -3.4342  -3.2582  -3.2579
    -3.1416  -3.1412  -2.9966  -2.9960  -2.9635  -2.9624  -2.7637  -2.7623
    -2.0179  -2.0162  -1.9830  -1.9820  -1.4160  -1.4156  -1.3982  -1.3977
    -0.9294  -0.9294  -0.8386  -0.8380  -0.4486  -0.4484  -0.4367  -0.4366
    -0.1395  -0.1388  -0.1114  -0.1106  -0.0221  -0.0211   0.1022   0.1040
     1.1752   1.1756   1.2115   1.2116   4.5765   4.5770   4.7127   4.7133
     6.2157   6.2158   6.2765   6.2772   6.4778   6.4779   6.9314   6.9318
     7.0123   7.0138   7.4644   7.4647   7.7209   7.7212   7.8653   7.8677
     8.0741   8.0748   8.2497   8.2502

          k = 0.0000-0.3384 0.0000 ( 88182 PWs)   bands (ev):

   -20.5931 -20.5927 -20.5383 -20.5378 -19.0365 -19.0359 -18.9285 -18.9280
   -18.5263 -18.5256 -18.4446 -18.4436 -18.2039 -18.2039 -18.1341 -18.1340
   -16.0471 -16.0470 -16.0053 -16.0052 -14.7381 -14.7380 -14.6550 -14.6548
   -12.6111 -12.6107 -12.6041 -12.6038 -11.8941 -11.8941 -11.8643 -11.8640
    -9.9031  -9.9029  -9.6906  -9.6906  -8.7298  -8.7297  -8.6987  -8.6987
    -8.4402  -8.4401  -8.3596  -8.3594  -7.2676  -7.2674  -7.0168  -7.0163
    -6.9627  -6.9626  -6.7012  -6.7004  -6.5017  -6.5016  -6.3431  -6.3428
    -6.0249  -6.0242  -5.9213  -5.9212  -5.8468  -5.8465  -5.7137  -5.7134
    -5.5911  -5.5908  -5.3535  -5.3532  -4.6684  -4.6675  -4.6058  -4.6049
    -4.3065  -4.3058  -4.1926  -4.1924  -4.1199  -4.1198  -4.0844  -4.0843
    -3.5820  -3.5820  -3.4485  -3.4482  -3.4203  -3.4202  -3.2608  -3.2603
    -3.2302  -3.2297  -2.9388  -2.9384  -2.9180  -2.9163  -2.8326  -2.8316
    -2.0622  -2.0607  -1.9911  -1.9903  -1.4582  -1.4579  -1.2847  -1.2841
    -0.9798  -0.9795  -0.8676  -0.8666  -0.5076  -0.5076  -0.3616  -0.3615
    -0.1437  -0.1429  -0.0845  -0.0833  -0.0292  -0.0278   0.1008   0.1028
     1.1912   1.1916   1.2143   1.2146   4.6013   4.6022   4.6897   4.6906
     6.0042   6.0045   6.3000   6.3000   6.4961   6.4962   7.0782   7.0783
     7.3633   7.3637   7.4571   7.4581   7.6031   7.6032   7.8349   7.8360
     8.0898   8.0900   8.3877   8.3880

          k = 0.0000-0.3384-0.4575 ( 88208 PWs)   bands (ev):

   -20.5762 -20.5754 -20.5531 -20.5521 -19.0395 -19.0380 -18.9819 -18.9803
   -18.4510 -18.4502 -18.4369 -18.4354 -18.1865 -18.1863 -18.1719 -18.1718
   -16.0360 -16.0358 -16.0321 -16.0319 -14.7013 -14.7000 -14.6932 -14.6917
   -12.6095 -12.6084 -12.6061 -12.6051 -11.8932 -11.8931 -11.8654 -11.8650
    -9.7951  -9.7944  -9.7761  -9.7755  -8.7542  -8.7539  -8.7328  -8.7324
    -8.3922  -8.3915  -8.3848  -8.3841  -7.1311  -7.1302  -7.0751  -7.0745
    -6.8780  -6.8770  -6.7638  -6.7627  -6.5147  -6.5137  -6.3701  -6.3700
    -6.1482  -6.1480  -5.9491  -5.9484  -5.7558  -5.7550  -5.7222  -5.7212
    -5.5489  -5.5483  -5.3946  -5.3939  -4.7086  -4.7077  -4.5657  -4.5646
    -4.3035  -4.3029  -4.2338  -4.2332  -4.1490  -4.1485  -4.0421  -4.0417
    -3.5746  -3.5739  -3.4886  -3.4880  -3.3611  -3.3607  -3.3391  -3.3384
    -3.0748  -3.0735  -3.0506  -3.0502  -2.9305  -2.9296  -2.7775  -2.7760
    -2.0172  -2.0153  -1.9855  -1.9843  -1.4144  -1.4134  -1.4039  -1.4030
    -0.9111  -0.9107  -0.8622  -0.8611  -0.4431  -0.4429  -0.4397  -0.4394
    -0.1326  -0.1314  -0.0867  -0.0851  -0.0439  -0.0423   0.0955   0.0975
     1.1838   1.1847   1.2046   1.2052   4.5743   4.5755   4.7091   4.7103
     6.2069   6.2073   6.4015   6.4019   6.4944   6.4947   6.6480   6.6495
     7.2503   7.2514   7.3073   7.3078   7.5506   7.5524   8.0402   8.0403
     8.1116   8.1122   8.4959   8.4965

          k = 0.3333 0.0000 0.0765 ( 88204 PWs)   bands (ev):

   -20.5912 -20.5659 -20.5635 -20.5408 -19.0281 -18.9918 -18.9820 -18.9383
   -18.5252 -18.5213 -18.4605 -18.4226 -18.2081 -18.1958 -18.1565 -18.1176
   -16.0386 -16.0341 -16.0191 -16.0122 -14.7284 -14.6999 -14.6774 -14.6677
   -12.6140 -12.6115 -12.6036 -12.5984 -11.9078 -11.9076 -11.8727 -11.8689
    -9.8456  -9.8232  -9.7429  -9.7141  -8.7392  -8.7290  -8.7201  -8.7123
    -8.4621  -8.4167  -8.4084  -8.3836  -7.1719  -7.1109  -7.0520  -7.0086
    -6.9935  -6.9067  -6.7455  -6.7353  -6.5781  -6.5524  -6.3320  -6.2659
    -6.0390  -6.0178  -5.9604  -5.9356  -5.8510  -5.8018  -5.7573  -5.7018
    -5.6402  -5.5437  -5.4477  -5.3730  -4.6786  -4.6626  -4.5604  -4.5560
    -4.3270  -4.2454  -4.2252  -4.1912  -4.1338  -4.0821  -3.9414  -3.9029
    -3.6304  -3.6099  -3.5259  -3.4621  -3.4424  -3.4288  -3.3331  -3.3257
    -3.1979  -3.0757  -3.0474  -3.0313  -2.9483  -2.9138  -2.8162  -2.8053
    -2.0824  -2.0569  -2.0326  -1.9966  -1.4557  -1.3830  -1.3608  -1.2725
    -1.0123  -0.9713  -0.8925  -0.8537  -0.4912  -0.4605  -0.4058  -0.3917
    -0.1516  -0.1046  -0.0825  -0.0712  -0.0405  -0.0135   0.1180   0.1306
     1.1853   1.1980   1.2233   1.2300   4.5276   4.5563   4.6782   4.6787
     6.0210   6.2286   6.2403   6.5784   6.6105   6.6884   6.8988   6.9588
     7.3323   7.3379   7.3826   7.3941   7.5413   7.5537   7.6103   7.7488
     7.9200   8.2702   8.3361   8.3876

          k = 0.3333 0.0000-0.3810 ( 88145 PWs)   bands (ev):

   -20.5802 -20.5703 -20.5561 -20.5477 -19.0839 -19.0332 -18.9948 -18.9290
   -18.4758 -18.4462 -18.4232 -18.4206 -18.2314 -18.1885 -18.1829 -18.1236
   -16.0823 -16.0747 -15.9897 -15.9888 -14.7013 -14.7007 -14.6913 -14.6796
   -12.6220 -12.6130 -12.6030 -12.5865 -11.9065 -11.9007 -11.8831 -11.8702
    -9.8917  -9.8626  -9.6743  -9.6430  -8.8032  -8.7901  -8.6893  -8.6677
    -8.4256  -8.4224  -8.3992  -8.3855  -7.1905  -7.1558  -7.0369  -7.0183
    -6.9000  -6.7644  -6.7600  -6.7379  -6.6296  -6.5255  -6.4099  -6.2752
    -6.2149  -6.0821  -5.9606  -5.9473  -5.8215  -5.7901  -5.7352  -5.7275
    -5.5502  -5.5477  -5.4296  -5.3510  -4.7267  -4.6040  -4.5720  -4.5147
    -4.3335  -4.3299  -4.2684  -4.2137  -4.0986  -4.0645  -4.0010  -3.9324
    -3.6158  -3.5465  -3.5107  -3.4565  -3.4253  -3.4100  -3.3847  -3.3446
    -3.1407  -3.1094  -3.0723  -2.9820  -2.9649  -2.8865  -2.8349  -2.7796
    -2.0495  -2.0130  -1.9997  -1.9822  -1.5172  -1.4194  -1.3926  -1.3015
    -0.9427  -0.9250  -0.8542  -0.8491  -0.5228  -0.5022  -0.3892  -0.3669
    -0.1721  -0.1013  -0.0917  -0.0654  -0.0446  -0.0025   0.0664   0.1723
     1.1524   1.2008   1.2090   1.2351   4.4959   4.5520   4.5886   4.8079
     6.2929   6.3502   6.4089   6.4263   6.5208   6.7532   6.7709   6.9003
     6.9046   7.1326   7.3001   7.3762   7.3883   7.6041   7.6579   7.8704
     8.1263   8.1851   8.3739   8.4039

          k = 0.3333-0.3384 0.0765 ( 88242 PWs)   bands (ev):

   -20.5835 -20.5829 -20.5479 -20.5472 -19.0174 -19.0164 -18.9537 -18.9528
   -18.5205 -18.5197 -18.4488 -18.4477 -18.1934 -18.1932 -18.1422 -18.1419
   -16.0367 -16.0367 -16.0154 -16.0153 -14.7159 -14.7154 -14.6713 -14.6708
   -12.6135 -12.6124 -12.6013 -12.6003 -11.9073 -11.9073 -11.8714 -11.8711
    -9.8361  -9.8360  -9.7270  -9.7268  -8.7331  -8.7329  -8.7167  -8.7166
    -8.4451  -8.4445  -8.3923  -8.3917  -7.1510  -7.1504  -7.0020  -7.0013
    -6.9637  -6.9636  -6.7853  -6.7845  -6.4558  -6.4556  -6.3706  -6.3705
    -6.0271  -6.0266  -5.9423  -5.9418  -5.8650  -5.8645  -5.7242  -5.7238
    -5.5841  -5.5836  -5.3888  -5.3883  -4.6742  -4.6730  -4.5701  -4.5693
    -4.2884  -4.2880  -4.1997  -4.1995  -4.0537  -4.0533  -3.9742  -3.9741
    -3.5947  -3.5942  -3.5297  -3.5293  -3.4101  -3.4099  -3.3430  -3.3425
    -3.1581  -3.1575  -3.0087  -3.0084  -2.9462  -2.9451  -2.8124  -2.8111
    -2.0682  -2.0665  -2.0160  -2.0149  -1.4207  -1.4201  -1.3115  -1.3106
    -0.9899  -0.9895  -0.8770  -0.8760  -0.4828  -0.4827  -0.3995  -0.3994
    -0.1164  -0.1153  -0.0742  -0.0729  -0.0283  -0.0268   0.1166   0.1188
     1.1940   1.1947   1.2241   1.2247   4.5794   4.5802   4.6373   4.6383
     6.1325   6.1332   6.4152   6.4160   6.5956   6.5963   6.9946   6.9951
     7.2603   7.2611   7.3360   7.3369   7.4879   7.4888   7.8522   7.8532
     8.0601   8.0611   8.3392   8.3401

          k = 0.3333-0.3384-0.3810 ( 88160 PWs)   bands (ev):

   -20.5765 -20.5757 -20.5515 -20.5506 -19.0671 -19.0663 -18.9540 -18.9532
   -18.4564 -18.4559 -18.4314 -18.4303 -18.2083 -18.2082 -18.1510 -18.1509
   -16.0786 -16.0785 -15.9892 -15.9892 -14.6993 -14.6982 -14.6883 -14.6871
   -12.6195 -12.6189 -12.5934 -12.5929 -11.9036 -11.9036 -11.8768 -11.8765
    -9.8780  -9.8780  -9.6579  -9.6578  -8.7976  -8.7975  -8.6773  -8.6773
    -8.4183  -8.4175  -8.3995  -8.3989  -7.1721  -7.1720  -7.0199  -7.0187
    -6.8848  -6.8846  -6.7359  -6.7347  -6.5238  -6.5232  -6.3410  -6.3410
    -6.1893  -6.1891  -5.9572  -5.9564  -5.7997  -5.7993  -5.7073  -5.7063
    -5.5940  -5.5936  -5.3584  -5.3581  -4.6820  -4.6812  -4.5275  -4.5266
    -4.3407  -4.3405  -4.2238  -4.2235  -4.0788  -4.0785  -3.9711  -3.9708
    -3.6127  -3.6120  -3.4832  -3.4829  -3.4062  -3.4060  -3.3499  -3.3497
    -3.1144  -3.1138  -3.0344  -3.0335  -2.9424  -2.9410  -2.8007  -2.7993
    -2.0335  -2.0316  -1.9961  -1.9951  -1.4696  -1.4694  -1.3398  -1.3395
    -0.9141  -0.9136  -0.8741  -0.8730  -0.5156  -0.5155  -0.3783  -0.3782
    -0.1218  -0.1212  -0.0929  -0.0918  -0.0174  -0.0168   0.1160   0.1183
     1.1709   1.1715   1.2283   1.2286   4.5101   4.5107   4.7099   4.7103
     6.2841   6.2847   6.4970   6.4982   6.6598   6.6600   6.7775   6.7782
     7.0580   7.0586   7.3082   7.3087   7.4462   7.4474   7.6289   7.6303
     8.1434   8.1449   8.4061   8.4068

     highest occupied, lowest unoccupied level (ev):     1.2351    4.4959

!    total energy              =   -1201.60663647 Ry
     Harris-Foulkes estimate   =   -1201.60663647 Ry
     estimated scf accuracy    <          1.6E-09 Ry

     total all-electron energy =     -4528.444449 Ry

     The total energy is the sum of the following terms:

     one-electron contribution =    -709.91645156 Ry
     hartree contribution      =     448.31136916 Ry
     xc contribution           =    -258.37512405 Ry
     ewald contribution        =    -339.79646546 Ry
     Dispersion Correction     =      -0.34561906 Ry
     one-center paw contrib.   =    -341.48434551 Ry

     convergence has been achieved in  18 iterations

     Forces acting on atoms (cartesian axes, Ry/au):

     atom    1 type  4   force =     0.00043766    0.00049805   -0.00062421
     atom    2 type  4   force =    -0.00041231    0.00047397    0.00049884
     atom    3 type  4   force =    -0.00043766   -0.00049805    0.00062421
     atom    4 type  4   force =     0.00041231   -0.00047397   -0.00049884
     atom    5 type  2   force =     0.00016382   -0.00322041    0.00119861
     atom    6 type  2   force =    -0.00039441   -0.00332191   -0.00122686
     atom    7 type  2   force =    -0.00016382    0.00322041   -0.00119861
     atom    8 type  2   force =     0.00039441    0.00332191    0.00122686
     atom    9 type  2   force =     0.00064116    0.00131138   -0.00340444
     atom   10 type  2   force =    -0.00058798    0.00135395    0.00345581
     atom   11 type  2   force =    -0.00064116   -0.00131138    0.00340444
     atom   12 type  2   force =     0.00058798   -0.00135395   -0.00345581
     atom   13 type  2   force =     0.00066913   -0.00061830    0.00184341
     atom   14 type  2   force =    -0.00092451   -0.00055222   -0.00132425
     atom   15 type  2   force =    -0.00066913    0.00061830   -0.00184341
     atom   16 type  2   force =     0.00092451    0.00055222    0.00132425
     atom   17 type  2   force =     0.00002521    0.00010325   -0.00034065
     atom   18 type  2   force =     0.00020274    0.00016733    0.00026287
     atom   19 type  2   force =    -0.00002521   -0.00010325    0.00034065
     atom   20 type  2   force =    -0.00020274   -0.00016733   -0.00026287
     atom   21 type  1   force =     0.00152821    0.00027243    0.00155853
     atom   22 type  1   force =    -0.00158187    0.00009166   -0.00170147
     atom   23 type  1   force =    -0.00152821   -0.00027243   -0.00155853
     atom   24 type  1   force =     0.00158187   -0.00009166    0.00170147
     atom   25 type  1   force =    -0.00085580    0.00166026    0.00026524
     atom   26 type  1   force =     0.00112753    0.00203132    0.00029002
     atom   27 type  1   force =     0.00085580   -0.00166026   -0.00026524
     atom   28 type  1   force =    -0.00112753   -0.00203132   -0.00029002
     atom   29 type  1   force =    -0.00085084   -0.00061493    0.00025477
     atom   30 type  1   force =     0.00059826   -0.00074518   -0.00043508
     atom   31 type  1   force =     0.00085084    0.00061493   -0.00025477
     atom   32 type  1   force =    -0.00059826    0.00074518    0.00043508
     atom   33 type  1   force =     0.00059246    0.00062397   -0.00054275
     atom   34 type  1   force =    -0.00042751    0.00048274   -0.00020424
     atom   35 type  1   force =    -0.00059246   -0.00062397    0.00054275
     atom   36 type  1   force =     0.00042751   -0.00048274    0.00020424
     atom   37 type  1   force =    -0.00050515   -0.00005316    0.00205111
     atom   38 type  1   force =     0.00058195    0.00000172   -0.00183272
     atom   39 type  1   force =     0.00050515    0.00005316   -0.00205111
     atom   40 type  1   force =    -0.00058195   -0.00000172    0.00183272
     atom   41 type  3   force =     0.00033791    0.00021374   -0.00061814
     atom   42 type  3   force =    -0.00020145    0.00014019    0.00031156
     atom   43 type  3   force =    -0.00033791   -0.00021374    0.00061814
     atom   44 type  3   force =     0.00020145   -0.00014019   -0.00031156
     atom   45 type  3   force =    -0.00081848    0.00036854   -0.00002508
     atom   46 type  3   force =     0.00068912    0.00029694    0.00002803
     atom   47 type  3   force =     0.00081848   -0.00036854    0.00002508
     atom   48 type  3   force =    -0.00068912   -0.00029694   -0.00002803
     atom   49 type  3   force =     0.00001037    0.00009610   -0.00014690
     atom   50 type  3   force =    -0.00002702    0.00009144    0.00008195
     atom   51 type  3   force =    -0.00001037   -0.00009610    0.00014690
     atom   52 type  3   force =     0.00002702   -0.00009144   -0.00008195
     atom   53 type  3   force =     0.00015920   -0.00005934   -0.00050490
     atom   54 type  3   force =    -0.00003330    0.00000448    0.00042739
     atom   55 type  3   force =    -0.00015920    0.00005934    0.00050490
     atom   56 type  3   force =     0.00003330   -0.00000448   -0.00042739
     atom   57 type  3   force =    -0.00038737   -0.00039167   -0.00050960
     atom   58 type  3   force =     0.00022714   -0.00039125    0.00064966
     atom   59 type  3   force =     0.00038737    0.00039167    0.00050960
     atom   60 type  3   force =    -0.00022714    0.00039125   -0.00064966
     atom   61 type  3   force =     0.00039292   -0.00024176    0.00004282
     atom   62 type  3   force =    -0.00043009   -0.00020838    0.00000858
     atom   63 type  3   force =    -0.00039292    0.00024176   -0.00004282
     atom   64 type  3   force =     0.00043009    0.00020838   -0.00000858
     atom   65 type  3   force =    -0.00046928    0.00014855    0.00043960
     atom   66 type  3   force =     0.00047427    0.00015911   -0.00045502
     atom   67 type  3   force =     0.00046928   -0.00014855   -0.00043960
     atom   68 type  3   force =    -0.00047427   -0.00015911    0.00045502
     atom   69 type  3   force =    -0.00255117   -0.00203156    0.00033202
     atom   70 type  3   force =     0.00253929   -0.00204729   -0.00037097
     atom   71 type  3   force =     0.00255117    0.00203156   -0.00033202
     atom   72 type  3   force =    -0.00253929    0.00204729    0.00037097
     atom   73 type  4   force =     0.00003569    0.00035333    0.00112675
     atom   74 type  4   force =    -0.00002657    0.00029183   -0.00117129
     atom   75 type  4   force =    -0.00003569   -0.00035333   -0.00112675
     atom   76 type  4   force =     0.00002657   -0.00029183    0.00117129
     atom   77 type  3   force =    -0.00073273    0.00016325    0.00070824
     atom   78 type  3   force =     0.00073588    0.00018101   -0.00070394
     atom   79 type  3   force =     0.00073273   -0.00016325   -0.00070824
     atom   80 type  3   force =    -0.00073588   -0.00018101    0.00070394
     atom   81 type  3   force =    -0.00037110    0.00019920   -0.00122086
     atom   82 type  3   force =     0.00035517    0.00023639    0.00127343
     atom   83 type  3   force =     0.00037110   -0.00019920    0.00122086
     atom   84 type  3   force =    -0.00035517   -0.00023639   -0.00127343

     Total force =     0.015972     Total SCF correction =     0.000045


     Computing stress (Cartesian axis) and pressure

          total   stress  (Ry/bohr**3)                   (kbar)     P=   -6.34
  -0.00004313   0.00000021   0.00001027         -6.35      0.03      1.51
   0.00000021  -0.00003606  -0.00000004          0.03     -5.30     -0.01
   0.00001027  -0.00000004  -0.00005019          1.51     -0.01     -7.38


     Writing output data file scf.save
 
     init_run     :     30.21s CPU     31.50s WALL (       1 calls)
     electrons    :   1045.50s CPU   1090.94s WALL (       1 calls)
     forces       :     15.90s CPU     16.08s WALL (       1 calls)
     stress       :     58.84s CPU     59.21s WALL (       1 calls)

     Called by init_run:
     wfcinit      :     21.97s CPU     23.10s WALL (       1 calls)
     potinit      :      2.99s CPU      3.04s WALL (       1 calls)

     Called by electrons:
     c_bands      :    934.66s CPU    974.01s WALL (      18 calls)
     sum_band     :     97.93s CPU    102.92s WALL (      18 calls)
     v_of_rho     :      1.83s CPU      2.02s WALL (      19 calls)
     newd         :      4.19s CPU      5.02s WALL (      19 calls)
     PAW_pot      :      6.37s CPU      6.38s WALL (      19 calls)
     mix_rho      :      0.41s CPU      0.44s WALL (      18 calls)

     Called by c_bands:
     init_us_2    :      6.10s CPU      6.14s WALL (     312 calls)
     cegterg      :    912.76s CPU    952.02s WALL (     144 calls)

     Called by sum_band:
     sum_band:bec :      0.07s CPU      0.07s WALL (     144 calls)
     addusdens    :      4.08s CPU      4.89s WALL (      18 calls)

     Called by *egterg:
     h_psi        :    513.08s CPU    543.63s WALL (     669 calls)
     s_psi        :    104.49s CPU    104.59s WALL (     669 calls)
     g_psi        :      2.79s CPU      2.80s WALL (     517 calls)
     cdiaghg      :     52.29s CPU     52.41s WALL (     661 calls)

     Called by h_psi:
     h_psi:pot    :    509.36s CPU    539.84s WALL (     669 calls)
     h_psi:calbec :    103.01s CPU    103.35s WALL (     669 calls)
     vloc_psi     :    301.59s CPU    331.62s WALL (     669 calls)
     add_vuspsi   :    104.76s CPU    104.86s WALL (     669 calls)

     General routines
     calbec       :    147.96s CPU    148.44s WALL (     853 calls)
     fft          :      1.15s CPU      1.48s WALL (     271 calls)
     fftw         :    324.13s CPU    355.93s WALL (  144506 calls)
 
     Parallel routines
     fft_scatter  :     72.56s CPU     96.88s WALL (  144777 calls)
 
     PWSCF        : 19m17.98s CPU    20m40.08s WALL

 
   This run was terminated on:   6:12: 6   4Nov2017            

=------------------------------------------------------------------------------=
   JOB DONE.
=------------------------------------------------------------------------------=
