
     Program PWSCF v.6.1 (svn rev. 13369) starts on 13Nov2017 at 12:24: 3 

     This program is part of the open-source Quantum ESPRESSO suite
     for quantum simulation of materials; please cite
         "P. Giannozzi et al., J. Phys.:Condens. Matter 21 395502 (2009);
          URL http://www.quantum-espresso.org", 
     in publications or presentations arising from this work. More details at
     http://www.quantum-espresso.org/quote

     Parallel version (MPI), running on     8 processors
     R & G space division:  proc/nbgrp/npool/nimage =       8
     Waiting for input...
     Reading input from standard input

     Current dimensions of program PWSCF are:
     Max number of different atomic species (ntypx) = 10
     Max number of k-points (npk) =  40000
     Max angular momentum in pseudopotentials (lmaxx) =  3
               file C.pbe-n-kjpaw_psl.0.1.UPF: wavefunction(s)  2P renormalized
               file N.pbe-n-kjpaw_psl.0.1.UPF: wavefunction(s)  2P renormalized
               file H.pbe-kjpaw_psl.0.1.UPF: wavefunction(s)  1S renormalized
               file O.pbe-n-kjpaw_psl.0.1.UPF: wavefunction(s)  2P renormalized

     -------------------------------------
     Parameters for Dispersion Correction:
     -------------------------------------
       atom      VdW radius       C_6     

        C          2.744         60.710
        N          2.640         42.670
        H          1.892          4.857
        O          2.536         24.284

     Subspace diagonalization in iterative solution of the eigenvalue problem:
     a serial algorithm will be used

 
     Parallelization info
     --------------------
     sticks:   dense  smooth     PW     G-vecs:    dense   smooth      PW
     Min        1416    1416    370               233775   233775   31370
     Max        1417    1417    371               233781   233781   31378
     Sum       11333   11333   2965              1870223  1870223  250997
 


     bravais-lattice index     =            0
     lattice parameter (alat)  =      18.8765  a.u.
     unit-cell volume          =   13845.3602 (a.u.)^3
     number of atoms/cell      =          200
     number of atomic types    =            4
     number of electrons       =       724.00
     number of Kohn-Sham states=          434
     kinetic-energy cutoff     =     100.0000  Ry
     charge density cutoff     =     400.0000  Ry
     convergence threshold     =      1.0E-08
     mixing beta               =       0.5000
     number of iterations used =            8  plain     mixing
     Exchange-correlation      =  SLA  PW   PBX  PBC ( 1  4  3  4 0 0)

     celldm(1)=  18.876474  celldm(2)=   0.000000  celldm(3)=   0.000000
     celldm(4)=   0.000000  celldm(5)=   0.000000  celldm(6)=   0.000000

     crystal axes: (cart. coord. in units of alat)
               a(1) = (   1.000000   0.000000   0.000000 )  
               a(2) = (   0.000000   0.999499   0.000000 )  
               a(3) = (  -0.445013   0.000000   2.059487 )  

     reciprocal axes: (cart. coord. in units 2 pi/alat)
               b(1) = (  1.000000  0.000000  0.216080 )  
               b(2) = (  0.000000  1.000501  0.000000 )  
               b(3) = (  0.000000  0.000000  0.485558 )  


     PseudoPot. # 1 for  C read from file:
     /scratch/ahofstet/pseudo/C.pbe-n-kjpaw_psl.0.1.UPF
     MD5 check sum: 430fe95172b1e11ef3f8ed03bac87931
     Pseudo is Projector augmented-wave + core cor, Zval =  4.0
     Generated using "atomic" code by A. Dal Corso  v.5.0.99 svn rev. 10869
     Shape of augmentation charge: BESSEL
     Using radial grid of 1073 points,  4 beta functions with: 
                l(1) =   0
                l(2) =   0
                l(3) =   1
                l(4) =   1
     Q(r) pseudized with 0 coefficients 


     PseudoPot. # 2 for  N read from file:
     /scratch/ahofstet/pseudo/N.pbe-n-kjpaw_psl.0.1.UPF
     MD5 check sum: f73187c8b701007e77325f868c9291d7
     Pseudo is Projector augmented-wave + core cor, Zval =  5.0
     Generated using "atomic" code by A. Dal Corso  v.5.0.99 svn rev. 10869
     Shape of augmentation charge: PSQ
     Using radial grid of 1085 points,  4 beta functions with: 
                l(1) =   0
                l(2) =   0
                l(3) =   1
                l(4) =   1
     Q(r) pseudized with 0 coefficients 


     PseudoPot. # 3 for  H read from file:
     /scratch/ahofstet/pseudo/H.pbe-kjpaw_psl.0.1.UPF
     MD5 check sum: 94e484f906d9e9773b2f6e52662335b2
     Pseudo is Projector augmented-wave, Zval =  1.0
     Generated using "atomic" code by A. Dal Corso  v.5.0.99 svn rev. 10869
     Shape of augmentation charge: PSQ
     Using radial grid of  929 points,  2 beta functions with: 
                l(1) =   0
                l(2) =   0
     Q(r) pseudized with 0 coefficients 


     PseudoPot. # 4 for  O read from file:
     /scratch/ahofstet/pseudo/O.pbe-n-kjpaw_psl.0.1.UPF
     MD5 check sum: 3f94a2996a3169367d6eb21d9b593f20
     Pseudo is Projector augmented-wave + core cor, Zval =  6.0
     Generated using "atomic" code by A. Dal Corso  v.5.0.99 svn rev. 10869
     Shape of augmentation charge: BESSEL
     Using radial grid of 1095 points,  4 beta functions with: 
                l(1) =   0
                l(2) =   0
                l(3) =   1
                l(4) =   1
     Q(r) pseudized with 0 coefficients 


     atomic species   valence    mass     pseudopotential
        C              4.00    12.01070      C( 1.00)
        N              5.00    14.00670      N( 1.00)
        H              1.00     1.00794      H( 1.00)
        O              6.00    15.99940      O( 1.00)

     No symmetry found
          (note:  1 additional sym.ops. were found but ignored
           their fractional translations are incommensurate with FFT grid)


   Cartesian axes

     site n.     atom                  positions (alat units)
         1           O   tau(   1) = (   0.3943683   0.1462659   1.2701590  )
         2           O   tau(   2) = (   0.1606182   0.6460156   0.7893280  )
         3           O   tau(   3) = (   0.5509325   0.0081275   1.1784513  )
         4           O   tau(   4) = (   0.0040540   0.5078773   0.8810357  )
         5           O   tau(   5) = (  -0.2951224   0.1262140   1.5728483  )
         6           O   tau(   6) = (   0.8501089   0.6259637   0.4866387  )
         7           O   tau(   7) = (   0.6742109   0.2361665   1.3753019  )
         8           O   tau(   8) = (  -0.1192244   0.7359163   0.6841851  )
         9           O   tau(   9) = (   0.1370558   0.0486168   1.2145847  )
        10           O   tau(  10) = (   0.4179308   0.5483665   0.8449023  )
        11           O   tau(  11) = (  -0.0271206   0.1389928   1.3445257  )
        12           O   tau(  12) = (   0.5821072   0.6387426   0.7149613  )
        13           O   tau(  13) = (  -0.1137446   0.8957702   1.1450241  )
        14           O   tau(  14) = (   0.6687311   0.3960205   0.9144629  )
        15           O   tau(  15) = (  -0.1584666   0.7295956   1.2947285  )
        16           O   tau(  16) = (   0.7134531   0.2298459   0.7647585  )
        17           C   tau(  17) = (   0.3296255   0.1698790   1.1406407  )
        18           C   tau(  18) = (   0.2253610   0.6696287   0.9188463  )
        19           H   tau(  19) = (   0.3496490   0.0825567   1.0765618  )
        20           H   tau(  20) = (   0.2053375   0.5823064   0.9829251  )
        21           C   tau(  21) = (   0.3873711   0.2963562   1.0794953  )
        22           C   tau(  22) = (   0.1676154   0.7961059   0.9799917  )
        23           H   tau(  23) = (   0.4964197   0.2875448   1.0720029  )
        24           H   tau(  24) = (   0.0585668   0.7872945   0.9874841  )
        25           H   tau(  25) = (   0.3636083   0.3837370   1.1420744  )
        26           H   tau(  26) = (   0.1913782   0.8834867   0.9174125  )
        27           H   tau(  27) = (   0.3467867   0.3127674   0.9787761  )
        28           H   tau(  28) = (   0.2081998   0.8125171   1.0807109  )
        29           C   tau(  29) = (   0.4990318   0.0618499   1.2742317  )
        30           C   tau(  30) = (   0.0559547   0.5615996   0.7852553  )
        31           C   tau(  31) = (   0.5449630   0.0413125   1.4193738  )
        32           C   tau(  32) = (   0.0100235   0.5410622   0.6401132  )
        33           C   tau(  33) = (   0.6493812   0.1454271   1.4527334  )
        34           C   tau(  34) = (  -0.0943947   0.6451768   0.6067536  )
        35           C   tau(  35) = (  -0.1920904   0.2222767   1.6139360  )
        36           C   tau(  36) = (   0.7470769   0.7220264   0.4455510  )
        37           H   tau(  37) = (  -0.2222020   0.3223837   1.5800660  )
        38           H   tau(  38) = (   0.7771885   0.8221334   0.4794210  )
        39           H   tau(  39) = (  -0.0996291   0.1942451   1.5617045  )
        40           H   tau(  40) = (   0.6546156   0.6939948   0.4977825  )
        41           C   tau(  41) = (  -0.1802903   0.2134608   1.7641154  )
        42           C   tau(  42) = (   0.7352768   0.7132105   0.2953716  )
        43           H   tau(  43) = (  -0.1017872   0.2823485   1.7984775  )
        44           H   tau(  44) = (   0.6567737   0.7820982   0.2610095  )
        45           H   tau(  45) = (  -0.1529661   0.1119737   1.7963058  )
        46           H   tau(  46) = (   0.7079526   0.6117234   0.2631812  )
        47           H   tau(  47) = (  -0.2746770   0.2419130   1.8127808  )
        48           H   tau(  48) = (   0.8296636   0.7416627   0.2467062  )
        49           C   tau(  49) = (   0.1799902   0.1808717   1.1689930  )
        50           C   tau(  50) = (   0.3749963   0.6806214   0.8904940  )
        51           H   tau(  51) = (   0.1628942   0.2521065   1.2512347  )
        52           H   tau(  52) = (   0.3920923   0.7518562   0.8082523  )
        53           C   tau(  53) = (   0.0969619   0.2166894   1.0469647  )
        54           C   tau(  54) = (   0.4580246   0.7164391   1.0125223  )
        55           H   tau(  55) = (  -0.0088515   0.2029603   1.0723420  )
        56           H   tau(  56) = (   0.5638380   0.7027100   0.9871450  )
        57           H   tau(  57) = (   0.1216443   0.1509555   0.9623245  )
        58           H   tau(  58) = (   0.4333422   0.6507052   1.0971625  )
        59           H   tau(  59) = (   0.1117631   0.3211503   1.0164767  )
        60           H   tau(  60) = (   0.4432235   0.8209001   1.0430103  )
        61           C   tau(  61) = (   0.0350935   0.0436025   1.3023730  )
        62           C   tau(  62) = (   0.5198930   0.5433523   0.7571140  )
        63           C   tau(  63) = (   0.0074524   0.8987962   1.3440054  )
        64           C   tau(  64) = (   0.5475342   0.3990464   0.7154816  )
        65           C   tau(  65) = (  -0.0992956   0.8305011   1.2615781  )
        66           C   tau(  66) = (   0.6542821   0.3307514   0.7979089  )
        67           C   tau(  67) = (  -0.2079628   0.8364246   1.0492806  )
        68           C   tau(  68) = (   0.7629493   0.3366749   1.0102064  )
        69           H   tau(  69) = (   0.6962997   0.8246214   1.1012973  )
        70           H   tau(  70) = (  -0.1413131   0.3248717   0.9581897  )
        71           H   tau(  71) = (  -0.1690380   0.7371837   1.0215617  )
        72           H   tau(  72) = (   0.7240245   0.2374339   1.0379253  )
        73           C   tau(  73) = (   0.7818247   0.9287681   0.9303112  )
        74           C   tau(  74) = (  -0.2268382   0.4290184   1.1291758  )
        75           H   tau(  75) = (   0.7124767   0.8848156   0.8571195  )
        76           H   tau(  76) = (  -0.1574901   0.3850659   1.2023675  )
        77           H   tau(  77) = (  -0.1212607   0.9403166   0.8798019  )
        78           H   tau(  78) = (   0.6762472   0.4405669   1.1796851  )
        79           H   tau(  79) = (   0.7439731   0.0279346   0.9598903  )
        80           H   tau(  80) = (  -0.1889866   0.5276843   1.0995967  )
        81           C   tau(  81) = (   0.2839057   0.0494659   1.6944213  )
        82           C   tau(  82) = (   0.2710808   0.5492157   0.3650657  )
        83           C   tau(  83) = (   0.4240340   0.0336607   1.6624264  )
        84           C   tau(  84) = (   0.1309525   0.5334104   0.3970606  )
        85           C   tau(  85) = (   0.2351583   0.0197767   1.8221176  )
        86           C   tau(  86) = (   0.3198282   0.5195264   0.2373694  )
        87           C   tau(  87) = (   0.2047270   0.0186582   1.5776877  )
        88           C   tau(  88) = (   0.3502595   0.5184079   0.4817993  )
        89           C   tau(  89) = (   0.4347263   0.0050064   1.5171424  )
        90           C   tau(  90) = (   0.1202602   0.5047561   0.5423445  )
        91           C   tau(  91) = (   0.5099535   0.9785750   1.7563277  )
        92           C   tau(  92) = (   0.0450330   0.4788253   0.3031593  )
        93           C   tau(  93) = (   0.2962524   0.9785115   1.4721358  )
        94           C   tau(  94) = (   0.2587341   0.4787618   0.5873512  )
        95           C   tau(  95) = (   0.3251180   0.9651652   1.9212013  )
        96           C   tau(  96) = (   0.2298685   0.4654155   0.1382857  )
        97           C   tau(  97) = (   0.0790992   0.9606515   1.5909459  )
        98           C   tau(  98) = (   0.4758873   0.4609018   0.4685411  )
        99           C   tau(  99) = (   0.1070102   0.9547284   1.8360722  )
       100           C   tau( 100) = (   0.4479763   0.4549787   0.2234148  )
       101           C   tau( 101) = (   0.4595835   0.9440733   1.8880815  )
       102           C   tau( 102) = (   0.0954030   0.4443236   0.1714055  )
       103           C   tau( 103) = (   0.0319715   0.9240217   1.7217486  )
       104           C   tau( 104) = (   0.5230150   0.4242720   0.3377384  )
       105           C   tau( 105) = (   0.5456718   0.8972895   1.4723265  )
       106           C   tau( 106) = (   0.0093147   0.3975398   0.5871605  )
       107           C   tau( 107) = (   0.2654003   0.8773130   1.3855026  )
       108           C   tau( 108) = (   0.2895862   0.3775633   0.6739844  )
       109           C   tau( 109) = (   0.6096492   0.8774458   1.7175588  )
       110           C   tau( 110) = (  -0.0546626   0.3776960   0.3419282  )
       111           C   tau( 111) = (   0.0249996   0.8649759   1.4909746  )
       112           C   tau( 112) = (   0.5299869   0.3652261   0.5685124  )
       113           C   tau( 113) = (   0.2518716   0.8657852   1.9974215  )
       114           C   tau( 114) = (   0.3031149   0.3660354   0.0620655  )
       115           C   tau( 115) = (   0.1167334   0.8594038   1.9447048  )
       116           C   tau( 116) = (   0.4382531   0.3596541   0.1147822  )
       117           C   tau( 117) = (   0.6228848   0.8353442   1.5851560  )
       118           C   tau( 118) = (  -0.0678983   0.3355944   0.4743310  )
       119           C   tau( 119) = (   0.5259013   0.8227389   1.9308130  )
       120           C   tau( 120) = (   0.0290852   0.3229892   0.1286740  )
       121           C   tau( 121) = (   0.1304994   0.8172960   1.3792105  )
       122           C   tau( 122) = (   0.4244871   0.3175463   0.6802765  )
       123           C   tau( 123) = (  -0.0371380   0.7973391   1.7108182  )
       124           C   tau( 124) = (   0.5921246   0.2975894   0.3486688  )
       125           C   tau( 125) = (  -0.3823998   0.7817860   1.8258425  )
       126           C   tau( 126) = (   0.9373864   0.2820363   0.2336445  )
       127           C   tau( 127) = (   0.4936849   0.7815185   1.3947602  )
       128           C   tau( 128) = (   0.0613016   0.2817688   0.6647268  )
       129           C   tau( 129) = (   0.3628758   0.7761668   1.3489487  )
       130           C   tau( 130) = (   0.1921107   0.2764171   0.7105383  )
       131           C   tau( 131) = (   0.3162584   0.7485578   2.0380449  )
       132           C   tau( 132) = (   0.2387281   0.2488081   0.0214421  )
       133           C   tau( 133) = (  -0.0349595   0.7545798   1.5725360  )
       134           C   tau( 134) = (   0.5899460   0.2548301   0.4869510  )
       135           C   tau( 135) = (   0.0504985   0.7367960   1.9347541  )
       136           C   tau( 136) = (   0.5044881   0.2370463   0.1247329  )
       137           C   tau( 137) = (   0.4558887   0.7270543   2.0052309  )
       138           C   tau( 138) = (   0.0990978   0.2273046   0.0542561  )
       139           C   tau( 139) = (  -0.0278403   0.7052892   1.8164457  )
       140           C   tau( 140) = (   0.5828268   0.2055395   0.2430413  )
       141           C   tau( 141) = (   0.6348372   0.6936504   1.5588599  )
       142           C   tau( 142) = (  -0.0798506   0.1939007   0.5006271  )
       143           C   tau( 143) = (   0.1524865   0.6712023   1.3654548  )
       144           C   tau( 144) = (   0.4025000   0.1714526   0.6940322  )
       145           C   tau( 145) = (   0.5563927   0.6611234   1.4417483  )
       146           C   tau( 146) = (  -0.0014061   0.1613737   0.6177387  )
       147           C   tau( 147) = (   0.2928204   0.6500684   1.3389324  )
       148           C   tau( 148) = (   0.2621661   0.1503186   0.7205546  )
       149           C   tau( 149) = (  -0.3635567   0.6450660   1.7998277  )
       150           C   tau( 150) = (   0.9185432   0.1453163   0.2596593  )
       151           C   tau( 151) = (   0.2474807   0.6212976   2.0287944  )
       152           C   tau( 152) = (   0.3075058   0.1215478   0.0306926  )
       153           C   tau( 153) = (  -0.0119400   0.6199002   1.5448600  )
       154           C   tau( 154) = (   0.5669265   0.1201505   0.5146270  )
       155           C   tau( 155) = (   0.1171950   0.6154157   1.9780033  )
       156           C   tau( 156) = (   0.4377916   0.1156660   0.0814837  )
       157           C   tau( 157) = (  -0.3552321   0.6000599   1.6630360  )
       158           C   tau( 158) = (   0.9102187   0.1003101   0.3964510  )
       159           C   tau( 159) = (   0.4740371   0.5857999   1.9765202  )
       160           C   tau( 160) = (   0.0809495   0.0860501   0.0829668  )
       161           C   tau( 161) = (   0.0810973   0.5776670   1.4391310  )
       162           C   tau( 162) = (   0.4738892   0.0779173   0.6203560  )
       163           C   tau( 163) = (  -0.0097336   0.5654365   1.7866608  )
       164           C   tau( 164) = (   0.5647201   0.0656867   0.2728262  )
       165           C   tau( 165) = (   0.5627915   0.5459346   1.8759616  )
       166           C   tau( 166) = (  -0.0078050   0.0461849   0.1835254  )
       167           C   tau( 167) = (   0.4910640   0.5375383   1.4315336  )
       168           C   tau( 168) = (   0.0639225   0.0377886   0.6279534  )
       169           C   tau( 169) = (   0.3568313   0.5317596   1.3786999  )
       170           C   tau( 170) = (   0.1981552   0.0320099   0.6807871  )
       171           C   tau( 171) = (   0.3452730   0.5208177   1.9906025  )
       172           C   tau( 172) = (   0.2097136   0.0210680   0.0688845  )
       173           C   tau( 173) = (  -0.0010708   0.5241176   1.6528264  )
       174           C   tau( 174) = (   0.5560574   0.0243679   0.4066606  )
       175           C   tau( 175) = (   0.0796443   0.5092672   1.8862896  )
       176           C   tau( 176) = (   0.4753422   0.0095175   0.1731974  )
       177           C   tau( 177) = (   0.5759097   0.4724530   1.6534107  )
       178           C   tau( 178) = (  -0.0209232   0.9722027   0.4060763  )
       179           C   tau( 179) = (   0.1474532   0.4564059   1.4835309  )
       180           C   tau( 180) = (   0.4075333   0.9561556   0.5759561  )
       181           C   tau( 181) = (   0.5001888   0.4419589   1.5399773  )
       182           C   tau( 182) = (   0.0547977   0.9417086   0.5195097  )
       183           C   tau( 183) = (   0.5249952   0.4392236   1.7850382  )
       184           C   tau( 184) = (   0.0299913   0.9389733   0.2744488  )
       185           C   tau( 185) = (   0.2821546   0.4330156   1.4531253  )
       186           C   tau( 186) = (   0.2728319   0.9327654   0.6063617  )
       187           C   tau( 187) = (   0.0968091   0.4233408   1.6153780  )
       188           C   tau( 188) = (   0.4581774   0.9230906   0.4441090  )
       189           C   tau( 189) = (   0.3086677   0.4179817   1.9029110  )
       190           C   tau( 190) = (   0.2463188   0.9177314   0.1565760  )
       191           C   tau( 191) = (   0.1739126   0.4125677   1.8497606  )
       192           C   tau( 192) = (   0.3810739   0.9123174   0.2097264  )
       193           C   tau( 193) = (   0.3713215   0.3770689   1.5531974  )
       194           C   tau( 194) = (   0.1836650   0.8768186   0.5062895  )
       195           C   tau( 195) = (   0.4003513   0.3766698   1.7982145  )
       196           C   tau( 196) = (   0.1546352   0.8764195   0.2612725  )
       197           C   tau( 197) = (   0.1821488   0.3687109   1.7116893  )
       198           C   tau( 198) = (   0.3728377   0.8684606   0.3477977  )
       199           C   tau( 199) = (   0.3222276   0.3460975   1.6802058  )
       200           C   tau( 200) = (   0.2327589   0.8458472   0.3792812  )

     number of k points=     4
                       cart. coord. in units 2pi/alat
        k(    1) = (   0.0000000   0.0000000   0.0000000), wk =   0.5000000
        k(    2) = (   0.0000000  -0.5002504   0.0000000), wk =   0.5000000
        k(    3) = (  -0.5000000   0.0000000  -0.1080399), wk =   0.5000000
        k(    4) = (  -0.5000000  -0.5002504  -0.1080399), wk =   0.5000000

     Dense  grid:  1870223 G-vectors     FFT dimensions: ( 125, 125, 256)

     Estimated max dynamical RAM per process >    3372.97MB

     Estimated total allocated dynamical RAM >   26983.76MB

     Check: negative/imaginary core charge=   -0.000002    0.000000

     Initial potential from superposition of free atoms

     starting charge  723.99348, renormalised to  724.00000
     Starting wfc are  692 randomized atomic wfcs
     Checking if some PAW data can be deallocated... 

     total cpu time spent up to now is      233.2 secs

     per-process dynamical memory:  1768.0 Mb

     Self-consistent Calculation

     iteration #  1     ecut=   100.00 Ry     beta=0.50
     Davidson diagonalization with overlap
     ethr =  1.00E-02,  avg # of iterations =  5.0

     total cpu time spent up to now is      922.8 secs

     total energy              =   -3433.26617147 Ry
     Harris-Foulkes estimate   =   -3443.97018354 Ry
     estimated scf accuracy    <      20.32823876 Ry

     iteration #  2     ecut=   100.00 Ry     beta=0.50
     Davidson diagonalization with overlap
     ethr =  2.81E-03,  avg # of iterations =  2.0

     total cpu time spent up to now is     1262.9 secs

     total energy              =   -3433.38519438 Ry
     Harris-Foulkes estimate   =   -3435.24210140 Ry
     estimated scf accuracy    <       3.42559476 Ry

     iteration #  3     ecut=   100.00 Ry     beta=0.50
     Davidson diagonalization with overlap
     ethr =  4.73E-04,  avg # of iterations =  5.2

     total cpu time spent up to now is     2087.9 secs

     total energy              =   -3436.01985428 Ry
     Harris-Foulkes estimate   =   -3437.35587357 Ry
     estimated scf accuracy    <       3.54199850 Ry

     iteration #  4     ecut=   100.00 Ry     beta=0.50
     Davidson diagonalization with overlap
     ethr =  4.73E-04,  avg # of iterations =  3.2

     total cpu time spent up to now is     2427.3 secs

     total energy              =   -3435.89444552 Ry
     Harris-Foulkes estimate   =   -3436.32429087 Ry
     estimated scf accuracy    <       0.88283057 Ry

     iteration #  5     ecut=   100.00 Ry     beta=0.50
     Davidson diagonalization with overlap
     ethr =  1.22E-04,  avg # of iterations =  7.8

     total cpu time spent up to now is     3150.2 secs

     total energy              =   -3436.34451970 Ry
     Harris-Foulkes estimate   =   -3436.49627070 Ry
     estimated scf accuracy    <       0.62812070 Ry

     iteration #  6     ecut=   100.00 Ry     beta=0.50
     Davidson diagonalization with overlap
     c_bands:  1 eigenvalues not converged
     c_bands:  2 eigenvalues not converged
     ethr =  8.68E-05,  avg # of iterations = 18.0

     total cpu time spent up to now is     3633.7 secs

     total energy              =   -3436.35243006 Ry
     Harris-Foulkes estimate   =   -3436.46086058 Ry
     estimated scf accuracy    <       0.29262412 Ry

     iteration #  7     ecut=   100.00 Ry     beta=0.50
     Davidson diagonalization with overlap
     c_bands:  1 eigenvalues not converged
     ethr =  4.04E-05,  avg # of iterations = 12.2

     total cpu time spent up to now is     4038.6 secs

     total energy              =   -3436.34369683 Ry
     Harris-Foulkes estimate   =   -3436.37897960 Ry
     estimated scf accuracy    <       0.06363800 Ry

     iteration #  8     ecut=   100.00 Ry     beta=0.50
     Davidson diagonalization with overlap
     ethr =  8.79E-06,  avg # of iterations =  9.5

     total cpu time spent up to now is     4903.1 secs

     total energy              =   -3436.39278721 Ry
     Harris-Foulkes estimate   =   -3436.39959831 Ry
     estimated scf accuracy    <       0.03573498 Ry

     iteration #  9     ecut=   100.00 Ry     beta=0.50
     Davidson diagonalization with overlap
     ethr =  4.94E-06,  avg # of iterations =  1.0

     total cpu time spent up to now is     5225.9 secs

     total energy              =   -3436.38401918 Ry
     Harris-Foulkes estimate   =   -3436.39363584 Ry
     estimated scf accuracy    <       0.02238756 Ry

     iteration # 10     ecut=   100.00 Ry     beta=0.50
     Davidson diagonalization with overlap
     ethr =  3.09E-06,  avg # of iterations =  4.2

     total cpu time spent up to now is     5631.8 secs

     total energy              =   -3436.38804237 Ry
     Harris-Foulkes estimate   =   -3436.38854528 Ry
     estimated scf accuracy    <       0.00121908 Ry

     iteration # 11     ecut=   100.00 Ry     beta=0.50
     Davidson diagonalization with overlap
     ethr =  1.68E-07,  avg # of iterations =  5.0

     total cpu time spent up to now is     6405.7 secs

     total energy              =   -3436.38914465 Ry
     Harris-Foulkes estimate   =   -3436.38965839 Ry
     estimated scf accuracy    <       0.00119753 Ry

     iteration # 12     ecut=   100.00 Ry     beta=0.50
     Davidson diagonalization with overlap
     ethr =  1.65E-07,  avg # of iterations =  2.0

     total cpu time spent up to now is     6734.5 secs

     total energy              =   -3436.38904065 Ry
     Harris-Foulkes estimate   =   -3436.38920903 Ry
     estimated scf accuracy    <       0.00031306 Ry

     iteration # 13     ecut=   100.00 Ry     beta=0.50
     Davidson diagonalization with overlap
     ethr =  4.32E-08,  avg # of iterations =  4.0

     total cpu time spent up to now is     7408.9 secs

     total energy              =   -3436.38926849 Ry
     Harris-Foulkes estimate   =   -3436.38934544 Ry
     estimated scf accuracy    <       0.00020403 Ry

     iteration # 14     ecut=   100.00 Ry     beta=0.50
     Davidson diagonalization with overlap
     ethr =  2.82E-08,  avg # of iterations =  1.2

     total cpu time spent up to now is     7732.1 secs

     total energy              =   -3436.38925492 Ry
     Harris-Foulkes estimate   =   -3436.38927712 Ry
     estimated scf accuracy    <       0.00006817 Ry

     iteration # 15     ecut=   100.00 Ry     beta=0.50
     Davidson diagonalization with overlap
     ethr =  9.42E-09,  avg # of iterations =  4.0

     total cpu time spent up to now is     8268.0 secs

     total energy              =   -3436.38928501 Ry
     Harris-Foulkes estimate   =   -3436.38928460 Ry
     estimated scf accuracy    <       0.00000171 Ry

     iteration # 16     ecut=   100.00 Ry     beta=0.50
     Davidson diagonalization with overlap
     ethr =  2.36E-10,  avg # of iterations =  4.0

     total cpu time spent up to now is     9025.1 secs

     total energy              =   -3436.38928419 Ry
     Harris-Foulkes estimate   =   -3436.38928660 Ry
     estimated scf accuracy    <       0.00000556 Ry

     iteration # 17     ecut=   100.00 Ry     beta=0.50
     Davidson diagonalization with overlap
     ethr =  2.36E-10,  avg # of iterations =  5.0

     total cpu time spent up to now is     9566.5 secs

     total energy              =   -3436.38928482 Ry
     Harris-Foulkes estimate   =   -3436.38928497 Ry
     estimated scf accuracy    <       0.00000030 Ry

     iteration # 18     ecut=   100.00 Ry     beta=0.50
     Davidson diagonalization with overlap
     ethr =  4.15E-11,  avg # of iterations =  4.0

     total cpu time spent up to now is    10238.6 secs

     total energy              =   -3436.38928494 Ry
     Harris-Foulkes estimate   =   -3436.38928504 Ry
     estimated scf accuracy    <       0.00000029 Ry

     iteration # 19     ecut=   100.00 Ry     beta=0.50
     Davidson diagonalization with overlap
     ethr =  4.01E-11,  avg # of iterations =  1.0

     total cpu time spent up to now is    10561.0 secs

     total energy              =   -3436.38928492 Ry
     Harris-Foulkes estimate   =   -3436.38928496 Ry
     estimated scf accuracy    <       0.00000010 Ry

     iteration # 20     ecut=   100.00 Ry     beta=0.50
     Davidson diagonalization with overlap
     ethr =  1.41E-11,  avg # of iterations =  4.0

     total cpu time spent up to now is    11074.0 secs

     End of self-consistent calculation

          k = 0.0000 0.0000 0.0000 (233687 PWs)   bands (ev):

   -20.0887 -20.0873 -19.9139 -19.9127 -19.7013 -19.7010 -19.6776 -19.6772
   -17.8544 -17.8541 -17.6788 -17.6787 -17.5569 -17.5563 -17.4848 -17.4848
   -16.2493 -16.2451 -15.7891 -15.7749 -15.7339 -15.7314 -15.5963 -15.5923
   -15.1030 -15.0950 -14.8367 -14.8225 -14.6747 -14.6747 -14.6598 -14.6577
   -14.5774 -14.5754 -13.9219 -13.9147 -13.7439 -13.7396 -13.6287 -13.6159
   -13.5459 -13.5411 -13.2926 -13.2910 -12.7588 -12.7580 -12.7434 -12.7429
   -12.5573 -12.5550 -12.2832 -12.2813 -12.0831 -12.0657 -11.5554 -11.5402
   -11.5109 -11.5108 -11.4758 -11.4750 -11.4146 -11.4130 -11.2841 -11.2834
   -11.1395 -11.1305 -11.0948 -11.0762 -11.0257 -11.0190 -11.0085 -11.0078
   -10.6281 -10.6060 -10.5126 -10.4953 -10.1182 -10.1109  -9.6241  -9.6184
    -9.5966  -9.5929  -9.5668  -9.5650  -9.4301  -9.4254  -9.4191  -9.4115
    -9.3901  -9.3680  -9.3340  -9.3152  -9.2780  -9.2551  -8.8064  -8.7384
    -8.5193  -8.5072  -8.4148  -8.4022  -8.2965  -8.2947  -8.0653  -8.0545
    -7.9233  -7.9063  -7.6829  -7.6760  -7.3735  -7.3707  -7.3310  -7.3182
    -7.2789  -7.2666  -7.2532  -7.2531  -7.2342  -7.2277  -7.1651  -7.1508
    -7.1334  -7.1273  -6.8255  -6.7997  -6.7306  -6.6890  -6.3743  -6.3239
    -6.2435  -6.1600  -5.9470  -5.9439  -5.8822  -5.8722  -5.7091  -5.6757
    -5.6353  -5.6316  -5.5939  -5.5866  -5.5779  -5.5642  -5.3366  -5.3364
    -5.1854  -5.1804  -5.1225  -5.1061  -5.0866  -5.0722  -4.9955  -4.9807
    -4.8272  -4.8152  -4.7901  -4.7692  -4.6663  -4.6595  -4.6456  -4.6367
    -4.6028  -4.5837  -4.3475  -4.3406  -4.3060  -4.2019  -4.1395  -4.1345
    -4.0934  -4.0812  -4.0540  -4.0238  -3.9050  -3.8661  -3.8190  -3.7727
    -3.7610  -3.7485  -3.6125  -3.5920  -3.5396  -3.5196  -3.4869  -3.4762
    -3.4410  -3.3940  -3.3861  -3.3712  -3.3469  -3.3253  -3.2938  -3.2936
    -3.1994  -3.1860  -3.1449  -3.1373  -3.1286  -3.1278  -3.0929  -3.0816
    -3.0400  -2.9888  -2.9389  -2.9308  -2.9024  -2.9021  -2.8638  -2.8443
    -2.8349  -2.8130  -2.6776  -2.6744  -2.6556  -2.6495  -2.5990  -2.5815
    -2.4787  -2.4599  -2.4572  -2.4348  -2.4019  -2.3613  -2.3572  -2.3294
    -2.3048  -2.2808  -2.2566  -2.2304  -2.2044  -2.2033  -2.1784  -2.1645
    -2.1444  -2.1351  -2.1028  -2.0940  -2.0799  -2.0264  -2.0084  -1.9926
    -1.9620  -1.9293  -1.9111  -1.8665  -1.8088  -1.7962  -1.7724  -1.7372
    -1.6929  -1.6854  -1.6813  -1.6268  -1.5970  -1.5936  -1.5837  -1.5814
    -1.5420  -1.4893  -1.4823  -1.4541  -1.4117  -1.3899  -1.3183  -1.2966
    -1.2220  -1.2200  -1.1885  -1.1501  -1.0232  -1.0210  -0.9749  -0.9596
    -0.9069  -0.8934  -0.8931  -0.8315  -0.8212  -0.8025  -0.7009  -0.6704
    -0.6659  -0.6457  -0.6142  -0.5921  -0.5444  -0.5164  -0.5086  -0.4863
    -0.4436  -0.4433  -0.4281  -0.4118  -0.3842  -0.3780  -0.3418  -0.3349
    -0.3131  -0.3100  -0.2971  -0.2880  -0.2846  -0.2780  -0.2355  -0.2344
    -0.2224  -0.2081  -0.1789  -0.1713  -0.1488  -0.1343  -0.1065  -0.0851
    -0.0547  -0.0318  -0.0143  -0.0077   0.0818   0.1147   0.3426   0.3865
     0.5140   0.5690   0.6596   0.6732   0.7918   0.8088   0.8678   0.8875
     0.9939   1.0071   1.0767   1.1399   1.2312   1.2434   1.2922   1.2958
     1.3393   1.3620   1.3732   1.4390   1.4947   1.5050   1.5374   1.5878
     1.5880   1.5969   1.6235   1.6336   1.8054   1.8369   1.8686   1.9009
     2.2415   2.3156   2.4733   2.5245   2.5306   2.5492   2.5930   2.6529
     2.9234   2.9630   4.2008   4.2278   4.2745   4.3553   4.6825   4.7035
     5.2793   5.2867   5.3725   5.4048   5.5116   5.5210   5.7390   5.7510
     5.9974   5.9980   6.1985   6.2554   6.2849   6.3287   6.3476   6.3486
     6.4241   6.4428   6.4875   6.4936   6.5548   6.5703   6.6095   6.6449
     6.6691   6.6892   6.9610   6.9923   7.2333   7.2489   7.3981   7.6728
     7.6870   7.7400   7.8353   7.8409   7.9100   7.9840   8.0214   8.0464
     8.0638   8.1385   8.1918   8.2939   8.3133   8.3472   8.3521   8.4194
     8.5009   8.5973   8.6886   8.7158   8.8707   8.9610   8.9627   9.0477
     9.0663   9.0843   9.1137   9.1581   9.2233   9.2600   9.2635   9.2822
     9.3197   9.3698

          k = 0.0000-0.5003 0.0000 (233736 PWs)   bands (ev):

   -20.0880 -20.0880 -19.9133 -19.9133 -19.7011 -19.7011 -19.6774 -19.6774
   -17.8543 -17.8542 -17.6788 -17.6788 -17.5566 -17.5566 -17.4848 -17.4848
   -16.2404 -16.2403 -15.7881 -15.7881 -15.7343 -15.7342 -15.6102 -15.6101
   -15.0961 -15.0961 -14.8354 -14.8353 -14.6609 -14.6609 -14.6273 -14.6273
   -14.5788 -14.5788 -13.9194 -13.9194 -13.7586 -13.7585 -13.6208 -13.6208
   -13.5424 -13.5424 -13.3068 -13.3067 -12.7595 -12.7594 -12.7419 -12.7419
   -12.5678 -12.5678 -12.2760 -12.2760 -12.0734 -12.0734 -11.5441 -11.5441
   -11.4930 -11.4930 -11.4789 -11.4789 -11.4235 -11.4234 -11.3034 -11.3034
   -11.1335 -11.1335 -11.0872 -11.0872 -11.0067 -11.0067 -10.9835 -10.9835
   -10.6169 -10.6169 -10.5012 -10.5012 -10.1244 -10.1244  -9.6240  -9.6240
    -9.5938  -9.5938  -9.5616  -9.5616  -9.4402  -9.4402  -9.4188  -9.4187
    -9.4001  -9.4001  -9.3285  -9.3285  -9.2600  -9.2600  -8.7690  -8.7690
    -8.4997  -8.4997  -8.4278  -8.4278  -8.2822  -8.2822  -8.0326  -8.0325
    -7.9228  -7.9228  -7.6938  -7.6938  -7.3703  -7.3702  -7.3315  -7.3315
    -7.2773  -7.2773  -7.2385  -7.2385  -7.2317  -7.2316  -7.1707  -7.1707
    -7.1102  -7.1102  -6.8050  -6.8049  -6.7111  -6.7111  -6.3375  -6.3375
    -6.2095  -6.2095  -5.9527  -5.9527  -5.8658  -5.8658  -5.6881  -5.6881
    -5.6539  -5.6539  -5.5843  -5.5843  -5.5708  -5.5708  -5.3455  -5.3454
    -5.1902  -5.1902  -5.1205  -5.1205  -5.0722  -5.0722  -5.0016  -5.0016
    -4.8138  -4.8138  -4.7803  -4.7803  -4.6690  -4.6689  -4.6361  -4.6360
    -4.5812  -4.5812  -4.3355  -4.3355  -4.2480  -4.2480  -4.1438  -4.1438
    -4.0701  -4.0701  -4.0186  -4.0186  -3.8651  -3.8650  -3.8103  -3.8103
    -3.6991  -3.6991  -3.6146  -3.6146  -3.5603  -3.5603  -3.4891  -3.4891
    -3.4428  -3.4428  -3.3634  -3.3634  -3.3543  -3.3543  -3.3244  -3.3244
    -3.2847  -3.2847  -3.1770  -3.1770  -3.1050  -3.1050  -3.0708  -3.0707
    -3.0390  -3.0390  -2.9502  -2.9502  -2.9380  -2.9380  -2.8396  -2.8396
    -2.8332  -2.8332  -2.6876  -2.6876  -2.6532  -2.6532  -2.5835  -2.5835
    -2.4941  -2.4941  -2.4402  -2.4401  -2.3615  -2.3615  -2.3059  -2.3059
    -2.2792  -2.2792  -2.2216  -2.2215  -2.1815  -2.1815  -2.1537  -2.1536
    -2.0971  -2.0971  -2.0781  -2.0781  -2.0553  -2.0553  -1.9489  -1.9489
    -1.9229  -1.9229  -1.8239  -1.8239  -1.8039  -1.8039  -1.7421  -1.7421
    -1.7011  -1.7011  -1.6415  -1.6414  -1.5974  -1.5974  -1.5874  -1.5874
    -1.5304  -1.5304  -1.4671  -1.4671  -1.3697  -1.3696  -1.3127  -1.3127
    -1.2444  -1.2444  -1.1457  -1.1457  -1.0700  -1.0700  -0.9915  -0.9914
    -0.9369  -0.9369  -0.8965  -0.8965  -0.8390  -0.8390  -0.7261  -0.7261
    -0.6637  -0.6637  -0.6180  -0.6180  -0.5355  -0.5355  -0.5117  -0.5117
    -0.4812  -0.4812  -0.4223  -0.4223  -0.3942  -0.3942  -0.3519  -0.3519
    -0.3196  -0.3196  -0.2863  -0.2863  -0.2631  -0.2631  -0.2364  -0.2363
    -0.2125  -0.2125  -0.1713  -0.1713  -0.1380  -0.1380  -0.0666  -0.0666
    -0.0309  -0.0309   0.0030   0.0030   0.0624   0.0624   0.4425   0.4425
     0.4639   0.4639   0.7347   0.7347   0.8094   0.8094   0.9005   0.9005
     1.0136   1.0136   1.2541   1.2541   1.2642   1.2642   1.3052   1.3053
     1.3205   1.3205   1.4345   1.4345   1.5136   1.5137   1.5402   1.5402
     1.5842   1.5842   1.6737   1.6737   1.7583   1.7583   1.8699   1.8700
     2.2686   2.2686   2.4090   2.4090   2.4906   2.4906   2.5811   2.5811
     2.9181   2.9181   4.2823   4.2823   4.2958   4.2959   4.5990   4.5990
     5.3129   5.3130   5.4274   5.4275   5.5821   5.5821   5.7950   5.7950
     5.9439   5.9440   6.2232   6.2232   6.2937   6.2937   6.3635   6.3635
     6.4789   6.4789   6.5613   6.5613   6.5883   6.5883   6.6203   6.6203
     6.6730   6.6730   6.9261   6.9261   7.2710   7.2710   7.6668   7.6668
     7.7745   7.7746   7.8688   7.8688   7.9418   7.9419   7.9692   7.9692
     8.0456   8.0457   8.2073   8.2073   8.3138   8.3139   8.3884   8.3884
     8.4689   8.4689   8.6509   8.6509   8.7331   8.7331   8.9203   8.9203
     8.9953   8.9953   9.0902   9.0902   9.1858   9.1858   9.2688   9.2688
     9.3370   9.3370

          k =-0.5000 0.0000-0.1080 (233672 PWs)   bands (ev):

   -20.0834 -20.0823 -19.9240 -19.9224 -19.7052 -19.7051 -19.6683 -19.6681
   -17.8540 -17.8538 -17.6795 -17.6794 -17.5570 -17.5563 -17.4848 -17.4847
   -16.2419 -16.2414 -15.7810 -15.7788 -15.7492 -15.7466 -15.5968 -15.5931
   -15.1130 -15.1080 -14.8303 -14.8258 -14.6769 -14.6739 -14.6264 -14.6234
   -14.5810 -14.5742 -13.9314 -13.9231 -13.7347 -13.7339 -13.6324 -13.6184
   -13.5352 -13.5326 -13.2970 -13.2947 -12.7760 -12.7724 -12.7545 -12.7474
   -12.5550 -12.5540 -12.2825 -12.2772 -12.0879 -12.0878 -11.5351 -11.5257
   -11.5168 -11.5037 -11.4764 -11.4764 -11.4295 -11.4160 -11.2858 -11.2855
   -11.1442 -11.1400 -11.0901 -11.0696 -11.0444 -11.0432 -11.0014 -10.9889
   -10.6214 -10.5970 -10.4980 -10.4857 -10.1203 -10.1053  -9.6231  -9.6120
    -9.5812  -9.5781  -9.5491  -9.5490  -9.4384  -9.4357  -9.4180  -9.4108
    -9.3861  -9.3742  -9.3257  -9.3116  -9.2799  -9.2642  -8.7860  -8.7686
    -8.5256  -8.5107  -8.4536  -8.4170  -8.3008  -8.2981  -8.0370  -8.0324
    -7.9314  -7.8969  -7.6849  -7.6826  -7.3889  -7.3745  -7.3223  -7.3176
    -7.2686  -7.2651  -7.2535  -7.2439  -7.2315  -7.2265  -7.1788  -7.1684
    -7.1406  -7.1372  -6.8226  -6.7998  -6.7596  -6.7052  -6.3228  -6.3206
    -6.2492  -6.1590  -5.9620  -5.9444  -5.8634  -5.8577  -5.7222  -5.6743
    -5.6680  -5.6418  -5.5866  -5.5844  -5.5731  -5.5602  -5.3295  -5.3288
    -5.1853  -5.1834  -5.1283  -5.1227  -5.0734  -5.0707  -4.9689  -4.9668
    -4.8322  -4.8296  -4.7762  -4.7673  -4.6685  -4.6647  -4.6369  -4.6266
    -4.5765  -4.5693  -4.3767  -4.3573  -4.3455  -4.3354  -4.1239  -4.1081
    -4.0733  -4.0237  -3.9459  -3.9067  -3.8656  -3.8531  -3.8124  -3.8086
    -3.6958  -3.6794  -3.6426  -3.6279  -3.5661  -3.5416  -3.4910  -3.4865
    -3.4426  -3.4222  -3.4141  -3.3982  -3.3515  -3.3225  -3.3125  -3.3049
    -3.2970  -3.2604  -3.2345  -3.1881  -3.1726  -3.1195  -3.1057  -3.0855
    -3.0273  -3.0012  -2.9788  -2.9439  -2.9281  -2.9157  -2.8613  -2.8529
    -2.8137  -2.8062  -2.6652  -2.6603  -2.6465  -2.6371  -2.5840  -2.5752
    -2.4806  -2.4791  -2.4587  -2.4284  -2.3889  -2.3872  -2.3041  -2.3024
    -2.2762  -2.2705  -2.2247  -2.2061  -2.1930  -2.1678  -2.1635  -2.1537
    -2.1227  -2.1148  -2.1059  -2.0757  -2.0632  -2.0097  -2.0056  -1.9790
    -1.9167  -1.9012  -1.8961  -1.8888  -1.8343  -1.8342  -1.7595  -1.7537
    -1.7507  -1.6792  -1.6664  -1.6320  -1.5974  -1.5940  -1.5882  -1.5783
    -1.5299  -1.5212  -1.5004  -1.4214  -1.3632  -1.3272  -1.3129  -1.2699
    -1.2505  -1.1861  -1.1475  -1.1396  -1.0191  -0.9955  -0.9847  -0.9202
    -0.9051  -0.8865  -0.8594  -0.8309  -0.8040  -0.7897  -0.6887  -0.6820
    -0.6500  -0.6485  -0.6440  -0.6175  -0.5549  -0.5346  -0.5313  -0.4937
    -0.4809  -0.4607  -0.4512  -0.4179  -0.4165  -0.3758  -0.3558  -0.3452
    -0.3290  -0.3095  -0.3044  -0.2985  -0.2885  -0.2776  -0.2745  -0.2605
    -0.2491  -0.2368  -0.2134  -0.1996  -0.1336  -0.1131  -0.1020  -0.0694
    -0.0614   0.0081   0.0142   0.0498   0.0843   0.1229   0.3565   0.4250
     0.5327   0.5618   0.6710   0.7046   0.7507   0.7755   0.8180   0.9545
     1.0093   1.0223   1.1217   1.1800   1.1862   1.2034   1.2080   1.2476
     1.3440   1.3686   1.3717   1.3844   1.4081   1.4346   1.4818   1.5128
     1.5791   1.5802   1.6461   1.6462   1.6753   1.6817   1.7861   1.8548
     2.3393   2.4156   2.5184   2.6111   2.6448   2.6517   2.8306   2.8408
     2.9168   2.9443   4.1658   4.2066   4.3028   4.3396   4.4588   4.6404
     5.2595   5.2664   5.4464   5.4902   5.5016   5.5198   5.7713   5.7900
     6.0694   6.1259   6.1803   6.2503   6.2753   6.2882   6.3118   6.3366
     6.3383   6.3640   6.4708   6.4709   6.5247   6.5404   6.6526   6.6606
     6.7082   6.7131   7.0302   7.0375   7.1975   7.2039   7.5439   7.6432
     7.7924   7.8334   7.8343   7.8661   7.9857   8.0058   8.0245   8.0745
     8.0873   8.1593   8.2710   8.3000   8.3333   8.3451   8.3645   8.3666
     8.4097   8.4537   8.6942   8.7122   8.7738   8.7814   8.8344   8.9205
     8.9415   8.9730   9.0153   9.0844   9.0989   9.1480   9.1876   9.2392
     9.3103   9.3432

          k =-0.5000-0.5003-0.1080 (233928 PWs)   bands (ev):

   -20.0828 -20.0828 -19.9232 -19.9232 -19.7052 -19.7052 -19.6682 -19.6682
   -17.8539 -17.8539 -17.6795 -17.6795 -17.5567 -17.5567 -17.4848 -17.4848
   -16.2344 -16.2344 -15.7850 -15.7850 -15.7512 -15.7511 -15.6112 -15.6111
   -15.1065 -15.1065 -14.8337 -14.8337 -14.6491 -14.6491 -14.6087 -14.6087
   -14.5771 -14.5771 -13.9274 -13.9273 -13.7519 -13.7519 -13.6240 -13.6240
   -13.5329 -13.5329 -13.3125 -13.3125 -12.7720 -12.7720 -12.7554 -12.7554
   -12.5657 -12.5657 -12.2693 -12.2693 -12.0879 -12.0878 -11.5274 -11.5274
   -11.4938 -11.4937 -11.4765 -11.4765 -11.4401 -11.4401 -11.2960 -11.2960
   -11.1111 -11.1111 -11.0889 -11.0889 -11.0259 -11.0258 -10.9986 -10.9986
   -10.6145 -10.6145 -10.4850 -10.4850 -10.1275 -10.1275  -9.6217  -9.6217
    -9.5746  -9.5746  -9.5464  -9.5464  -9.4360  -9.4360  -9.4158  -9.4158
    -9.4057  -9.4056  -9.3299  -9.3298  -9.2676  -9.2676  -8.7609  -8.7609
    -8.5079  -8.5079  -8.4242  -8.4242  -8.2966  -8.2966  -8.0535  -8.0535
    -7.9170  -7.9170  -7.6921  -7.6921  -7.3776  -7.3776  -7.3361  -7.3361
    -7.2714  -7.2714  -7.2458  -7.2458  -7.2118  -7.2118  -7.1714  -7.1714
    -7.1162  -7.1161  -6.8165  -6.8165  -6.7300  -6.7300  -6.3237  -6.3237
    -6.2036  -6.2036  -5.9506  -5.9506  -5.8461  -5.8461  -5.6949  -5.6949
    -5.6495  -5.6495  -5.5972  -5.5971  -5.5728  -5.5728  -5.3446  -5.3446
    -5.1848  -5.1848  -5.1285  -5.1285  -5.0666  -5.0666  -4.9833  -4.9833
    -4.8197  -4.8197  -4.7826  -4.7826  -4.6737  -4.6737  -4.6285  -4.6285
    -4.5638  -4.5638  -4.3546  -4.3546  -4.3386  -4.3386  -4.1282  -4.1281
    -4.0374  -4.0373  -3.9375  -3.9375  -3.8515  -3.8515  -3.7814  -3.7814
    -3.6667  -3.6667  -3.6100  -3.6100  -3.5524  -3.5524  -3.4576  -3.4575
    -3.4327  -3.4327  -3.4126  -3.4126  -3.3632  -3.3631  -3.3311  -3.3311
    -3.2820  -3.2820  -3.2463  -3.2463  -3.1712  -3.1712  -3.1106  -3.1106
    -3.0517  -3.0517  -3.0215  -3.0215  -2.9469  -2.9469  -2.8617  -2.8617
    -2.8133  -2.8133  -2.6741  -2.6741  -2.6530  -2.6530  -2.5772  -2.5772
    -2.4857  -2.4857  -2.4404  -2.4403  -2.3510  -2.3510  -2.2986  -2.2986
    -2.2728  -2.2728  -2.2173  -2.2173  -2.2022  -2.2022  -2.1455  -2.1455
    -2.1140  -2.1140  -2.0626  -2.0626  -2.0114  -2.0114  -1.9729  -1.9729
    -1.8606  -1.8606  -1.8294  -1.8294  -1.7813  -1.7813  -1.7353  -1.7353
    -1.7104  -1.7104  -1.6344  -1.6344  -1.5984  -1.5984  -1.5781  -1.5781
    -1.5226  -1.5226  -1.4761  -1.4761  -1.3530  -1.3529  -1.2744  -1.2744
    -1.2273  -1.2273  -1.1225  -1.1225  -1.0451  -1.0451  -0.9661  -0.9661
    -0.8956  -0.8956  -0.8685  -0.8685  -0.8175  -0.8175  -0.7395  -0.7395
    -0.6635  -0.6634  -0.6392  -0.6392  -0.5255  -0.5255  -0.4988  -0.4987
    -0.4678  -0.4678  -0.4196  -0.4196  -0.3856  -0.3856  -0.3493  -0.3493
    -0.3128  -0.3128  -0.3069  -0.3069  -0.2749  -0.2749  -0.2486  -0.2486
    -0.2438  -0.2438  -0.2152  -0.2152  -0.1728  -0.1728  -0.1473  -0.1473
    -0.0453  -0.0453   0.0294   0.0294   0.0744   0.0744   0.4444   0.4444
     0.5025   0.5026   0.6938   0.6938   0.8035   0.8035   0.8795   0.8795
     0.9721   0.9722   1.1553   1.1553   1.2088   1.2088   1.2645   1.2645
     1.3224   1.3224   1.4113   1.4113   1.4873   1.4873   1.5436   1.5436
     1.5938   1.5938   1.6499   1.6499   1.7479   1.7480   1.8154   1.8154
     2.3262   2.3263   2.4333   2.4333   2.6794   2.6794   2.8190   2.8190
     2.9127   2.9127   4.2077   4.2078   4.2963   4.2963   4.4894   4.4894
     5.3248   5.3249   5.4571   5.4571   5.5353   5.5354   5.8178   5.8179
     6.0471   6.0471   6.2128   6.2128   6.2483   6.2483   6.3149   6.3149
     6.4483   6.4484   6.4846   6.4846   6.6188   6.6188   6.6495   6.6496
     6.7056   6.7056   6.9887   6.9887   7.2361   7.2361   7.6729   7.6730
     7.7974   7.7975   7.8891   7.8891   7.9994   7.9994   8.0397   8.0397
     8.1280   8.1280   8.2694   8.2694   8.3292   8.3292   8.4156   8.4156
     8.4548   8.4549   8.7438   8.7438   8.8011   8.8011   8.8480   8.8480
     8.9225   8.9225   8.9731   8.9732   9.0528   9.0528   9.1263   9.1263
     9.2266   9.2267

     highest occupied, lowest unoccupied level (ev):     2.9630    4.1658

!    total energy              =   -3436.38928496 Ry
     Harris-Foulkes estimate   =   -3436.38928495 Ry
     estimated scf accuracy    <          3.5E-09 Ry

     total all-electron energy =    -13727.026415 Ry

     The total energy is the sum of the following terms:

     one-electron contribution =   -2078.57662445 Ry
     hartree contribution      =    1344.18939481 Ry
     xc contribution           =    -756.52780596 Ry
     ewald contribution        =    -807.38366647 Ry
     Dispersion Correction     =      -1.16486741 Ry
     one-center paw contrib.   =   -1136.92571549 Ry

     convergence has been achieved in  20 iterations

     Forces acting on atoms (cartesian axes, Ry/au):

     atom    1 type  4   force =     0.00040327    0.00012828   -0.00084769
     atom    2 type  4   force =    -0.00040191    0.00012975    0.00084600
     atom    3 type  4   force =    -0.00034551   -0.00014831   -0.00004972
     atom    4 type  4   force =     0.00034733   -0.00014795    0.00004616
     atom    5 type  4   force =    -0.00031122    0.00086063   -0.00192173
     atom    6 type  4   force =     0.00031128    0.00085697    0.00191901
     atom    7 type  4   force =     0.00001356   -0.00004011    0.00089781
     atom    8 type  4   force =    -0.00001291   -0.00004228   -0.00089555
     atom    9 type  4   force =    -0.00046340    0.00029685   -0.00029452
     atom   10 type  4   force =     0.00046388    0.00029349    0.00029517
     atom   11 type  4   force =     0.00017152   -0.00022471   -0.00090923
     atom   12 type  4   force =    -0.00016858   -0.00022300    0.00090881
     atom   13 type  4   force =    -0.00018134   -0.00062300    0.00016018
     atom   14 type  4   force =     0.00018025   -0.00062234   -0.00015981
     atom   15 type  4   force =     0.00108016    0.00105427    0.00043171
     atom   16 type  4   force =    -0.00107967    0.00105164   -0.00043209
     atom   17 type  1   force =    -0.00023883    0.00057075    0.00024416
     atom   18 type  1   force =     0.00023923    0.00056100   -0.00024362
     atom   19 type  3   force =    -0.00089327    0.00065884   -0.00035459
     atom   20 type  3   force =     0.00089322    0.00065884    0.00035535
     atom   21 type  1   force =    -0.00004527   -0.00019730    0.00002091
     atom   22 type  1   force =     0.00004511   -0.00019932   -0.00002152
     atom   23 type  3   force =    -0.00027254    0.00017146   -0.00011261
     atom   24 type  3   force =     0.00027240    0.00017140    0.00011294
     atom   25 type  3   force =     0.00035661    0.00014865   -0.00025462
     atom   26 type  3   force =    -0.00035682    0.00014844    0.00025529
     atom   27 type  3   force =    -0.00005920    0.00009033    0.00008357
     atom   28 type  3   force =     0.00005930    0.00009055   -0.00008289
     atom   29 type  1   force =    -0.00016887   -0.00070873   -0.00005268
     atom   30 type  1   force =     0.00016891   -0.00071185    0.00005373
     atom   31 type  1   force =    -0.00021632   -0.00097165    0.00056580
     atom   32 type  1   force =     0.00021643   -0.00097815   -0.00056471
     atom   33 type  1   force =     0.00170907   -0.00129843   -0.00080348
     atom   34 type  1   force =    -0.00170892   -0.00130499    0.00080520
     atom   35 type  1   force =     0.00078316   -0.00018344   -0.00011651
     atom   36 type  1   force =    -0.00078414   -0.00017473    0.00011669
     atom   37 type  3   force =     0.00005141   -0.00037135   -0.00010682
     atom   38 type  3   force =    -0.00005099   -0.00037069    0.00010758
     atom   39 type  3   force =     0.00023266    0.00038332    0.00022800
     atom   40 type  3   force =    -0.00023277    0.00038335   -0.00022740
     atom   41 type  1   force =    -0.00004146   -0.00003194   -0.00032562
     atom   42 type  1   force =     0.00004108   -0.00002064    0.00032650
     atom   43 type  3   force =    -0.00003994    0.00013143    0.00041515
     atom   44 type  3   force =     0.00003987    0.00013155   -0.00041451
     atom   45 type  3   force =    -0.00018657    0.00022736   -0.00004828
     atom   46 type  3   force =     0.00018671    0.00022800    0.00004904
     atom   47 type  3   force =     0.00008978    0.00015062   -0.00014048
     atom   48 type  3   force =    -0.00008979    0.00015077    0.00014111
     atom   49 type  1   force =    -0.00007403   -0.00010140   -0.00041002
     atom   50 type  1   force =     0.00007330   -0.00011054    0.00041038
     atom   51 type  3   force =     0.00011531    0.00070965   -0.00057243
     atom   52 type  3   force =    -0.00011542    0.00070944    0.00057285
     atom   53 type  1   force =     0.00027127    0.00047354    0.00019516
     atom   54 type  1   force =    -0.00027126    0.00046914   -0.00019443
     atom   55 type  3   force =     0.00008299    0.00052672   -0.00060142
     atom   56 type  3   force =    -0.00008284    0.00052689    0.00060183
     atom   57 type  3   force =    -0.00018016    0.00000420    0.00012088
     atom   58 type  3   force =     0.00018003    0.00000409   -0.00012032
     atom   59 type  3   force =     0.00051023   -0.00041927    0.00032048
     atom   60 type  3   force =    -0.00051015   -0.00041940   -0.00032031
     atom   61 type  1   force =     0.00034353    0.00142741    0.00130628
     atom   62 type  1   force =    -0.00034322    0.00142165   -0.00130516
     atom   63 type  1   force =     0.00121106   -0.00029506    0.00100870
     atom   64 type  1   force =    -0.00121130   -0.00030102   -0.00100945
     atom   65 type  1   force =    -0.00145950   -0.00161448   -0.00028436
     atom   66 type  1   force =     0.00146032   -0.00161339    0.00028467
     atom   67 type  1   force =    -0.00041255    0.00057580   -0.00013162
     atom   68 type  1   force =     0.00041289    0.00058382    0.00013196
     atom   69 type  3   force =     0.00011941   -0.00038275    0.00024536
     atom   70 type  3   force =    -0.00011947   -0.00038263   -0.00024498
     atom   71 type  3   force =    -0.00025457   -0.00065085    0.00014646
     atom   72 type  3   force =     0.00025464   -0.00065064   -0.00014609
     atom   73 type  1   force =     0.00039478   -0.00063856    0.00030906
     atom   74 type  1   force =    -0.00039443   -0.00064451   -0.00030924
     atom   75 type  3   force =     0.00027744   -0.00004090   -0.00020838
     atom   76 type  3   force =    -0.00027741   -0.00004106    0.00020888
     atom   77 type  3   force =    -0.00007509    0.00056724    0.00009591
     atom   78 type  3   force =     0.00007487    0.00056723   -0.00009538
     atom   79 type  3   force =    -0.00035516    0.00028012   -0.00012621
     atom   80 type  3   force =     0.00035496    0.00027984    0.00012687
     atom   81 type  1   force =     0.00291199    0.00120883   -0.00319954
     atom   82 type  1   force =    -0.00291220    0.00121584    0.00319916
     atom   83 type  1   force =    -0.00265802   -0.00053067    0.00004254
     atom   84 type  1   force =     0.00265835   -0.00052692   -0.00004209
     atom   85 type  1   force =     0.00060883    0.00067565    0.00148548
     atom   86 type  1   force =    -0.00060914    0.00067345   -0.00148757
     atom   87 type  1   force =     0.00015836   -0.00039985    0.00143566
     atom   88 type  1   force =    -0.00015863   -0.00040133   -0.00143553
     atom   89 type  1   force =     0.00040558    0.00194037    0.00072513
     atom   90 type  1   force =    -0.00040464    0.00194165   -0.00072555
     atom   91 type  1   force =     0.00116095   -0.00004389    0.00070093
     atom   92 type  1   force =    -0.00116050   -0.00004739   -0.00070235
     atom   93 type  1   force =    -0.00099593   -0.00011585   -0.00049680
     atom   94 type  1   force =     0.00099611   -0.00011834    0.00049736
     atom   95 type  1   force =    -0.00255065    0.00047671    0.00110206
     atom   96 type  1   force =     0.00255102    0.00047814   -0.00110370
     atom   97 type  1   force =    -0.00150660    0.00150271    0.00007160
     atom   98 type  1   force =     0.00150748    0.00150105   -0.00007030
     atom   99 type  1   force =    -0.00016608    0.00072670    0.00138601
     atom  100 type  1   force =     0.00016580    0.00072035   -0.00138622
     atom  101 type  1   force =     0.00233794   -0.00115708   -0.00212477
     atom  102 type  1   force =    -0.00233723   -0.00116246    0.00212301
     atom  103 type  1   force =     0.00074804    0.00044916   -0.00279965
     atom  104 type  1   force =    -0.00074927    0.00045280    0.00279830
     atom  105 type  1   force =     0.00069609   -0.00043762   -0.00002805
     atom  106 type  1   force =    -0.00069674   -0.00045104    0.00002902
     atom  107 type  1   force =     0.00049905    0.00154424    0.00021892
     atom  108 type  1   force =    -0.00049860    0.00155365   -0.00021674
     atom  109 type  1   force =    -0.00143683    0.00050376   -0.00183544
     atom  110 type  1   force =     0.00143717    0.00051005    0.00183472
     atom  111 type  1   force =    -0.00090331    0.00060646    0.00102301
     atom  112 type  1   force =     0.00090281    0.00059942   -0.00102147
     atom  113 type  1   force =     0.00162635    0.00133585    0.00011018
     atom  114 type  1   force =    -0.00162799    0.00132540   -0.00011016
     atom  115 type  1   force =    -0.00127597    0.00028085   -0.00106247
     atom  116 type  1   force =     0.00127419    0.00028276    0.00106420
     atom  117 type  1   force =    -0.00302944    0.00212471    0.00231147
     atom  118 type  1   force =     0.00302992    0.00212805   -0.00231156
     atom  119 type  1   force =     0.00000562    0.00073935    0.00065110
     atom  120 type  1   force =    -0.00000453    0.00074574   -0.00065368
     atom  121 type  1   force =     0.00003603   -0.00114108   -0.00121360
     atom  122 type  1   force =    -0.00003612   -0.00115281    0.00121421
     atom  123 type  1   force =     0.00028806   -0.00243659    0.00138092
     atom  124 type  1   force =    -0.00028985   -0.00242785   -0.00138212
     atom  125 type  1   force =     0.00058097   -0.00375494    0.00011380
     atom  126 type  1   force =    -0.00057942   -0.00374205   -0.00011629
     atom  127 type  1   force =     0.00267367    0.00018785    0.00119658
     atom  128 type  1   force =    -0.00267327    0.00019868   -0.00119533
     atom  129 type  1   force =    -0.00182866   -0.00047719    0.00010723
     atom  130 type  1   force =     0.00182928   -0.00048356   -0.00010501
     atom  131 type  1   force =    -0.00128532   -0.00037917    0.00026532
     atom  132 type  1   force =     0.00128379   -0.00037109   -0.00026661
     atom  133 type  1   force =     0.00379943   -0.00430982   -0.00137748
     atom  134 type  1   force =    -0.00379965   -0.00431514    0.00137796
     atom  135 type  1   force =     0.00024054   -0.00044773    0.00253075
     atom  136 type  1   force =    -0.00024128   -0.00045733   -0.00252945
     atom  137 type  1   force =     0.00154114   -0.00083279   -0.00009608
     atom  138 type  1   force =    -0.00154014   -0.00083267    0.00009465
     atom  139 type  1   force =     0.00044680   -0.00036049   -0.00324303
     atom  140 type  1   force =    -0.00044804   -0.00037331    0.00324247
     atom  141 type  1   force =     0.00088045   -0.00050311    0.00214449
     atom  142 type  1   force =    -0.00088015   -0.00048988   -0.00214355
     atom  143 type  1   force =    -0.00192141    0.00018381    0.00048384
     atom  144 type  1   force =     0.00192133    0.00019039   -0.00048263
     atom  145 type  1   force =    -0.00099646   -0.00009732   -0.00232316
     atom  146 type  1   force =     0.00099730   -0.00008427    0.00232460
     atom  147 type  1   force =     0.00258395   -0.00092556    0.00004941
     atom  148 type  1   force =    -0.00258328   -0.00093687   -0.00004794
     atom  149 type  1   force =    -0.00112252    0.00634562    0.00051854
     atom  150 type  1   force =     0.00112313    0.00635754   -0.00052101
     atom  151 type  1   force =     0.00366683    0.00031339    0.00004286
     atom  152 type  1   force =    -0.00366843    0.00032351   -0.00004357
     atom  153 type  1   force =    -0.00180682    0.00204184    0.00000019
     atom  154 type  1   force =     0.00180559    0.00203607    0.00000219
     atom  155 type  1   force =    -0.00326623    0.00003921   -0.00134077
     atom  156 type  1   force =     0.00326422    0.00004188    0.00134032
     atom  157 type  1   force =    -0.00215019    0.00286486   -0.00002056
     atom  158 type  1   force =     0.00215115    0.00286035    0.00002013
     atom  159 type  1   force =     0.00029953    0.00202717    0.00041510
     atom  160 type  1   force =    -0.00029815    0.00201603   -0.00041808
     atom  161 type  1   force =     0.00123875   -0.00041991   -0.00022722
     atom  162 type  1   force =    -0.00124043   -0.00042975    0.00022869
     atom  163 type  1   force =     0.00006884   -0.00112129   -0.00152842
     atom  164 type  1   force =    -0.00007066   -0.00110924    0.00152858
     atom  165 type  1   force =    -0.00153513   -0.00215840   -0.00045289
     atom  166 type  1   force =     0.00153577   -0.00216532    0.00044937
     atom  167 type  1   force =     0.00059759    0.00018896    0.00140679
     atom  168 type  1   force =    -0.00059770    0.00017876   -0.00140507
     atom  169 type  1   force =    -0.00212369    0.00032061   -0.00049203
     atom  170 type  1   force =     0.00212487    0.00031969    0.00049318
     atom  171 type  1   force =    -0.00177062   -0.00278404    0.00099723
     atom  172 type  1   force =     0.00177131   -0.00278906   -0.00099999
     atom  173 type  1   force =     0.00291931   -0.00002702    0.00057571
     atom  174 type  1   force =    -0.00291954   -0.00002477   -0.00057598
     atom  175 type  1   force =     0.00101683   -0.00098965    0.00153000
     atom  176 type  1   force =    -0.00101807   -0.00097942   -0.00153083
     atom  177 type  1   force =    -0.00086555    0.00007822    0.00063774
     atom  178 type  1   force =     0.00086500    0.00007444   -0.00063804
     atom  179 type  1   force =    -0.00339809    0.00100002    0.00280202
     atom  180 type  1   force =     0.00339821    0.00099807   -0.00280037
     atom  181 type  1   force =     0.00172792   -0.00026810   -0.00233345
     atom  182 type  1   force =    -0.00172793   -0.00027121    0.00233526
     atom  183 type  1   force =     0.00168012   -0.00089381    0.00120058
     atom  184 type  1   force =    -0.00167983   -0.00089086   -0.00120291
     atom  185 type  1   force =     0.00371409   -0.00082175   -0.00013617
     atom  186 type  1   force =    -0.00371453   -0.00082216    0.00013828
     atom  187 type  1   force =    -0.00054607    0.00069260   -0.00197799
     atom  188 type  1   force =     0.00054590    0.00069402    0.00197785
     atom  189 type  1   force =     0.00136776    0.00051284    0.00156350
     atom  190 type  1   force =    -0.00136784    0.00050799   -0.00156644
     atom  191 type  1   force =    -0.00120129   -0.00029640   -0.00172706
     atom  192 type  1   force =     0.00120076   -0.00029161    0.00172600
     atom  193 type  1   force =    -0.00170797    0.00009209   -0.00170743
     atom  194 type  1   force =     0.00170802    0.00009134    0.00170835
     atom  195 type  1   force =    -0.00095466   -0.00142566   -0.00091107
     atom  196 type  1   force =     0.00095484   -0.00142615    0.00090873
     atom  197 type  1   force =     0.00193318   -0.00020565   -0.00072726
     atom  198 type  1   force =    -0.00193257   -0.00020460    0.00072648
     atom  199 type  1   force =    -0.00315048   -0.00171961    0.00271763
     atom  200 type  1   force =     0.00315002   -0.00171501   -0.00271797

     Total force =     0.031775     Total SCF correction =     0.000170


     Computing stress (Cartesian axis) and pressure

          total   stress  (Ry/bohr**3)                   (kbar)     P=   -3.06
  -0.00002482   0.00000000   0.00000135         -3.65      0.00      0.20
   0.00000000  -0.00001438  -0.00000000          0.00     -2.12     -0.00
   0.00000135  -0.00000000  -0.00002310          0.20     -0.00     -3.40


     Writing output data file scf.save
 
     init_run     :    226.76s CPU    232.51s WALL (       1 calls)
     electrons    :  10621.01s CPU  10841.08s WALL (       1 calls)
     forces       :    116.82s CPU    117.61s WALL (       1 calls)
     stress       :    584.57s CPU    585.50s WALL (       1 calls)

     Called by init_run:
     wfcinit      :    204.21s CPU    209.59s WALL (       1 calls)
     potinit      :      7.89s CPU      7.97s WALL (       1 calls)

     Called by electrons:
     c_bands      :   9806.97s CPU   9994.66s WALL (      20 calls)
     sum_band     :    771.59s CPU    798.67s WALL (      20 calls)
     v_of_rho     :      5.64s CPU      6.20s WALL (      21 calls)
     newd         :     20.27s CPU     24.96s WALL (      21 calls)
     PAW_pot      :     15.63s CPU     15.64s WALL (      21 calls)
     mix_rho      :      1.36s CPU      1.49s WALL (      20 calls)

     Called by c_bands:
     init_us_2    :     22.07s CPU     22.21s WALL (     172 calls)
     cegterg      :   9696.70s CPU   9884.31s WALL (      80 calls)

     Called by sum_band:
     sum_band:bec :      0.37s CPU      0.37s WALL (      80 calls)
     addusdens    :     20.51s CPU     24.93s WALL (      20 calls)

     Called by *egterg:
     h_psi        :   4385.52s CPU   4535.01s WALL (     494 calls)
     s_psi        :   1435.62s CPU   1435.86s WALL (     494 calls)
     g_psi        :     12.86s CPU     12.86s WALL (     410 calls)
     cdiaghg      :    659.43s CPU    659.56s WALL (     490 calls)

     Called by h_psi:
     h_psi:pot    :   4367.85s CPU   4517.10s WALL (     494 calls)
     h_psi:calbec :   1403.15s CPU   1404.46s WALL (     494 calls)
     vloc_psi     :   1526.91s CPU   1674.59s WALL (     494 calls)
     add_vuspsi   :   1437.79s CPU   1438.05s WALL (     494 calls)

     General routines
     calbec       :   1973.64s CPU   1975.52s WALL (     594 calls)
     fft          :      3.61s CPU      4.54s WALL (     297 calls)
     fftw         :   1576.90s CPU   1746.15s WALL (  244750 calls)
 
     Parallel routines
     fft_scatter  :    262.98s CPU    432.42s WALL (  245047 calls)
 
     PWSCF        :     3h12m CPU        3h17m WALL

 
   This run was terminated on:  15:41:24  13Nov2017            

=------------------------------------------------------------------------------=
   JOB DONE.
=------------------------------------------------------------------------------=
