
     Program PWSCF v.6.1 (svn rev. 13369) starts on 18Nov2017 at  6:12:38 

     This program is part of the open-source Quantum ESPRESSO suite
     for quantum simulation of materials; please cite
         "P. Giannozzi et al., J. Phys.:Condens. Matter 21 395502 (2009);
          URL http://www.quantum-espresso.org", 
     in publications or presentations arising from this work. More details at
     http://www.quantum-espresso.org/quote

     Parallel version (MPI), running on     8 processors
     R & G space division:  proc/nbgrp/npool/nimage =       8
     Waiting for input...
     Reading input from standard input

     Current dimensions of program PWSCF are:
     Max number of different atomic species (ntypx) = 10
     Max number of k-points (npk) =  40000
     Max angular momentum in pseudopotentials (lmaxx) =  3
               file C.pbe-n-kjpaw_psl.0.1.UPF: wavefunction(s)  2P renormalized
               file N.pbe-n-kjpaw_psl.0.1.UPF: wavefunction(s)  2P renormalized
               file H.pbe-kjpaw_psl.0.1.UPF: wavefunction(s)  1S renormalized
               file O.pbe-n-kjpaw_psl.0.1.UPF: wavefunction(s)  2P renormalized

     -------------------------------------
     Parameters for Dispersion Correction:
     -------------------------------------
       atom      VdW radius       C_6     

        C          2.744         60.710
        N          2.640         42.670
        H          1.892          4.857
        O          2.536         24.284

     Subspace diagonalization in iterative solution of the eigenvalue problem:
     a serial algorithm will be used

 
     Parallelization info
     --------------------
     sticks:   dense  smooth     PW     G-vecs:    dense   smooth      PW
     Min         552     552    147                84609    84609   11761
     Max         553     553    148                84615    84615   11767
     Sum        4417    4417   1183               676891   676891   94125
 


     bravais-lattice index     =            0
     lattice parameter (alat)  =      14.6057  a.u.
     unit-cell volume          =    5010.0012 (a.u.)^3
     number of atoms/cell      =           76
     number of atomic types    =            4
     number of electrons       =       224.00
     number of Kohn-Sham states=          134
     kinetic-energy cutoff     =     100.0000  Ry
     charge density cutoff     =     400.0000  Ry
     convergence threshold     =      1.0E-08
     mixing beta               =       0.5000
     number of iterations used =            8  plain     mixing
     Exchange-correlation      =  SLA  PW   PBX  PBC ( 1  4  3  4 0 0)

     celldm(1)=  14.605693  celldm(2)=   0.000000  celldm(3)=   0.000000
     celldm(4)=   0.000000  celldm(5)=   0.000000  celldm(6)=   0.000000

     crystal axes: (cart. coord. in units of alat)
               a(1) = (   1.000000   0.000000   0.000000 )  
               a(2) = (   0.000000   0.649243   0.000000 )  
               a(3) = (  -0.217985   0.000000   2.476646 )  

     reciprocal axes: (cart. coord. in units 2 pi/alat)
               b(1) = (  1.000000  0.000000  0.088016 )  
               b(2) = (  0.000000  1.540255  0.000000 )  
               b(3) = (  0.000000  0.000000  0.403772 )  


     PseudoPot. # 1 for  C read from file:
     /scratch/ahofstet/pseudo/C.pbe-n-kjpaw_psl.0.1.UPF
     MD5 check sum: 430fe95172b1e11ef3f8ed03bac87931
     Pseudo is Projector augmented-wave + core cor, Zval =  4.0
     Generated using "atomic" code by A. Dal Corso  v.5.0.99 svn rev. 10869
     Shape of augmentation charge: BESSEL
     Using radial grid of 1073 points,  4 beta functions with: 
                l(1) =   0
                l(2) =   0
                l(3) =   1
                l(4) =   1
     Q(r) pseudized with 0 coefficients 


     PseudoPot. # 2 for  N read from file:
     /scratch/ahofstet/pseudo/N.pbe-n-kjpaw_psl.0.1.UPF
     MD5 check sum: f73187c8b701007e77325f868c9291d7
     Pseudo is Projector augmented-wave + core cor, Zval =  5.0
     Generated using "atomic" code by A. Dal Corso  v.5.0.99 svn rev. 10869
     Shape of augmentation charge: PSQ
     Using radial grid of 1085 points,  4 beta functions with: 
                l(1) =   0
                l(2) =   0
                l(3) =   1
                l(4) =   1
     Q(r) pseudized with 0 coefficients 


     PseudoPot. # 3 for  H read from file:
     /scratch/ahofstet/pseudo/H.pbe-kjpaw_psl.0.1.UPF
     MD5 check sum: 94e484f906d9e9773b2f6e52662335b2
     Pseudo is Projector augmented-wave, Zval =  1.0
     Generated using "atomic" code by A. Dal Corso  v.5.0.99 svn rev. 10869
     Shape of augmentation charge: PSQ
     Using radial grid of  929 points,  2 beta functions with: 
                l(1) =   0
                l(2) =   0
     Q(r) pseudized with 0 coefficients 


     PseudoPot. # 4 for  O read from file:
     /scratch/ahofstet/pseudo/O.pbe-n-kjpaw_psl.0.1.UPF
     MD5 check sum: 3f94a2996a3169367d6eb21d9b593f20
     Pseudo is Projector augmented-wave + core cor, Zval =  6.0
     Generated using "atomic" code by A. Dal Corso  v.5.0.99 svn rev. 10869
     Shape of augmentation charge: BESSEL
     Using radial grid of 1095 points,  4 beta functions with: 
                l(1) =   0
                l(2) =   0
                l(3) =   1
                l(4) =   1
     Q(r) pseudized with 0 coefficients 


     atomic species   valence    mass     pseudopotential
        C              4.00    12.01070      C( 1.00)
        N              5.00    14.00670      N( 1.00)
        H              1.00     1.00794      H( 1.00)
        O              6.00    15.99940      O( 1.00)

      2 Sym. Ops., with inversion, found



   Cartesian axes

     site n.     atom                  positions (alat units)
         1           N   tau(   1) = (   0.0357173   0.1438405   1.1129738  )
         2           N   tau(   2) = (   0.3552356   0.4684610   0.1253268  )
         3           N   tau(   3) = (   0.7462974   0.5054026   1.3636723  )
         4           N   tau(   4) = (   0.4267792   0.1807821   2.3513193  )
         5           O   tau(   5) = (  -0.0961858   0.5369630   1.0364355  )
         6           O   tau(   6) = (   0.4871502   0.2123483   0.2018594  )
         7           O   tau(   7) = (   0.8782006   0.1122801   1.4402106  )
         8           O   tau(   8) = (   0.2948646   0.4368948   2.2747867  )
         9           O   tau(   9) = (   0.1592539   0.1834226   0.7721443  )
        10           O   tau(  10) = (   0.2318025   0.5080984   0.4661766  )
        11           O   tau(  11) = (   0.6227609   0.4658205   1.7045018  )
        12           O   tau(  12) = (   0.5502123   0.1411447   2.0104695  )
        13           O   tau(  13) = (   0.7629535   0.1791112   0.4855377  )
        14           O   tau(  14) = (   0.6280574   0.5037064   0.7528386  )
        15           O   tau(  15) = (   0.0190613   0.4701319   1.9911084  )
        16           O   tau(  16) = (   0.1539574   0.1455368   1.7238075  )
        17           C   tau(  17) = (  -0.0117290   0.0207214   1.0002131  )
        18           C   tau(  18) = (   0.4027152   0.3453501   0.2380937  )
        19           C   tau(  19) = (   0.7937437   0.6285218   1.4764330  )
        20           C   tau(  20) = (   0.3792996   0.3038930   2.2385524  )
        21           C   tau(  21) = (   0.0380397   0.0479507   0.8141934  )
        22           C   tau(  22) = (   0.3529885   0.3725960   0.4241210  )
        23           C   tau(  23) = (   0.7439751   0.6012925   1.6624527  )
        24           C   tau(  24) = (   0.4290263   0.2766471   2.0525251  )
        25           C   tau(  25) = (  -0.0212402   0.2036982   0.7203760  )
        26           C   tau(  26) = (   0.4123072   0.5283239   0.5179548  )
        27           C   tau(  27) = (   0.8032550   0.4455449   1.7562701  )
        28           C   tau(  28) = (   0.3697076   0.1209192   1.9586913  )
        29           C   tau(  29) = (   0.9448800   0.1889453   0.5316072  )
        30           C   tau(  30) = (   0.4461562   0.5135650   0.7066956  )
        31           C   tau(  31) = (  -0.1628652   0.4602978   1.9450389  )
        32           C   tau(  32) = (   0.3358586   0.1356781   1.7699505  )
        33           C   tau(  33) = (   0.8638751   0.3273678   0.4299893  )
        34           C   tau(  34) = (   0.5271324   0.6519929   0.8083462  )
        35           C   tau(  35) = (  -0.0818603   0.3218753   2.0466569  )
        36           C   tau(  36) = (   0.2548824  -0.0027498   1.6682999  )
        37           C   tau(  37) = (   0.8972200   0.3451406   0.2396865  )
        38           C   tau(  38) = (   0.4937334   0.0205462   0.9986295  )
        39           C   tau(  39) = (  -0.1152052   0.3041025   2.2369596  )
        40           C   tau(  40) = (   0.2882814   0.6286969   1.4780166  )
        41           H   tau(  41) = (   0.0519953   0.5749183   0.7410260  )
        42           H   tau(  42) = (   0.3390428   0.2503323   0.4973019  )
        43           H   tau(  43) = (   0.7300194   0.0743248   1.7356201  )
        44           H   tau(  44) = (   0.4429720   0.3989108   1.9793442  )
        45           H   tau(  45) = (   0.9074467   0.3033295   0.7926124  )
        46           H   tau(  46) = (   0.4836431   0.6279590   0.4457120  )
        47           H   tau(  47) = (  -0.1254319   0.3459137   1.6840337  )
        48           H   tau(  48) = (   0.2983717   0.0212841   2.0309341  )
        49           H   tau(  49) = (   0.0288728   0.0962010   0.4647709  )
        50           H   tau(  50) = (   0.3621254   0.4208283   0.7735332  )
        51           H   tau(  51) = (   0.7531420   0.5530421   2.0118752  )
        52           H   tau(  52) = (   0.4198893   0.2284148   1.7031129  )
        53           H   tau(  53) = (   0.8295661   0.4486719   0.4987943  )
        54           H   tau(  54) = (   0.5614943   0.1240293   0.7395331  )
        55           H   tau(  55) = (  -0.0475513   0.2005712   1.9778518  )
        56           H   tau(  56) = (   0.2205205   0.5252138   1.7371130  )
        57           H   tau(  57) = (   0.7832335   0.3986481   0.1742535  )
        58           H   tau(  58) = (   0.6077178   0.0740338   1.0640806  )
        59           H   tau(  59) = (  -0.0012187   0.2505950   2.3023926  )
        60           H   tau(  60) = (   0.1742970   0.5752093   1.4125656  )
        61           H   tau(  61) = (   0.0062122   0.4339828   0.2199712  )
        62           H   tau(  62) = (   0.3847606   0.1094211   1.0183200  )
        63           H   tau(  63) = (   0.7758026   0.2152603   2.2566749  )
        64           H   tau(  64) = (   0.3972542   0.5398220   1.4583261  )
        65           H   tau(  65) = (   0.9279545   0.2197220   0.1820031  )
        66           H   tau(  66) = (   0.4629590   0.5443832   1.0563182  )
        67           H   tau(  67) = (  -0.1459397   0.4295211   2.2946430  )
        68           H   tau(  68) = (   0.3190558   0.1048599   1.4203279  )
        69           H   tau(  69) = (  -0.0141208   0.1396547   1.2376703  )
        70           H   tau(  70) = (   0.4051097   0.4642783   0.0006454  )
        71           H   tau(  71) = (   0.7961356   0.5095884   1.2389758  )
        72           H   tau(  72) = (   0.3769051   0.1849648   2.4760007  )
        73           H   tau(  73) = (   0.0909126   0.2541508   1.0682492  )
        74           H   tau(  74) = (   0.3000938   0.5787954   0.1700567  )
        75           H   tau(  75) = (   0.6911022   0.3950923   1.4083969  )
        76           H   tau(  76) = (   0.4819210   0.0704477   2.3065894  )

     number of k points=     7
                       cart. coord. in units 2pi/alat
        k(    1) = (   0.0000000   0.0000000   0.0000000), wk =   0.1666667
        k(    2) = (   0.0000000   0.3850638   0.0000000), wk =   0.3333333
        k(    3) = (   0.0000000  -0.7701275   0.0000000), wk =   0.1666667
        k(    4) = (   0.3333333   0.0000000   0.0293388), wk =   0.3333333
        k(    5) = (   0.3333333   0.3850638   0.0293388), wk =   0.3333333
        k(    6) = (   0.3333333  -0.7701275   0.0293388), wk =   0.3333333
        k(    7) = (  -0.3333333   0.3850638  -0.0293388), wk =   0.3333333

     Dense  grid:   676891 G-vectors     FFT dimensions: (  96,  64, 240)

     Estimated max dynamical RAM per process >     469.20MB

     Estimated total allocated dynamical RAM >    3753.61MB

     Check: negative/imaginary core charge=   -0.000002    0.000000

     Initial potential from superposition of free atoms

     starting charge  223.99861, renormalised to  224.00000
     Starting wfc are  196 randomized atomic wfcs
     Checking if some PAW data can be deallocated... 

     total cpu time spent up to now is       24.9 secs

     per-process dynamical memory:   327.1 Mb

     Self-consistent Calculation

     iteration #  1     ecut=   100.00 Ry     beta=0.50
     Davidson diagonalization with overlap
     ethr =  1.00E-02,  avg # of iterations =  4.0

     total cpu time spent up to now is       84.9 secs

     total energy              =   -1096.48790843 Ry
     Harris-Foulkes estimate   =   -1100.20014837 Ry
     estimated scf accuracy    <       7.18415814 Ry

     iteration #  2     ecut=   100.00 Ry     beta=0.50
     Davidson diagonalization with overlap
     ethr =  3.21E-03,  avg # of iterations =  3.1

     total cpu time spent up to now is      118.1 secs

     total energy              =   -1097.25638808 Ry
     Harris-Foulkes estimate   =   -1097.60299230 Ry
     estimated scf accuracy    <       0.79239399 Ry

     iteration #  3     ecut=   100.00 Ry     beta=0.50
     Davidson diagonalization with overlap
     ethr =  3.54E-04,  avg # of iterations =  6.1

     total cpu time spent up to now is      184.0 secs

     total energy              =   -1097.69638123 Ry
     Harris-Foulkes estimate   =   -1097.89756110 Ry
     estimated scf accuracy    <       0.52806038 Ry

     iteration #  4     ecut=   100.00 Ry     beta=0.50
     Davidson diagonalization with overlap
     ethr =  2.36E-04,  avg # of iterations =  1.1

     total cpu time spent up to now is      212.2 secs

     total energy              =   -1097.63848391 Ry
     Harris-Foulkes estimate   =   -1097.72860316 Ry
     estimated scf accuracy    <       0.14918472 Ry

     iteration #  5     ecut=   100.00 Ry     beta=0.50
     Davidson diagonalization with overlap
     ethr =  6.66E-05,  avg # of iterations =  4.7

     total cpu time spent up to now is      275.0 secs

     total energy              =   -1097.75033404 Ry
     Harris-Foulkes estimate   =   -1097.82879983 Ry
     estimated scf accuracy    <       0.27124832 Ry

     iteration #  6     ecut=   100.00 Ry     beta=0.50
     Davidson diagonalization with overlap
     ethr =  6.66E-05,  avg # of iterations =  1.3

     total cpu time spent up to now is      303.6 secs

     total energy              =   -1097.70140067 Ry
     Harris-Foulkes estimate   =   -1097.75790803 Ry
     estimated scf accuracy    <       0.12639281 Ry

     iteration #  7     ecut=   100.00 Ry     beta=0.50
     Davidson diagonalization with overlap
     ethr =  5.64E-05,  avg # of iterations =  3.3

     total cpu time spent up to now is      345.3 secs

     total energy              =   -1097.74300177 Ry
     Harris-Foulkes estimate   =   -1097.74437456 Ry
     estimated scf accuracy    <       0.00271083 Ry

     iteration #  8     ecut=   100.00 Ry     beta=0.50
     Davidson diagonalization with overlap
     ethr =  1.21E-06,  avg # of iterations =  6.6

     total cpu time spent up to now is      405.5 secs

     total energy              =   -1097.74422063 Ry
     Harris-Foulkes estimate   =   -1097.74430343 Ry
     estimated scf accuracy    <       0.00033969 Ry

     iteration #  9     ecut=   100.00 Ry     beta=0.50
     Davidson diagonalization with overlap
     ethr =  1.52E-07,  avg # of iterations =  2.1

     total cpu time spent up to now is      437.3 secs

     total energy              =   -1097.74422202 Ry
     Harris-Foulkes estimate   =   -1097.74427567 Ry
     estimated scf accuracy    <       0.00012346 Ry

     iteration # 10     ecut=   100.00 Ry     beta=0.50
     Davidson diagonalization with overlap
     ethr =  5.51E-08,  avg # of iterations =  3.4

     total cpu time spent up to now is      476.7 secs

     total energy              =   -1097.74424969 Ry
     Harris-Foulkes estimate   =   -1097.74425340 Ry
     estimated scf accuracy    <       0.00000819 Ry

     iteration # 11     ecut=   100.00 Ry     beta=0.50
     Davidson diagonalization with overlap
     ethr =  3.66E-09,  avg # of iterations =  4.0

     total cpu time spent up to now is      531.3 secs

     total energy              =   -1097.74425147 Ry
     Harris-Foulkes estimate   =   -1097.74425553 Ry
     estimated scf accuracy    <       0.00000863 Ry

     iteration # 12     ecut=   100.00 Ry     beta=0.50
     Davidson diagonalization with overlap
     ethr =  3.66E-09,  avg # of iterations =  2.0

     total cpu time spent up to now is      560.7 secs

     total energy              =   -1097.74425144 Ry
     Harris-Foulkes estimate   =   -1097.74425213 Ry
     estimated scf accuracy    <       0.00000132 Ry

     iteration # 13     ecut=   100.00 Ry     beta=0.50
     Davidson diagonalization with overlap
     ethr =  5.88E-10,  avg # of iterations =  4.0

     total cpu time spent up to now is      619.2 secs

     total energy              =   -1097.74425306 Ry
     Harris-Foulkes estimate   =   -1097.74425353 Ry
     estimated scf accuracy    <       0.00000150 Ry

     iteration # 14     ecut=   100.00 Ry     beta=0.50
     Davidson diagonalization with overlap
     ethr =  5.88E-10,  avg # of iterations =  1.0

     total cpu time spent up to now is      647.4 secs

     total energy              =   -1097.74425278 Ry
     Harris-Foulkes estimate   =   -1097.74425310 Ry
     estimated scf accuracy    <       0.00000063 Ry

     iteration # 15     ecut=   100.00 Ry     beta=0.50
     Davidson diagonalization with overlap
     ethr =  2.80E-10,  avg # of iterations =  4.0

     total cpu time spent up to now is      696.8 secs

     total energy              =   -1097.74425311 Ry
     Harris-Foulkes estimate   =   -1097.74425313 Ry
     estimated scf accuracy    <       0.00000012 Ry

     iteration # 16     ecut=   100.00 Ry     beta=0.50
     Davidson diagonalization with overlap
     ethr =  5.57E-11,  avg # of iterations =  1.0

     total cpu time spent up to now is      725.1 secs

     total energy              =   -1097.74425308 Ry
     Harris-Foulkes estimate   =   -1097.74425311 Ry
     estimated scf accuracy    <       0.00000008 Ry

     iteration # 17     ecut=   100.00 Ry     beta=0.50
     Davidson diagonalization with overlap
     ethr =  3.75E-11,  avg # of iterations =  3.0

     total cpu time spent up to now is      758.2 secs

     End of self-consistent calculation

          k = 0.0000 0.0000 0.0000 ( 84545 PWs)   bands (ev):

   -21.5866 -21.5837 -21.5241 -21.5211 -20.8384 -20.8382 -20.8062 -20.8050
   -20.2470 -20.2416 -20.1185 -20.1142 -16.8620 -16.8613 -16.7091 -16.7083
   -12.5650 -12.5424 -12.5304 -12.5003 -12.3363 -12.3225 -12.1578 -12.1362
   -11.6720 -11.6226 -11.4597 -11.4361  -9.5225  -9.3963  -9.3072  -9.2297
    -8.7347  -8.7129  -8.6246  -8.6169  -8.5940  -8.5066  -8.5065  -8.4451
    -7.8614  -7.8302  -7.7670  -7.7261  -7.1458  -7.0931  -7.0930  -6.7646
    -6.6796  -6.5417  -6.3669  -6.1650  -5.8028  -5.7956  -5.7824  -5.5990
    -5.3198  -5.2592  -5.0856  -5.0451  -4.9374  -4.9226  -4.8754  -4.6769
    -4.6443  -4.6371  -4.5517  -4.3743  -4.2281  -4.2190  -4.1094  -4.0480
    -3.9579  -3.9072  -3.8409  -3.7651  -3.7596  -3.7281  -3.7152  -3.6639
    -3.2758  -3.2248  -3.1847  -3.1626  -3.0442  -2.9952  -2.9279  -2.8848
    -2.6166  -2.5669  -2.3076  -2.2907  -1.6009  -1.5746  -1.3061  -1.2321
    -1.2204  -1.1968  -1.1037  -1.0418  -0.9176  -0.9146  -0.9127  -0.8920
    -0.6267  -0.5314  -0.5130  -0.3720  -0.2274  -0.1702  -0.1573  -0.1491
     4.5885   4.5954   4.7104   4.8113   5.0305   5.1192   5.6933   5.7608
     5.9932   6.3078   6.3285   6.3550   7.0636   7.0984   7.1341   7.2347
     7.3295   7.3609   7.3821   7.4295   7.5356   7.5365

          k = 0.0000 0.3851 0.0000 ( 84604 PWs)   bands (ev):

   -21.5734 -21.5706 -21.5290 -21.5262 -20.8315 -20.8312 -20.8087 -20.8077
   -20.2381 -20.2344 -20.1120 -20.1089 -16.8926 -16.8920 -16.7297 -16.7291
   -12.5557 -12.5333 -12.5328 -12.5056 -12.3025 -12.2887 -12.1727 -12.1527
   -11.6813 -11.6436 -11.4852 -11.4634  -9.4662  -9.3727  -9.3197  -9.2567
    -8.8853  -8.8719  -8.8005  -8.7804  -8.5473  -8.5273  -8.4618  -8.4369
    -7.8273  -7.8099  -7.7199  -7.7032  -7.0478  -7.0455  -6.9653  -6.7651
    -6.6989  -6.5946  -6.2900  -6.1504  -5.7942  -5.7787  -5.7414  -5.5984
    -5.2260  -5.1118  -5.0697  -5.0190  -4.9530  -4.8700  -4.8060  -4.7326
    -4.6313  -4.6147  -4.5178  -4.4175  -4.2288  -4.1840  -4.1609  -4.1197
    -4.0043  -3.9820  -3.9493  -3.8831  -3.7919  -3.7548  -3.7306  -3.7117
    -3.2230  -3.1962  -3.1714  -3.1453  -3.0058  -2.9626  -2.8599  -2.8359
    -2.5218  -2.4842  -2.3188  -2.3008  -1.5144  -1.4715  -1.3072  -1.2400
    -1.1321  -1.0985  -1.0398  -0.9843  -0.9402  -0.9214  -0.7768  -0.7744
    -0.5899  -0.5353  -0.4516  -0.3787  -0.2162  -0.1870  -0.1714  -0.1664
     4.4833   4.4909   4.7041   4.7547   5.3564   5.4462   5.8104   5.8851
     6.0709   6.2488   6.4482   6.5606   7.0219   7.0377   7.1907   7.2467
     7.3113   7.3178   7.4554   7.5274   7.5602   7.6156

          k = 0.0000-0.7701 0.0000 ( 84630 PWs)   bands (ev):

   -21.5474 -21.5467 -21.5448 -21.5441 -20.8183 -20.8179 -20.8172 -20.8169
   -20.2287 -20.2276 -20.1051 -20.1040 -16.9227 -16.9224 -16.7504 -16.7502
   -12.5422 -12.5420 -12.5182 -12.5180 -12.2266 -12.2259 -12.2105 -12.2098
   -11.6802 -11.6798 -11.5027 -11.5024  -9.3683  -9.3679  -9.3134  -9.3130
    -8.9953  -8.9952  -8.9187  -8.9186  -8.5360  -8.5358  -8.4642  -8.4640
    -7.7845  -7.7843  -7.6648  -7.6647  -6.9964  -6.9963  -6.8348  -6.8348
    -6.6851  -6.6850  -6.1798  -6.1796  -5.7709  -5.7706  -5.6525  -5.6524
    -5.0707  -5.0704  -4.9799  -4.9798  -4.9074  -4.9073  -4.7574  -4.7571
    -4.5725  -4.5724  -4.4798  -4.4798  -4.3041  -4.3039  -4.1816  -4.1815
    -4.0643  -4.0643  -4.0069  -4.0068  -3.7593  -3.7593  -3.7527  -3.7527
    -3.1665  -3.1664  -3.1418  -3.1417  -2.8683  -2.8682  -2.8363  -2.8361
    -2.3677  -2.3675  -2.3486  -2.3485  -1.3426  -1.3425  -1.2983  -1.2983
    -1.0614  -1.0611  -1.0275  -1.0273  -0.8554  -0.8550  -0.6576  -0.6571
    -0.5979  -0.5979  -0.2825  -0.2823  -0.2584  -0.2582  -0.1929  -0.1926
     4.3868   4.3870   4.6871   4.6877   5.7734   5.7734   5.8963   5.8967
     6.0878   6.0878   6.5444   6.5448   6.8689   6.8690   7.2024   7.2028
     7.3564   7.3565   7.4254   7.4261   7.6736   7.6738

          k = 0.3333 0.0000 0.0293 ( 84569 PWs)   bands (ev):

   -21.5821 -21.5804 -21.5270 -21.5253 -20.8444 -20.8444 -20.8005 -20.8000
   -20.2455 -20.2427 -20.1174 -20.1150 -16.8622 -16.8618 -16.7087 -16.7083
   -12.5515 -12.5382 -12.5254 -12.5083 -12.3056 -12.2908 -12.2008 -12.1821
   -11.6595 -11.6349 -11.4529 -11.4412  -9.4628  -9.3689  -9.3263  -9.2564
    -8.7236  -8.7192  -8.6827  -8.6767  -8.5718  -8.5324  -8.4924  -8.4621
    -7.8471  -7.8347  -7.7634  -7.7391  -7.0610  -7.0563  -6.9635  -6.8049
    -6.6735  -6.5920  -6.3301  -6.2235  -5.8172  -5.7925  -5.6933  -5.5979
    -5.2772  -5.2091  -5.1496  -5.0776  -4.9175  -4.9022  -4.8490  -4.7209
    -4.6513  -4.6225  -4.5137  -4.3716  -4.2766  -4.2548  -4.1252  -4.0496
    -4.0031  -3.9707  -3.8959  -3.8651  -3.7274  -3.7192  -3.7132  -3.7010
    -3.2821  -3.2604  -3.1851  -3.1749  -3.0122  -2.9801  -2.9271  -2.8930
    -2.5213  -2.4852  -2.3519  -2.3510  -1.5302  -1.5020  -1.3491  -1.2940
    -1.2051  -1.1967  -1.0633  -1.0526  -1.0030  -0.9489  -0.8892  -0.8768
    -0.6222  -0.5993  -0.4403  -0.3927  -0.2128  -0.2022  -0.1615  -0.1504
     4.5793   4.5807   4.7635   4.8050   5.2580   5.3229   5.9275   5.9556
     6.1448   6.1687   6.3303   6.4788   6.7517   6.8604   7.2022   7.2075
     7.2619   7.2693   7.3807   7.4280   7.4526   7.5471

          k = 0.3333 0.3851 0.0293 ( 84627 PWs)   bands (ev):

   -21.5700 -21.5685 -21.5309 -21.5293 -20.8357 -20.8356 -20.8046 -20.8042
   -20.2372 -20.2351 -20.1113 -20.1095 -16.8927 -16.8923 -16.7294 -16.7291
   -12.5506 -12.5409 -12.5258 -12.5138 -12.2766 -12.2616 -12.2022 -12.1840
   -11.6712 -11.6525 -11.4793 -11.4683  -9.4414  -9.3733  -9.3430  -9.2843
    -8.8493  -8.8335  -8.7871  -8.7556  -8.5725  -8.5412  -8.4634  -8.4518
    -7.8226  -7.8131  -7.7248  -7.7147  -7.0361  -7.0176  -6.9046  -6.8029
    -6.6854  -6.6280  -6.2615  -6.1891  -5.8174  -5.8013  -5.6749  -5.6116
    -5.2188  -5.1329  -5.0827  -5.0318  -4.9104  -4.8779  -4.7647  -4.7172
    -4.6390  -4.6115  -4.4898  -4.3705  -4.2901  -4.2713  -4.1669  -4.1235
    -4.0661  -4.0204  -3.9617  -3.8945  -3.7659  -3.7630  -3.7294  -3.7201
    -3.2201  -3.2040  -3.1788  -3.1640  -2.9469  -2.9175  -2.8782  -2.8504
    -2.4900  -2.4651  -2.3713  -2.3538  -1.4706  -1.4358  -1.3500  -1.3128
    -1.1284  -1.0823  -1.0629  -0.9964  -0.9077  -0.8780  -0.7630  -0.7574
    -0.5857  -0.5716  -0.4012  -0.3748  -0.2107  -0.1981  -0.1686  -0.1576
     4.4883   4.4911   4.7162   4.7445   5.5018   5.5685   5.8282   5.9356
     6.0562   6.1983   6.4076   6.5833   6.9202   7.0397   7.2210   7.2585
     7.3065   7.3201   7.4560   7.4727   7.5811   7.6249

          k = 0.3333-0.7701 0.0293 ( 84654 PWs)   bands (ev):

   -21.5473 -21.5465 -21.5447 -21.5440 -20.8185 -20.8180 -20.8175 -20.8170
   -20.2286 -20.2276 -20.1050 -20.1040 -16.9228 -16.9226 -16.7503 -16.7501
   -12.5470 -12.5468 -12.5231 -12.5229 -12.2262 -12.2255 -12.2069 -12.2061
   -11.6781 -11.6777 -11.5033 -11.5030  -9.4051  -9.4046  -9.3385  -9.3380
    -8.9066  -8.9060  -8.8686  -8.8680  -8.5487  -8.5485  -8.4718  -8.4715
    -7.7888  -7.7886  -7.6749  -7.6748  -7.0055  -7.0055  -6.8460  -6.8459
    -6.6897  -6.6896  -6.1862  -6.1859  -5.7906  -5.7903  -5.6650  -5.6649
    -5.1197  -5.1194  -4.9750  -4.9748  -4.8323  -4.8321  -4.7459  -4.7457
    -4.6399  -4.6397  -4.4139  -4.4137  -4.3679  -4.3678  -4.1795  -4.1794
    -4.0712  -4.0710  -3.9931  -3.9931  -3.7572  -3.7570  -3.7505  -3.7505
    -3.1587  -3.1584  -3.1483  -3.1480  -2.8315  -2.8314  -2.8124  -2.8123
    -2.4203  -2.4202  -2.3898  -2.3897  -1.3738  -1.3737  -1.3384  -1.3383
    -1.0501  -1.0496  -1.0103  -1.0098  -0.7690  -0.7686  -0.6344  -0.6340
    -0.5943  -0.5942  -0.2996  -0.2995  -0.2373  -0.2371  -0.1717  -0.1715
     4.3936   4.3938   4.6737   4.6743   5.6535   5.6536   5.7430   5.7432
     6.1726   6.1728   6.5493   6.5497   7.0462   7.0464   7.1909   7.1912
     7.3728   7.3729   7.4873   7.4876   7.5793   7.5798

          k =-0.3333 0.3851-0.0293 ( 84627 PWs)   bands (ev):

   -21.5700 -21.5685 -21.5309 -21.5293 -20.8358 -20.8356 -20.8046 -20.8042
   -20.2372 -20.2351 -20.1112 -20.1095 -16.8927 -16.8924 -16.7294 -16.7290
   -12.5506 -12.5409 -12.5258 -12.5138 -12.2766 -12.2615 -12.2022 -12.1841
   -11.6713 -11.6525 -11.4793 -11.4683  -9.4413  -9.3734  -9.3431  -9.2843
    -8.8498  -8.8337  -8.7869  -8.7551  -8.5727  -8.5411  -8.4635  -8.4518
    -7.8228  -7.8130  -7.7247  -7.7148  -7.0361  -7.0175  -6.9046  -6.8029
    -6.6855  -6.6280  -6.2615  -6.1891  -5.8175  -5.8012  -5.6748  -5.6116
    -5.2189  -5.1329  -5.0827  -5.0317  -4.9106  -4.8777  -4.7645  -4.7176
    -4.6389  -4.6115  -4.4900  -4.3705  -4.2900  -4.2714  -4.1669  -4.1233
    -4.0660  -4.0206  -3.9617  -3.8946  -3.7660  -3.7630  -3.7295  -3.7199
    -3.2200  -3.2040  -3.1787  -3.1640  -2.9469  -2.9175  -2.8783  -2.8504
    -2.4901  -2.4651  -2.3713  -2.3538  -1.4706  -1.4359  -1.3499  -1.3127
    -1.1282  -1.0822  -1.0630  -0.9968  -0.9075  -0.8781  -0.7629  -0.7575
    -0.5856  -0.5716  -0.4012  -0.3749  -0.2108  -0.1980  -0.1684  -0.1577
     4.4881   4.4913   4.7164   4.7442   5.5019   5.5683   5.8283   5.9357
     6.0561   6.1982   6.4076   6.5836   6.9201   7.0398   7.2212   7.2581
     7.3068   7.3196   7.4560   7.4728   7.5810   7.6249

     highest occupied, lowest unoccupied level (ev):    -0.1491    4.3868

!    total energy              =   -1097.74425308 Ry
     Harris-Foulkes estimate   =   -1097.74425309 Ry
     estimated scf accuracy    <          8.9E-09 Ry

     total all-electron energy =     -4115.440445 Ry

     The total energy is the sum of the following terms:

     one-electron contribution =    -748.24476791 Ry
     hartree contribution      =     457.08516405 Ry
     xc contribution           =    -235.69056078 Ry
     ewald contribution        =    -263.57589382 Ry
     Dispersion Correction     =      -0.30921610 Ry
     one-center paw contrib.   =    -307.00897851 Ry

     convergence has been achieved in  17 iterations

     Forces acting on atoms (cartesian axes, Ry/au):

     atom    1 type  2   force =    -0.00776909   -0.00880595    0.00413049
     atom    2 type  2   force =     0.00782118   -0.00885044   -0.00409503
     atom    3 type  2   force =     0.00776909    0.00880595   -0.00413049
     atom    4 type  2   force =    -0.00782118    0.00885044    0.00409503
     atom    5 type  4   force =     0.01058018    0.00098376    0.00443687
     atom    6 type  4   force =    -0.01050011    0.00086212   -0.00445340
     atom    7 type  4   force =    -0.01058018   -0.00098376   -0.00443687
     atom    8 type  4   force =     0.01050011   -0.00086212    0.00445340
     atom    9 type  4   force =    -0.00902472    0.00073227   -0.00040336
     atom   10 type  4   force =     0.00906745    0.00066327    0.00043527
     atom   11 type  4   force =     0.00902472   -0.00073227    0.00040336
     atom   12 type  4   force =    -0.00906745   -0.00066327   -0.00043527
     atom   13 type  4   force =     0.00730967    0.00034909    0.00006854
     atom   14 type  4   force =    -0.00732458    0.00041532   -0.00007514
     atom   15 type  4   force =    -0.00730967   -0.00034909   -0.00006854
     atom   16 type  4   force =     0.00732458   -0.00041532    0.00007514
     atom   17 type  1   force =     0.00093645    0.00515605   -0.00476482
     atom   18 type  1   force =    -0.00101373    0.00531371    0.00476903
     atom   19 type  1   force =    -0.00093645   -0.00515605    0.00476482
     atom   20 type  1   force =     0.00101373   -0.00531371   -0.00476903
     atom   21 type  1   force =     0.00245932   -0.01731337   -0.00357198
     atom   22 type  1   force =    -0.00246444   -0.01722810    0.00359523
     atom   23 type  1   force =    -0.00245932    0.01731337    0.00357198
     atom   24 type  1   force =     0.00246444    0.01722810   -0.00359523
     atom   25 type  1   force =     0.00200248    0.00434708    0.00274024
     atom   26 type  1   force =    -0.00198758    0.00449442   -0.00315208
     atom   27 type  1   force =    -0.00200248   -0.00434708   -0.00274024
     atom   28 type  1   force =     0.00198758   -0.00449442    0.00315208
     atom   29 type  1   force =    -0.00540672   -0.00283140   -0.00176766
     atom   30 type  1   force =     0.00533810   -0.00291295    0.00219140
     atom   31 type  1   force =     0.00540672    0.00283140    0.00176766
     atom   32 type  1   force =    -0.00533810    0.00291295   -0.00219140
     atom   33 type  1   force =    -0.00601170    0.01760515    0.00954731
     atom   34 type  1   force =     0.00603884    0.01746640   -0.00966405
     atom   35 type  1   force =     0.00601170   -0.01760515   -0.00954731
     atom   36 type  1   force =    -0.00603884   -0.01746640    0.00966405
     atom   37 type  1   force =    -0.00249349    0.00654205    0.00361929
     atom   38 type  1   force =     0.00248906    0.00655040   -0.00356964
     atom   39 type  1   force =     0.00249349   -0.00654205   -0.00361929
     atom   40 type  1   force =    -0.00248906   -0.00655040    0.00356964
     atom   41 type  3   force =     0.00158846    0.01473717    0.00450422
     atom   42 type  3   force =    -0.00163330    0.01469061   -0.00450251
     atom   43 type  3   force =    -0.00158846   -0.01473717   -0.00450422
     atom   44 type  3   force =     0.00163330   -0.01469061    0.00450251
     atom   45 type  3   force =     0.00011909   -0.00190015   -0.00252034
     atom   46 type  3   force =    -0.00019503   -0.00201569    0.00260736
     atom   47 type  3   force =    -0.00011909    0.00190015    0.00252034
     atom   48 type  3   force =     0.00019503    0.00201569   -0.00260736
     atom   49 type  3   force =    -0.00083851   -0.00138791   -0.00008729
     atom   50 type  3   force =     0.00092290   -0.00128188   -0.00000336
     atom   51 type  3   force =     0.00083851    0.00138791    0.00008729
     atom   52 type  3   force =    -0.00092290    0.00128188    0.00000336
     atom   53 type  3   force =     0.00180293   -0.01497292   -0.00516174
     atom   54 type  3   force =    -0.00180961   -0.01493366    0.00516255
     atom   55 type  3   force =    -0.00180293    0.01497292    0.00516174
     atom   56 type  3   force =     0.00180961    0.01493366   -0.00516255
     atom   57 type  3   force =    -0.00167957   -0.00034017   -0.00188496
     atom   58 type  3   force =     0.00169010   -0.00034100    0.00190039
     atom   59 type  3   force =     0.00167957    0.00034017    0.00188496
     atom   60 type  3   force =    -0.00169010    0.00034100   -0.00190039
     atom   61 type  3   force =     0.00252077    0.00018848   -0.00212838
     atom   62 type  3   force =    -0.00250698    0.00016865    0.00210771
     atom   63 type  3   force =    -0.00252077   -0.00018848    0.00212838
     atom   64 type  3   force =     0.00250698   -0.00016865   -0.00210771
     atom   65 type  3   force =     0.00168111   -0.00561173   -0.00352838
     atom   66 type  3   force =    -0.00168799   -0.00561347    0.00353026
     atom   67 type  3   force =    -0.00168111    0.00561173    0.00352838
     atom   68 type  3   force =     0.00168799    0.00561347   -0.00353026
     atom   69 type  3   force =    -0.00024044   -0.00036796   -0.00029315
     atom   70 type  3   force =     0.00022134   -0.00036710    0.00028946
     atom   71 type  3   force =     0.00024044    0.00036796    0.00029315
     atom   72 type  3   force =    -0.00022134    0.00036710   -0.00028946
     atom   73 type  3   force =    -0.00170825    0.00236340   -0.00372550
     atom   74 type  3   force =     0.00170462    0.00236820    0.00373827
     atom   75 type  3   force =     0.00170825   -0.00236340    0.00372550
     atom   76 type  3   force =    -0.00170462   -0.00236820   -0.00373827

     Total force =     0.088452     Total SCF correction =     0.000161


     Computing stress (Cartesian axis) and pressure

          total   stress  (Ry/bohr**3)                   (kbar)     P=   -6.19
  -0.00005317  -0.00000005   0.00000943         -7.82     -0.01      1.39
  -0.00000005  -0.00008291   0.00000003         -0.01    -12.20      0.00
   0.00000943   0.00000003   0.00000988          1.39      0.00      1.45


     Writing output data file scf.save
 
     init_run     :     23.28s CPU     24.18s WALL (       1 calls)
     electrons    :    699.24s CPU    733.55s WALL (       1 calls)
     forces       :     13.27s CPU     13.39s WALL (       1 calls)
     stress       :     41.97s CPU     42.18s WALL (       1 calls)

     Called by init_run:
     wfcinit      :     15.11s CPU     15.92s WALL (       1 calls)
     potinit      :      2.90s CPU      2.93s WALL (       1 calls)

     Called by electrons:
     c_bands      :    623.61s CPU    652.19s WALL (      17 calls)
     sum_band     :     64.54s CPU     69.24s WALL (      17 calls)
     v_of_rho     :      1.58s CPU      1.76s WALL (      18 calls)
     newd         :      3.65s CPU      4.38s WALL (      18 calls)
     PAW_pot      :      5.46s CPU      5.46s WALL (      18 calls)
     mix_rho      :      0.35s CPU      0.38s WALL (      17 calls)

     Called by c_bands:
     init_us_2    :      4.26s CPU      4.27s WALL (     259 calls)
     cegterg      :    607.87s CPU    636.41s WALL (     119 calls)

     Called by sum_band:
     sum_band:bec :      0.04s CPU      0.04s WALL (     119 calls)
     addusdens    :      3.64s CPU      4.34s WALL (      17 calls)

     Called by *egterg:
     h_psi        :    335.45s CPU    357.91s WALL (     510 calls)
     s_psi        :     68.70s CPU     68.71s WALL (     510 calls)
     g_psi        :      2.05s CPU      2.05s WALL (     384 calls)
     cdiaghg      :     30.34s CPU     30.35s WALL (     503 calls)

     Called by h_psi:
     h_psi:pot    :    332.80s CPU    355.21s WALL (     510 calls)
     h_psi:calbec :     69.27s CPU     69.46s WALL (     510 calls)
     vloc_psi     :    194.48s CPU    216.71s WALL (     510 calls)
     add_vuspsi   :     69.04s CPU     69.04s WALL (     510 calls)

     General routines
     calbec       :     99.25s CPU     99.49s WALL (     664 calls)
     fft          :      0.89s CPU      1.20s WALL (     258 calls)
     fftw         :    206.96s CPU    231.08s WALL (  110130 calls)
 
     Parallel routines
     fft_scatter  :     56.30s CPU     74.48s WALL (  110388 calls)
 
     PWSCF        : 13m 3.71s CPU    14m26.48s WALL

 
   This run was terminated on:   6:27: 5  18Nov2017            

=------------------------------------------------------------------------------=
   JOB DONE.
=------------------------------------------------------------------------------=
