
     Program PWSCF v.6.1 (svn rev. 13369) starts on  3Nov2017 at 23:53:45 

     This program is part of the open-source Quantum ESPRESSO suite
     for quantum simulation of materials; please cite
         "P. Giannozzi et al., J. Phys.:Condens. Matter 21 395502 (2009);
          URL http://www.quantum-espresso.org", 
     in publications or presentations arising from this work. More details at
     http://www.quantum-espresso.org/quote

     Parallel version (MPI), running on     8 processors
     R & G space division:  proc/nbgrp/npool/nimage =       8
     Waiting for input...
     Reading input from standard input

     Current dimensions of program PWSCF are:
     Max number of different atomic species (ntypx) = 10
     Max number of k-points (npk) =  40000
     Max angular momentum in pseudopotentials (lmaxx) =  3
               file C.pbe-n-kjpaw_psl.0.1.UPF: wavefunction(s)  2P renormalized
               file N.pbe-n-kjpaw_psl.0.1.UPF: wavefunction(s)  2P renormalized
               file H.pbe-kjpaw_psl.0.1.UPF: wavefunction(s)  1S renormalized
               file O.pbe-n-kjpaw_psl.0.1.UPF: wavefunction(s)  2P renormalized

     -------------------------------------
     Parameters for Dispersion Correction:
     -------------------------------------
       atom      VdW radius       C_6     

        C          2.744         60.710
        N          2.640         42.670
        H          1.892          4.857
        O          2.536         24.284

     Subspace diagonalization in iterative solution of the eigenvalue problem:
     a serial algorithm will be used

 
     Parallelization info
     --------------------
     sticks:   dense  smooth     PW     G-vecs:    dense   smooth      PW
     Min        2148    2148    568               160128   160128   21784
     Max        2149    2149    569               160129   160129   21785
     Sum       17185   17185   4551              1281031  1281031  174275
 


     bravais-lattice index     =            0
     lattice parameter (alat)  =      15.9109  a.u.
     unit-cell volume          =    9482.4190 (a.u.)^3
     number of atoms/cell      =          144
     number of atomic types    =            4
     number of electrons       =       424.00
     number of Kohn-Sham states=          254
     kinetic-energy cutoff     =     100.0000  Ry
     charge density cutoff     =     400.0000  Ry
     convergence threshold     =      1.0E-08
     mixing beta               =       0.5000
     number of iterations used =            8  plain     mixing
     Exchange-correlation      =  SLA  PW   PBX  PBC ( 1  4  3  4 0 0)

     celldm(1)=  15.910927  celldm(2)=   0.000000  celldm(3)=   0.000000
     celldm(4)=   0.000000  celldm(5)=   0.000000  celldm(6)=   0.000000

     crystal axes: (cart. coord. in units of alat)
               a(1) = (   1.000000   0.000000   0.000000 )  
               a(2) = (   0.000000   2.132499   0.000000 )  
               a(3) = (  -0.167901   0.000000   1.103936 )  

     reciprocal axes: (cart. coord. in units 2 pi/alat)
               b(1) = (  1.000000  0.000000  0.152093 )  
               b(2) = (  0.000000  0.468933  0.000000 )  
               b(3) = (  0.000000  0.000000  0.905850 )  


     PseudoPot. # 1 for  C read from file:
     /scratch/ahofstet/pseudo/C.pbe-n-kjpaw_psl.0.1.UPF
     MD5 check sum: 430fe95172b1e11ef3f8ed03bac87931
     Pseudo is Projector augmented-wave + core cor, Zval =  4.0
     Generated using "atomic" code by A. Dal Corso  v.5.0.99 svn rev. 10869
     Shape of augmentation charge: BESSEL
     Using radial grid of 1073 points,  4 beta functions with: 
                l(1) =   0
                l(2) =   0
                l(3) =   1
                l(4) =   1
     Q(r) pseudized with 0 coefficients 


     PseudoPot. # 2 for  N read from file:
     /scratch/ahofstet/pseudo/N.pbe-n-kjpaw_psl.0.1.UPF
     MD5 check sum: f73187c8b701007e77325f868c9291d7
     Pseudo is Projector augmented-wave + core cor, Zval =  5.0
     Generated using "atomic" code by A. Dal Corso  v.5.0.99 svn rev. 10869
     Shape of augmentation charge: PSQ
     Using radial grid of 1085 points,  4 beta functions with: 
                l(1) =   0
                l(2) =   0
                l(3) =   1
                l(4) =   1
     Q(r) pseudized with 0 coefficients 


     PseudoPot. # 3 for  H read from file:
     /scratch/ahofstet/pseudo/H.pbe-kjpaw_psl.0.1.UPF
     MD5 check sum: 94e484f906d9e9773b2f6e52662335b2
     Pseudo is Projector augmented-wave, Zval =  1.0
     Generated using "atomic" code by A. Dal Corso  v.5.0.99 svn rev. 10869
     Shape of augmentation charge: PSQ
     Using radial grid of  929 points,  2 beta functions with: 
                l(1) =   0
                l(2) =   0
     Q(r) pseudized with 0 coefficients 


     PseudoPot. # 4 for  O read from file:
     /scratch/ahofstet/pseudo/O.pbe-n-kjpaw_psl.0.1.UPF
     MD5 check sum: 3f94a2996a3169367d6eb21d9b593f20
     Pseudo is Projector augmented-wave + core cor, Zval =  6.0
     Generated using "atomic" code by A. Dal Corso  v.5.0.99 svn rev. 10869
     Shape of augmentation charge: BESSEL
     Using radial grid of 1095 points,  4 beta functions with: 
                l(1) =   0
                l(2) =   0
                l(3) =   1
                l(4) =   1
     Q(r) pseudized with 0 coefficients 


     atomic species   valence    mass     pseudopotential
        C              4.00    12.01070      C( 1.00)
        N              5.00    14.00670      N( 1.00)
        H              1.00     1.00794      H( 1.00)
        O              6.00    15.99940      O( 1.00)

      2 Sym. Ops., with inversion, found
          (note:  2 additional sym.ops. were found but ignored
           their fractional translations are incommensurate with FFT grid)


   Cartesian axes

     site n.     atom                  positions (alat units)
         1           C   tau(   1) = (   0.9531112   1.9127170   0.2605942  )
         2           C   tau(   2) = (   0.4629385   0.8464676   0.2913738  )
         3           C   tau(   3) = (  -0.1210119   0.2197818   0.8433418  )
         4           C   tau(   4) = (   0.3691608   1.2860312   0.8125622  )
         5           C   tau(   5) = (  -0.0036880   1.7559197   0.2897978  )
         6           C   tau(   6) = (   0.4197376   0.6896704   0.2621702  )
         7           C   tau(   7) = (   0.8357873   0.3765790   0.8141381  )
         8           C   tau(   8) = (   0.4123616   1.4428284   0.8417658  )
         9           C   tau(   9) = (   0.8635499   1.6673250   0.0691410  )
        10           C   tau(  10) = (   0.5524997   0.6010756   0.4828270  )
        11           C   tau(  11) = (  -0.0314506   0.4651738   1.0347950  )
        12           C   tau(  12) = (   0.2795995   1.5314232   0.6211090  )
        13           C   tau(  13) = (   0.8129190   1.8197295   0.0305933  )
        14           C   tau(  14) = (   0.6031306   0.7534801   0.5213747  )
        15           C   tau(  15) = (   0.0191802   0.3127693   1.0733427  )
        16           C   tau(  16) = (   0.2289687   1.3790187   0.5825613  )
        17           C   tau(  17) = (   0.8592907   1.9478724   0.1273100  )
        18           C   tau(  18) = (   0.5567590   0.8816230   0.4246580  )
        19           C   tau(  19) = (  -0.0271914   0.1846264   0.9766260  )
        20           C   tau(  20) = (   0.2753403   1.2508758   0.6792780  )
        21           C   tau(  21) = (   0.8108414   2.1099720   0.0877549  )
        22           C   tau(  22) = (   0.6052082   1.0437226   0.4642131  )
        23           C   tau(  23) = (   0.0212579   0.0225267   1.0161811  )
        24           C   tau(  24) = (   0.2268911   1.0887761   0.6397229  )
        25           C   tau(  25) = (   0.5452990   0.0272720   1.0651758  )
        26           C   tau(  26) = (   0.7028499   1.0935214   0.5907281  )
        27           C   tau(  27) = (   0.2868002   2.1052268   0.0387601  )
        28           C   tau(  28) = (   0.1292494   1.0389774   0.5132078  )
        29           C   tau(  29) = (   0.5356316   0.1919797   1.0798637  )
        30           C   tau(  30) = (   0.7125174   1.2582291   0.5760403  )
        31           C   tau(  31) = (   0.2964677   1.9405191   0.0240723  )
        32           C   tau(  32) = (   0.1195819   0.8742697   0.5278957  )
        33           C   tau(  33) = (   0.4505752   0.3097571   0.9856919  )
        34           C   tau(  34) = (   0.7975737   1.3760065   0.6702121  )
        35           C   tau(  35) = (   0.3815240   1.8227416   0.1182441  )
        36           C   tau(  36) = (   0.0345256   0.7564922   0.4337239  )
        37           C   tau(  37) = (   0.3810227   0.2699811   0.8392909  )
        38           C   tau(  38) = (   0.8671262   1.3362305   0.8166131  )
        39           C   tau(  39) = (   0.4510765   1.8625177   0.2646451  )
        40           C   tau(  40) = (  -0.0350269   0.7962683   0.2873229  )
        41           C   tau(  41) = (   0.3048420   0.3872087   0.7511123  )
        42           C   tau(  42) = (  -0.0566931   1.4534581   0.9047916  )
        43           C   tau(  43) = (   0.5272572   1.7452901   0.3528236  )
        44           C   tau(  44) = (   0.8887924   0.6790407   0.1991443  )
        45           C   tau(  45) = (   0.3571742   0.5769602   0.9403640  )
        46           C   tau(  46) = (  -0.1090253   1.6432096   0.7155400  )
        47           C   tau(  47) = (   0.4749251   1.5555386   0.1635720  )
        48           C   tau(  48) = (   0.9411245   0.4892892   0.3883960  )
        49           C   tau(  49) = (   0.4348188   0.4678297   1.0367431  )
        50           C   tau(  50) = (   0.8133301   1.5340791   0.6191608  )
        51           C   tau(  51) = (   0.3972804   1.6646691   0.0671928  )
        52           C   tau(  52) = (   0.0187692   0.5984197   0.4847751  )
        53           N   tau(  53) = (   0.7932072   0.2315087   0.1049489  )
        54           N   tau(  54) = (   0.6228424   1.2977581   0.4470190  )
        55           N   tau(  55) = (   0.0388920   1.9009901   0.9989870  )
        56           N   tau(  56) = (   0.2092569   0.8347407   0.6569169  )
        57           N   tau(  57) = (   0.8594767   0.1043301   0.1747234  )
        58           N   tau(  58) = (   0.5565729   1.1705795   0.3772446  )
        59           N   tau(  59) = (  -0.0273774   2.0281687   0.9292126  )
        60           N   tau(  60) = (   0.2755263   0.9619193   0.7266914  )
        61           N   tau(  61) = (   0.9539805   1.6335336   0.1963283  )
        62           N   tau(  62) = (   0.4620691   0.5672842   0.3556397  )
        63           N   tau(  63) = (  -0.1218813   0.4989652   0.9076077  )
        64           N   tau(  64) = (   0.3700302   1.5652146   0.7482963  )
        65           N   tau(  65) = (   0.2934791   0.5395613   0.7986697  )
        66           N   tau(  66) = (  -0.0453302   1.6058107   0.8572342  )
        67           N   tau(  67) = (   0.5386202   1.5929375   0.3052662  )
        68           N   tau(  68) = (   0.8774295   0.5266881   0.2467018  )
        69           H   tau(  69) = (  -0.0068745   2.0049556   0.3418772  )
        70           H   tau(  70) = (   0.4229242   0.9387062   0.2100908  )
        71           H   tau(  71) = (   0.8389738   0.1275432   0.7620587  )
        72           H   tau(  72) = (   0.4091751   1.1937926   0.8938452  )
        73           H   tau(  73) = (   0.0682169   1.7277089   0.3939266  )
        74           H   tau(  74) = (   0.3478327   0.6614596   0.1580414  )
        75           H   tau(  75) = (   0.7638824   0.4047898   0.7100094  )
        76           H   tau(  76) = (   0.4842665   1.4710392   0.9458946  )
        77           H   tau(  77) = (   0.8313703   1.5661478  -0.0054351  )
        78           H   tau(  78) = (   0.5846793   0.4998984   0.5574031  )
        79           H   tau(  79) = (   0.0007290   0.5663510   1.1093711  )
        80           H   tau(  80) = (   0.2474199   1.6326004   0.5465329  )
        81           H   tau(  81) = (   0.5710954   1.8387862   1.0298574  )
        82           H   tau(  82) = (   0.6770535   0.7725368   0.6260465  )
        83           H   tau(  83) = (   0.2610039   0.2937126   0.0740786  )
        84           H   tau(  84) = (   0.1550458   1.3599620   0.4778894  )
        85           H   tau(  85) = (   0.4880814   2.0854551   0.9766316  )
        86           H   tau(  86) = (   0.7600675   1.0192057   0.6792723  )
        87           H   tau(  87) = (   0.3440179   0.0470437   0.1273043  )
        88           H   tau(  88) = (   0.0720318   1.1132931   0.4246637  )
        89           H   tau(  89) = (   0.3877299   0.1492578   0.7930600  )
        90           H   tau(  90) = (   0.8604190   1.2155072   0.8628440  )
        91           H   tau(  91) = (   0.4443694   1.9832409   0.3108760  )
        92           H   tau(  92) = (  -0.0283197   0.9169916   0.2410920  )
        93           H   tau(  93) = (   0.2517003   0.3574959   0.6365153  )
        94           H   tau(  94) = (  -0.0035514   1.4237453   1.0193887  )
        95           H   tau(  95) = (   0.5803990   1.7750029   0.4674207  )
        96           H   tau(  96) = (   0.8356506   0.7087535   0.0845473  )
        97           H   tau(  97) = (   0.3474777   0.7007625   0.9776227  )
        98           H   tau(  98) = (  -0.0993288   1.7670118   0.6782813  )
        99           H   tau(  99) = (   0.4846216   1.4317363   0.1263133  )
       100           H   tau( 100) = (   0.9314281   0.3654869   0.4256547  )
       101           H   tau( 101) = (   0.6497757   0.5062223   0.0469227  )
       102           H   tau( 102) = (   0.7662740   1.5724717   0.5050452  )
       103           H   tau( 103) = (   0.1823236   1.6262765   1.0570132  )
       104           H   tau( 104) = (   0.0658253   0.5600271   0.5988907  )
       105           H   tau( 105) = (   0.8175029   0.3462319   0.1495159  )
       106           H   tau( 106) = (   0.5985468   1.4124813   0.4024520  )
       107           H   tau( 107) = (   0.0145964   1.7862669   0.9544200  )
       108           H   tau( 108) = (   0.2335525   0.7200175   0.7014839  )
       109           O   tau( 109) = (   0.1225137   0.1331298   0.4234644  )
       110           O   tau( 110) = (   0.2935360   1.1993792   0.1285036  )
       111           O   tau( 111) = (   0.7095856   1.9993689   0.6804716  )
       112           O   tau( 112) = (   0.5385633   0.9331195   0.9754324  )
       113           O   tau( 113) = (   0.0097153   1.3082005   0.2253408  )
       114           O   tau( 114) = (   0.4063344   0.2419511   0.3266272  )
       115           O   tau( 115) = (   0.8223840   0.8242983   0.8785952  )
       116           O   tau( 116) = (   0.4257649   1.8905477   0.7773088  )
       117           O   tau( 117) = (   0.1586514   2.0115499   0.6248318  )
       118           O   tau( 118) = (   0.0894975   0.9453005   1.0310721  )
       119           O   tau( 119) = (   0.6734479   0.1209489   0.4791041  )
       120           O   tau( 120) = (   0.7426017   1.1871983   0.0728639  )
       121           H   tau( 121) = (   0.0509507   0.1251419   0.3317316  )
       122           H   tau( 122) = (   0.3650989   1.1913912   0.2202364  )
       123           H   tau( 123) = (   0.7811485   2.0073569   0.7722044  )
       124           H   tau( 124) = (   0.4670004   0.9411075   0.8836996  )
       125           H   tau( 125) = (  -0.0060048   1.4262425   0.2192323  )
       126           H   tau( 126) = (   0.4220544   0.3599931   0.3327357  )
       127           H   tau( 127) = (   0.8381040   0.7062562   0.8847037  )
       128           H   tau( 128) = (   0.4100449   1.7725056   0.7712002  )
       129           H   tau( 129) = (   0.0837205   2.0309617   0.7116272  )
       130           H   tau( 130) = (   0.1644284   0.9647123   0.9442768  )
       131           H   tau( 131) = (   0.7483787   0.1015371   0.3923088  )
       132           H   tau( 132) = (   0.6676709   1.1677865   0.1596592  )
       133           H   tau( 133) = (   0.2266807   0.1751691   0.3837427  )
       134           H   tau( 134) = (   0.1893689   1.2414185   0.1682253  )
       135           H   tau( 135) = (   0.6054186   1.9573297   0.7201933  )
       136           H   tau( 136) = (   0.6427304   0.8910803   0.9357107  )
       137           H   tau( 137) = (   0.9190290   1.2606546   0.1669218  )
       138           H   tau( 138) = (   0.4970206   0.1944052   0.3850462  )
       139           H   tau( 139) = (  -0.0869297   0.8718442   0.9370142  )
       140           H   tau( 140) = (   0.3350786   1.9380936   0.7188898  )
       141           H   tau( 141) = (   0.1474728   2.1039005   0.5514663  )
       142           H   tau( 142) = (   0.1006761   1.0376511   1.1044376  )
       143           H   tau( 143) = (   0.6846265   0.0285983   0.5524696  )
       144           H   tau( 144) = (   0.7314232   1.0948477  -0.0005016  )

     number of k points=     4
                       cart. coord. in units 2pi/alat
        k(    1) = (   0.0000000   0.0000000   0.0000000), wk =   0.5000000
        k(    2) = (   0.0000000   0.0000000  -0.4529248), wk =   0.5000000
        k(    3) = (  -0.5000000   0.0000000  -0.0760464), wk =   0.5000000
        k(    4) = (  -0.5000000   0.0000000  -0.5289712), wk =   0.5000000

     Dense  grid:  1281031 G-vectors     FFT dimensions: ( 108, 225, 120)

     Estimated max dynamical RAM per process >    1374.03MB

     Estimated total allocated dynamical RAM >   10992.28MB

     Check: negative/imaginary core charge=   -0.000002    0.000000

     Initial potential from superposition of free atoms

     starting charge  423.99709, renormalised to  424.00000
     Starting wfc are  384 randomized atomic wfcs
     Checking if some PAW data can be deallocated... 

     total cpu time spent up to now is       64.4 secs

     per-process dynamical memory:   795.1 Mb

     Self-consistent Calculation

     iteration #  1     ecut=   100.00 Ry     beta=0.50
     Davidson diagonalization with overlap
     ethr =  1.00E-02,  avg # of iterations =  4.0

     total cpu time spent up to now is      213.7 secs

     total energy              =   -1984.11337121 Ry
     Harris-Foulkes estimate   =   -1991.95957011 Ry
     estimated scf accuracy    <      14.61732616 Ry

     iteration #  2     ecut=   100.00 Ry     beta=0.50
     Davidson diagonalization with overlap
     ethr =  3.45E-03,  avg # of iterations =  3.0

     total cpu time spent up to now is      306.2 secs

     total energy              =   -1985.78645175 Ry
     Harris-Foulkes estimate   =   -1986.61140417 Ry
     estimated scf accuracy    <       1.81682982 Ry

     iteration #  3     ecut=   100.00 Ry     beta=0.50
     Davidson diagonalization with overlap
     ethr =  4.28E-04,  avg # of iterations =  8.8

     total cpu time spent up to now is      479.2 secs

     total energy              =   -1986.63583178 Ry
     Harris-Foulkes estimate   =   -1986.89131545 Ry
     estimated scf accuracy    <       0.61215734 Ry

     iteration #  4     ecut=   100.00 Ry     beta=0.50
     Davidson diagonalization with overlap
     ethr =  1.44E-04,  avg # of iterations =  2.0

     total cpu time spent up to now is      559.2 secs

     total energy              =   -1986.62108334 Ry
     Harris-Foulkes estimate   =   -1986.68541136 Ry
     estimated scf accuracy    <       0.12459199 Ry

     iteration #  5     ecut=   100.00 Ry     beta=0.50
     Davidson diagonalization with overlap
     ethr =  2.94E-05,  avg # of iterations =  8.8

     total cpu time spent up to now is      742.3 secs

     total energy              =   -1986.70749732 Ry
     Harris-Foulkes estimate   =   -1986.76860979 Ry
     estimated scf accuracy    <       0.18131930 Ry

     iteration #  6     ecut=   100.00 Ry     beta=0.50
     Davidson diagonalization with overlap
     ethr =  2.94E-05,  avg # of iterations =  1.8

     total cpu time spent up to now is      819.2 secs

     total energy              =   -1986.67621601 Ry
     Harris-Foulkes estimate   =   -1986.71381519 Ry
     estimated scf accuracy    <       0.07111253 Ry

     iteration #  7     ecut=   100.00 Ry     beta=0.50
     Davidson diagonalization with overlap
     ethr =  1.68E-05,  avg # of iterations =  7.8

     total cpu time spent up to now is      966.1 secs

     total energy              =   -1986.70696129 Ry
     Harris-Foulkes estimate   =   -1986.70907620 Ry
     estimated scf accuracy    <       0.00541518 Ry

     iteration #  8     ecut=   100.00 Ry     beta=0.50
     Davidson diagonalization with overlap
     ethr =  1.28E-06,  avg # of iterations =  2.5

     total cpu time spent up to now is     1046.0 secs

     total energy              =   -1986.70671959 Ry
     Harris-Foulkes estimate   =   -1986.70737141 Ry
     estimated scf accuracy    <       0.00134187 Ry

     iteration #  9     ecut=   100.00 Ry     beta=0.50
     Davidson diagonalization with overlap
     ethr =  3.16E-07,  avg # of iterations =  5.5

     total cpu time spent up to now is     1185.9 secs

     total energy              =   -1986.70770412 Ry
     Harris-Foulkes estimate   =   -1986.70783901 Ry
     estimated scf accuracy    <       0.00036131 Ry

     iteration # 10     ecut=   100.00 Ry     beta=0.50
     Davidson diagonalization with overlap
     ethr =  8.52E-08,  avg # of iterations =  1.0

     total cpu time spent up to now is     1261.2 secs

     total energy              =   -1986.70766232 Ry
     Harris-Foulkes estimate   =   -1986.70772473 Ry
     estimated scf accuracy    <       0.00012043 Ry

     iteration # 11     ecut=   100.00 Ry     beta=0.50
     Davidson diagonalization with overlap
     ethr =  2.84E-08,  avg # of iterations =  4.0

     total cpu time spent up to now is     1388.8 secs

     total energy              =   -1986.70773245 Ry
     Harris-Foulkes estimate   =   -1986.70773919 Ry
     estimated scf accuracy    <       0.00002470 Ry

     iteration # 12     ecut=   100.00 Ry     beta=0.50
     Davidson diagonalization with overlap
     ethr =  5.83E-09,  avg # of iterations =  1.0

     total cpu time spent up to now is     1464.1 secs

     total energy              =   -1986.70772644 Ry
     Harris-Foulkes estimate   =   -1986.70773349 Ry
     estimated scf accuracy    <       0.00001194 Ry

     iteration # 13     ecut=   100.00 Ry     beta=0.50
     Davidson diagonalization with overlap
     ethr =  2.82E-09,  avg # of iterations =  4.0

     total cpu time spent up to now is     1587.7 secs

     total energy              =   -1986.70773207 Ry
     Harris-Foulkes estimate   =   -1986.70773281 Ry
     estimated scf accuracy    <       0.00000222 Ry

     iteration # 14     ecut=   100.00 Ry     beta=0.50
     Davidson diagonalization with overlap
     ethr =  5.23E-10,  avg # of iterations =  1.8

     total cpu time spent up to now is     1664.6 secs

     total energy              =   -1986.70773173 Ry
     Harris-Foulkes estimate   =   -1986.70773218 Ry
     estimated scf accuracy    <       0.00000088 Ry

     iteration # 15     ecut=   100.00 Ry     beta=0.50
     Davidson diagonalization with overlap
     ethr =  2.09E-10,  avg # of iterations =  4.0

     total cpu time spent up to now is     1791.9 secs

     total energy              =   -1986.70773217 Ry
     Harris-Foulkes estimate   =   -1986.70773219 Ry
     estimated scf accuracy    <       0.00000009 Ry

     iteration # 16     ecut=   100.00 Ry     beta=0.50
     Davidson diagonalization with overlap
     ethr =  2.20E-11,  avg # of iterations =  3.0

     total cpu time spent up to now is     1874.5 secs

     total energy              =   -1986.70773214 Ry
     Harris-Foulkes estimate   =   -1986.70773218 Ry
     estimated scf accuracy    <       0.00000006 Ry

     iteration # 17     ecut=   100.00 Ry     beta=0.50
     Davidson diagonalization with overlap
     ethr =  1.34E-11,  avg # of iterations =  3.5

     total cpu time spent up to now is     1987.6 secs

     End of self-consistent calculation

          k = 0.0000 0.0000 0.0000 (160109 PWs)   bands (ev):

   -20.4418 -20.4408 -20.4284 -20.4274 -18.6831 -18.6822 -18.5353 -18.5353
   -18.4657 -18.4648 -18.2050 -18.2046 -18.0643 -18.0636 -17.9517 -17.9489
   -17.7716 -17.7667 -17.7490 -17.7487 -17.6024 -17.6011 -17.5996 -17.5920
   -15.2848 -15.2814 -15.2140 -15.2137 -14.7248 -14.6793 -14.6705 -14.6222
   -13.5784 -13.5687 -13.4817 -13.4751 -13.2934 -13.2783 -13.1969 -13.1959
   -13.0425 -13.0278 -12.9430 -12.9428 -12.8864 -12.8637 -12.8433 -12.8290
   -10.3726 -10.3507 -10.3369 -10.3228 -10.2469 -10.2128 -10.1768 -10.1655
    -9.8725  -9.8700  -9.6649  -9.6510  -9.6239  -9.5781  -9.5778  -9.5699
    -8.7543  -8.7376  -8.7277  -8.7078  -8.3516  -8.3268  -8.1982  -8.1550
    -7.9091  -7.8860  -7.6330  -7.6161  -6.8109  -6.8008  -6.7245  -6.6473
    -6.6292  -6.5961  -6.5716  -6.5360  -6.5094  -6.4727  -6.3852  -6.3466
    -6.3281  -6.2747  -6.1888  -6.1605  -6.1451  -6.1277  -6.1007  -6.0976
    -5.9111  -5.8941  -5.8846  -5.8428  -5.6117  -5.5998  -5.5917  -5.5338
    -5.5122  -5.5080  -5.4258  -5.4220  -5.3951  -5.3742  -5.2703  -5.2593
    -5.2438  -5.1689  -5.0573  -5.0304  -4.7358  -4.7225  -4.6806  -4.6671
    -4.6325  -4.6159  -4.5103  -4.4711  -4.4593  -4.3684  -4.3369  -4.3313
    -4.2827  -4.2522  -4.1835  -4.1819  -4.1642  -4.1415  -4.0792  -4.0236
    -3.8551  -3.8093  -3.7873  -3.7662  -3.6896  -3.6130  -3.6129  -3.5952
    -3.5350  -3.4415  -3.4064  -3.3800  -3.2506  -3.1977  -2.8460  -2.8418
    -2.8161  -2.8127  -2.7220  -2.7028  -2.5818  -2.5808  -2.3690  -2.3421
    -2.3362  -2.2962  -2.2834  -2.2268  -2.2255  -2.2205  -1.9317  -1.8719
    -1.8472  -1.7661  -1.7446  -1.7078  -1.4769  -1.4109  -1.3897  -1.3458
    -0.9556  -0.8984  -0.8844  -0.8830  -0.8118  -0.8032  -0.8032  -0.7971
    -0.7810  -0.7221  -0.7149  -0.7092  -0.6548  -0.6525  -0.6432  -0.5991
    -0.5923  -0.5785  -0.5600  -0.5482  -0.5213  -0.4716  -0.4439  -0.4351
    -0.3351  -0.3252  -0.3152  -0.3086  -0.2366  -0.1905  -0.0407  -0.0363
     0.0142   0.0791   0.1414   0.1985   3.3063   3.4919   3.5206   3.5878
     3.6798   3.7106   3.7200   3.7227   4.3549   4.3571   4.4131   4.4709
     4.5917   4.6476   4.6632   4.7564   5.5925   5.7273   5.9037   5.9096
     5.9140   6.0317   6.3295   6.3591   6.4243   6.7671   6.8111   7.1005
     7.2307   7.2482   7.3992   7.4280   7.5881   7.6427   7.7208   7.7567
     7.8221   7.8613   7.9469   7.9928   8.0092   8.0970

          k = 0.0000 0.0000-0.4529 (160170 PWs)   bands (ev):

   -20.4410 -20.4410 -20.4281 -20.4281 -18.6833 -18.6832 -18.5354 -18.5354
   -18.4648 -18.4648 -18.2046 -18.2046 -18.0639 -18.0639 -17.9501 -17.9500
   -17.7606 -17.7606 -17.7574 -17.7574 -17.6013 -17.6013 -17.5969 -17.5969
   -15.2530 -15.2530 -15.2469 -15.2469 -14.6956 -14.6956 -14.6490 -14.6490
   -13.5409 -13.5408 -13.5276 -13.5275 -13.2395 -13.2394 -13.2279 -13.2279
   -12.9899 -12.9899 -12.9781 -12.9781 -12.8691 -12.8691 -12.8538 -12.8537
   -10.3467 -10.3467 -10.3336 -10.3336 -10.2273 -10.2273 -10.1935 -10.1935
    -9.7760  -9.7760  -9.7471  -9.7471  -9.6037  -9.6037  -9.5741  -9.5741
    -8.7367  -8.7367  -8.7116  -8.7116  -8.2637  -8.2637  -8.2555  -8.2555
    -7.8021  -7.8021  -7.7670  -7.7670  -6.7335  -6.7335  -6.7268  -6.7268
    -6.6183  -6.6183  -6.5562  -6.5562  -6.4533  -6.4532  -6.3729  -6.3729
    -6.2740  -6.2740  -6.2641  -6.2641  -6.1171  -6.1171  -6.0725  -6.0725
    -5.9052  -5.9052  -5.8467  -5.8467  -5.6226  -5.6226  -5.5856  -5.5856
    -5.4683  -5.4683  -5.4333  -5.4333  -5.3910  -5.3910  -5.2537  -5.2537
    -5.2435  -5.2434  -5.0686  -5.0686  -4.6718  -4.6718  -4.6619  -4.6619
    -4.4812  -4.4811  -4.4506  -4.4506  -4.4012  -4.4012  -4.3382  -4.3382
    -4.2938  -4.2938  -4.2382  -4.2382  -4.2323  -4.2323  -4.1559  -4.1559
    -3.7518  -3.7518  -3.7411  -3.7411  -3.7014  -3.7014  -3.5781  -3.5781
    -3.5045  -3.5045  -3.3867  -3.3867  -3.2902  -3.2902  -2.7919  -2.7918
    -2.7703  -2.7703  -2.6990  -2.6990  -2.6605  -2.6605  -2.3932  -2.3932
    -2.3609  -2.3609  -2.2730  -2.2730  -2.1790  -2.1790  -1.8350  -1.8350
    -1.8140  -1.8140  -1.7273  -1.7273  -1.4457  -1.4457  -1.3757  -1.3757
    -0.9236  -0.9236  -0.8548  -0.8548  -0.8393  -0.8393  -0.7989  -0.7989
    -0.7633  -0.7633  -0.6956  -0.6956  -0.6348  -0.6348  -0.5958  -0.5958
    -0.5631  -0.5631  -0.5516  -0.5516  -0.4923  -0.4923  -0.4585  -0.4585
    -0.3295  -0.3295  -0.3154  -0.3154  -0.2192  -0.2192  -0.0515  -0.0515
     0.0362   0.0362   0.1680   0.1680   3.4316   3.4316   3.5346   3.5347
     3.6544   3.6544   3.7572   3.7572   4.3354   4.3354   4.3900   4.3900
     4.6433   4.6433   4.7320   4.7320   5.7801   5.7801   5.9496   5.9496
     5.9566   5.9566   6.3796   6.3796   6.6828   6.6828   6.7367   6.7367
     6.9867   6.9867   7.2553   7.2553   7.4021   7.4021   7.7582   7.7582
     7.8196   7.8196   8.0151   8.0151   8.2301   8.2302

          k =-0.5000 0.0000-0.0760 (160082 PWs)   bands (ev):

   -20.4402 -20.4402 -20.4289 -20.4289 -18.6654 -18.6654 -18.5592 -18.5591
   -18.4556 -18.4556 -18.2245 -18.2245 -18.0606 -18.0606 -17.9378 -17.9378
   -17.7575 -17.7575 -17.7549 -17.7549 -17.6022 -17.6022 -17.6004 -17.6004
   -15.2650 -15.2650 -15.2352 -15.2352 -14.6900 -14.6899 -14.6553 -14.6553
   -13.5576 -13.5576 -13.5110 -13.5109 -13.2522 -13.2522 -13.2133 -13.2133
   -12.9958 -12.9957 -12.9843 -12.9843 -12.8598 -12.8598 -12.8504 -12.8503
   -10.3509 -10.3509 -10.3285 -10.3285 -10.2247 -10.2247 -10.1961 -10.1961
    -9.7687  -9.7687  -9.7495  -9.7495  -9.6061  -9.6061  -9.5766  -9.5766
    -8.7379  -8.7379  -8.7117  -8.7117  -8.2791  -8.2791  -8.2432  -8.2431
    -7.7895  -7.7894  -7.7735  -7.7735  -6.7721  -6.7721  -6.7089  -6.7089
    -6.5445  -6.5445  -6.5195  -6.5195  -6.4981  -6.4981  -6.4475  -6.4475
    -6.2842  -6.2842  -6.2624  -6.2624  -6.1113  -6.1113  -6.0773  -6.0773
    -5.8799  -5.8799  -5.8540  -5.8540  -5.6141  -5.6141  -5.5802  -5.5802
    -5.4719  -5.4719  -5.4243  -5.4243  -5.3496  -5.3496  -5.2661  -5.2661
    -5.2226  -5.2226  -5.0773  -5.0773  -4.6971  -4.6971  -4.6546  -4.6546
    -4.5047  -4.5047  -4.4304  -4.4304  -4.3682  -4.3682  -4.3422  -4.3422
    -4.2859  -4.2859  -4.2730  -4.2730  -4.1879  -4.1879  -4.1321  -4.1321
    -3.9209  -3.9208  -3.7599  -3.7599  -3.6814  -3.6814  -3.5803  -3.5803
    -3.5016  -3.5016  -3.4394  -3.4394  -3.1996  -3.1996  -2.7914  -2.7914
    -2.7744  -2.7744  -2.7129  -2.7129  -2.6577  -2.6577  -2.4344  -2.4344
    -2.3791  -2.3791  -2.3294  -2.3293  -2.0455  -2.0455  -1.9898  -1.9898
    -1.7563  -1.7563  -1.5878  -1.5878  -1.4240  -1.4240  -1.3972  -1.3971
    -0.8831  -0.8831  -0.8693  -0.8693  -0.8214  -0.8214  -0.7766  -0.7766
    -0.7302  -0.7302  -0.6958  -0.6958  -0.6618  -0.6618  -0.6454  -0.6454
    -0.5970  -0.5970  -0.5862  -0.5862  -0.5112  -0.5112  -0.4539  -0.4539
    -0.3176  -0.3176  -0.3149  -0.3149  -0.2313  -0.2313  -0.1028  -0.1028
     0.0732   0.0733   0.2544   0.2544   3.4492   3.4492   3.4736   3.4736
     3.6658   3.6659   3.7715   3.7715   4.3871   4.3871   4.4433   4.4434
     4.6220   4.6220   4.6619   4.6619   5.8362   5.8362   5.8962   5.8962
     6.1744   6.1744   6.5282   6.5283   6.5536   6.5536   6.6878   6.6878
     6.9026   6.9026   7.2897   7.2897   7.5321   7.5321   7.6424   7.6424
     7.8294   7.8294   8.0876   8.0876   8.1687   8.1688

          k =-0.5000 0.0000-0.5290 (160070 PWs)   bands (ev):

   -20.4404 -20.4395 -20.4296 -20.4286 -18.6661 -18.6651 -18.5596 -18.5594
   -18.4559 -18.4549 -18.2240 -18.2239 -18.0607 -18.0606 -17.9382 -17.9371
   -17.7612 -17.7588 -17.7515 -17.7514 -17.6055 -17.6054 -17.5987 -17.5987
   -15.3001 -15.2656 -15.2264 -15.2011 -14.7189 -14.6858 -14.6651 -14.6279
   -13.5980 -13.5497 -13.4984 -13.4596 -13.3031 -13.2616 -13.2160 -13.1760
   -13.0270 -13.0263 -12.9450 -12.9379 -12.8848 -12.8826 -12.8433 -12.8344
   -10.3742 -10.3488 -10.3439 -10.3195 -10.2321 -10.2284 -10.1815 -10.1582
    -9.8754  -9.8709  -9.6853  -9.6271  -9.5999  -9.5970  -9.5850  -9.5675
    -8.7540  -8.7363  -8.7261  -8.7085  -8.3388  -8.3337  -8.1813  -8.1712
    -7.9155  -7.8953  -7.6279  -7.6238  -6.8266  -6.7836  -6.6735  -6.6358
    -6.6276  -6.6094  -6.5448  -6.5358  -6.4845  -6.4738  -6.4470  -6.4456
    -6.3109  -6.2975  -6.1827  -6.1724  -6.1495  -6.1239  -6.1169  -6.0721
    -5.8975  -5.8837  -5.8772  -5.8735  -5.6027  -5.5948  -5.5617  -5.5475
    -5.4910  -5.4831  -5.4656  -5.4306  -5.3446  -5.3119  -5.2628  -5.2363
    -5.2089  -5.2088  -5.0897  -5.0711  -4.7433  -4.6912  -4.6763  -4.6673
    -4.6109  -4.5299  -4.5047  -4.4007  -4.3908  -4.3636  -4.3232  -4.3205
    -4.2698  -4.2310  -4.2007  -4.1829  -4.1496  -4.1205  -4.1127  -4.0884
    -3.9667  -3.9431  -3.8036  -3.7692  -3.7150  -3.6894  -3.6269  -3.5806
    -3.5212  -3.4489  -3.4184  -3.4015  -3.2261  -3.1736  -2.9601  -2.8461
    -2.8317  -2.8220  -2.7323  -2.7198  -2.7145  -2.5937  -2.4555  -2.3578
    -2.3563  -2.3199  -2.3129  -2.3074  -2.0594  -1.9856  -1.9770  -1.9465
    -1.7915  -1.7493  -1.6511  -1.5564  -1.4454  -1.4388  -1.3927  -1.3458
    -0.9222  -0.9050  -0.8802  -0.8497  -0.7984  -0.7882  -0.7818  -0.7810
    -0.7338  -0.7337  -0.7244  -0.7173  -0.6852  -0.6463  -0.6225  -0.6207
    -0.5920  -0.5826  -0.5815  -0.5499  -0.5398  -0.5021  -0.4104  -0.3987
    -0.3310  -0.3251  -0.3167  -0.3115  -0.2526  -0.2344  -0.1116  -0.0915
     0.0478   0.0797   0.2181   0.2735   3.4200   3.4303   3.4809   3.5303
     3.6612   3.6966   3.7426   3.7809   4.2975   4.3354   4.4608   4.4828
     4.5816   4.6188   4.6648   4.7418   5.7129   5.8162   5.9400   5.9522
     6.1481   6.2858   6.3985   6.5433   6.5591   6.6257   6.6615   6.8045
     6.9560   7.0692   7.1094   7.1463   7.4119   7.4748   7.5214   7.7175
     7.8303   7.8530   7.9454   7.9737   8.1545   8.1573

     highest occupied, lowest unoccupied level (ev):     0.2735    3.3063

!    total energy              =   -1986.70773216 Ry
     Harris-Foulkes estimate   =   -1986.70773216 Ry
     estimated scf accuracy    <          2.5E-09 Ry

     total all-electron energy =     -7597.384255 Ry

     The total energy is the sum of the following terms:

     one-electron contribution =   -1038.49486870 Ry
     hartree contribution      =     675.54420153 Ry
     xc contribution           =    -436.33332045 Ry
     ewald contribution        =    -594.29950662 Ry
     Dispersion Correction     =      -0.60218270 Ry
     one-center paw contrib.   =    -592.52205521 Ry

     convergence has been achieved in  17 iterations

     Forces acting on atoms (cartesian axes, Ry/au):

     atom    1 type  1   force =     0.00098853   -0.00119468    0.00120989
     atom    2 type  1   force =    -0.00098854   -0.00118571   -0.00120986
     atom    3 type  1   force =    -0.00098853    0.00119468   -0.00120989
     atom    4 type  1   force =     0.00098854    0.00118571    0.00120986
     atom    5 type  1   force =    -0.00124564    0.00037755   -0.00021276
     atom    6 type  1   force =     0.00124609    0.00036488    0.00021259
     atom    7 type  1   force =     0.00124564   -0.00037755    0.00021276
     atom    8 type  1   force =    -0.00124609   -0.00036488   -0.00021259
     atom    9 type  1   force =    -0.00021725    0.00109576   -0.00048598
     atom   10 type  1   force =     0.00021728    0.00110449    0.00048594
     atom   11 type  1   force =     0.00021725   -0.00109576    0.00048598
     atom   12 type  1   force =    -0.00021728   -0.00110449   -0.00048594
     atom   13 type  1   force =     0.00166487    0.00079114    0.00033340
     atom   14 type  1   force =    -0.00166441    0.00078863   -0.00033308
     atom   15 type  1   force =    -0.00166487   -0.00079114   -0.00033340
     atom   16 type  1   force =     0.00166441   -0.00078863    0.00033308
     atom   17 type  1   force =    -0.00130819   -0.00051054   -0.00178150
     atom   18 type  1   force =     0.00130851   -0.00051022    0.00178171
     atom   19 type  1   force =     0.00130819    0.00051054    0.00178150
     atom   20 type  1   force =    -0.00130851    0.00051022   -0.00178171
     atom   21 type  1   force =    -0.00022392   -0.00007013   -0.00082975
     atom   22 type  1   force =     0.00022460   -0.00005860    0.00083036
     atom   23 type  1   force =     0.00022392    0.00007013    0.00082975
     atom   24 type  1   force =    -0.00022460    0.00005860   -0.00083036
     atom   25 type  1   force =    -0.00015783    0.00050082    0.00071847
     atom   26 type  1   force =     0.00015802    0.00051630   -0.00071792
     atom   27 type  1   force =     0.00015783   -0.00050082   -0.00071847
     atom   28 type  1   force =    -0.00015802   -0.00051630    0.00071792
     atom   29 type  1   force =    -0.00001944   -0.00053189    0.00067109
     atom   30 type  1   force =     0.00001981   -0.00054082   -0.00067123
     atom   31 type  1   force =     0.00001944    0.00053189   -0.00067109
     atom   32 type  1   force =    -0.00001981    0.00054082    0.00067123
     atom   33 type  1   force =     0.00024051    0.00045469    0.00111838
     atom   34 type  1   force =    -0.00024053    0.00046362   -0.00111773
     atom   35 type  1   force =    -0.00024051   -0.00045469   -0.00111838
     atom   36 type  1   force =     0.00024053   -0.00046362    0.00111773
     atom   37 type  1   force =     0.00105243   -0.00078537   -0.00043696
     atom   38 type  1   force =    -0.00105278   -0.00078392    0.00043614
     atom   39 type  1   force =    -0.00105243    0.00078537    0.00043696
     atom   40 type  1   force =     0.00105278    0.00078392   -0.00043614
     atom   41 type  1   force =    -0.00014544    0.00040825   -0.00019431
     atom   42 type  1   force =     0.00014538    0.00042492    0.00019503
     atom   43 type  1   force =     0.00014544   -0.00040825    0.00019431
     atom   44 type  1   force =    -0.00014538   -0.00042492   -0.00019503
     atom   45 type  1   force =     0.00018060    0.00018972    0.00121160
     atom   46 type  1   force =    -0.00018049    0.00020149   -0.00121142
     atom   47 type  1   force =    -0.00018060   -0.00018972   -0.00121160
     atom   48 type  1   force =     0.00018049   -0.00020149    0.00121142
     atom   49 type  1   force =     0.00089244   -0.00041913   -0.00002142
     atom   50 type  1   force =    -0.00089259   -0.00042745    0.00002067
     atom   51 type  1   force =    -0.00089244    0.00041913    0.00002142
     atom   52 type  1   force =     0.00089259    0.00042745   -0.00002067
     atom   53 type  2   force =    -0.00087903    0.00019827    0.00045937
     atom   54 type  2   force =     0.00087923    0.00019906   -0.00045927
     atom   55 type  2   force =     0.00087903   -0.00019827   -0.00045937
     atom   56 type  2   force =    -0.00087923   -0.00019906    0.00045927
     atom   57 type  2   force =    -0.00003757    0.00076330    0.00003733
     atom   58 type  2   force =     0.00003592    0.00076326   -0.00003968
     atom   59 type  2   force =     0.00003757   -0.00076330   -0.00003733
     atom   60 type  2   force =    -0.00003592   -0.00076326    0.00003968
     atom   61 type  2   force =     0.00063883    0.00011608    0.00046685
     atom   62 type  2   force =    -0.00063843    0.00011672   -0.00046643
     atom   63 type  2   force =    -0.00063883   -0.00011608   -0.00046685
     atom   64 type  2   force =     0.00063843   -0.00011672    0.00046643
     atom   65 type  2   force =    -0.00041262   -0.00129083   -0.00066634
     atom   66 type  2   force =     0.00041240   -0.00129004    0.00066556
     atom   67 type  2   force =     0.00041262    0.00129083    0.00066634
     atom   68 type  2   force =    -0.00041240    0.00129004   -0.00066556
     atom   69 type  3   force =    -0.00038988   -0.00032964   -0.00078980
     atom   70 type  3   force =     0.00038987   -0.00032965    0.00078977
     atom   71 type  3   force =     0.00038988    0.00032964    0.00078980
     atom   72 type  3   force =    -0.00038987    0.00032965   -0.00078977
     atom   73 type  3   force =     0.00001106    0.00014719   -0.00038587
     atom   74 type  3   force =    -0.00001118    0.00014728    0.00038570
     atom   75 type  3   force =    -0.00001106   -0.00014719    0.00038587
     atom   76 type  3   force =     0.00001118   -0.00014728   -0.00038570
     atom   77 type  3   force =    -0.00044407    0.00040429    0.00077530
     atom   78 type  3   force =     0.00044409    0.00040415   -0.00077528
     atom   79 type  3   force =     0.00044407   -0.00040429   -0.00077530
     atom   80 type  3   force =    -0.00044409   -0.00040415    0.00077528
     atom   81 type  3   force =     0.00027622    0.00006724    0.00014902
     atom   82 type  3   force =    -0.00027636    0.00006705   -0.00014919
     atom   83 type  3   force =    -0.00027622   -0.00006724   -0.00014902
     atom   84 type  3   force =     0.00027636   -0.00006705    0.00014919
     atom   85 type  3   force =    -0.00013243    0.00030221   -0.00004325
     atom   86 type  3   force =     0.00013225    0.00030241    0.00004295
     atom   87 type  3   force =     0.00013243   -0.00030221    0.00004325
     atom   88 type  3   force =    -0.00013225   -0.00030241   -0.00004295
     atom   89 type  3   force =    -0.00007026    0.00008566   -0.00014416
     atom   90 type  3   force =     0.00006998    0.00008501    0.00014455
     atom   91 type  3   force =     0.00007026   -0.00008566    0.00014416
     atom   92 type  3   force =    -0.00006998   -0.00008501   -0.00014455
     atom   93 type  3   force =     0.00008984    0.00010632   -0.00038272
     atom   94 type  3   force =    -0.00008985    0.00010629    0.00038268
     atom   95 type  3   force =    -0.00008984   -0.00010632    0.00038272
     atom   96 type  3   force =     0.00008985   -0.00010629   -0.00038268
     atom   97 type  3   force =    -0.00029933    0.00036902    0.00076543
     atom   98 type  3   force =     0.00029943    0.00036952   -0.00076573
     atom   99 type  3   force =     0.00029933   -0.00036902   -0.00076543
     atom  100 type  3   force =    -0.00029943   -0.00036952    0.00076573
     atom  101 type  3   force =     0.00056462    0.00038107    0.00095355
     atom  102 type  3   force =    -0.00056459    0.00038124   -0.00095349
     atom  103 type  3   force =    -0.00056462   -0.00038107   -0.00095355
     atom  104 type  3   force =     0.00056459   -0.00038124    0.00095349
     atom  105 type  3   force =     0.00059517   -0.00006835    0.00050042
     atom  106 type  3   force =    -0.00059526   -0.00006823   -0.00050048
     atom  107 type  3   force =    -0.00059517    0.00006835   -0.00050042
     atom  108 type  3   force =     0.00059526    0.00006823    0.00050048
     atom  109 type  4   force =    -0.00028459   -0.00098327   -0.00013501
     atom  110 type  4   force =     0.00028471   -0.00098163    0.00013406
     atom  111 type  4   force =     0.00028459    0.00098327    0.00013501
     atom  112 type  4   force =    -0.00028471    0.00098163   -0.00013406
     atom  113 type  4   force =    -0.00014418    0.00022224    0.00040261
     atom  114 type  4   force =     0.00014490    0.00022028   -0.00040185
     atom  115 type  4   force =     0.00014418   -0.00022224   -0.00040261
     atom  116 type  4   force =    -0.00014490   -0.00022028    0.00040185
     atom  117 type  4   force =     0.00020270    0.00015792    0.00014668
     atom  118 type  4   force =    -0.00020363    0.00015543   -0.00014601
     atom  119 type  4   force =    -0.00020270   -0.00015792   -0.00014668
     atom  120 type  4   force =     0.00020363   -0.00015543    0.00014601
     atom  121 type  3   force =     0.00007824   -0.00008681    0.00090649
     atom  122 type  3   force =    -0.00007824   -0.00008667   -0.00090644
     atom  123 type  3   force =    -0.00007824    0.00008681   -0.00090649
     atom  124 type  3   force =     0.00007824    0.00008667    0.00090644
     atom  125 type  3   force =    -0.00042437   -0.00061766   -0.00029218
     atom  126 type  3   force =     0.00042434   -0.00061804    0.00029224
     atom  127 type  3   force =     0.00042437    0.00061766    0.00029218
     atom  128 type  3   force =    -0.00042434    0.00061804   -0.00029224
     atom  129 type  3   force =    -0.00009576   -0.00006557   -0.00060835
     atom  130 type  3   force =     0.00009582   -0.00006538    0.00060831
     atom  131 type  3   force =     0.00009576    0.00006557    0.00060835
     atom  132 type  3   force =    -0.00009582    0.00006538   -0.00060831
     atom  133 type  3   force =    -0.00024911   -0.00035814    0.00049843
     atom  134 type  3   force =     0.00024902   -0.00035792   -0.00049839
     atom  135 type  3   force =     0.00024911    0.00035814   -0.00049843
     atom  136 type  3   force =    -0.00024902    0.00035792    0.00049839
     atom  137 type  3   force =    -0.00022591   -0.00009222   -0.00031324
     atom  138 type  3   force =     0.00022597   -0.00009219    0.00031327
     atom  139 type  3   force =     0.00022591    0.00009222    0.00031324
     atom  140 type  3   force =    -0.00022597    0.00009219   -0.00031327
     atom  141 type  3   force =     0.00012650    0.00000495    0.00025094
     atom  142 type  3   force =    -0.00012650    0.00000493   -0.00025084
     atom  143 type  3   force =    -0.00012650   -0.00000495   -0.00025094
     atom  144 type  3   force =     0.00012650   -0.00000493    0.00025084

     Total force =     0.012309     Total SCF correction =     0.000118


     Computing stress (Cartesian axis) and pressure

          total   stress  (Ry/bohr**3)                   (kbar)     P=  -10.20
  -0.00006367  -0.00000000  -0.00001412         -9.37     -0.00     -2.08
  -0.00000000  -0.00008262  -0.00000000         -0.00    -12.15     -0.00
  -0.00001412  -0.00000000  -0.00006180         -2.08     -0.00     -9.09


     Writing output data file scf.save
 
     init_run     :     60.70s CPU     63.50s WALL (       1 calls)
     electrons    :   1846.05s CPU   1923.49s WALL (       1 calls)
     forces       :     31.71s CPU     32.10s WALL (       1 calls)
     stress       :    192.30s CPU    192.74s WALL (       1 calls)

     Called by init_run:
     wfcinit      :     42.46s CPU     44.54s WALL (       1 calls)
     potinit      :      6.38s CPU      6.46s WALL (       1 calls)

     Called by electrons:
     c_bands      :   1642.54s CPU   1706.28s WALL (      17 calls)
     sum_band     :    178.64s CPU    189.62s WALL (      17 calls)
     v_of_rho     :      3.73s CPU      4.08s WALL (      18 calls)
     newd         :      9.32s CPU     11.68s WALL (      18 calls)
     PAW_pot      :     10.93s CPU     10.95s WALL (      18 calls)
     mix_rho      :      0.89s CPU      0.94s WALL (      17 calls)

     Called by c_bands:
     init_us_2    :     10.18s CPU     10.24s WALL (     148 calls)
     cegterg      :   1604.10s CPU   1667.80s WALL (      68 calls)

     Called by sum_band:
     sum_band:bec :      0.09s CPU      0.09s WALL (      68 calls)
     addusdens    :      9.95s CPU     12.20s WALL (      17 calls)

     Called by *egterg:
     h_psi        :    925.55s CPU    976.38s WALL (     337 calls)
     s_psi        :    179.97s CPU    179.99s WALL (     337 calls)
     g_psi        :      5.26s CPU      5.27s WALL (     265 calls)
     cdiaghg      :    100.27s CPU    100.61s WALL (     333 calls)

     Called by h_psi:
     h_psi:pot    :    919.44s CPU    970.17s WALL (     337 calls)
     h_psi:calbec :    173.39s CPU    173.68s WALL (     337 calls)
     vloc_psi     :    566.15s CPU    616.56s WALL (     337 calls)
     add_vuspsi   :    179.90s CPU    179.93s WALL (     337 calls)

     General routines
     calbec       :    249.37s CPU    249.76s WALL (     425 calls)
     fft          :      2.55s CPU      3.58s WALL (     258 calls)
     fftw         :    612.25s CPU    671.01s WALL (  116924 calls)
 
     Parallel routines
     fft_scatter  :     87.50s CPU    146.42s WALL (  117182 calls)
 
     PWSCF        : 35m42.14s CPU    37m29.28s WALL

 
   This run was terminated on:   0:31:14   4Nov2017            

=------------------------------------------------------------------------------=
   JOB DONE.
=------------------------------------------------------------------------------=
