
     Program PWSCF v.6.1 (svn rev. 13369) starts on 20Dec2017 at  9:57: 3 

     This program is part of the open-source Quantum ESPRESSO suite
     for quantum simulation of materials; please cite
         "P. Giannozzi et al., J. Phys.:Condens. Matter 21 395502 (2009);
          URL http://www.quantum-espresso.org", 
     in publications or presentations arising from this work. More details at
     http://www.quantum-espresso.org/quote

     Parallel version (MPI), running on     8 processors
     R & G space division:  proc/nbgrp/npool/nimage =       8
     Waiting for input...
     Reading input from standard input

     Current dimensions of program PWSCF are:
     Max number of different atomic species (ntypx) = 10
     Max number of k-points (npk) =  40000
     Max angular momentum in pseudopotentials (lmaxx) =  3
               file C.pbe-n-kjpaw_psl.0.1.UPF: wavefunction(s)  2P renormalized
               file N.pbe-n-kjpaw_psl.0.1.UPF: wavefunction(s)  2P renormalized
               file H.pbe-kjpaw_psl.0.1.UPF: wavefunction(s)  1S renormalized
               file O.pbe-n-kjpaw_psl.0.1.UPF: wavefunction(s)  2P renormalized

     -------------------------------------
     Parameters for Dispersion Correction:
     -------------------------------------
       atom      VdW radius       C_6     

        C          2.744         60.710
        N          2.640         42.670
        H          1.892          4.857
        O          2.536         24.284

     Subspace diagonalization in iterative solution of the eigenvalue problem:
     a serial algorithm will be used

 
     Parallelization info
     --------------------
     sticks:   dense  smooth     PW     G-vecs:    dense   smooth      PW
     Min        1423    1423    373               183475   183475   24501
     Max        1424    1424    374               183480   183480   24504
     Sum       11389   11389   2989              1467829  1467829  196023
 


     bravais-lattice index     =            0
     lattice parameter (alat)  =      33.8204  a.u.
     unit-cell volume          =   10865.0359 (a.u.)^3
     number of atoms/cell      =          168
     number of atomic types    =            4
     number of electrons       =       488.00
     number of Kohn-Sham states=          292
     kinetic-energy cutoff     =     100.0000  Ry
     charge density cutoff     =     400.0000  Ry
     convergence threshold     =      1.0E-08
     mixing beta               =       0.5000
     number of iterations used =            8  plain     mixing
     Exchange-correlation      =  SLA  PW   PBX  PBC ( 1  4  3  4 0 0)

     celldm(1)=  33.820429  celldm(2)=   0.000000  celldm(3)=   0.000000
     celldm(4)=   0.000000  celldm(5)=   0.000000  celldm(6)=   0.000000

     crystal axes: (cart. coord. in units of alat)
               a(1) = (   1.000000   0.000000   0.000000 )  
               a(2) = (   0.000000   0.313248   0.000000 )  
               a(3) = (   0.000000   0.000000   0.896614 )  

     reciprocal axes: (cart. coord. in units 2 pi/alat)
               b(1) = (  1.000000  0.000000  0.000000 )  
               b(2) = (  0.000000  3.192358  0.000000 )  
               b(3) = (  0.000000  0.000000  1.115307 )  


     PseudoPot. # 1 for  C read from file:
     /scratch/ahofstet/pseudo/C.pbe-n-kjpaw_psl.0.1.UPF
     MD5 check sum: 430fe95172b1e11ef3f8ed03bac87931
     Pseudo is Projector augmented-wave + core cor, Zval =  4.0
     Generated using "atomic" code by A. Dal Corso  v.5.0.99 svn rev. 10869
     Shape of augmentation charge: BESSEL
     Using radial grid of 1073 points,  4 beta functions with: 
                l(1) =   0
                l(2) =   0
                l(3) =   1
                l(4) =   1
     Q(r) pseudized with 0 coefficients 


     PseudoPot. # 2 for  N read from file:
     /scratch/ahofstet/pseudo/N.pbe-n-kjpaw_psl.0.1.UPF
     MD5 check sum: f73187c8b701007e77325f868c9291d7
     Pseudo is Projector augmented-wave + core cor, Zval =  5.0
     Generated using "atomic" code by A. Dal Corso  v.5.0.99 svn rev. 10869
     Shape of augmentation charge: PSQ
     Using radial grid of 1085 points,  4 beta functions with: 
                l(1) =   0
                l(2) =   0
                l(3) =   1
                l(4) =   1
     Q(r) pseudized with 0 coefficients 


     PseudoPot. # 3 for  H read from file:
     /scratch/ahofstet/pseudo/H.pbe-kjpaw_psl.0.1.UPF
     MD5 check sum: 94e484f906d9e9773b2f6e52662335b2
     Pseudo is Projector augmented-wave, Zval =  1.0
     Generated using "atomic" code by A. Dal Corso  v.5.0.99 svn rev. 10869
     Shape of augmentation charge: PSQ
     Using radial grid of  929 points,  2 beta functions with: 
                l(1) =   0
                l(2) =   0
     Q(r) pseudized with 0 coefficients 


     PseudoPot. # 4 for  O read from file:
     /scratch/ahofstet/pseudo/O.pbe-n-kjpaw_psl.0.1.UPF
     MD5 check sum: 3f94a2996a3169367d6eb21d9b593f20
     Pseudo is Projector augmented-wave + core cor, Zval =  6.0
     Generated using "atomic" code by A. Dal Corso  v.5.0.99 svn rev. 10869
     Shape of augmentation charge: BESSEL
     Using radial grid of 1095 points,  4 beta functions with: 
                l(1) =   0
                l(2) =   0
                l(3) =   1
                l(4) =   1
     Q(r) pseudized with 0 coefficients 


     atomic species   valence    mass     pseudopotential
        C              4.00    12.01070      C( 1.00)
        N              5.00    14.00670      N( 1.00)
        H              1.00     1.00794      H( 1.00)
        O              6.00    15.99940      O( 1.00)

      4 Sym. Ops. (no inversion) found ( 3 have fractional translation)



   Cartesian axes

     site n.     atom                  positions (alat units)
         1           C   tau(   1) = (   0.3091087   0.0874462   0.3178234  )
         2           C   tau(   2) = (   0.6908913   0.2258018   0.7661304  )
         3           C   tau(   3) = (   0.8091087   0.2258018   0.3178234  )
         4           C   tau(   4) = (   0.1908913   0.0874462   0.7661304  )
         5           C   tau(   5) = (   0.3748160   0.0639416   0.2817781  )
         6           C   tau(   6) = (   0.6251840   0.2493065   0.7300850  )
         7           C   tau(   7) = (   0.8748160   0.2493065   0.2817781  )
         8           C   tau(   8) = (   0.1251840   0.0639416   0.7300850  )
         9           C   tau(   9) = (   0.4310197   0.0241965   0.3185941  )
        10           C   tau(  10) = (   0.5689803   0.2890515   0.7669011  )
        11           C   tau(  11) = (   0.9310197   0.2890515   0.3185941  )
        12           C   tau(  12) = (   0.0689803   0.0241965   0.7669011  )
        13           C   tau(  13) = (   0.4212603   0.0091600   0.3952847  )
        14           C   tau(  14) = (   0.5787397   0.3040881   0.8435917  )
        15           C   tau(  15) = (   0.9212603   0.3040881   0.3952847  )
        16           C   tau(  16) = (   0.0787397   0.0091600   0.8435917  )
        17           C   tau(  17) = (   0.3592674   0.0362723   0.4352184  )
        18           C   tau(  18) = (   0.6407326   0.2769758   0.8835253  )
        19           C   tau(  19) = (   0.8592674   0.2769758   0.4352184  )
        20           C   tau(  20) = (   0.1407326   0.0362723   0.8835253  )
        21           C   tau(  21) = (   0.3032269   0.0751464   0.3953211  )
        22           C   tau(  22) = (   0.6967731   0.2381016   0.8436281  )
        23           C   tau(  23) = (   0.8032269   0.2381016   0.3953211  )
        24           C   tau(  24) = (   0.1967731   0.0751464   0.8436281  )
        25           C   tau(  25) = (   0.2458862   0.1193710   0.2711718  )
        26           C   tau(  26) = (   0.7541138   0.1938771   0.7194788  )
        27           C   tau(  27) = (   0.7458862   0.1938771   0.2711718  )
        28           C   tau(  28) = (   0.2541138   0.1193710   0.7194788  )
        29           H   tau(  29) = (   0.2402367   0.0839232   0.2211929  )
        30           H   tau(  30) = (   0.7597633   0.2293249   0.6694999  )
        31           H   tau(  31) = (   0.7402367   0.2293249   0.2211929  )
        32           H   tau(  32) = (   0.2597633   0.0839232   0.6694999  )
        33           H   tau(  33) = (   0.1926441   0.1151509   0.3010526  )
        34           H   tau(  34) = (   0.8073559   0.1980972   0.7493596  )
        35           H   tau(  35) = (   0.6926441   0.1980972   0.3010526  )
        36           H   tau(  36) = (   0.3073559   0.1151509   0.7493596  )
        37           C   tau(  37) = (   0.2579541   0.2012846   0.2467498  )
        38           C   tau(  38) = (   0.7420459   0.1119635   0.6950567  )
        39           C   tau(  39) = (   0.7579541   0.1119635   0.2467498  )
        40           C   tau(  40) = (   0.2420459   0.2012846   0.6950567  )
        41           H   tau(  41) = (   0.2155719   0.2169972   0.2053131  )
        42           H   tau(  42) = (   0.7844281   0.0962509   0.6536200  )
        43           H   tau(  43) = (   0.7155719   0.0962509   0.2053131  )
        44           H   tau(  44) = (   0.2844281   0.2169972   0.6536200  )
        45           H   tau(  45) = (   0.3131287   0.2100097   0.2215007  )
        46           H   tau(  46) = (   0.6868713   0.1032384   0.6698077  )
        47           H   tau(  47) = (   0.8131287   0.1032384   0.2215007  )
        48           H   tau(  48) = (   0.1868713   0.2100097   0.6698077  )
        49           H   tau(  49) = (   0.2529399   0.2387994   0.2953235  )
        50           H   tau(  50) = (   0.7470601   0.0744486   0.7436304  )
        51           H   tau(  51) = (   0.7529399   0.0744486   0.2953235  )
        52           H   tau(  52) = (   0.2470601   0.2387994   0.7436304  )
        53           C   tau(  53) = (   0.3833937   0.0792965   0.1997750  )
        54           C   tau(  54) = (   0.6166063   0.2339515   0.6480820  )
        55           C   tau(  55) = (   0.8833937   0.2339515   0.1997750  )
        56           C   tau(  56) = (   0.1166063   0.0792965   0.6480820  )
        57           O   tau(  57) = (   0.3471654   0.0300097   0.1582711  )
        58           O   tau(  58) = (   0.6528346   0.2832384   0.6065781  )
        59           O   tau(  59) = (   0.8471654   0.2832384   0.1582711  )
        60           O   tau(  60) = (   0.1528346   0.0300097   0.6065781  )
        61           H   tau(  61) = (   0.3447373   0.0448286   0.1038446  )
        62           H   tau(  62) = (   0.6552627   0.2684194   0.5521516  )
        63           H   tau(  63) = (   0.8447373   0.2684194   0.1038446  )
        64           H   tau(  64) = (   0.1552627   0.0448286   0.5521516  )
        65           O   tau(  65) = (   0.4196921   0.1326134   0.1755661  )
        66           O   tau(  66) = (   0.5803079   0.1806346   0.6238731  )
        67           O   tau(  67) = (   0.9196921   0.1806346   0.1755661  )
        68           O   tau(  68) = (   0.0803079   0.1326134   0.6238731  )
        69           C   tau(  69) = (   0.5024622   0.3192159   0.2772501  )
        70           C   tau(  70) = (   0.4975378  -0.0059679   0.7255570  )
        71           C   tau(  71) = (   0.0024622  -0.0059679   0.2772501  )
        72           C   tau(  72) = (   0.9975378   0.3192159   0.7255570  )
        73           H   tau(  73) = (   0.5262979   0.2650753   0.2957780  )
        74           H   tau(  74) = (   0.4737021   0.0481728   0.7440849  )
        75           H   tau(  75) = (   0.0262979   0.0481728   0.2957780  )
        76           H   tau(  76) = (   0.9737021   0.2650753   0.7440849  )
        77           H   tau(  77) = (   0.4908118   0.3125085   0.2173239  )
        78           H   tau(  78) = (   0.5091882   0.0007395   0.6656309  )
        79           H   tau(  79) = (   0.9908118   0.0007395   0.2173239  )
        80           H   tau(  80) = (   0.0091882   0.3125085   0.6656309  )
        81           C   tau(  81) = (   0.5591377   0.0693772   0.2882965  )
        82           C   tau(  82) = (   0.4408623   0.2438708   0.7366035  )
        83           C   tau(  83) = (   0.0591377   0.2438708   0.2882965  )
        84           C   tau(  84) = (   0.9408623   0.0693772   0.7366035  )
        85           H   tau(  85) = (   0.6078908   0.0616765   0.2518864  )
        86           H   tau(  86) = (   0.3921092   0.2515716   0.7001934  )
        87           H   tau(  87) = (   0.1078908   0.2515716   0.2518864  )
        88           H   tau(  88) = (   0.8921092   0.0616765   0.7001934  )
        89           H   tau(  89) = (   0.5788388   0.0715647   0.3463672  )
        90           H   tau(  90) = (   0.4211612   0.2416833   0.7946742  )
        91           H   tau(  91) = (   0.0788388   0.2416833   0.3463672  )
        92           H   tau(  92) = (   0.9211612   0.0715647   0.7946742  )
        93           H   tau(  93) = (   0.5330359   0.1240284   0.2749725  )
        94           H   tau(  94) = (   0.4669641   0.1892197   0.7232794  )
        95           H   tau(  95) = (   0.0330359   0.1892197   0.2749725  )
        96           H   tau(  96) = (   0.9669641   0.1240284   0.7232794  )
        97           C   tau(  97) = (   0.4795445   0.2775546   0.4358517  )
        98           C   tau(  98) = (   0.5204555   0.0356934   0.8841587  )
        99           C   tau(  99) = (   0.9795445   0.0356934   0.4358517  )
       100           C   tau( 100) = (   0.0204555   0.2775546   0.8841587  )
       101           O   tau( 101) = (   0.4838370   0.2077462   0.4124386  )
       102           O   tau( 102) = (   0.5161630   0.1055019   0.8607455  )
       103           O   tau( 103) = (   0.9838370   0.1055019   0.4124386  )
       104           O   tau( 104) = (   0.0161630   0.2077462   0.8607455  )
       105           H   tau( 105) = (   0.5238050   0.1786804   0.4414274  )
       106           H   tau( 106) = (   0.4761950   0.1345676   0.8897344  )
       107           H   tau( 107) = (   0.0238050   0.1345676   0.4414274  )
       108           H   tau( 108) = (   0.9761950   0.1786804   0.8897344  )
       109           O   tau( 109) = (   0.5192060   0.3030155   0.4863036  )
       110           O   tau( 110) = (   0.4807940   0.0102326   0.0379966  )
       111           O   tau( 111) = (   0.0192060   0.0102326   0.4863036  )
       112           O   tau( 112) = (   0.9807940   0.3030155   0.0379966  )
       113           C   tau( 113) = (   0.3551117   0.0282626   0.5194276  )
       114           C   tau( 114) = (   0.6448883   0.2849854   0.0711206  )
       115           C   tau( 115) = (   0.8551117   0.2849854   0.5194276  )
       116           C   tau( 116) = (   0.1448883   0.0282626   0.0711206  )
       117           H   tau( 117) = (   0.2968811   0.3349204   0.5369577  )
       118           H   tau( 118) = (   0.7031189  -0.0216723   0.0886508  )
       119           H   tau( 119) = (   0.7968811  -0.0216723   0.5369577  )
       120           H   tau( 120) = (   0.2031189   0.3349204   0.0886508  )
       121           H   tau( 121) = (   0.3846779   0.2901090   0.5379303  )
       122           H   tau( 122) = (   0.6153221   0.0231391   0.0896233  )
       123           H   tau( 123) = (   0.8846779   0.0231391   0.5379303  )
       124           H   tau( 124) = (   0.1153221   0.2901090   0.0896233  )
       125           C   tau( 125) = (   0.3898989   0.0963984   0.5584109  )
       126           C   tau( 126) = (   0.6101011   0.2168497   0.1101039  )
       127           C   tau( 127) = (   0.8898989   0.2168497   0.5584109  )
       128           C   tau( 128) = (   0.1101011   0.0963984   0.1101039  )
       129           H   tau( 129) = (   0.3816504   0.0933588   0.6191727  )
       130           H   tau( 130) = (   0.6183496   0.2198892   0.1708657  )
       131           H   tau( 131) = (   0.8816504   0.2198892   0.6191727  )
       132           H   tau( 132) = (   0.1183496   0.0933588   0.1708657  )
       133           H   tau( 133) = (   0.3641634   0.1492464   0.5380701  )
       134           H   tau( 134) = (   0.6358366   0.1640016   0.0897631  )
       135           H   tau( 135) = (   0.8641634   0.1640016   0.5380701  )
       136           H   tau( 136) = (   0.1358366   0.1492464   0.0897631  )
       137           H   tau( 137) = (   0.4500422   0.0996596   0.5473128  )
       138           H   tau( 138) = (   0.5499578   0.2135885   0.0990058  )
       139           H   tau( 139) = (   0.9500422   0.2135885   0.5473128  )
       140           H   tau( 140) = (   0.0499578   0.0996596   0.0990058  )
       141           C   tau( 141) = (   0.2332291   0.0995569   0.4341570  )
       142           C   tau( 142) = (   0.7667709   0.2136911   0.8824640  )
       143           C   tau( 143) = (   0.7332291   0.2136911   0.4341570  )
       144           C   tau( 144) = (   0.2667709   0.0995569   0.8824640  )
       145           O   tau( 145) = (   0.2145216   0.1700081   0.4217928  )
       146           O   tau( 146) = (   0.7854784   0.1432400   0.8700998  )
       147           O   tau( 147) = (   0.7145216   0.1432400   0.4217928  )
       148           O   tau( 148) = (   0.2854784   0.1700081   0.8700998  )
       149           H   tau( 149) = (   0.1643735   0.1804511   0.4471420  )
       150           H   tau( 150) = (   0.8356265   0.1327970  -0.0011650  )
       151           H   tau( 151) = (   0.6643735   0.1327970   0.4471420  )
       152           H   tau( 152) = (   0.3356265   0.1804511  -0.0011650  )
       153           O   tau( 153) = (   0.1954719   0.0565146   0.4727978  )
       154           O   tau( 154) = (   0.8045281   0.2567334   0.0244908  )
       155           O   tau( 155) = (   0.6954719   0.2567334   0.4727978  )
       156           O   tau( 156) = (   0.3045281   0.0565146   0.0244908  )
       157           O   tau( 157) = (   0.4178335   0.1877923   0.0364680  )
       158           O   tau( 158) = (   0.5821665   0.1254557   0.4847750  )
       159           O   tau( 159) = (   0.9178335   0.1254557   0.0364680  )
       160           O   tau( 160) = (   0.0821665   0.1877923   0.4847750  )
       161           H   tau( 161) = (   0.4400496   0.2388228   0.0402011  )
       162           H   tau( 162) = (   0.5599504   0.0744252   0.4885081  )
       163           H   tau( 163) = (   0.9400496   0.0744252   0.0402011  )
       164           H   tau( 164) = (   0.0599504   0.2388228   0.4885081  )
       165           H   tau( 165) = (   0.4168765   0.1664409   0.0883282  )
       166           H   tau( 166) = (   0.5831235   0.1468071   0.5366351  )
       167           H   tau( 167) = (   0.9168765   0.1468071   0.0883282  )
       168           H   tau( 168) = (   0.0831235   0.1664409   0.5366351  )

     number of k points=     4
                       cart. coord. in units 2pi/alat
        k(    1) = (   0.0000000   0.0000000   0.0000000), wk =   0.3333333
        k(    2) = (   0.0000000   0.0000000  -0.5576536), wk =   0.3333333
        k(    3) = (   0.0000000   1.0641195   0.0000000), wk =   0.6666667
        k(    4) = (   0.0000000   1.0641195  -0.5576536), wk =   0.6666667

     Dense  grid:  1467829 G-vectors     FFT dimensions: ( 216,  72, 200)

     Estimated max dynamical RAM per process >    1784.81MB

     Estimated total allocated dynamical RAM >   14278.51MB

     Check: negative/imaginary core charge=   -0.000002    0.000000

     Initial potential from superposition of free atoms

     starting charge  487.99670, renormalised to  488.00000
     Starting wfc are  432 randomized atomic wfcs
     Checking if some PAW data can be deallocated... 

     total cpu time spent up to now is       89.6 secs

     per-process dynamical memory:   982.9 Mb

     Self-consistent Calculation

     iteration #  1     ecut=   100.00 Ry     beta=0.50
     Davidson diagonalization with overlap
     ethr =  1.00E-02,  avg # of iterations =  4.0

     total cpu time spent up to now is      377.4 secs

     total energy              =   -2365.13380186 Ry
     Harris-Foulkes estimate   =   -2374.97861289 Ry
     estimated scf accuracy    <      18.06486420 Ry

     iteration #  2     ecut=   100.00 Ry     beta=0.50
     Davidson diagonalization with overlap
     ethr =  3.70E-03,  avg # of iterations =  2.8

     total cpu time spent up to now is      530.3 secs

     total energy              =   -2367.20605637 Ry
     Harris-Foulkes estimate   =   -2368.07317155 Ry
     estimated scf accuracy    <       1.86624039 Ry

     iteration #  3     ecut=   100.00 Ry     beta=0.50
     Davidson diagonalization with overlap
     ethr =  3.82E-04,  avg # of iterations =  5.0

     total cpu time spent up to now is      846.5 secs

     total energy              =   -2368.55782019 Ry
     Harris-Foulkes estimate   =   -2369.17098074 Ry
     estimated scf accuracy    <       1.60798902 Ry

     iteration #  4     ecut=   100.00 Ry     beta=0.50
     Davidson diagonalization with overlap
     ethr =  3.30E-04,  avg # of iterations =  3.0

     total cpu time spent up to now is      983.4 secs

     total energy              =   -2368.38127306 Ry
     Harris-Foulkes estimate   =   -2368.66452848 Ry
     estimated scf accuracy    <       0.47779961 Ry

     iteration #  5     ecut=   100.00 Ry     beta=0.50
     Davidson diagonalization with overlap
     ethr =  9.79E-05,  avg # of iterations =  6.8

     total cpu time spent up to now is     1296.3 secs

     total energy              =   -2368.71864930 Ry
     Harris-Foulkes estimate   =   -2368.88193557 Ry
     estimated scf accuracy    <       0.57310437 Ry

     iteration #  6     ecut=   100.00 Ry     beta=0.50
     Davidson diagonalization with overlap
     ethr =  9.79E-05,  avg # of iterations =  1.0

     total cpu time spent up to now is     1428.6 secs

     total energy              =   -2368.59053590 Ry
     Harris-Foulkes estimate   =   -2368.73526609 Ry
     estimated scf accuracy    <       0.27982678 Ry

     iteration #  7     ecut=   100.00 Ry     beta=0.50
     Davidson diagonalization with overlap
     ethr =  5.73E-05,  avg # of iterations =  7.2

     total cpu time spent up to now is     1673.4 secs

     total energy              =   -2368.69810811 Ry
     Harris-Foulkes estimate   =   -2368.70505826 Ry
     estimated scf accuracy    <       0.01908885 Ry

     iteration #  8     ecut=   100.00 Ry     beta=0.50
     Davidson diagonalization with overlap
     ethr =  3.91E-06,  avg # of iterations =  2.2

     total cpu time spent up to now is     1816.0 secs

     total energy              =   -2368.69613680 Ry
     Harris-Foulkes estimate   =   -2368.69916798 Ry
     estimated scf accuracy    <       0.00655483 Ry

     iteration #  9     ecut=   100.00 Ry     beta=0.50
     Davidson diagonalization with overlap
     ethr =  1.34E-06,  avg # of iterations =  6.0

     total cpu time spent up to now is     2066.5 secs

     total energy              =   -2368.69972814 Ry
     Harris-Foulkes estimate   =   -2368.69992093 Ry
     estimated scf accuracy    <       0.00069782 Ry

     iteration # 10     ecut=   100.00 Ry     beta=0.50
     Davidson diagonalization with overlap
     ethr =  1.43E-07,  avg # of iterations =  1.2

     total cpu time spent up to now is     2195.9 secs

     total energy              =   -2368.69954718 Ry
     Harris-Foulkes estimate   =   -2368.69975440 Ry
     estimated scf accuracy    <       0.00033340 Ry

     iteration # 11     ecut=   100.00 Ry     beta=0.50
     Davidson diagonalization with overlap
     ethr =  6.83E-08,  avg # of iterations =  4.0

     total cpu time spent up to now is     2430.5 secs

     total energy              =   -2368.69971625 Ry
     Harris-Foulkes estimate   =   -2368.69975400 Ry
     estimated scf accuracy    <       0.00011146 Ry

     iteration # 12     ecut=   100.00 Ry     beta=0.50
     Davidson diagonalization with overlap
     ethr =  2.28E-08,  avg # of iterations =  1.0

     total cpu time spent up to now is     2560.7 secs

     total energy              =   -2368.69969764 Ry
     Harris-Foulkes estimate   =   -2368.69971968 Ry
     estimated scf accuracy    <       0.00004508 Ry

     iteration # 13     ecut=   100.00 Ry     beta=0.50
     Davidson diagonalization with overlap
     ethr =  9.24E-09,  avg # of iterations =  3.8

     total cpu time spent up to now is     2785.0 secs

     total energy              =   -2368.69971919 Ry
     Harris-Foulkes estimate   =   -2368.69972038 Ry
     estimated scf accuracy    <       0.00000417 Ry

     iteration # 14     ecut=   100.00 Ry     beta=0.50
     Davidson diagonalization with overlap
     ethr =  8.55E-10,  avg # of iterations =  1.2

     total cpu time spent up to now is     2916.0 secs

     total energy              =   -2368.69971869 Ry
     Harris-Foulkes estimate   =   -2368.69971934 Ry
     estimated scf accuracy    <       0.00000194 Ry

     iteration # 15     ecut=   100.00 Ry     beta=0.50
     Davidson diagonalization with overlap
     ethr =  3.98E-10,  avg # of iterations =  3.0

     total cpu time spent up to now is     3102.7 secs

     total energy              =   -2368.69971918 Ry
     Harris-Foulkes estimate   =   -2368.69971921 Ry
     estimated scf accuracy    <       0.00000006 Ry

     iteration # 16     ecut=   100.00 Ry     beta=0.50
     Davidson diagonalization with overlap
     ethr =  1.29E-11,  avg # of iterations =  4.8

     total cpu time spent up to now is     3344.0 secs

     End of self-consistent calculation

          k = 0.0000 0.0000 0.0000 (183419 PWs)   bands (ev):

   -22.0007 -21.9980 -21.9958 -21.9953 -21.8880 -21.8877 -21.8856 -21.8851
   -21.8405 -21.8389 -21.8355 -21.8354 -19.8552 -19.8549 -19.8549 -19.8546
   -19.5594 -19.5592 -19.5591 -19.5588 -19.5240 -19.5240 -19.5228 -19.5227
   -19.4557 -19.4556 -19.4548 -19.4543 -16.1354 -16.1346 -16.1254 -16.1248
   -14.3404 -14.3270 -14.3227 -14.3114 -14.2856 -14.2759 -14.2742 -14.2721
   -12.8343 -12.7598 -12.7587 -12.7415 -12.6508 -12.6292 -12.6109 -12.5575
   -12.5278 -12.5227 -12.5072 -12.5026 -10.7887 -10.7448 -10.7434 -10.7378
   -10.6758 -10.6653 -10.6049 -10.5664 -10.5425 -10.5151 -10.4510 -10.4361
    -9.4656  -9.4535  -9.4354  -9.4115  -9.2430  -9.2336  -9.2264  -9.2133
    -9.1653  -9.1652  -9.0998  -9.0461  -8.2550  -8.2020  -8.1860  -8.1522
    -8.1487  -8.1375  -8.1162  -8.0718  -7.9891  -7.9879  -7.8679  -7.8278
    -7.4974  -7.4467  -7.3947  -7.3831  -7.1302  -7.1208  -7.1134  -7.0757
    -6.7579  -6.6990  -6.6730  -6.6289  -6.4931  -6.4425  -6.4192  -6.3503
    -5.9766  -5.9680  -5.9423  -5.8888  -5.7423  -5.7273  -5.6935  -5.6899
    -5.6724  -5.6678  -5.6324  -5.6113  -5.5707  -5.5435  -5.4865  -5.4666
    -5.3187  -5.3141  -5.2878  -5.2560  -5.1823  -5.1777  -5.1351  -5.1113
    -4.7497  -4.7380  -4.6927  -4.6218  -4.6177  -4.6145  -4.5976  -4.5895
    -4.5874  -4.5325  -4.5261  -4.5138  -4.5001  -4.4665  -4.4603  -4.4286
    -4.3914  -4.3851  -4.3419  -4.2926  -4.2635  -4.2629  -4.2140  -4.1774
    -4.1445  -4.1436  -4.1189  -4.0557  -4.0504  -4.0327  -4.0007  -3.9419
    -3.8498  -3.8093  -3.7003  -3.6270  -3.5936  -3.5782  -3.5404  -3.4385
    -3.4267  -3.3809  -3.3687  -3.3528  -3.3493  -3.2811  -3.2359  -3.2269
    -3.0963  -2.9998  -2.9632  -2.9101  -2.9017  -2.8603  -2.8429  -2.7811
    -2.7423  -2.7030  -2.6651  -2.5706  -2.5437  -2.5289  -2.5271  -2.5018
    -2.4865  -2.4378  -2.4342  -2.3919  -2.3539  -2.3176  -2.3175  -2.2665
    -2.2356  -2.2091  -2.1949  -2.1758  -2.1521  -2.0813  -2.0803  -2.0407
    -2.0270  -2.0036  -1.9338  -1.8782  -1.8595  -1.8388  -1.8162  -1.7896
    -1.7749  -1.7560  -1.7482  -1.7196  -1.6571  -1.6515  -1.6103  -1.5957
    -1.2129  -1.1825  -1.1676  -1.1618  -1.0494  -0.9868  -0.9260  -0.9233
    -0.8151  -0.7531  -0.7353  -0.7233  -0.3033  -0.2984  -0.2600  -0.2419
    -0.2103  -0.1787  -0.1532  -0.1310   3.6182   3.6412   3.6623   3.6650
     3.9007   3.9359   4.0396   4.0678   4.5375   4.5436   4.5992   4.6305
     4.7747   4.8012   4.8397   4.8404   5.2537   5.2663   5.2700   5.2837
     5.4148   5.9256   5.9291   5.9875   6.1618   6.3946   6.4165   6.6543
     6.7137   6.8315   6.9345   7.0221   7.1408   7.1816   7.2480   7.2699
     7.3058   7.5137   7.6337   7.7167   7.8878   7.8930   7.8978   7.9512
     8.0551   8.0784   8.1589   8.2216

          k = 0.0000 0.0000-0.5577 (183460 PWs)   bands (ev):

   -21.9981 -21.9981 -21.9969 -21.9969 -21.8868 -21.8868 -21.8863 -21.8863
   -21.8379 -21.8379 -21.8372 -21.8372 -19.8550 -19.8550 -19.8547 -19.8547
   -19.5592 -19.5592 -19.5590 -19.5590 -19.5240 -19.5240 -19.5227 -19.5227
   -19.4557 -19.4557 -19.4546 -19.4546 -16.1301 -16.1301 -16.1301 -16.1301
   -14.3279 -14.3279 -14.3262 -14.3262 -14.2765 -14.2765 -14.2737 -14.2737
   -12.7949 -12.7949 -12.7620 -12.7620 -12.6274 -12.6274 -12.6031 -12.6031
   -12.5098 -12.5098 -12.5045 -12.5045 -10.7645 -10.7645 -10.7592 -10.7592
   -10.6111 -10.6111 -10.5896 -10.5896 -10.5213 -10.5213 -10.4974 -10.4974
    -9.4648  -9.4648  -9.4280  -9.4280  -9.2292  -9.2292  -9.2112  -9.2112
    -9.1420  -9.1420  -9.0945  -9.0945  -8.2107  -8.2107  -8.1693  -8.1693
    -8.1438  -8.1438  -8.1257  -8.1257  -7.9202  -7.9202  -7.9050  -7.9050
    -7.4431  -7.4431  -7.4286  -7.4286  -7.1166  -7.1166  -7.1049  -7.1049
    -6.6943  -6.6943  -6.6697  -6.6697  -6.4703  -6.4703  -6.3862  -6.3862
    -5.9633  -5.9633  -5.9348  -5.9348  -5.7245  -5.7245  -5.6687  -5.6687
    -5.6590  -5.6590  -5.6137  -5.6137  -5.5851  -5.5851  -5.5121  -5.5121
    -5.3118  -5.3118  -5.2702  -5.2702  -5.1602  -5.1602  -5.1259  -5.1259
    -4.7167  -4.7167  -4.6408  -4.6408  -4.6325  -4.6325  -4.6034  -4.6034
    -4.5614  -4.5614  -4.5463  -4.5463  -4.4521  -4.4521  -4.4303  -4.4303
    -4.3781  -4.3781  -4.3510  -4.3510  -4.3207  -4.3207  -4.1829  -4.1829
    -4.1130  -4.1130  -4.0931  -4.0931  -4.0369  -4.0369  -3.9757  -3.9757
    -3.8348  -3.8348  -3.6341  -3.6341  -3.5905  -3.5905  -3.4908  -3.4908
    -3.4031  -3.4031  -3.3693  -3.3693  -3.3325  -3.3325  -3.2096  -3.2096
    -3.0934  -3.0934  -2.9368  -2.9368  -2.8417  -2.8417  -2.8275  -2.8275
    -2.6852  -2.6852  -2.6353  -2.6353  -2.5584  -2.5584  -2.5215  -2.5215
    -2.4359  -2.4359  -2.4117  -2.4117  -2.3295  -2.3295  -2.3131  -2.3131
    -2.2074  -2.2074  -2.1881  -2.1881  -2.0976  -2.0976  -2.0885  -2.0885
    -2.0184  -2.0184  -1.8976  -1.8976  -1.8355  -1.8355  -1.8330  -1.8330
    -1.7479  -1.7479  -1.7292  -1.7292  -1.6591  -1.6591  -1.6030  -1.6030
    -1.1961  -1.1961  -1.1782  -1.1782  -0.9737  -0.9737  -0.9622  -0.9622
    -0.7606  -0.7606  -0.7461  -0.7461  -0.2928  -0.2928  -0.2691  -0.2691
    -0.1738  -0.1738  -0.1533  -0.1533   3.6406   3.6406   3.6416   3.6416
     3.9732   3.9732   3.9936   3.9936   4.5885   4.5885   4.5936   4.5936
     4.7967   4.7967   4.8248   4.8248   5.2507   5.2507   5.2774   5.2774
     5.6275   5.6275   5.9854   5.9854   6.2258   6.2258   6.4982   6.4982
     6.9188   6.9188   7.0566   7.0566   7.0795   7.0795   7.2761   7.2761
     7.3497   7.3497   7.7602   7.7602   7.8744   7.8744   7.9194   7.9194
     8.0230   8.0230   8.0317   8.0317

          k = 0.0000 1.0641 0.0000 (183566 PWs)   bands (ev):

   -21.9928 -21.9913 -21.9884 -21.9880 -21.8725 -21.8724 -21.8711 -21.8708
   -21.8381 -21.8370 -21.8334 -21.8333 -19.9464 -19.9461 -19.9454 -19.9451
   -19.6716 -19.6716 -19.6710 -19.6704 -19.4993 -19.4993 -19.4986 -19.4985
   -19.3024 -19.3022 -19.3019 -19.3016 -16.1343 -16.1331 -16.1245 -16.1234
   -14.3331 -14.3229 -14.3172 -14.3086 -14.2804 -14.2747 -14.2711 -14.2699
   -12.7982 -12.7585 -12.7584 -12.7167 -12.6380 -12.6180 -12.5922 -12.5557
   -12.5357 -12.5284 -12.5201 -12.5027 -10.7880 -10.7536 -10.7519 -10.7338
   -10.6930 -10.6612 -10.6384 -10.6102 -10.5881 -10.5489 -10.4458 -10.4388
    -9.5439  -9.4942  -9.4650  -9.4474  -9.2640  -9.2565  -9.2328  -9.2222
    -9.1606  -9.1368  -9.1226  -9.0488  -8.2727  -8.2290  -8.2151  -8.2007
    -8.1855  -8.1619  -8.1230  -8.0611  -7.9686  -7.9529  -7.8684  -7.8405
    -7.4904  -7.4473  -7.3947  -7.3329  -7.1600  -7.1212  -7.1130  -7.0880
    -6.7222  -6.6369  -6.6066  -6.5266  -6.4172  -6.4084  -6.3624  -6.3542
    -5.9753  -5.9523  -5.9325  -5.9289  -5.7281  -5.7277  -5.7035  -5.6901
    -5.6567  -5.6487  -5.6242  -5.6174  -5.6134  -5.5886  -5.5603  -5.4958
    -5.3668  -5.3557  -5.3054  -5.2822  -5.2814  -5.2107  -5.1637  -5.1457
    -4.8212  -4.8010  -4.7729  -4.7314  -4.7086  -4.6885  -4.6538  -4.6137
    -4.5708  -4.5666  -4.5526  -4.5394  -4.4928  -4.4918  -4.4881  -4.4426
    -4.4273  -4.4013  -4.3779  -4.3523  -4.3379  -4.2763  -4.2414  -4.2183
    -4.1878  -4.1685  -4.1400  -4.0911  -3.9591  -3.9173  -3.8957  -3.8412
    -3.8237  -3.7766  -3.7635  -3.7158  -3.5964  -3.5585  -3.3866  -3.3512
    -3.3510  -3.2919  -3.2415  -3.2316  -3.2027  -3.1643  -3.1148  -3.1142
    -3.0334  -2.9788  -2.9023  -2.8284  -2.7848  -2.7597  -2.7356  -2.7226
    -2.6819  -2.6052  -2.5811  -2.5643  -2.5439  -2.5104  -2.4784  -2.4511
    -2.3862  -2.3849  -2.3612  -2.3603  -2.3272  -2.2879  -2.2867  -2.2822
    -2.2631  -2.2426  -2.1921  -2.1704  -2.1052  -2.0798  -2.0451  -2.0075
    -1.9907  -1.9596  -1.9115  -1.8769  -1.8513  -1.8148  -1.7882  -1.7545
    -1.7357  -1.7349  -1.7077  -1.7058  -1.6737  -1.6621  -1.6377  -1.6186
    -1.2695  -1.1913  -1.1838  -1.1711  -1.0808  -0.9655  -0.9260  -0.9215
    -0.9027  -0.7765  -0.7084  -0.6972  -0.2912  -0.2789  -0.2474  -0.2162
    -0.2016  -0.1740  -0.1457  -0.1230   3.6313   3.6453   3.7076   3.7113
     3.9235   3.9415   4.0125   4.0525   4.4570   4.4798   4.5301   4.5816
     4.7898   4.7995   4.8135   4.8424   5.2335   5.2351   5.3000   5.3197
     5.7148   6.1005   6.1057   6.2408   6.3075   6.5664   6.5829   6.6393
     6.7206   6.8696   6.9921   7.0091   7.0850   7.1430   7.2509   7.2833
     7.2850   7.3590   7.3700   7.4037   7.4822   7.4989   7.6049   7.6837
     7.7662   7.7949   7.8814   7.9996

          k = 0.0000 1.0641-0.5577 (183502 PWs)   bands (ev):

   -21.9905 -21.9905 -21.9899 -21.9899 -21.8719 -21.8719 -21.8715 -21.8715
   -21.8357 -21.8357 -21.8352 -21.8352 -19.9463 -19.9463 -19.9453 -19.9453
   -19.6714 -19.6714 -19.6709 -19.6709 -19.4993 -19.4993 -19.4986 -19.4986
   -19.3022 -19.3022 -19.3019 -19.3019 -16.1289 -16.1289 -16.1288 -16.1288
   -14.3227 -14.3227 -14.3205 -14.3205 -14.2752 -14.2752 -14.2702 -14.2702
   -12.7749 -12.7749 -12.7467 -12.7467 -12.6158 -12.6158 -12.5997 -12.5997
   -12.5155 -12.5155 -12.5089 -12.5089 -10.7716 -10.7716 -10.7590 -10.7590
   -10.6398 -10.6398 -10.6135 -10.6135 -10.5360 -10.5360 -10.5138 -10.5138
    -9.5157  -9.5157  -9.4664  -9.4664  -9.2477  -9.2477  -9.2250  -9.2250
    -9.1380  -9.1380  -9.0960  -9.0960  -8.2329  -8.2329  -8.1782  -8.1782
    -8.1656  -8.1656  -8.1576  -8.1576  -7.9089  -7.9089  -7.8972  -7.8972
    -7.4300  -7.4300  -7.4139  -7.4139  -7.1395  -7.1395  -7.1132  -7.1132
    -6.6268  -6.6268  -6.5904  -6.5904  -6.4272  -6.4272  -6.3499  -6.3499
    -5.9539  -5.9539  -5.9444  -5.9444  -5.7176  -5.7176  -5.6809  -5.6809
    -5.6569  -5.6569  -5.6212  -5.6212  -5.6007  -5.6007  -5.5613  -5.5613
    -5.3551  -5.3551  -5.3136  -5.3136  -5.2009  -5.2009  -5.1740  -5.1740
    -4.7843  -4.7843  -4.7330  -4.7330  -4.7148  -4.7148  -4.6559  -4.6559
    -4.5700  -4.5700  -4.5333  -4.5333  -4.4981  -4.4981  -4.4702  -4.4702
    -4.4146  -4.4146  -4.3814  -4.3814  -4.3055  -4.3055  -4.2230  -4.2230
    -4.1979  -4.1979  -4.0996  -4.0996  -3.9451  -3.9451  -3.8818  -3.8818
    -3.7966  -3.7966  -3.7305  -3.7305  -3.4957  -3.4957  -3.4548  -3.4548
    -3.3123  -3.3123  -3.2392  -3.2392  -3.1827  -3.1827  -3.1164  -3.1164
    -2.9961  -2.9961  -2.8699  -2.8699  -2.7644  -2.7644  -2.7335  -2.7335
    -2.6251  -2.6251  -2.5573  -2.5573  -2.5352  -2.5352  -2.4898  -2.4898
    -2.3969  -2.3969  -2.3673  -2.3673  -2.3075  -2.3075  -2.2640  -2.2640
    -2.2348  -2.2348  -2.1995  -2.1995  -2.0994  -2.0994  -2.0333  -2.0333
    -1.9709  -1.9709  -1.8914  -1.8914  -1.8166  -1.8166  -1.7901  -1.7901
    -1.7308  -1.7308  -1.7036  -1.7036  -1.6706  -1.6706  -1.6249  -1.6249
    -1.2380  -1.2380  -1.1796  -1.1796  -0.9872  -0.9872  -0.9734  -0.9734
    -0.8117  -0.8117  -0.7075  -0.7075  -0.2693  -0.2693  -0.2544  -0.2544
    -0.1658  -0.1658  -0.1475  -0.1475   3.6656   3.6656   3.6776   3.6776
     3.9654   3.9654   3.9865   3.9865   4.5159   4.5159   4.5290   4.5290
     4.7928   4.7928   4.8308   4.8308   5.2322   5.2322   5.3074   5.3074
     5.8870   5.8870   6.1438   6.1438   6.4727   6.4727   6.5788   6.5788
     6.8083   6.8083   7.0392   7.0392   7.1116   7.1116   7.2133   7.2133
     7.3263   7.3263   7.4133   7.4133   7.5224   7.5224   7.6710   7.6710
     7.7691   7.7691   7.9270   7.9270

     highest occupied, lowest unoccupied level (ev):    -0.1230    3.6182

!    total energy              =   -2368.69971921 Ry
     Harris-Foulkes estimate   =   -2368.69971921 Ry
     estimated scf accuracy    <          5.3E-09 Ry

     total all-electron energy =     -8882.258445 Ry

     The total energy is the sum of the following terms:

     one-electron contribution =   -1490.95204950 Ry
     hartree contribution      =     924.76255658 Ry
     xc contribution           =    -513.44993365 Ry
     ewald contribution        =    -622.91598144 Ry
     Dispersion Correction     =      -0.69174036 Ry
     one-center paw contrib.   =    -665.45257084 Ry

     convergence has been achieved in  16 iterations

     Forces acting on atoms (cartesian axes, Ry/au):

     atom    1 type  1   force =    -0.00438700   -0.00248625   -0.00386129
     atom    2 type  1   force =     0.00438700    0.00248625   -0.00386129
     atom    3 type  1   force =    -0.00438700    0.00248625   -0.00386129
     atom    4 type  1   force =     0.00438700   -0.00248625   -0.00386129
     atom    5 type  1   force =    -0.00386097   -0.00081954   -0.00029999
     atom    6 type  1   force =     0.00386097    0.00081954   -0.00029999
     atom    7 type  1   force =    -0.00386097    0.00081954   -0.00029999
     atom    8 type  1   force =     0.00386097   -0.00081954   -0.00029999
     atom    9 type  1   force =     0.00377551   -0.00022750    0.00164394
     atom   10 type  1   force =    -0.00377551    0.00022750    0.00164394
     atom   11 type  1   force =     0.00377551    0.00022750    0.00164394
     atom   12 type  1   force =    -0.00377551   -0.00022750    0.00164394
     atom   13 type  1   force =     0.00491049    0.00257012   -0.00020766
     atom   14 type  1   force =    -0.00491049   -0.00257012   -0.00020766
     atom   15 type  1   force =     0.00491049   -0.00257012   -0.00020766
     atom   16 type  1   force =    -0.00491049    0.00257012   -0.00020766
     atom   17 type  1   force =    -0.00017264   -0.00070492    0.00300315
     atom   18 type  1   force =     0.00017264    0.00070492    0.00300315
     atom   19 type  1   force =    -0.00017264    0.00070492    0.00300315
     atom   20 type  1   force =     0.00017264   -0.00070492    0.00300315
     atom   21 type  1   force =    -0.00191769   -0.00082898   -0.00153413
     atom   22 type  1   force =     0.00191769    0.00082898   -0.00153413
     atom   23 type  1   force =    -0.00191769    0.00082898   -0.00153413
     atom   24 type  1   force =     0.00191769   -0.00082898   -0.00153413
     atom   25 type  1   force =     0.00535299    0.00611326   -0.00549616
     atom   26 type  1   force =    -0.00535299   -0.00611326   -0.00549616
     atom   27 type  1   force =     0.00535299   -0.00611326   -0.00549616
     atom   28 type  1   force =    -0.00535299    0.00611326   -0.00549616
     atom   29 type  3   force =     0.00047322    0.00182756    0.00154947
     atom   30 type  3   force =    -0.00047322   -0.00182756    0.00154947
     atom   31 type  3   force =     0.00047322   -0.00182756    0.00154947
     atom   32 type  3   force =    -0.00047322    0.00182756    0.00154947
     atom   33 type  3   force =    -0.00099535   -0.00064545    0.00112920
     atom   34 type  3   force =     0.00099535    0.00064545    0.00112920
     atom   35 type  3   force =    -0.00099535    0.00064545    0.00112920
     atom   36 type  3   force =     0.00099535   -0.00064545    0.00112920
     atom   37 type  1   force =     0.00029032   -0.00334845    0.00917178
     atom   38 type  1   force =    -0.00029032    0.00334845    0.00917178
     atom   39 type  1   force =     0.00029032    0.00334845    0.00917178
     atom   40 type  1   force =    -0.00029032   -0.00334845    0.00917178
     atom   41 type  3   force =    -0.00107895    0.00115799   -0.00127317
     atom   42 type  3   force =     0.00107895   -0.00115799   -0.00127317
     atom   43 type  3   force =    -0.00107895   -0.00115799   -0.00127317
     atom   44 type  3   force =     0.00107895    0.00115799   -0.00127317
     atom   45 type  3   force =    -0.00179966   -0.00060137    0.00110684
     atom   46 type  3   force =     0.00179966    0.00060137    0.00110684
     atom   47 type  3   force =    -0.00179966    0.00060137    0.00110684
     atom   48 type  3   force =     0.00179966   -0.00060137    0.00110684
     atom   49 type  3   force =     0.00128074   -0.00294610   -0.00405178
     atom   50 type  3   force =    -0.00128074    0.00294610   -0.00405178
     atom   51 type  3   force =     0.00128074    0.00294610   -0.00405178
     atom   52 type  3   force =    -0.00128074   -0.00294610   -0.00405178
     atom   53 type  1   force =     0.00078857   -0.00024554    0.00021856
     atom   54 type  1   force =    -0.00078857    0.00024554    0.00021856
     atom   55 type  1   force =     0.00078857    0.00024554    0.00021856
     atom   56 type  1   force =    -0.00078857   -0.00024554    0.00021856
     atom   57 type  4   force =     0.00118635    0.00150261   -0.00200281
     atom   58 type  4   force =    -0.00118635   -0.00150261   -0.00200281
     atom   59 type  4   force =     0.00118635   -0.00150261   -0.00200281
     atom   60 type  4   force =    -0.00118635    0.00150261   -0.00200281
     atom   61 type  3   force =     0.00054527    0.00037344    0.00092210
     atom   62 type  3   force =    -0.00054527   -0.00037344    0.00092210
     atom   63 type  3   force =     0.00054527   -0.00037344    0.00092210
     atom   64 type  3   force =    -0.00054527    0.00037344    0.00092210
     atom   65 type  4   force =    -0.00350059   -0.00108386   -0.00098594
     atom   66 type  4   force =     0.00350059    0.00108386   -0.00098594
     atom   67 type  4   force =    -0.00350059    0.00108386   -0.00098594
     atom   68 type  4   force =     0.00350059   -0.00108386   -0.00098594
     atom   69 type  1   force =     0.00120876   -0.01310248    0.00432420
     atom   70 type  1   force =    -0.00120876    0.01310248    0.00432420
     atom   71 type  1   force =     0.00120876    0.01310248    0.00432420
     atom   72 type  1   force =    -0.00120876   -0.01310248    0.00432420
     atom   73 type  3   force =    -0.00645529    0.01245563   -0.00096432
     atom   74 type  3   force =     0.00645529   -0.01245563   -0.00096432
     atom   75 type  3   force =    -0.00645529   -0.01245563   -0.00096432
     atom   76 type  3   force =     0.00645529    0.01245563   -0.00096432
     atom   77 type  3   force =    -0.00067050   -0.00005093   -0.00032492
     atom   78 type  3   force =     0.00067050    0.00005093   -0.00032492
     atom   79 type  3   force =    -0.00067050    0.00005093   -0.00032492
     atom   80 type  3   force =     0.00067050   -0.00005093   -0.00032492
     atom   81 type  1   force =    -0.00171333    0.01269319   -0.00286871
     atom   82 type  1   force =     0.00171333   -0.01269319   -0.00286871
     atom   83 type  1   force =    -0.00171333   -0.01269319   -0.00286871
     atom   84 type  1   force =     0.00171333    0.01269319   -0.00286871
     atom   85 type  3   force =     0.00089170   -0.00084486    0.00053974
     atom   86 type  3   force =    -0.00089170    0.00084486    0.00053974
     atom   87 type  3   force =     0.00089170    0.00084486    0.00053974
     atom   88 type  3   force =    -0.00089170   -0.00084486    0.00053974
     atom   89 type  3   force =     0.00028439   -0.00044843    0.00023629
     atom   90 type  3   force =    -0.00028439    0.00044843    0.00023629
     atom   91 type  3   force =     0.00028439    0.00044843    0.00023629
     atom   92 type  3   force =    -0.00028439   -0.00044843    0.00023629
     atom   93 type  3   force =     0.00591063   -0.01200400    0.00110220
     atom   94 type  3   force =    -0.00591063    0.01200400    0.00110220
     atom   95 type  3   force =     0.00591063    0.01200400    0.00110220
     atom   96 type  3   force =    -0.00591063   -0.01200400    0.00110220
     atom   97 type  1   force =    -0.00077834    0.00662153   -0.00232837
     atom   98 type  1   force =     0.00077834   -0.00662153   -0.00232837
     atom   99 type  1   force =    -0.00077834   -0.00662153   -0.00232837
     atom  100 type  1   force =     0.00077834    0.00662153   -0.00232837
     atom  101 type  4   force =    -0.00065668   -0.00463826    0.00120166
     atom  102 type  4   force =     0.00065668    0.00463826    0.00120166
     atom  103 type  4   force =    -0.00065668    0.00463826    0.00120166
     atom  104 type  4   force =     0.00065668   -0.00463826    0.00120166
     atom  105 type  3   force =    -0.00082864   -0.00004082   -0.00023033
     atom  106 type  3   force =     0.00082864    0.00004082   -0.00023033
     atom  107 type  3   force =    -0.00082864    0.00004082   -0.00023033
     atom  108 type  3   force =     0.00082864   -0.00004082   -0.00023033
     atom  109 type  4   force =     0.00385692   -0.00285678    0.00104318
     atom  110 type  4   force =    -0.00385692    0.00285678    0.00104318
     atom  111 type  4   force =     0.00385692    0.00285678    0.00104318
     atom  112 type  4   force =    -0.00385692   -0.00285678    0.00104318
     atom  113 type  1   force =     0.00676112   -0.01285237    0.00254312
     atom  114 type  1   force =    -0.00676112    0.01285237    0.00254312
     atom  115 type  1   force =     0.00676112    0.01285237    0.00254312
     atom  116 type  1   force =    -0.00676112   -0.01285237    0.00254312
     atom  117 type  3   force =     0.00046248   -0.00018147   -0.00048021
     atom  118 type  3   force =    -0.00046248    0.00018147   -0.00048021
     atom  119 type  3   force =     0.00046248    0.00018147   -0.00048021
     atom  120 type  3   force =    -0.00046248   -0.00018147   -0.00048021
     atom  121 type  3   force =    -0.00498087    0.01207055   -0.00575792
     atom  122 type  3   force =     0.00498087   -0.01207055   -0.00575792
     atom  123 type  3   force =    -0.00498087   -0.01207055   -0.00575792
     atom  124 type  3   force =     0.00498087    0.01207055   -0.00575792
     atom  125 type  1   force =    -0.00621820    0.01375866   -0.00293027
     atom  126 type  1   force =     0.00621820   -0.01375866   -0.00293027
     atom  127 type  1   force =    -0.00621820   -0.01375866   -0.00293027
     atom  128 type  1   force =     0.00621820    0.01375866   -0.00293027
     atom  129 type  3   force =    -0.00008760   -0.00025924    0.00034021
     atom  130 type  3   force =     0.00008760    0.00025924    0.00034021
     atom  131 type  3   force =    -0.00008760    0.00025924    0.00034021
     atom  132 type  3   force =     0.00008760   -0.00025924    0.00034021
     atom  133 type  3   force =     0.00425382   -0.01306583    0.00519205
     atom  134 type  3   force =    -0.00425382    0.01306583    0.00519205
     atom  135 type  3   force =     0.00425382    0.01306583    0.00519205
     atom  136 type  3   force =    -0.00425382   -0.01306583    0.00519205
     atom  137 type  3   force =    -0.00082559    0.00004783    0.00012175
     atom  138 type  3   force =     0.00082559   -0.00004783    0.00012175
     atom  139 type  3   force =    -0.00082559   -0.00004783    0.00012175
     atom  140 type  3   force =     0.00082559    0.00004783    0.00012175
     atom  141 type  1   force =     0.00185611   -0.00547775   -0.00010050
     atom  142 type  1   force =    -0.00185611    0.00547775   -0.00010050
     atom  143 type  1   force =     0.00185611    0.00547775   -0.00010050
     atom  144 type  1   force =    -0.00185611   -0.00547775   -0.00010050
     atom  145 type  4   force =    -0.00273523    0.00568631    0.00735701
     atom  146 type  4   force =     0.00273523   -0.00568631    0.00735701
     atom  147 type  4   force =    -0.00273523   -0.00568631    0.00735701
     atom  148 type  4   force =     0.00273523    0.00568631    0.00735701
     atom  149 type  3   force =     0.00092016    0.00008996    0.00035742
     atom  150 type  3   force =    -0.00092016   -0.00008996    0.00035742
     atom  151 type  3   force =     0.00092016   -0.00008996    0.00035742
     atom  152 type  3   force =    -0.00092016    0.00008996    0.00035742
     atom  153 type  4   force =    -0.00016742   -0.00094028   -0.00686973
     atom  154 type  4   force =     0.00016742    0.00094028   -0.00686973
     atom  155 type  4   force =    -0.00016742    0.00094028   -0.00686973
     atom  156 type  4   force =     0.00016742   -0.00094028   -0.00686973
     atom  157 type  4   force =    -0.00034401   -0.00192535    0.00061958
     atom  158 type  4   force =     0.00034401    0.00192535    0.00061958
     atom  159 type  4   force =    -0.00034401    0.00192535    0.00061958
     atom  160 type  4   force =     0.00034401   -0.00192535    0.00061958
     atom  161 type  3   force =     0.00257219    0.00064556   -0.00153637
     atom  162 type  3   force =    -0.00257219   -0.00064556   -0.00153637
     atom  163 type  3   force =     0.00257219   -0.00064556   -0.00153637
     atom  164 type  3   force =    -0.00257219    0.00064556   -0.00153637
     atom  165 type  3   force =     0.00009787   -0.00057354    0.00038111
     atom  166 type  3   force =    -0.00009787    0.00057354    0.00038111
     atom  167 type  3   force =     0.00009787    0.00057354    0.00038111
     atom  168 type  3   force =    -0.00009787   -0.00057354    0.00038111

     Total force =     0.095673     Total SCF correction =     0.000133


     Computing stress (Cartesian axis) and pressure

          total   stress  (Ry/bohr**3)                   (kbar)     P=   -5.82
  -0.00002596   0.00000000   0.00000000         -3.82      0.00      0.00
   0.00000000  -0.00007296   0.00000000          0.00    -10.73      0.00
   0.00000000   0.00000000  -0.00001986          0.00      0.00     -2.92


     Writing output data file scf.save
 
     init_run     :     86.59s CPU     88.98s WALL (       1 calls)
     electrons    :   3177.60s CPU   3254.55s WALL (       1 calls)
     forces       :     44.05s CPU     44.54s WALL (       1 calls)
     stress       :    219.89s CPU    220.37s WALL (       1 calls)

     Called by init_run:
     wfcinit      :     76.25s CPU     78.38s WALL (       1 calls)
     potinit      :      3.56s CPU      3.61s WALL (       1 calls)

     Called by electrons:
     c_bands      :   2876.56s CPU   2939.90s WALL (      16 calls)
     sum_band     :    275.75s CPU    286.50s WALL (      16 calls)
     v_of_rho     :      3.80s CPU      4.08s WALL (      17 calls)
     newd         :     10.24s CPU     12.86s WALL (      17 calls)
     PAW_pot      :     10.40s CPU     10.40s WALL (      17 calls)
     mix_rho      :      0.98s CPU      1.03s WALL (      16 calls)

     Called by c_bands:
     init_us_2    :      9.40s CPU      9.48s WALL (     140 calls)
     cegterg      :   2830.32s CPU   2893.59s WALL (      64 calls)

     Called by sum_band:
     sum_band:bec :      0.10s CPU      0.10s WALL (      64 calls)
     addusdens    :     10.42s CPU     12.93s WALL (      16 calls)

     Called by *egterg:
     h_psi        :   1417.06s CPU   1464.97s WALL (     296 calls)
     s_psi        :    362.49s CPU    362.47s WALL (     296 calls)
     g_psi        :      4.99s CPU      4.99s WALL (     228 calls)
     cdiaghg      :    136.28s CPU    136.29s WALL (     292 calls)

     Called by h_psi:
     h_psi:pot    :   1410.34s CPU   1458.14s WALL (     296 calls)
     h_psi:calbec :    374.56s CPU    374.99s WALL (     296 calls)
     vloc_psi     :    673.20s CPU    720.58s WALL (     296 calls)
     add_vuspsi   :    362.57s CPU    362.57s WALL (     296 calls)

     General routines
     calbec       :    563.16s CPU    563.81s WALL (     380 calls)
     fft          :      8.86s CPU      9.37s WALL (     245 calls)
     fftw         :    745.25s CPU    800.48s WALL (  128334 calls)
 
     Parallel routines
     fft_scatter  :    304.21s CPU    359.71s WALL (  128579 calls)
 
     PWSCF        :     0h59m CPU        1h 0m WALL

 
   This run was terminated on:  10:58: 2  20Dec2017            

=------------------------------------------------------------------------------=
   JOB DONE.
=------------------------------------------------------------------------------=
