
     Program PWSCF v.6.1 (svn rev. 13369) starts on 21Dec2017 at  4:22:55 

     This program is part of the open-source Quantum ESPRESSO suite
     for quantum simulation of materials; please cite
         "P. Giannozzi et al., J. Phys.:Condens. Matter 21 395502 (2009);
          URL http://www.quantum-espresso.org", 
     in publications or presentations arising from this work. More details at
     http://www.quantum-espresso.org/quote

     Parallel version (MPI), running on     8 processors
     R & G space division:  proc/nbgrp/npool/nimage =       8
     Waiting for input...
     Reading input from standard input

     Current dimensions of program PWSCF are:
     Max number of different atomic species (ntypx) = 10
     Max number of k-points (npk) =  40000
     Max angular momentum in pseudopotentials (lmaxx) =  3
               file C.pbe-n-kjpaw_psl.0.1.UPF: wavefunction(s)  2P renormalized
               file N.pbe-n-kjpaw_psl.0.1.UPF: wavefunction(s)  2P renormalized
               file H.pbe-kjpaw_psl.0.1.UPF: wavefunction(s)  1S renormalized
               file O.pbe-n-kjpaw_psl.0.1.UPF: wavefunction(s)  2P renormalized

     -------------------------------------
     Parameters for Dispersion Correction:
     -------------------------------------
       atom      VdW radius       C_6     

        C          2.744         60.710
        N          2.640         42.670
        H          1.892          4.857
        O          2.536         24.284

     Subspace diagonalization in iterative solution of the eigenvalue problem:
     a serial algorithm will be used

 
     Parallelization info
     --------------------
     sticks:   dense  smooth     PW     G-vecs:    dense   smooth      PW
     Min         606     606    160                72012    72012    9748
     Max         607     607    161                72017    72017    9754
     Sum        4851    4851   1281               576111   576111   78015
 


     bravais-lattice index     =            0
     lattice parameter (alat)  =      10.5432  a.u.
     unit-cell volume          =    4264.4826 (a.u.)^3
     number of atoms/cell      =           64
     number of atomic types    =            4
     number of electrons       =       224.00
     number of Kohn-Sham states=          134
     kinetic-energy cutoff     =     100.0000  Ry
     charge density cutoff     =     400.0000  Ry
     convergence threshold     =      1.0E-08
     mixing beta               =       0.5000
     number of iterations used =            8  plain     mixing
     Exchange-correlation      =  SLA  PW   PBX  PBC ( 1  4  3  4 0 0)

     celldm(1)=  10.543160  celldm(2)=   0.000000  celldm(3)=   0.000000
     celldm(4)=   0.000000  celldm(5)=   0.000000  celldm(6)=   0.000000

     crystal axes: (cart. coord. in units of alat)
               a(1) = (   1.000000   0.000000   0.000000 )  
               a(2) = (   0.000000   1.372634   0.000000 )  
               a(3) = (   0.000000   0.000000   2.650936 )  

     reciprocal axes: (cart. coord. in units 2 pi/alat)
               b(1) = (  1.000000  0.000000  0.000000 )  
               b(2) = (  0.000000  0.728526  0.000000 )  
               b(3) = (  0.000000  0.000000  0.377225 )  


     PseudoPot. # 1 for  C read from file:
     /scratch/ahofstet/pseudo/C.pbe-n-kjpaw_psl.0.1.UPF
     MD5 check sum: 430fe95172b1e11ef3f8ed03bac87931
     Pseudo is Projector augmented-wave + core cor, Zval =  4.0
     Generated using "atomic" code by A. Dal Corso  v.5.0.99 svn rev. 10869
     Shape of augmentation charge: BESSEL
     Using radial grid of 1073 points,  4 beta functions with: 
                l(1) =   0
                l(2) =   0
                l(3) =   1
                l(4) =   1
     Q(r) pseudized with 0 coefficients 


     PseudoPot. # 2 for  N read from file:
     /scratch/ahofstet/pseudo/N.pbe-n-kjpaw_psl.0.1.UPF
     MD5 check sum: f73187c8b701007e77325f868c9291d7
     Pseudo is Projector augmented-wave + core cor, Zval =  5.0
     Generated using "atomic" code by A. Dal Corso  v.5.0.99 svn rev. 10869
     Shape of augmentation charge: PSQ
     Using radial grid of 1085 points,  4 beta functions with: 
                l(1) =   0
                l(2) =   0
                l(3) =   1
                l(4) =   1
     Q(r) pseudized with 0 coefficients 


     PseudoPot. # 3 for  H read from file:
     /scratch/ahofstet/pseudo/H.pbe-kjpaw_psl.0.1.UPF
     MD5 check sum: 94e484f906d9e9773b2f6e52662335b2
     Pseudo is Projector augmented-wave, Zval =  1.0
     Generated using "atomic" code by A. Dal Corso  v.5.0.99 svn rev. 10869
     Shape of augmentation charge: PSQ
     Using radial grid of  929 points,  2 beta functions with: 
                l(1) =   0
                l(2) =   0
     Q(r) pseudized with 0 coefficients 


     PseudoPot. # 4 for  O read from file:
     /scratch/ahofstet/pseudo/O.pbe-n-kjpaw_psl.0.1.UPF
     MD5 check sum: 3f94a2996a3169367d6eb21d9b593f20
     Pseudo is Projector augmented-wave + core cor, Zval =  6.0
     Generated using "atomic" code by A. Dal Corso  v.5.0.99 svn rev. 10869
     Shape of augmentation charge: BESSEL
     Using radial grid of 1095 points,  4 beta functions with: 
                l(1) =   0
                l(2) =   0
                l(3) =   1
                l(4) =   1
     Q(r) pseudized with 0 coefficients 


     atomic species   valence    mass     pseudopotential
        C              4.00    12.01070      C( 1.00)
        N              5.00    14.00670      N( 1.00)
        H              1.00     1.00794      H( 1.00)
        O              6.00    15.99940      O( 1.00)

      4 Sym. Ops. (no inversion) found ( 3 have fractional translation)



   Cartesian axes

     site n.     atom                  positions (alat units)
         1           O   tau(   1) = (   0.5248918   1.3931253   0.6684830  )
         2           O   tau(   2) = (  -0.0248918  -0.0204912   1.9939508  )
         3           O   tau(   3) = (   0.4751082   0.7068082   0.6569848  )
         4           O   tau(   4) = (   1.0248918   0.6658258   1.9824526  )
         5           N   tau(   5) = (   0.0740357   1.1456210   1.0574983  )
         6           N   tau(   6) = (   0.4259643   0.2270131   2.3829661  )
         7           N   tau(   7) = (   0.9259643   0.4593039   0.2679695  )
         8           N   tau(   8) = (   0.5740357   0.9133302   1.5934373  )
         9           N   tau(   9) = (   0.2328593   1.0103286   1.1872059  )
        10           N   tau(  10) = (   0.2671407   0.3623055   2.5126737  )
        11           N   tau(  11) = (   0.7671407   0.3240116   0.1382619  )
        12           N   tau(  12) = (   0.7328593   1.0486225   1.4637297  )
        13           N   tau(  13) = (   0.1774549   0.7891643   1.1424297  )
        14           N   tau(  14) = (   0.3225451   0.5834698   2.4678975  )
        15           N   tau(  15) = (   0.8225451   0.1028473   0.1830381  )
        16           N   tau(  16) = (   0.6774549   1.2697868   1.5085060  )
        17           N   tau(  17) = (  -0.0123124   0.7676474   0.9895918  )
        18           N   tau(  18) = (   0.5123124   0.6049866   2.3150596  )
        19           N   tau(  19) = (   1.0123124   0.0813304   0.3358760  )
        20           N   tau(  20) = (   0.4876876   1.2913037   1.6613438  )
        21           N   tau(  21) = (   0.7463265   1.0791726   0.8014534  )
        22           N   tau(  22) = (   0.7536735   0.2934615   2.1269212  )
        23           N   tau(  23) = (   0.2536735   0.3928556   0.5240144  )
        24           N   tau(  24) = (   0.2463265   0.9797785   1.8494823  )
        25           C   tau(  25) = (   0.9239974   0.9923298   0.9412148  )
        26           C   tau(  26) = (   0.5760026   0.3803043   2.2666826  )
        27           C   tau(  27) = (   0.0760026   0.3060128   0.3842530  )
        28           C   tau(  28) = (   0.4239974   1.0666213   1.7097208  )
        29           C   tau(  29) = (   0.7009212   1.3233195   0.7867757  )
        30           C   tau(  30) = (   0.7990788   0.0493146   2.1122436  )
        31           C   tau(  31) = (   0.2990788   0.6370025   0.5386921  )
        32           C   tau(  32) = (   0.2009212   0.7356316   1.8641599  )
        33           C   tau(  33) = (   0.8679463   0.1065030   0.9134664  )
        34           C   tau(  34) = (   0.6320537   1.2661311   2.2389342  )
        35           C   tau(  35) = (   0.1320537   0.7928200   0.4120014  )
        36           C   tau(  36) = (   0.3679463   0.5798140   1.7374692  )
        37           C   tau(  37) = (   1.0562252   0.0204904   1.0458958  )
        38           C   tau(  38) = (   0.4437748   1.3521437   2.3713636  )
        39           C   tau(  39) = (  -0.0562252   0.7068074   0.2795720  )
        40           C   tau(  40) = (   0.5562252   0.6658266   1.6050398  )
        41           C   tau(  41) = (   0.2334599   0.1622992   1.1836201  )
        42           C   tau(  42) = (   0.2665401   1.2103348   2.5090879  )
        43           C   tau(  43) = (   0.7665401   0.8486163   0.1418477  )
        44           C   tau(  44) = (   0.7334599   0.5240178   1.4673155  )
        45           H   tau(  45) = (   0.2306808   0.1071511   1.3727721  )
        46           H   tau(  46) = (   0.2693192   1.2654830   0.0473043  )
        47           H   tau(  47) = (   0.7693192   0.7934681   2.6036313  )
        48           H   tau(  48) = (   0.7306808   0.5791659   1.2781635  )
        49           H   tau(  49) = (   0.6266546   0.9560459   0.7241281  )
        50           H   tau(  50) = (   0.8733454   0.4165881   2.0495959  )
        51           H   tau(  51) = (   0.3733454   0.2697289   0.6013397  )
        52           H   tau(  52) = (   0.1266546   1.1029052   1.9268075  )
        53           H   tau(  53) = (   0.8431312   0.2995733   0.8969578  )
        54           H   tau(  54) = (   0.6568688   1.0730608   2.2224256  )
        55           H   tau(  55) = (   0.1568688   0.9858903   0.4285101  )
        56           H   tau(  56) = (   0.3431312   0.3867438   1.7539779  )
        57           H   tau(  57) = (   0.1991643   0.3543713   1.1672295  )
        58           H   tau(  58) = (   0.3008357   1.0182628   2.4926973  )
        59           H   tau(  59) = (   0.8008357   1.0406883   0.1582383  )
        60           H   tau(  60) = (   0.6991643   0.3319457   1.4837061  )
        61           H   tau(  61) = (   0.4188807   0.1242562   1.1214859  )
        62           H   tau(  62) = (   0.0811193   1.2483778   2.4469537  )
        63           H   tau(  63) = (   0.5811193   0.8105733   0.2039819  )
        64           H   tau(  64) = (   0.9188807   0.5620608   1.5294497  )

     number of k points=     8
                       cart. coord. in units 2pi/alat
        k(    1) = (   0.0000000   0.0000000   0.0000000), wk =   0.1111111
        k(    2) = (   0.0000000   0.0000000  -0.1886127), wk =   0.1111111
        k(    3) = (   0.0000000   0.2428421   0.0000000), wk =   0.2222222
        k(    4) = (   0.0000000   0.2428421  -0.1886127), wk =   0.2222222
        k(    5) = (   0.3333333   0.0000000   0.0000000), wk =   0.2222222
        k(    6) = (   0.3333333   0.0000000  -0.1886127), wk =   0.2222222
        k(    7) = (   0.3333333   0.2428421   0.0000000), wk =   0.4444444
        k(    8) = (   0.3333333   0.2428421  -0.1886127), wk =   0.4444444

     Dense  grid:   576111 G-vectors     FFT dimensions: (  72,  96, 180)

     Estimated max dynamical RAM per process >     419.34MB

     Estimated total allocated dynamical RAM >    3354.69MB

     Check: negative/imaginary core charge=   -0.000002    0.000000

     Initial potential from superposition of free atoms

     starting charge  223.99882, renormalised to  224.00000
     Starting wfc are  196 randomized atomic wfcs
     Checking if some PAW data can be deallocated... 

     total cpu time spent up to now is       21.0 secs

     per-process dynamical memory:   307.7 Mb

     Self-consistent Calculation

     iteration #  1     ecut=   100.00 Ry     beta=0.50
     Davidson diagonalization with overlap
     ethr =  1.00E-02,  avg # of iterations =  3.0

     total cpu time spent up to now is       77.5 secs

     total energy              =   -1122.21155943 Ry
     Harris-Foulkes estimate   =   -1125.37964455 Ry
     estimated scf accuracy    <       6.10357695 Ry

     iteration #  2     ecut=   100.00 Ry     beta=0.50
     Davidson diagonalization with overlap
     ethr =  2.72E-03,  avg # of iterations =  3.0

     total cpu time spent up to now is      110.9 secs

     total energy              =   -1122.71460112 Ry
     Harris-Foulkes estimate   =   -1123.19397854 Ry
     estimated scf accuracy    <       0.97723339 Ry

     iteration #  3     ecut=   100.00 Ry     beta=0.50
     Davidson diagonalization with overlap
     ethr =  4.36E-04,  avg # of iterations =  6.1

     total cpu time spent up to now is      169.7 secs

     total energy              =   -1123.21924327 Ry
     Harris-Foulkes estimate   =   -1123.48412671 Ry
     estimated scf accuracy    <       0.68688899 Ry

     iteration #  4     ecut=   100.00 Ry     beta=0.50
     Davidson diagonalization with overlap
     ethr =  3.07E-04,  avg # of iterations =  2.0

     total cpu time spent up to now is      199.7 secs

     total energy              =   -1123.21645878 Ry
     Harris-Foulkes estimate   =   -1123.28891708 Ry
     estimated scf accuracy    <       0.12940852 Ry

     iteration #  5     ecut=   100.00 Ry     beta=0.50
     Davidson diagonalization with overlap
     ethr =  5.78E-05,  avg # of iterations =  6.0

     total cpu time spent up to now is      260.6 secs

     total energy              =   -1123.30463234 Ry
     Harris-Foulkes estimate   =   -1123.34726852 Ry
     estimated scf accuracy    <       0.13160770 Ry

     iteration #  6     ecut=   100.00 Ry     beta=0.50
     Davidson diagonalization with overlap
     ethr =  5.78E-05,  avg # of iterations =  1.0

     total cpu time spent up to now is      289.2 secs

     total energy              =   -1123.28691180 Ry
     Harris-Foulkes estimate   =   -1123.30859998 Ry
     estimated scf accuracy    <       0.05544731 Ry

     iteration #  7     ecut=   100.00 Ry     beta=0.50
     Davidson diagonalization with overlap
     ethr =  2.48E-05,  avg # of iterations =  4.0

     total cpu time spent up to now is      332.2 secs

     total energy              =   -1123.30713157 Ry
     Harris-Foulkes estimate   =   -1123.30703120 Ry
     estimated scf accuracy    <       0.00201977 Ry

     iteration #  8     ecut=   100.00 Ry     beta=0.50
     Davidson diagonalization with overlap
     ethr =  9.02E-07,  avg # of iterations =  7.4

     total cpu time spent up to now is      392.5 secs

     total energy              =   -1123.30618217 Ry
     Harris-Foulkes estimate   =   -1123.30805925 Ry
     estimated scf accuracy    <       0.00391629 Ry

     iteration #  9     ecut=   100.00 Ry     beta=0.50
     Davidson diagonalization with overlap
     ethr =  9.02E-07,  avg # of iterations =  4.2

     total cpu time spent up to now is      433.2 secs

     total energy              =   -1123.30681925 Ry
     Harris-Foulkes estimate   =   -1123.30684050 Ry
     estimated scf accuracy    <       0.00005463 Ry

     iteration # 10     ecut=   100.00 Ry     beta=0.50
     Davidson diagonalization with overlap
     ethr =  2.44E-08,  avg # of iterations =  4.0

     total cpu time spent up to now is      490.6 secs

     total energy              =   -1123.30685101 Ry
     Harris-Foulkes estimate   =   -1123.30685754 Ry
     estimated scf accuracy    <       0.00001311 Ry

     iteration # 11     ecut=   100.00 Ry     beta=0.50
     Davidson diagonalization with overlap
     ethr =  5.85E-09,  avg # of iterations =  4.5

     total cpu time spent up to now is      532.2 secs

     total energy              =   -1123.30685417 Ry
     Harris-Foulkes estimate   =   -1123.30685576 Ry
     estimated scf accuracy    <       0.00000423 Ry

     iteration # 12     ecut=   100.00 Ry     beta=0.50
     Davidson diagonalization with overlap
     ethr =  1.89E-09,  avg # of iterations =  2.2

     total cpu time spent up to now is      562.5 secs

     total energy              =   -1123.30685385 Ry
     Harris-Foulkes estimate   =   -1123.30685449 Ry
     estimated scf accuracy    <       0.00000125 Ry

     iteration # 13     ecut=   100.00 Ry     beta=0.50
     Davidson diagonalization with overlap
     ethr =  5.59E-10,  avg # of iterations =  4.0

     total cpu time spent up to now is      613.6 secs

     total energy              =   -1123.30685469 Ry
     Harris-Foulkes estimate   =   -1123.30685486 Ry
     estimated scf accuracy    <       0.00000041 Ry

     iteration # 14     ecut=   100.00 Ry     beta=0.50
     Davidson diagonalization with overlap
     ethr =  1.82E-10,  avg # of iterations =  2.0

     total cpu time spent up to now is      643.5 secs

     total energy              =   -1123.30685466 Ry
     Harris-Foulkes estimate   =   -1123.30685471 Ry
     estimated scf accuracy    <       0.00000012 Ry

     iteration # 15     ecut=   100.00 Ry     beta=0.50
     Davidson diagonalization with overlap
     ethr =  5.47E-11,  avg # of iterations =  4.0

     total cpu time spent up to now is      687.3 secs

     total energy              =   -1123.30685473 Ry
     Harris-Foulkes estimate   =   -1123.30685473 Ry
     estimated scf accuracy    <       0.00000001 Ry

     iteration # 16     ecut=   100.00 Ry     beta=0.50
     Davidson diagonalization with overlap
     ethr =  4.59E-12,  avg # of iterations =  2.1

     total cpu time spent up to now is      717.5 secs

     End of self-consistent calculation

          k = 0.0000 0.0000 0.0000 ( 72011 PWs)   bands (ev):

   -21.6634 -21.6563 -21.5987 -21.5914 -19.3626 -19.3603 -19.2194 -19.2164
   -17.6973 -17.6608 -17.6269 -17.5836 -16.9496 -16.9294 -16.8283 -16.8130
   -14.7276 -14.7010 -14.6483 -14.6243 -13.3280 -13.3102 -13.2564 -13.2415
   -11.3183 -11.2639 -11.2493 -11.1986  -9.8661  -9.8652  -9.8430  -9.8400
    -9.6559  -9.6535  -9.5733  -9.5694  -9.0000  -8.9855  -8.8146  -8.7855
    -7.2345  -7.2336  -7.2111  -7.2066  -6.8203  -6.7658  -6.6879  -6.6848
    -6.1515  -6.1270  -5.8370  -5.7427  -5.6838  -5.5703  -5.5437  -5.5042
    -4.3203  -4.2787  -4.0158  -3.9471  -3.8506  -3.8459  -3.8459  -3.7719
    -3.5631  -3.5306  -3.5016  -3.4853  -3.4196  -3.3643  -3.3280  -3.2635
    -3.1717  -3.1415  -3.0407  -3.0122  -2.7314  -2.4646  -2.4597  -2.4193
    -1.9292  -1.8029  -1.7870  -1.7375  -1.7010  -1.6706  -1.6407  -1.5499
    -1.4721  -1.4222  -1.4110  -1.2438  -0.1686  -0.1317  -0.1080  -0.0552
    -0.0240  -0.0074   0.0595   0.0962   0.2764   0.3074   0.3651   0.3939
     0.5310   0.5663   0.7600   0.8338   0.8837   0.9008   0.9399   0.9560
     4.5822   4.6899   4.7939   4.8996   5.5851   5.7515   5.7573   5.7615
     6.2938   6.4694   6.6446   6.6473   7.6386   7.9475   7.9727   8.3098
     8.6544   8.6756   8.6785   8.8683   8.9940   9.1209

          k = 0.0000 0.0000-0.1886 ( 71980 PWs)   bands (ev):

   -21.6600 -21.6600 -21.5948 -21.5948 -19.3614 -19.3614 -19.2179 -19.2179
   -17.6839 -17.6839 -17.6003 -17.6003 -16.9401 -16.9401 -16.8200 -16.8200
   -14.7163 -14.7163 -14.6343 -14.6343 -13.3201 -13.3201 -13.2480 -13.2480
   -11.3002 -11.3002 -11.2149 -11.2149  -9.8657  -9.8657  -9.8414  -9.8414
    -9.6547  -9.6547  -9.5713  -9.5713  -8.9933  -8.9933  -8.7995  -8.7995
    -7.2308  -7.2308  -7.2120  -7.2120  -6.7952  -6.7952  -6.6850  -6.6850
    -6.1419  -6.1419  -5.7846  -5.7846  -5.6454  -5.6454  -5.5074  -5.5074
    -4.2987  -4.2987  -3.9960  -3.9960  -3.8865  -3.8865  -3.7373  -3.7373
    -3.5534  -3.5534  -3.4931  -3.4931  -3.4150  -3.4150  -3.2784  -3.2784
    -3.1812  -3.1812  -3.0210  -3.0210  -2.6114  -2.6114  -2.4151  -2.4151
    -1.8824  -1.8824  -1.7503  -1.7503  -1.6759  -1.6759  -1.6096  -1.6096
    -1.4669  -1.4669  -1.2980  -1.2980  -0.1627  -0.1627  -0.0601  -0.0601
    -0.0204  -0.0204   0.0682   0.0682   0.2889   0.2889   0.3787   0.3787
     0.5603   0.5603   0.7937   0.7937   0.9056   0.9056   0.9347   0.9347
     4.6204   4.6204   4.8640   4.8640   5.6451   5.6451   5.7743   5.7743
     6.3814   6.3814   6.6533   6.6533   7.7419   7.7419   8.1930   8.1930
     8.5905   8.5905   8.8742   8.8742   8.9521   8.9521

          k = 0.0000 0.2428 0.0000 ( 72024 PWs)   bands (ev):

   -21.6612 -21.6577 -21.5966 -21.5929 -19.3295 -19.3270 -19.2582 -19.2553
   -17.6779 -17.6435 -17.6390 -17.6011 -16.9232 -16.9036 -16.8620 -16.8450
   -14.7069 -14.6795 -14.6672 -14.6410 -13.2841 -13.2745 -13.2421 -13.2351
   -11.3013 -11.2623 -11.2593 -11.2305  -9.9502  -9.9477  -9.8883  -9.8798
    -9.6310  -9.6278  -9.5979  -9.5918  -8.9685  -8.8931  -8.8610  -8.8018
    -7.2682  -7.2514  -7.2235  -7.2111  -6.7752  -6.7349  -6.7061  -6.6893
    -6.0045  -5.9800  -5.8223  -5.7556  -5.7075  -5.6963  -5.6078  -5.5449
    -4.2516  -4.1989  -4.0325  -4.0169  -3.9403  -3.8434  -3.8314  -3.7770
    -3.5744  -3.5389  -3.4721  -3.3657  -3.3261  -3.2674  -3.1848  -3.1829
    -3.1504  -3.0727  -3.0180  -2.9885  -2.7079  -2.6073  -2.3989  -2.3692
    -1.9747  -1.8889  -1.8884  -1.8557  -1.7363  -1.7162  -1.6703  -1.6218
    -1.4920  -1.4165  -1.3666  -1.3182  -0.2429  -0.2383  -0.1906  -0.1381
     0.0555   0.0733   0.1001   0.1444   0.3761   0.4102   0.4135   0.4620
     0.4886   0.5739   0.6486   0.7169   0.8980   0.9057   0.9441   0.9475
     4.6371   4.7046   4.7371   4.8101   5.6566   5.7415   5.7526   5.7654
     6.2687   6.4149   6.4955   6.5710   7.8963   8.2083   8.2753   8.3507
     8.5254   8.7461   8.8091   8.9085   8.9259   9.0459

          k = 0.0000 0.2428-0.1886 ( 71990 PWs)   bands (ev):

   -21.6595 -21.6595 -21.5947 -21.5947 -19.3283 -19.3283 -19.2567 -19.2567
   -17.6675 -17.6675 -17.6132 -17.6132 -16.9147 -16.9147 -16.8522 -16.8522
   -14.6973 -14.6973 -14.6500 -14.6500 -13.2797 -13.2797 -13.2381 -13.2381
   -11.2884 -11.2884 -11.2383 -11.2383  -9.9489  -9.9489  -9.8841  -9.8841
    -9.6295  -9.6295  -9.5949  -9.5949  -8.9409  -8.9409  -8.8212  -8.8212
    -7.2607  -7.2607  -7.2165  -7.2165  -6.7568  -6.7568  -6.6960  -6.6960
    -5.9955  -5.9955  -5.7744  -5.7744  -5.7200  -5.7200  -5.5696  -5.5696
    -4.2264  -4.2264  -4.0215  -4.0215  -3.9111  -3.9111  -3.7878  -3.7878
    -3.5447  -3.5447  -3.4505  -3.4505  -3.2860  -3.2860  -3.1900  -3.1900
    -3.0721  -3.0721  -3.0286  -3.0286  -2.6590  -2.6590  -2.3815  -2.3815
    -1.9351  -1.9351  -1.8645  -1.8645  -1.7316  -1.7316  -1.6498  -1.6498
    -1.4565  -1.4565  -1.3346  -1.3346  -0.2428  -0.2428  -0.1627  -0.1627
     0.0601   0.0601   0.1248   0.1248   0.3823   0.3823   0.4371   0.4371
     0.5395   0.5395   0.6951   0.6951   0.9045   0.9045   0.9360   0.9360
     4.6628   4.6628   4.7828   4.7828   5.6944   5.6944   5.7563   5.7563
     6.3461   6.3461   6.5352   6.5352   7.9982   7.9982   8.3981   8.3981
     8.5770   8.5770   8.8536   8.8536   8.9670   8.9670

          k = 0.3333 0.0000 0.0000 ( 71932 PWs)   bands (ev):

   -21.6431 -21.6378 -21.6106 -21.6053 -19.3680 -19.3664 -19.2104 -19.2092
   -17.7219 -17.7031 -17.6101 -17.5888 -16.9304 -16.9206 -16.8361 -16.8282
   -14.7022 -14.6897 -14.6370 -14.6246 -13.3137 -13.2829 -13.2787 -13.2475
   -11.3489 -11.3235 -11.2656 -11.2391  -9.8638  -9.8622  -9.8082  -9.8057
    -9.6618  -9.6613  -9.5439  -9.5415  -9.0035  -8.9979  -8.8098  -8.7957
    -7.2484  -7.2453  -7.1911  -7.1869  -6.8171  -6.7902  -6.6965  -6.6820
    -6.0853  -6.0711  -5.9356  -5.8316  -5.7799  -5.6313  -5.5700  -5.4945
    -4.3215  -4.3069  -3.9739  -3.9529  -3.8459  -3.8374  -3.7769  -3.7030
    -3.5964  -3.5500  -3.5271  -3.4616  -3.3734  -3.3048  -3.2905  -3.2083
    -3.1754  -3.0954  -3.0768  -3.0588  -2.7189  -2.5204  -2.4908  -2.4447
    -1.8552  -1.7880  -1.7854  -1.6974  -1.6675  -1.5712  -1.5534  -1.5260
    -1.4296  -1.3706  -1.2325  -1.2097  -0.1581  -0.1064  -0.0933  -0.0681
    -0.0014   0.0434   0.0482   0.0950   0.3110   0.3472   0.4133   0.4372
     0.6003   0.6303   0.7183   0.7393   0.7509   0.8351   1.0042   1.0181
     4.3465   4.3862   4.6040   4.6505   5.5640   5.5842   5.6748   5.7723
     6.2952   6.3789   6.5388   6.5532   7.8750   8.0918   8.2522   8.3907
     8.5493   8.5647   8.7064   8.7779   9.1407   9.1665

          k = 0.3333 0.0000-0.1886 ( 71974 PWs)   bands (ev):

   -21.6407 -21.6407 -21.6078 -21.6078 -19.3672 -19.3672 -19.2098 -19.2098
   -17.7134 -17.7134 -17.5986 -17.5986 -16.9257 -16.9257 -16.8320 -16.8320
   -14.6966 -14.6966 -14.6302 -14.6302 -13.3041 -13.3041 -13.2572 -13.2572
   -11.3382 -11.3382 -11.2504 -11.2504  -9.8630  -9.8630  -9.8070  -9.8070
    -9.6615  -9.6615  -9.5427  -9.5427  -9.0008  -9.0008  -8.8026  -8.8026
    -7.2465  -7.2465  -7.1901  -7.1901  -6.8024  -6.8024  -6.6897  -6.6897
    -6.0745  -6.0745  -5.9105  -5.9105  -5.6876  -5.6876  -5.5272  -5.5272
    -4.3156  -4.3156  -3.9592  -3.9592  -3.8414  -3.8414  -3.7427  -3.7427
    -3.6023  -3.6023  -3.4544  -3.4544  -3.3439  -3.3439  -3.2683  -3.2683
    -3.1219  -3.1219  -3.0761  -3.0761  -2.6277  -2.6277  -2.4540  -2.4540
    -1.8302  -1.8302  -1.7285  -1.7285  -1.6310  -1.6310  -1.5371  -1.5371
    -1.3938  -1.3938  -1.2210  -1.2210  -0.1375  -0.1375  -0.0786  -0.0786
     0.0144   0.0144   0.0819   0.0819   0.3310   0.3310   0.4212   0.4212
     0.6148   0.6148   0.7289   0.7289   0.7912   0.7912   1.0149   1.0149
     4.3654   4.3654   4.6284   4.6284   5.5723   5.5723   5.7203   5.7203
     6.3548   6.3548   6.5317   6.5317   7.9800   7.9800   8.3212   8.3212
     8.5267   8.5267   8.7347   8.7347   9.2633   9.2633

          k = 0.3333 0.2428 0.0000 ( 72041 PWs)   bands (ev):

   -21.6415 -21.6388 -21.6090 -21.6064 -19.3317 -19.3301 -19.2532 -19.2519
   -17.6910 -17.6713 -17.6359 -17.6148 -16.9116 -16.9020 -16.8640 -16.8554
   -14.6838 -14.6706 -14.6512 -14.6380 -13.2742 -13.2572 -13.2530 -13.2375
   -11.3272 -11.3109 -11.2893 -11.2692  -9.9261  -9.9010  -9.8927  -9.8674
    -9.6354  -9.6323  -9.5850  -9.5798  -8.9505  -8.9189  -8.8540  -8.8227
    -7.2646  -7.2508  -7.2192  -7.2114  -6.7517  -6.7389  -6.6853  -6.6716
    -5.9644  -5.9512  -5.8796  -5.8123  -5.7784  -5.7100  -5.6833  -5.6483
    -4.2912  -4.2487  -4.1218  -4.0374  -3.8486  -3.7959  -3.7508  -3.7386
    -3.5820  -3.5002  -3.4471  -3.4065  -3.2305  -3.2151  -3.1592  -3.1119
    -3.1019  -3.0469  -3.0267  -2.9657  -2.7112  -2.5684  -2.5273  -2.4629
    -1.9719  -1.9197  -1.9052  -1.9039  -1.6423  -1.5845  -1.5270  -1.4860
    -1.4544  -1.3550  -1.2771  -1.2531  -0.2394  -0.2113  -0.1828  -0.1689
     0.0836   0.1107   0.1333   0.1605   0.3906   0.4255   0.4530   0.4668
     0.5663   0.6129   0.6305   0.6664   0.7979   0.8775   0.9260   0.9827
     4.4062   4.4226   4.5338   4.5594   5.5999   5.6307   5.6800   5.7266
     6.2776   6.3672   6.4256   6.4659   8.0917   8.3066   8.4581   8.5370
     8.5681   8.6717   8.7336   8.7803   9.0575   9.0884

          k = 0.3333 0.2428-0.1886 ( 72030 PWs)   bands (ev):

   -21.6402 -21.6402 -21.6076 -21.6076 -19.3309 -19.3309 -19.2525 -19.2525
   -17.6830 -17.6830 -17.6236 -17.6236 -16.9072 -16.9072 -16.8593 -16.8593
   -14.6785 -14.6785 -14.6433 -14.6433 -13.2685 -13.2685 -13.2424 -13.2424
   -11.3210 -11.3210 -11.2773 -11.2773  -9.9176  -9.9176  -9.8760  -9.8760
    -9.6337  -9.6337  -9.5826  -9.5826  -8.9369  -8.9369  -8.8361  -8.8361
    -7.2580  -7.2580  -7.2151  -7.2151  -6.7453  -6.7453  -6.6784  -6.6784
    -5.9530  -5.9530  -5.8685  -5.8685  -5.7206  -5.7206  -5.6718  -5.6718
    -4.2678  -4.2678  -4.0899  -4.0899  -3.8064  -3.8064  -3.7532  -3.7532
    -3.5366  -3.5366  -3.4382  -3.4382  -3.2240  -3.2240  -3.1300  -3.1300
    -3.0710  -3.0710  -2.9995  -2.9995  -2.6455  -2.6455  -2.4876  -2.4876
    -1.9437  -1.9437  -1.9036  -1.9036  -1.6146  -1.6146  -1.5284  -1.5284
    -1.3781  -1.3781  -1.2705  -1.2705  -0.2269  -0.2269  -0.1742  -0.1742
     0.0975   0.0975   0.1456   0.1456   0.4110   0.4110   0.4581   0.4581
     0.5844   0.5844   0.6511   0.6511   0.8366   0.8366   0.9580   0.9580
     4.4162   4.4162   4.5453   4.5453   5.6168   5.6168   5.6985   5.6985
     6.3329   6.3329   6.4372   6.4372   8.2110   8.2110   8.4493   8.4493
     8.6475   8.6475   8.7439   8.7439   9.0224   9.0224

     highest occupied, lowest unoccupied level (ev):     1.0181    4.3465

!    total energy              =   -1123.30685473 Ry
     Harris-Foulkes estimate   =   -1123.30685473 Ry
     estimated scf accuracy    <          4.3E-09 Ry

     total all-electron energy =     -4339.952388 Ry

     The total energy is the sum of the following terms:

     one-electron contribution =    -603.40761620 Ry
     hartree contribution      =     390.07200647 Ry
     xc contribution           =    -234.82258634 Ry
     ewald contribution        =    -338.12420640 Ry
     Dispersion Correction     =      -0.31145041 Ry
     one-center paw contrib.   =    -336.71300184 Ry

     convergence has been achieved in  16 iterations

     Forces acting on atoms (cartesian axes, Ry/au):

     atom    1 type  4   force =     0.00143428   -0.00293094    0.00453525
     atom    2 type  4   force =    -0.00143428    0.00293094    0.00453525
     atom    3 type  4   force =    -0.00143428   -0.00293094   -0.00453525
     atom    4 type  4   force =     0.00143428    0.00293094   -0.00453525
     atom    5 type  2   force =     0.00398537   -0.00405021    0.00002637
     atom    6 type  2   force =    -0.00398537    0.00405021    0.00002637
     atom    7 type  2   force =    -0.00398537   -0.00405021   -0.00002637
     atom    8 type  2   force =     0.00398537    0.00405021   -0.00002637
     atom    9 type  2   force =     0.00103396    0.00148260   -0.00507721
     atom   10 type  2   force =    -0.00103396   -0.00148260   -0.00507721
     atom   11 type  2   force =    -0.00103396    0.00148260    0.00507721
     atom   12 type  2   force =     0.00103396   -0.00148260    0.00507721
     atom   13 type  2   force =    -0.00242495    0.00362026   -0.00099280
     atom   14 type  2   force =     0.00242495   -0.00362026   -0.00099280
     atom   15 type  2   force =     0.00242495    0.00362026    0.00099280
     atom   16 type  2   force =    -0.00242495   -0.00362026    0.00099280
     atom   17 type  2   force =     0.00198041    0.00250835    0.00217785
     atom   18 type  2   force =    -0.00198041   -0.00250835    0.00217785
     atom   19 type  2   force =    -0.00198041    0.00250835   -0.00217785
     atom   20 type  2   force =     0.00198041   -0.00250835   -0.00217785
     atom   21 type  2   force =    -0.00094520   -0.00409062    0.00657342
     atom   22 type  2   force =     0.00094520    0.00409062    0.00657342
     atom   23 type  2   force =     0.00094520   -0.00409062   -0.00657342
     atom   24 type  2   force =    -0.00094520    0.00409062   -0.00657342
     atom   25 type  1   force =     0.00130234   -0.00100568   -0.00443368
     atom   26 type  1   force =    -0.00130234    0.00100568   -0.00443368
     atom   27 type  1   force =    -0.00130234   -0.00100568    0.00443368
     atom   28 type  1   force =     0.00130234    0.00100568    0.00443368
     atom   29 type  1   force =     0.00342451    0.00570921   -0.00155913
     atom   30 type  1   force =    -0.00342451   -0.00570921   -0.00155913
     atom   31 type  1   force =    -0.00342451    0.00570921    0.00155913
     atom   32 type  1   force =     0.00342451   -0.00570921    0.00155913
     atom   33 type  1   force =     0.00934268   -0.00375920    0.00053782
     atom   34 type  1   force =    -0.00934268    0.00375920    0.00053782
     atom   35 type  1   force =    -0.00934268   -0.00375920   -0.00053782
     atom   36 type  1   force =     0.00934268    0.00375920   -0.00053782
     atom   37 type  1   force =    -0.01358976    0.00473929   -0.00178953
     atom   38 type  1   force =     0.01358976   -0.00473929   -0.00178953
     atom   39 type  1   force =     0.01358976    0.00473929    0.00178953
     atom   40 type  1   force =    -0.01358976   -0.00473929    0.00178953
     atom   41 type  1   force =     0.01288512   -0.00300670   -0.00424916
     atom   42 type  1   force =    -0.01288512    0.00300670   -0.00424916
     atom   43 type  1   force =    -0.01288512   -0.00300670    0.00424916
     atom   44 type  1   force =     0.01288512    0.00300670    0.00424916
     atom   45 type  3   force =    -0.00311835    0.00171860    0.00118620
     atom   46 type  3   force =     0.00311835   -0.00171860    0.00118620
     atom   47 type  3   force =     0.00311835    0.00171860   -0.00118620
     atom   48 type  3   force =    -0.00311835   -0.00171860   -0.00118620
     atom   49 type  3   force =    -0.00123293    0.00069374    0.00031527
     atom   50 type  3   force =     0.00123293   -0.00069374    0.00031527
     atom   51 type  3   force =     0.00123293    0.00069374   -0.00031527
     atom   52 type  3   force =    -0.00123293   -0.00069374   -0.00031527
     atom   53 type  3   force =    -0.00079002   -0.00017223    0.00136354
     atom   54 type  3   force =     0.00079002    0.00017223    0.00136354
     atom   55 type  3   force =     0.00079002   -0.00017223   -0.00136354
     atom   56 type  3   force =    -0.00079002    0.00017223   -0.00136354
     atom   57 type  3   force =    -0.00213266    0.00259341   -0.00066876
     atom   58 type  3   force =     0.00213266   -0.00259341   -0.00066876
     atom   59 type  3   force =     0.00213266    0.00259341    0.00066876
     atom   60 type  3   force =    -0.00213266   -0.00259341    0.00066876
     atom   61 type  3   force =    -0.01443443    0.00117705    0.00267650
     atom   62 type  3   force =     0.01443443   -0.00117705    0.00267650
     atom   63 type  3   force =     0.01443443    0.00117705   -0.00267650
     atom   64 type  3   force =    -0.01443443   -0.00117705   -0.00267650

     Total force =     0.063559     Total SCF correction =     0.000079


     Computing stress (Cartesian axis) and pressure

          total   stress  (Ry/bohr**3)                   (kbar)     P=   -7.97
  -0.00008607   0.00000000   0.00000000        -12.66      0.00      0.00
   0.00000000  -0.00005261   0.00000000          0.00     -7.74      0.00
   0.00000000   0.00000000  -0.00002376          0.00      0.00     -3.49


     Writing output data file scf.save
 
     init_run     :     20.04s CPU     20.38s WALL (       1 calls)
     electrons    :    672.57s CPU    696.58s WALL (       1 calls)
     forces       :      9.47s CPU      9.56s WALL (       1 calls)
     stress       :     34.83s CPU     34.93s WALL (       1 calls)

     Called by init_run:
     wfcinit      :     16.05s CPU     16.31s WALL (       1 calls)
     potinit      :      1.44s CPU      1.46s WALL (       1 calls)

     Called by electrons:
     c_bands      :    600.94s CPU    621.61s WALL (      16 calls)
     sum_band     :     63.24s CPU     65.99s WALL (      16 calls)
     v_of_rho     :      1.34s CPU      1.47s WALL (      17 calls)
     newd         :      2.43s CPU      2.89s WALL (      17 calls)
     PAW_pot      :      4.22s CPU      4.22s WALL (      17 calls)
     mix_rho      :      0.32s CPU      0.34s WALL (      16 calls)

     Called by c_bands:
     init_us_2    :      4.01s CPU      4.03s WALL (     280 calls)
     cegterg      :    584.56s CPU    605.18s WALL (     128 calls)

     Called by sum_band:
     sum_band:bec :      0.04s CPU      0.04s WALL (     128 calls)
     addusdens    :      2.50s CPU      2.96s WALL (      16 calls)

     Called by *egterg:
     h_psi        :    329.28s CPU    343.78s WALL (     613 calls)
     s_psi        :     63.65s CPU     63.67s WALL (     613 calls)
     g_psi        :      1.85s CPU      1.85s WALL (     477 calls)
     cdiaghg      :     36.19s CPU     36.17s WALL (     605 calls)

     Called by h_psi:
     h_psi:pot    :    327.06s CPU    341.51s WALL (     613 calls)
     h_psi:calbec :     64.89s CPU     65.05s WALL (     613 calls)
     vloc_psi     :    198.47s CPU    212.75s WALL (     613 calls)
     add_vuspsi   :     63.70s CPU     63.71s WALL (     613 calls)

     General routines
     calbec       :     94.54s CPU     94.76s WALL (     781 calls)
     fft          :      1.25s CPU      1.47s WALL (     245 calls)
     fftw         :    213.09s CPU    228.38s WALL (  117044 calls)
 
     Parallel routines
     fft_scatter  :     51.78s CPU     61.72s WALL (  117289 calls)
 
     PWSCF        : 12m22.77s CPU    13m21.47s WALL

 
   This run was terminated on:   4:36:17  21Dec2017            

=------------------------------------------------------------------------------=
   JOB DONE.
=------------------------------------------------------------------------------=
