
     Program PWSCF v.6.1 (svn rev. 13369) starts on 10Dec2017 at  7:18:59 

     This program is part of the open-source Quantum ESPRESSO suite
     for quantum simulation of materials; please cite
         "P. Giannozzi et al., J. Phys.:Condens. Matter 21 395502 (2009);
          URL http://www.quantum-espresso.org", 
     in publications or presentations arising from this work. More details at
     http://www.quantum-espresso.org/quote

     Parallel version (MPI), running on     8 processors
     R & G space division:  proc/nbgrp/npool/nimage =       8
     Waiting for input...
     Reading input from standard input

     Current dimensions of program PWSCF are:
     Max number of different atomic species (ntypx) = 10
     Max number of k-points (npk) =  40000
     Max angular momentum in pseudopotentials (lmaxx) =  3
               file C.pbe-n-kjpaw_psl.0.1.UPF: wavefunction(s)  2P renormalized
               file N.pbe-n-kjpaw_psl.0.1.UPF: wavefunction(s)  2P renormalized
               file H.pbe-kjpaw_psl.0.1.UPF: wavefunction(s)  1S renormalized
               file O.pbe-n-kjpaw_psl.0.1.UPF: wavefunction(s)  2P renormalized

     -------------------------------------
     Parameters for Dispersion Correction:
     -------------------------------------
       atom      VdW radius       C_6     

        C          2.744         60.710
        N          2.640         42.670
        H          1.892          4.857
        O          2.536         24.284

     Subspace diagonalization in iterative solution of the eigenvalue problem:
     a serial algorithm will be used

 
     Parallelization info
     --------------------
     sticks:   dense  smooth     PW     G-vecs:    dense   smooth      PW
     Min         580     580    153                57084    57084    7746
     Max         581     581    154                57088    57088    7749
     Sum        4645    4645   1227               456691   456691   61981
 


     bravais-lattice index     =            0
     lattice parameter (alat)  =      11.7579  a.u.
     unit-cell volume          =    3380.3226 (a.u.)^3
     number of atoms/cell      =           56
     number of atomic types    =            4
     number of electrons       =       156.00
     number of Kohn-Sham states=           93
     kinetic-energy cutoff     =     100.0000  Ry
     charge density cutoff     =     400.0000  Ry
     convergence threshold     =      1.0E-08
     mixing beta               =       0.5000
     number of iterations used =            8  plain     mixing
     Exchange-correlation      =  SLA  PW   PBX  PBC ( 1  4  3  4 0 0)

     celldm(1)=  11.757876  celldm(2)=   0.000000  celldm(3)=   0.000000
     celldm(4)=   0.000000  celldm(5)=   0.000000  celldm(6)=   0.000000

     crystal axes: (cart. coord. in units of alat)
               a(1) = (   1.000000   0.000000   0.000000 )  
               a(2) = (  -0.156289   1.055837   0.000000 )  
               a(3) = (  -0.152312  -0.531225   1.969584 )  

     reciprocal axes: (cart. coord. in units 2 pi/alat)
               b(1) = (  1.000000  0.148024  0.117256 )  
               b(2) = (  0.000000  0.947116  0.255451 )  
               b(3) = (  0.000000  0.000000  0.507721 )  


     PseudoPot. # 1 for  C read from file:
     /scratch/ahofstet/pseudo/C.pbe-n-kjpaw_psl.0.1.UPF
     MD5 check sum: 430fe95172b1e11ef3f8ed03bac87931
     Pseudo is Projector augmented-wave + core cor, Zval =  4.0
     Generated using "atomic" code by A. Dal Corso  v.5.0.99 svn rev. 10869
     Shape of augmentation charge: BESSEL
     Using radial grid of 1073 points,  4 beta functions with: 
                l(1) =   0
                l(2) =   0
                l(3) =   1
                l(4) =   1
     Q(r) pseudized with 0 coefficients 


     PseudoPot. # 2 for  N read from file:
     /scratch/ahofstet/pseudo/N.pbe-n-kjpaw_psl.0.1.UPF
     MD5 check sum: f73187c8b701007e77325f868c9291d7
     Pseudo is Projector augmented-wave + core cor, Zval =  5.0
     Generated using "atomic" code by A. Dal Corso  v.5.0.99 svn rev. 10869
     Shape of augmentation charge: PSQ
     Using radial grid of 1085 points,  4 beta functions with: 
                l(1) =   0
                l(2) =   0
                l(3) =   1
                l(4) =   1
     Q(r) pseudized with 0 coefficients 


     PseudoPot. # 3 for  H read from file:
     /scratch/ahofstet/pseudo/H.pbe-kjpaw_psl.0.1.UPF
     MD5 check sum: 94e484f906d9e9773b2f6e52662335b2
     Pseudo is Projector augmented-wave, Zval =  1.0
     Generated using "atomic" code by A. Dal Corso  v.5.0.99 svn rev. 10869
     Shape of augmentation charge: PSQ
     Using radial grid of  929 points,  2 beta functions with: 
                l(1) =   0
                l(2) =   0
     Q(r) pseudized with 0 coefficients 


     PseudoPot. # 4 for  O read from file:
     /scratch/ahofstet/pseudo/O.pbe-n-kjpaw_psl.0.1.UPF
     MD5 check sum: 3f94a2996a3169367d6eb21d9b593f20
     Pseudo is Projector augmented-wave + core cor, Zval =  6.0
     Generated using "atomic" code by A. Dal Corso  v.5.0.99 svn rev. 10869
     Shape of augmentation charge: BESSEL
     Using radial grid of 1095 points,  4 beta functions with: 
                l(1) =   0
                l(2) =   0
                l(3) =   1
                l(4) =   1
     Q(r) pseudized with 0 coefficients 


     atomic species   valence    mass     pseudopotential
        C              4.00    12.01070      C( 1.00)
        N              5.00    14.00670      N( 1.00)
        H              1.00     1.00794      H( 1.00)
        O              6.00    15.99940      O( 1.00)

      2 Sym. Ops., with inversion, found



   Cartesian axes

     site n.     atom                  positions (alat units)
         1           O   tau(   1) = (   0.6269691   0.8594374   0.3845743  )
         2           O   tau(   2) = (   0.0644301  -0.3348250   1.5850101  )
         3           O   tau(   3) = (   0.2332986  -0.0630823   0.4775538  )
         4           O   tau(   4) = (   0.4581006   0.5876946   1.4920306  )
         5           O   tau(   5) = (   0.9062538   0.0075130   0.7652406  )
         6           O   tau(   6) = (  -0.2148546   0.5170994   1.2043438  )
         7           O   tau(   7) = (   0.6112494   0.2845535   0.3585578  )
         8           O   tau(   8) = (   0.0801499   0.2400588   1.6110266  )
         9           C   tau(   9) = (   0.5277794   0.8286113   0.1940327  )
        10           C   tau(  10) = (   0.1636198  -0.3039989   1.7755518  )
        11           C   tau(  11) = (   0.3143400   0.8771743   0.1942046  )
        12           C   tau(  12) = (   0.3770592  -0.3525619   1.7753798  )
        13           C   tau(  13) = (   0.2566529   0.9453709   0.4062714  )
        14           C   tau(  14) = (   0.4347463  -0.4207585   1.5633131  )
        15           C   tau(  15) = (   0.6197010  -0.1355166   0.5424955  )
        16           C   tau(  16) = (   0.0716982   0.6601290   1.4270889  )
        17           C   tau(  17) = (   0.7111316   0.0639261   0.6613062  )
        18           C   tau(  18) = (  -0.0197324   0.4606863   1.3082782  )
        19           C   tau(  19) = (   0.7412135   0.2536668   0.5035232  )
        20           C   tau(  20) = (  -0.0498143   0.2709455   1.4660612  )
        21           C   tau(  21) = (  -0.0715973   0.3992158   0.5434595  )
        22           C   tau(  22) = (   0.7629965   0.1253965   1.4261250  )
        23           C   tau(  23) = (   0.5582133   0.1449383   0.8365078  )
        24           C   tau(  24) = (   0.1331859   0.3796741   1.1330766  )
        25           C   tau(  25) = (   0.6626341   0.7420397   0.0182866  )
        26           C   tau(  26) = (   0.0287651  -0.2174273   1.9512978  )
        27           C   tau(  27) = (   0.4322835   0.7294887   0.6936929  )
        28           C   tau(  28) = (   0.2591157  -0.2048763   1.2758915  )
        29           H   tau(  29) = (   0.2087643   0.8692707   0.0553435  )
        30           H   tau(  30) = (   0.4826349  -0.3446583   1.9142409  )
        31           H   tau(  31) = (   0.0172290  -0.0262434   0.6571222  )
        32           H   tau(  32) = (   0.6741702   0.5508557   1.3124622  )
        33           H   tau(  33) = (  -0.0918861   0.5501496   0.4553048  )
        34           H   tau(  34) = (   0.7832853  -0.0255372   1.5142797  )
        35           H   tau(  35) = (   0.0761077   0.3159599   0.4908287  )
        36           H   tau(  36) = (   0.6152915   0.2086525   1.4787557  )
        37           H   tau(  37) = (  -0.0513183   0.4281945   0.7165411  )
        38           H   tau(  38) = (   0.7427175   0.0964179   1.2530433  )
        39           H   tau(  39) = (   0.5371524   0.0180769   0.9572612  )
        40           H   tau(  40) = (   0.1542468   0.5065355   1.0123233  )
        41           H   tau(  41) = (   0.4007128   0.1861300   0.7696981  )
        42           H   tau(  42) = (   0.2906864   0.3384824   1.1998863  )
        43           H   tau(  43) = (   0.6288289   0.2854280   0.9167334  )
        44           H   tau(  44) = (   0.0625703   0.2391843   1.0528510  )
        45           H   tau(  45) = (   0.7011103   0.5728843   0.0546175  )
        46           H   tau(  46) = (  -0.0097111  -0.0482720   1.9149669  )
        47           H   tau(  47) = (   0.4235933   0.2196227   1.8347925  )
        48           H   tau(  48) = (   0.2678059   0.3049897   0.1347919  )
        49           H   tau(  49) = (   0.6633902   0.2988368   1.9770290  )
        50           H   tau(  50) = (   0.0280090   0.2257756  -0.0074446  )
        51           H   tau(  51) = (   0.5691742   0.7160850   0.8039441  )
        52           H   tau(  52) = (   0.1222250  -0.1914727   1.1656403  )
        53           H   tau(  53) = (   0.4175371   0.5824778   0.5977071  )
        54           H   tau(  54) = (   0.2738621  -0.0578654   1.3718774  )
        55           H   tau(  55) = (   0.2834393   0.7533887   0.7854913  )
        56           H   tau(  56) = (   0.4079599  -0.2287764   1.1840931  )

     number of k points=    10
                       cart. coord. in units 2pi/alat
        k(    1) = (   0.0000000   0.0000000   0.0000000), wk =   0.1111111
        k(    2) = (   0.0000000   0.0000000  -0.2538607), wk =   0.1111111
        k(    3) = (   0.0000000   0.3157053   0.0851502), wk =   0.2222222
        k(    4) = (   0.0000000   0.3157053  -0.1687105), wk =   0.2222222
        k(    5) = (   0.3333333   0.0493413   0.0390853), wk =   0.2222222
        k(    6) = (   0.3333333   0.0493413  -0.2147753), wk =   0.2222222
        k(    7) = (   0.3333333   0.3650465   0.1242355), wk =   0.2222222
        k(    8) = (   0.3333333   0.3650465  -0.1296251), wk =   0.2222222
        k(    9) = (   0.3333333  -0.2663640  -0.0460648), wk =   0.2222222
        k(   10) = (   0.3333333  -0.2663640  -0.2999255), wk =   0.2222222

     Dense  grid:   456691 G-vectors     FFT dimensions: (  75,  80, 160)

     Estimated max dynamical RAM per process >     261.20MB

     Estimated total allocated dynamical RAM >    2089.60MB

     Check: negative/imaginary core charge=   -0.000002    0.000000

     Initial potential from superposition of free atoms

     starting charge  155.99889, renormalised to  156.00000
     Starting wfc are  140 randomized atomic wfcs
     Checking if some PAW data can be deallocated... 

     total cpu time spent up to now is       16.0 secs

     per-process dynamical memory:   253.1 Mb

     Self-consistent Calculation

     iteration #  1     ecut=   100.00 Ry     beta=0.50
     Davidson diagonalization with overlap
     ethr =  1.00E-02,  avg # of iterations =  3.9

     total cpu time spent up to now is       46.2 secs

     total energy              =    -734.25292365 Ry
     Harris-Foulkes estimate   =    -737.38583733 Ry
     estimated scf accuracy    <       5.93359843 Ry

     iteration #  2     ecut=   100.00 Ry     beta=0.50
     Davidson diagonalization with overlap
     ethr =  3.80E-03,  avg # of iterations =  2.0

     total cpu time spent up to now is       62.7 secs

     total energy              =    -734.65306504 Ry
     Harris-Foulkes estimate   =    -735.00807886 Ry
     estimated scf accuracy    <       0.73045980 Ry

     iteration #  3     ecut=   100.00 Ry     beta=0.50
     Davidson diagonalization with overlap
     ethr =  4.68E-04,  avg # of iterations =  5.0

     total cpu time spent up to now is       94.4 secs

     total energy              =    -735.30333634 Ry
     Harris-Foulkes estimate   =    -735.62593384 Ry
     estimated scf accuracy    <       0.92557052 Ry

     iteration #  4     ecut=   100.00 Ry     beta=0.50
     Davidson diagonalization with overlap
     ethr =  4.68E-04,  avg # of iterations =  1.0

     total cpu time spent up to now is      109.3 secs

     total energy              =    -735.13889686 Ry
     Harris-Foulkes estimate   =    -735.34797907 Ry
     estimated scf accuracy    <       0.32006066 Ry

     iteration #  5     ecut=   100.00 Ry     beta=0.50
     Davidson diagonalization with overlap
     ethr =  2.05E-04,  avg # of iterations =  5.8

     total cpu time spent up to now is      140.6 secs

     total energy              =    -735.36927485 Ry
     Harris-Foulkes estimate   =    -735.46996773 Ry
     estimated scf accuracy    <       0.38740405 Ry

     iteration #  6     ecut=   100.00 Ry     beta=0.50
     Davidson diagonalization with overlap
     ethr =  2.05E-04,  avg # of iterations =  1.0

     total cpu time spent up to now is      155.6 secs

     total energy              =    -735.28928423 Ry
     Harris-Foulkes estimate   =    -735.37635581 Ry
     estimated scf accuracy    <       0.20629882 Ry

     iteration #  7     ecut=   100.00 Ry     beta=0.50
     Davidson diagonalization with overlap
     ethr =  1.32E-04,  avg # of iterations =  3.9

     total cpu time spent up to now is      176.8 secs

     total energy              =    -735.34479347 Ry
     Harris-Foulkes estimate   =    -735.34521401 Ry
     estimated scf accuracy    <       0.00150872 Ry

     iteration #  8     ecut=   100.00 Ry     beta=0.50
     Davidson diagonalization with overlap
     c_bands:  2 eigenvalues not converged
     ethr =  9.67E-07,  avg # of iterations =  6.5

     total cpu time spent up to now is      212.7 secs

     total energy              =    -735.34604382 Ry
     Harris-Foulkes estimate   =    -735.34772527 Ry
     estimated scf accuracy    <       0.00283759 Ry

     iteration #  9     ecut=   100.00 Ry     beta=0.50
     Davidson diagonalization with overlap
     ethr =  9.67E-07,  avg # of iterations =  8.3

     total cpu time spent up to now is      242.1 secs

     total energy              =    -735.34683078 Ry
     Harris-Foulkes estimate   =    -735.34698037 Ry
     estimated scf accuracy    <       0.00038949 Ry

     iteration # 10     ecut=   100.00 Ry     beta=0.50
     Davidson diagonalization with overlap
     ethr =  2.50E-07,  avg # of iterations =  1.0

     total cpu time spent up to now is      257.0 secs

     total energy              =    -735.34679037 Ry
     Harris-Foulkes estimate   =    -735.34685358 Ry
     estimated scf accuracy    <       0.00009996 Ry

     iteration # 11     ecut=   100.00 Ry     beta=0.50
     Davidson diagonalization with overlap
     ethr =  6.41E-08,  avg # of iterations =  4.0

     total cpu time spent up to now is      285.4 secs

     total energy              =    -735.34687879 Ry
     Harris-Foulkes estimate   =    -735.34690426 Ry
     estimated scf accuracy    <       0.00009774 Ry

     iteration # 12     ecut=   100.00 Ry     beta=0.50
     Davidson diagonalization with overlap
     ethr =  6.27E-08,  avg # of iterations =  1.0

     total cpu time spent up to now is      300.4 secs

     total energy              =    -735.34685380 Ry
     Harris-Foulkes estimate   =    -735.34688015 Ry
     estimated scf accuracy    <       0.00005378 Ry

     iteration # 13     ecut=   100.00 Ry     beta=0.50
     Davidson diagonalization with overlap
     ethr =  3.45E-08,  avg # of iterations =  4.5

     total cpu time spent up to now is      323.2 secs

     total energy              =    -735.34687374 Ry
     Harris-Foulkes estimate   =    -735.34687450 Ry
     estimated scf accuracy    <       0.00000346 Ry

     iteration # 14     ecut=   100.00 Ry     beta=0.50
     Davidson diagonalization with overlap
     ethr =  2.22E-09,  avg # of iterations =  2.9

     total cpu time spent up to now is      340.4 secs

     total energy              =    -735.34687319 Ry
     Harris-Foulkes estimate   =    -735.34687410 Ry
     estimated scf accuracy    <       0.00000207 Ry

     iteration # 15     ecut=   100.00 Ry     beta=0.50
     Davidson diagonalization with overlap
     ethr =  1.33E-09,  avg # of iterations =  3.5

     total cpu time spent up to now is      361.5 secs

     total energy              =    -735.34687366 Ry
     Harris-Foulkes estimate   =    -735.34687369 Ry
     estimated scf accuracy    <       0.00000006 Ry

     iteration # 16     ecut=   100.00 Ry     beta=0.50
     Davidson diagonalization with overlap
     ethr =  4.00E-11,  avg # of iterations =  4.0

     total cpu time spent up to now is      389.6 secs

     total energy              =    -735.34687370 Ry
     Harris-Foulkes estimate   =    -735.34687371 Ry
     estimated scf accuracy    <       0.00000002 Ry

     iteration # 17     ecut=   100.00 Ry     beta=0.50
     Davidson diagonalization with overlap
     ethr =  1.53E-11,  avg # of iterations =  2.0

     total cpu time spent up to now is      405.0 secs

     End of self-consistent calculation

          k = 0.0000 0.0000 0.0000 ( 57109 PWs)   bands (ev):

   -21.3813 -21.3789 -20.1523 -20.1521 -19.5571 -19.5559 -19.3288 -19.3201
   -14.1376 -14.0931 -13.6379 -13.5267 -12.8071 -12.7642 -12.1308 -12.0866
   -11.7955 -11.7811 -10.4591 -10.2482  -9.0285  -8.9012  -8.3570  -8.2278
    -7.7064  -7.6727  -7.6151  -7.5919  -6.6132  -6.5491  -6.0110  -5.9236
    -5.5617  -5.5547  -5.2251  -5.0540  -4.9661  -4.9205  -4.7220  -4.6281
    -4.4313  -4.3876  -4.3643  -4.1732  -4.1297  -4.0210  -3.9680  -3.8462
    -3.8128  -3.6458  -3.6161  -3.5195  -3.3541  -3.2997  -3.2288  -3.2134
    -3.1296  -3.0287  -2.8650  -2.8089  -2.7541  -2.6942  -2.6407  -2.6192
    -2.5840  -2.4386  -2.1986  -2.0129  -1.9230  -1.7558  -0.8428  -0.7261
     0.0910   0.2263   0.3417   0.4281   0.4635   0.5729   3.9978   4.1101
     4.2304   4.2766   5.9085   6.2813   6.6619   6.7358   6.9773   7.1337
     7.7188   7.7778   7.9346   8.1616   8.1621

          k = 0.0000 0.0000-0.2539 ( 57054 PWs)   bands (ev):

   -21.3811 -21.3791 -20.1531 -20.1513 -19.5576 -19.5554 -19.3279 -19.3209
   -14.1303 -14.1019 -13.6322 -13.5310 -12.7995 -12.7718 -12.1119 -12.1054
   -11.8128 -11.7634 -10.4691 -10.2389  -8.9789  -8.9494  -8.3620  -8.2245
    -7.7027  -7.6770  -7.6339  -7.5715  -6.5865  -6.5729  -6.0089  -5.9445
    -5.5810  -5.5547  -5.1436  -5.1261  -4.9408  -4.9151  -4.7161  -4.6814
    -4.3916  -4.3834  -4.3349  -4.2095  -4.0641  -4.0206  -3.9702  -3.8384
    -3.7270  -3.7000  -3.6674  -3.4973  -3.4111  -3.3248  -3.2488  -3.2245
    -3.1475  -2.9986  -2.8657  -2.8158  -2.7237  -2.7104  -2.6605  -2.6575
    -2.4975  -2.4701  -2.1849  -2.0242  -1.8751  -1.7721  -0.8254  -0.7549
     0.1236   0.2036   0.3333   0.4188   0.5184   0.5302   3.9908   4.1187
     4.2465   4.2661   6.0741   6.1695   6.4157   6.7449   7.1596   7.2744
     7.5780   7.7758   7.9017   8.1199   8.2440

          k = 0.0000 0.3157 0.0852 ( 57093 PWs)   bands (ev):

   -21.3782 -21.3765 -20.1584 -20.1570 -19.5561 -19.5549 -19.3268 -19.3210
   -14.1177 -14.0872 -13.6187 -13.5516 -12.8372 -12.7965 -12.1524 -12.1200
   -11.7627 -11.7455 -10.3324 -10.2306  -9.0840  -8.9391  -8.3557  -8.2356
    -7.7248  -7.6891  -7.6462  -7.6299  -6.5911  -6.5497  -5.9292  -5.8952
    -5.6249  -5.4879  -5.1680  -5.0858  -4.9867  -4.9166  -4.8137  -4.6805
    -4.4814  -4.3254  -4.3140  -4.1227  -4.0912  -3.9842  -3.8871  -3.8064
    -3.7193  -3.6689  -3.6153  -3.5475  -3.4109  -3.3615  -3.2626  -3.2270
    -3.1729  -3.1028  -2.9432  -2.7838  -2.7355  -2.7061  -2.6751  -2.6246
    -2.4887  -2.4039  -2.1848  -2.1203  -1.8474  -1.7569  -0.8333  -0.7542
     0.0603   0.2224   0.3352   0.3675   0.5024   0.5924   3.9468   4.0894
     4.2815   4.3223   6.2160   6.4071   6.5999   6.9728   7.1185   7.2660
     7.4518   7.6958   7.9040   7.9622   8.1829

          k = 0.0000 0.3157-0.1687 ( 57090 PWs)   bands (ev):

   -21.3781 -21.3765 -20.1582 -20.1573 -19.5561 -19.5549 -19.3271 -19.3208
   -14.1087 -14.0968 -13.6176 -13.5520 -12.8414 -12.7921 -12.1700 -12.1021
   -11.7649 -11.7423 -10.3458 -10.2172  -9.1173  -8.9057  -8.3587  -8.2315
    -7.7176  -7.6923  -7.6581  -7.6219  -6.5758  -6.5612  -5.9318  -5.8899
    -5.6400  -5.4987  -5.1559  -5.0805  -4.9815  -4.8886  -4.8481  -4.7008
    -4.5198  -4.3374  -4.2573  -4.2037  -3.9984  -3.9370  -3.9110  -3.7852
    -3.6986  -3.6742  -3.6551  -3.5123  -3.3836  -3.3269  -3.2818  -3.2464
    -3.2209  -3.1741  -2.9350  -2.7711  -2.7431  -2.6812  -2.6523  -2.6217
    -2.4933  -2.4219  -2.2074  -2.0885  -1.8609  -1.7498  -0.8576  -0.7286
     0.0486   0.2459   0.3050   0.3995   0.4898   0.5894   3.9631   4.0693
     4.2514   4.3563   6.2737   6.3807   6.6210   6.8823   7.0329   7.3867
     7.4955   7.6720   7.8205   7.8875   8.1953

          k = 0.3333 0.0493 0.0391 ( 57037 PWs)   bands (ev):

   -21.3737 -21.3720 -20.1495 -20.1482 -19.5820 -19.5807 -19.3231 -19.3151
   -14.1251 -14.0686 -13.5922 -13.4891 -12.8403 -12.7952 -12.1920 -12.1136
   -11.7815 -11.7524 -10.3889 -10.2734  -9.0942  -8.9904  -8.3678  -8.2318
    -7.7690  -7.7562  -7.3164  -7.2904  -6.7727  -6.7379  -5.9194  -5.8696
    -5.6582  -5.5844  -5.1971  -5.0727  -4.9276  -4.8375  -4.7364  -4.6961
    -4.4653  -4.4418  -4.3578  -4.2608  -4.0438  -4.0250  -3.9633  -3.8071
    -3.6725  -3.6040  -3.5752  -3.5203  -3.4230  -3.3487  -3.2709  -3.1727
    -3.1202  -3.1053  -3.0744  -2.9416  -2.7430  -2.7059  -2.6115  -2.6009
    -2.5449  -2.4391  -2.1298  -2.0278  -1.8320  -1.7695  -0.7993  -0.7219
     0.0885   0.2627   0.3780   0.4252   0.5349   0.5511   3.9698   4.0655
     4.1529   4.2479   6.2151   6.4174   6.6306   6.8403   7.0309   7.2174
     7.5126   7.6989   7.8131   7.9320   8.1446

          k = 0.3333 0.0493-0.2148 ( 57024 PWs)   bands (ev):

   -21.3738 -21.3720 -20.1493 -20.1484 -19.5825 -19.5802 -19.3227 -19.3156
   -14.1066 -14.0898 -13.5835 -13.4949 -12.8263 -12.8105 -12.1679 -12.1364
   -11.8044 -11.7302 -10.3975 -10.2620  -9.0562  -9.0305  -8.3727  -8.2262
    -7.7861  -7.7428  -7.3273  -7.2783  -6.7823  -6.7246  -5.9116  -5.8680
    -5.7403  -5.5394  -5.1271  -5.1032  -4.8963  -4.8506  -4.8004  -4.6874
    -4.4802  -4.4238  -4.2528  -4.2427  -4.1355  -4.0285  -3.9071  -3.7960
    -3.6945  -3.6472  -3.6039  -3.4932  -3.4343  -3.3611  -3.2687  -3.2110
    -3.1352  -3.1058  -3.0416  -2.9087  -2.7476  -2.7149  -2.6797  -2.5758
    -2.5051  -2.4255  -2.1263  -2.0311  -1.8210  -1.7765  -0.7993  -0.7215
     0.0814   0.2879   0.3925   0.4117   0.4835   0.5835   3.9943   4.0391
     4.1545   4.2463   6.1955   6.4674   6.5185   6.9357   7.0819   7.3586
     7.4683   7.5237   7.8486   8.0495   8.1251

          k = 0.3333 0.3650 0.1242 ( 57070 PWs)   bands (ev):

   -21.3708 -21.3695 -20.1548 -20.1534 -19.5820 -19.5807 -19.3204 -19.3151
   -14.1026 -14.0673 -13.5748 -13.5115 -12.8596 -12.8162 -12.1975 -12.1456
   -11.7992 -11.7186 -10.2960 -10.2484  -9.1181  -9.0170  -8.3574  -8.2361
    -7.8111  -7.7616  -7.3231  -7.2782  -6.7781  -6.6958  -5.8898  -5.8376
    -5.6777  -5.5477  -5.1761  -5.1590  -5.0008  -4.8281  -4.7301  -4.6590
    -4.5863  -4.4091  -4.3078  -4.2103  -4.0437  -3.9687  -3.8752  -3.8459
    -3.7357  -3.6060  -3.5619  -3.5089  -3.4062  -3.3964  -3.3564  -3.2599
    -3.2081  -3.1404  -2.9061  -2.8689  -2.7770  -2.7043  -2.6580  -2.6367
    -2.4958  -2.4153  -2.1659  -2.0602  -1.7932  -1.7517  -0.7792  -0.7264
     0.0400   0.2600   0.3894   0.4217   0.5438   0.6211   3.8797   4.0174
     4.2474   4.2690   6.3574   6.5248   6.8376   6.9375   7.0474   7.3547
     7.4322   7.4651   7.6284   7.9602   8.0487

          k = 0.3333 0.3650-0.1296 ( 57108 PWs)   bands (ev):

   -21.3708 -21.3694 -20.1544 -20.1538 -19.5821 -19.5806 -19.3208 -19.3148
   -14.0932 -14.0774 -13.5717 -13.5138 -12.8521 -12.8252 -12.2048 -12.1378
   -11.7652 -11.7517 -10.2890 -10.2553  -9.1406  -8.9928  -8.3623  -8.2343
    -7.8063  -7.7630  -7.3182  -7.2833  -6.7570  -6.7167  -5.8777  -5.8552
    -5.6945  -5.5414  -5.2122  -5.0903  -5.0075  -4.8184  -4.7664  -4.6270
    -4.6040  -4.4077  -4.2781  -4.2575  -4.0745  -3.9097  -3.8635  -3.7899
    -3.7472  -3.6142  -3.5847  -3.5277  -3.4523  -3.3847  -3.3597  -3.3072
    -3.1893  -3.1308  -2.8752  -2.8479  -2.7818  -2.7127  -2.6613  -2.6347
    -2.4838  -2.4205  -2.1423  -2.0802  -1.8244  -1.7327  -0.7965  -0.7034
     0.0285   0.2857   0.3809   0.4282   0.5236   0.6269   3.9267   3.9668
     4.1943   4.3196   6.2887   6.6041   6.8951   6.9913   7.0835   7.2600
     7.3219   7.5077   7.6556   7.7027   8.0919

          k = 0.3333-0.2664-0.0461 ( 57092 PWs)   bands (ev):

   -21.3709 -21.3694 -20.1544 -20.1542 -19.5817 -19.5801 -19.3210 -19.3150
   -14.0974 -14.0736 -13.5751 -13.5115 -12.8330 -12.8230 -12.1898 -12.1422
   -11.8271 -11.7366 -10.3494 -10.2211  -9.0857  -9.0099  -8.3535  -8.2471
    -7.7624  -7.7261  -7.3325  -7.2640  -6.7620  -6.6931  -5.9386  -5.8763
    -5.6465  -5.5926  -5.2371  -5.0779  -5.0401  -4.8331  -4.7194  -4.6514
    -4.5887  -4.4391  -4.2987  -4.1653  -4.0933  -4.0016  -3.9177  -3.8392
    -3.6983  -3.6562  -3.5926  -3.4768  -3.3831  -3.3647  -3.2886  -3.2799
    -3.2308  -3.1578  -2.8965  -2.8292  -2.7942  -2.7430  -2.6776  -2.6069
    -2.4977  -2.3993  -2.1885  -2.0516  -1.8012  -1.7102  -0.7966  -0.7005
     0.0259   0.2859   0.4167   0.4225   0.5366   0.6303   3.9324   4.0390
     4.1979   4.2396   6.2405   6.4704   6.5900   6.9502   7.1294   7.4328
     7.4768   7.5569   7.6798   7.9844   7.9912

          k = 0.3333-0.2664-0.2999 ( 57100 PWs)   bands (ev):

   -21.3708 -21.3695 -20.1550 -20.1535 -19.5813 -19.5804 -19.3209 -19.3152
   -14.0952 -14.0759 -13.5735 -13.5134 -12.8429 -12.8123 -12.1967 -12.1389
   -11.7992 -11.7606 -10.3535 -10.2201  -9.0830  -9.0101  -8.3606  -8.2355
    -7.7640  -7.7248  -7.3303  -7.2665  -6.7575  -6.7013  -5.9473  -5.9155
    -5.6317  -5.5598  -5.1798  -5.1389  -5.0165  -4.8283  -4.7159  -4.6894
    -4.5790  -4.4329  -4.2937  -4.1842  -4.1360  -3.9923  -3.8735  -3.7764
    -3.7202  -3.6928  -3.5530  -3.5166  -3.4016  -3.3581  -3.3083  -3.2764
    -3.2108  -3.1618  -2.9238  -2.8504  -2.7571  -2.7170  -2.6840  -2.6145
    -2.4703  -2.4252  -2.2002  -2.0380  -1.7826  -1.7242  -0.7756  -0.7321
     0.0328   0.2888   0.4012   0.4448   0.5457   0.6133   3.9621   3.9997
     4.1995   4.2432   6.2067   6.5167   6.6801   6.8396   7.1616   7.3209
     7.5125   7.6089   7.6692   7.7897   7.9496

     highest occupied, lowest unoccupied level (ev):     0.6303    3.8797

!    total energy              =    -735.34687370 Ry
     Harris-Foulkes estimate   =    -735.34687370 Ry
     estimated scf accuracy    <          3.1E-09 Ry

     total all-electron energy =     -2761.403920 Ry

     The total energy is the sum of the following terms:

     one-electron contribution =    -451.49154361 Ry
     hartree contribution      =     284.57219791 Ry
     xc contribution           =    -162.12809680 Ry
     ewald contribution        =    -196.88080253 Ry
     Dispersion Correction     =      -0.24896506 Ry
     one-center paw contrib.   =    -209.16966361 Ry

     convergence has been achieved in  17 iterations

     Forces acting on atoms (cartesian axes, Ry/au):

     atom    1 type  4   force =    -0.00267831   -0.00592556   -0.00539351
     atom    2 type  4   force =     0.00267831    0.00592556    0.00539351
     atom    3 type  4   force =     0.00227980    0.00597249    0.00224556
     atom    4 type  4   force =    -0.00227980   -0.00597249   -0.00224556
     atom    5 type  4   force =    -0.00183311    0.00413643    0.00308555
     atom    6 type  4   force =     0.00183311   -0.00413643   -0.00308555
     atom    7 type  4   force =     0.00246841   -0.00017120    0.00028580
     atom    8 type  4   force =    -0.00246841    0.00017120   -0.00028580
     atom    9 type  1   force =     0.00481662   -0.00150013   -0.00091661
     atom   10 type  1   force =    -0.00481662    0.00150013    0.00091661
     atom   11 type  1   force =    -0.00601514    0.00229187   -0.00070787
     atom   12 type  1   force =     0.00601514   -0.00229187    0.00070787
     atom   13 type  1   force =     0.00230979   -0.00133054    0.00253620
     atom   14 type  1   force =    -0.00230979    0.00133054   -0.00253620
     atom   15 type  1   force =    -0.00458262   -0.00301970   -0.00015261
     atom   16 type  1   force =     0.00458262    0.00301970    0.00015261
     atom   17 type  1   force =    -0.00019865    0.00171386    0.00187395
     atom   18 type  1   force =     0.00019865   -0.00171386   -0.00187395
     atom   19 type  1   force =    -0.00345631   -0.00230704   -0.00411015
     atom   20 type  1   force =     0.00345631    0.00230704    0.00411015
     atom   21 type  1   force =     0.00565047    0.00134475    0.00046558
     atom   22 type  1   force =    -0.00565047   -0.00134475   -0.00046558
     atom   23 type  1   force =     0.00039418   -0.00251007   -0.00018536
     atom   24 type  1   force =    -0.00039418    0.00251007    0.00018536
     atom   25 type  1   force =     0.00233614    0.00048700   -0.00005655
     atom   26 type  1   force =    -0.00233614   -0.00048700    0.00005655
     atom   27 type  1   force =    -0.00047389    0.00275969    0.00039863
     atom   28 type  1   force =     0.00047389   -0.00275969   -0.00039863
     atom   29 type  3   force =     0.00281803   -0.00175318    0.00209083
     atom   30 type  3   force =    -0.00281803    0.00175318   -0.00209083
     atom   31 type  3   force =     0.00248541   -0.00060806   -0.00051011
     atom   32 type  3   force =    -0.00248541    0.00060806    0.00051011
     atom   33 type  3   force =     0.00072125    0.00129017    0.00003484
     atom   34 type  3   force =    -0.00072125   -0.00129017   -0.00003484
     atom   35 type  3   force =    -0.00159237    0.00040285   -0.00001366
     atom   36 type  3   force =     0.00159237   -0.00040285    0.00001366
     atom   37 type  3   force =    -0.00128480    0.00018712   -0.00063833
     atom   38 type  3   force =     0.00128480   -0.00018712    0.00063833
     atom   39 type  3   force =    -0.00036652   -0.00071016   -0.00018128
     atom   40 type  3   force =     0.00036652    0.00071016    0.00018128
     atom   41 type  3   force =    -0.00148183   -0.00087577   -0.00200806
     atom   42 type  3   force =     0.00148183    0.00087577    0.00200806
     atom   43 type  3   force =     0.00011641    0.00074311   -0.00020355
     atom   44 type  3   force =    -0.00011641   -0.00074311    0.00020355
     atom   45 type  3   force =    -0.00074725    0.00120038    0.00008360
     atom   46 type  3   force =     0.00074725   -0.00120038   -0.00008360
     atom   47 type  3   force =     0.00077453    0.00022474    0.00035834
     atom   48 type  3   force =    -0.00077453   -0.00022474   -0.00035834
     atom   49 type  3   force =    -0.00144323    0.00050517    0.00002619
     atom   50 type  3   force =     0.00144323   -0.00050517   -0.00002619
     atom   51 type  3   force =     0.00028096   -0.00146373    0.00047446
     atom   52 type  3   force =    -0.00028096    0.00146373   -0.00047446
     atom   53 type  3   force =    -0.00169427   -0.00154142    0.00050911
     atom   54 type  3   force =     0.00169427    0.00154142   -0.00050911
     atom   55 type  3   force =    -0.00015953   -0.00010902    0.00020729
     atom   56 type  3   force =     0.00015953    0.00010902   -0.00020729

     Total force =     0.028663     Total SCF correction =     0.000119


     Computing stress (Cartesian axis) and pressure

          total   stress  (Ry/bohr**3)                   (kbar)     P=   -4.16
  -0.00002559   0.00001367  -0.00001967         -3.76      2.01     -2.89
   0.00001367  -0.00002430  -0.00000402          2.01     -3.58     -0.59
  -0.00001967  -0.00000402  -0.00003485         -2.89     -0.59     -5.13


     Writing output data file scf.save
 
     init_run     :     14.99s CPU     15.35s WALL (       1 calls)
     electrons    :    373.98s CPU    389.10s WALL (       1 calls)
     forces       :      8.05s CPU      8.10s WALL (       1 calls)
     stress       :     27.94s CPU     27.96s WALL (       1 calls)

     Called by init_run:
     wfcinit      :      8.22s CPU      8.51s WALL (       1 calls)
     potinit      :      2.40s CPU      2.42s WALL (       1 calls)

     Called by electrons:
     c_bands      :    326.08s CPU    339.59s WALL (      17 calls)
     sum_band     :     39.34s CPU     40.74s WALL (      17 calls)
     v_of_rho     :      1.13s CPU      1.24s WALL (      18 calls)
     newd         :      2.47s CPU      2.52s WALL (      18 calls)
     PAW_pot      :      4.48s CPU      4.48s WALL (      18 calls)
     mix_rho      :      0.30s CPU      0.32s WALL (      17 calls)

     Called by c_bands:
     init_us_2    :      4.24s CPU      4.25s WALL (     370 calls)
     cegterg      :    313.24s CPU    326.64s WALL (     170 calls)

     Called by sum_band:
     sum_band:bec :      0.04s CPU      0.04s WALL (     170 calls)
     addusdens    :      2.69s CPU      2.75s WALL (      17 calls)

     Called by *egterg:
     h_psi        :    202.29s CPU    212.48s WALL (     783 calls)
     s_psi        :     26.06s CPU     26.06s WALL (     783 calls)
     g_psi        :      1.90s CPU      1.90s WALL (     603 calls)
     cdiaghg      :     18.01s CPU     18.01s WALL (     773 calls)

     Called by h_psi:
     h_psi:pot    :    200.13s CPU    210.30s WALL (     783 calls)
     h_psi:calbec :     24.14s CPU     24.25s WALL (     783 calls)
     vloc_psi     :    149.98s CPU    160.02s WALL (     783 calls)
     add_vuspsi   :     26.01s CPU     26.02s WALL (     783 calls)

     General routines
     calbec       :     35.23s CPU     35.37s WALL (    1003 calls)
     fft          :      0.71s CPU      0.89s WALL (     258 calls)
     fftw         :    159.18s CPU    169.79s WALL (  112664 calls)
 
     Parallel routines
     fft_scatter  :     41.52s CPU     48.23s WALL (  112922 calls)
 
     PWSCF        :  7m 9.27s CPU     7m25.84s WALL

 
   This run was terminated on:   7:26:24  10Dec2017            

=------------------------------------------------------------------------------=
   JOB DONE.
=------------------------------------------------------------------------------=
