
     Program PWSCF v.6.1 (svn rev. 13369) starts on  4Nov2017 at  9:51:41 

     This program is part of the open-source Quantum ESPRESSO suite
     for quantum simulation of materials; please cite
         "P. Giannozzi et al., J. Phys.:Condens. Matter 21 395502 (2009);
          URL http://www.quantum-espresso.org", 
     in publications or presentations arising from this work. More details at
     http://www.quantum-espresso.org/quote

     Parallel version (MPI), running on     8 processors
     R & G space division:  proc/nbgrp/npool/nimage =       8
     Waiting for input...
     Reading input from standard input

     Current dimensions of program PWSCF are:
     Max number of different atomic species (ntypx) = 10
     Max number of k-points (npk) =  40000
     Max angular momentum in pseudopotentials (lmaxx) =  3
               file C.pbe-n-kjpaw_psl.0.1.UPF: wavefunction(s)  2P renormalized
               file N.pbe-n-kjpaw_psl.0.1.UPF: wavefunction(s)  2P renormalized
               file H.pbe-kjpaw_psl.0.1.UPF: wavefunction(s)  1S renormalized
               file O.pbe-n-kjpaw_psl.0.1.UPF: wavefunction(s)  2P renormalized

     -------------------------------------
     Parameters for Dispersion Correction:
     -------------------------------------
       atom      VdW radius       C_6     

        C          2.744         60.710
        N          2.640         42.670
        H          1.892          4.857
        O          2.536         24.284

     Subspace diagonalization in iterative solution of the eigenvalue problem:
     a serial algorithm will be used

 
     Parallelization info
     --------------------
     sticks:   dense  smooth     PW     G-vecs:    dense   smooth      PW
     Min        1201    1201    318               141776   141776   19310
     Max        1202    1202    319               141779   141779   19313
     Sum        9613    9613   2549              1134221  1134221  154491
 


     bravais-lattice index     =            0
     lattice parameter (alat)  =      17.3855  a.u.
     unit-cell volume          =    8396.2244 (a.u.)^3
     number of atoms/cell      =          144
     number of atomic types    =            4
     number of electrons       =       408.00
     number of Kohn-Sham states=          244
     kinetic-energy cutoff     =     100.0000  Ry
     charge density cutoff     =     400.0000  Ry
     convergence threshold     =      1.0E-08
     mixing beta               =       0.5000
     number of iterations used =            8  plain     mixing
     Exchange-correlation      =  SLA  PW   PBX  PBC ( 1  4  3  4 0 0)

     celldm(1)=  17.385480  celldm(2)=   0.000000  celldm(3)=   0.000000
     celldm(4)=   0.000000  celldm(5)=   0.000000  celldm(6)=   0.000000

     crystal axes: (cart. coord. in units of alat)
               a(1) = (   1.000000   0.000000   0.000000 )  
               a(2) = (   0.000000   0.997283   0.000000 )  
               a(3) = (  -0.208369   0.000000   1.602159 )  

     reciprocal axes: (cart. coord. in units 2 pi/alat)
               b(1) = (  1.000000  0.000000  0.130055 )  
               b(2) = (  0.000000  1.002725  0.000000 )  
               b(3) = (  0.000000  0.000000  0.624158 )  


     PseudoPot. # 1 for  C read from file:
     /scratch/ahofstet/pseudo/C.pbe-n-kjpaw_psl.0.1.UPF
     MD5 check sum: 430fe95172b1e11ef3f8ed03bac87931
     Pseudo is Projector augmented-wave + core cor, Zval =  4.0
     Generated using "atomic" code by A. Dal Corso  v.5.0.99 svn rev. 10869
     Shape of augmentation charge: BESSEL
     Using radial grid of 1073 points,  4 beta functions with: 
                l(1) =   0
                l(2) =   0
                l(3) =   1
                l(4) =   1
     Q(r) pseudized with 0 coefficients 


     PseudoPot. # 2 for  N read from file:
     /scratch/ahofstet/pseudo/N.pbe-n-kjpaw_psl.0.1.UPF
     MD5 check sum: f73187c8b701007e77325f868c9291d7
     Pseudo is Projector augmented-wave + core cor, Zval =  5.0
     Generated using "atomic" code by A. Dal Corso  v.5.0.99 svn rev. 10869
     Shape of augmentation charge: PSQ
     Using radial grid of 1085 points,  4 beta functions with: 
                l(1) =   0
                l(2) =   0
                l(3) =   1
                l(4) =   1
     Q(r) pseudized with 0 coefficients 


     PseudoPot. # 3 for  H read from file:
     /scratch/ahofstet/pseudo/H.pbe-kjpaw_psl.0.1.UPF
     MD5 check sum: 94e484f906d9e9773b2f6e52662335b2
     Pseudo is Projector augmented-wave, Zval =  1.0
     Generated using "atomic" code by A. Dal Corso  v.5.0.99 svn rev. 10869
     Shape of augmentation charge: PSQ
     Using radial grid of  929 points,  2 beta functions with: 
                l(1) =   0
                l(2) =   0
     Q(r) pseudized with 0 coefficients 


     PseudoPot. # 4 for  O read from file:
     /scratch/ahofstet/pseudo/O.pbe-n-kjpaw_psl.0.1.UPF
     MD5 check sum: 3f94a2996a3169367d6eb21d9b593f20
     Pseudo is Projector augmented-wave + core cor, Zval =  6.0
     Generated using "atomic" code by A. Dal Corso  v.5.0.99 svn rev. 10869
     Shape of augmentation charge: BESSEL
     Using radial grid of 1095 points,  4 beta functions with: 
                l(1) =   0
                l(2) =   0
                l(3) =   1
                l(4) =   1
     Q(r) pseudized with 0 coefficients 


     atomic species   valence    mass     pseudopotential
        C              4.00    12.01070      C( 1.00)
        N              5.00    14.00670      N( 1.00)
        H              1.00     1.00794      H( 1.00)
        O              6.00    15.99940      O( 1.00)

      4 Sym. Ops., with inversion, found ( 2 have fractional translation)



   Cartesian axes

     site n.     atom                  positions (alat units)
         1           O   tau(   1) = (   0.6063142   0.4867108   1.2306866  )
         2           O   tau(   2) = (   0.0811330   0.9853521   1.1725523  )
         3           O   tau(   3) = (   0.1853172   0.5105718   0.3714727  )
         4           O   tau(   4) = (   0.7104985   0.0119305   0.4296070  )
         5           O   tau(   5) = (   0.7789304   0.3137830   1.2309909  )
         6           O   tau(   6) = (  -0.0914831   0.8124243   1.1722481  )
         7           O   tau(   7) = (   0.0127011   0.6834996   0.3711684  )
         8           O   tau(   8) = (   0.8831146   0.1848583   0.4299112  )
         9           O   tau(   9) = (   0.5797611   0.1148819   1.2311411  )
        10           O   tau(  10) = (   0.1076861   0.6135232   1.1720979  )
        11           O   tau(  11) = (   0.2118704   0.8824007   0.3710182  )
        12           O   tau(  12) = (   0.6839454   0.3837594   0.4300615  )
        13           O   tau(  13) = (   0.4070569   0.2876833   1.2309405  )
        14           O   tau(  14) = (   0.2803904   0.7863246   1.1722984  )
        15           O   tau(  15) = (   0.3845746   0.7095993   0.3712188  )
        16           O   tau(  16) = (   0.5112411   0.2109580   0.4298609  )
        17           O   tau(  17) = (   0.4943043   0.3994279   1.0173786  )
        18           O   tau(  18) = (   0.1931430   0.8980692   1.3858604  )
        19           O   tau(  19) = (   0.2973272   0.5978547   0.5847807  )
        20           O   tau(  20) = (   0.5984885   0.0992134   0.2162990  )
        21           O   tau(  21) = (   0.6919555   0.2015521   1.0176434  )
        22           O   tau(  22) = (  -0.0045083   0.7001934   1.3855956  )
        23           O   tau(  23) = (   0.0996760   0.7957306   0.5845159  )
        24           O   tau(  24) = (   0.7961398   0.2970892   0.2165638  )
        25           C   tau(  25) = (   0.6248048   0.4540808   1.0801889  )
        26           C   tau(  26) = (   0.0626425   0.9527221   1.3230501  )
        27           C   tau(  27) = (   0.1668267   0.5432018   0.5219705  )
        28           C   tau(  28) = (   0.7289890   0.0445605   0.2791092  )
        29           C   tau(  29) = (   0.7465855   0.3322610   1.0805312  )
        30           C   tau(  30) = (  -0.0591383   0.8309023   1.3227077  )
        31           C   tau(  31) = (   0.0450460   0.6650216   0.5216281  )
        32           C   tau(  32) = (   0.8507697   0.1663803   0.2794516  )
        33           C   tau(  33) = (   0.5611876   0.1472254   1.0806458  )
        34           C   tau(  34) = (   0.1262596   0.6458667   1.3225932  )
        35           C   tau(  35) = (   0.2304438   0.8500572   0.5215135  )
        36           C   tau(  36) = (   0.6653719   0.3514159   0.2795661  )
        37           C   tau(  37) = (   0.4395225   0.2691041   1.0803763  )
        38           C   tau(  38) = (   0.2479247   0.7677454   1.3228627  )
        39           C   tau(  39) = (   0.3521090   0.7281785   0.5217830  )
        40           C   tau(  40) = (   0.5437068   0.2295372   0.2792967  )
        41           C   tau(  41) = (   0.5304497   0.2385153   1.3104505  )
        42           C   tau(  42) = (   0.1569976   0.7371566   1.0927885  )
        43           C   tau(  43) = (   0.2611818   0.7587673   0.2917088  )
        44           C   tau(  44) = (   0.6346339   0.2601260   0.5093708  )
        45           C   tau(  45) = (   0.6554226   0.3633662   1.3102938  )
        46           C   tau(  46) = (   0.0320247   0.8620075   1.0929451  )
        47           C   tau(  47) = (   0.1362089   0.6339164   0.2918655  )
        48           C   tau(  48) = (   0.7596068   0.1352751   0.5092142  )
        49           C   tau(  49) = (   0.6593190   0.5933748   1.0004117  )
        50           C   tau(  50) = (   0.0281282   0.0947335   1.4028273  )
        51           C   tau(  51) = (   0.1323124   0.4039078   0.6017476  )
        52           C   tau(  52) = (   0.7635033   0.9025491   0.1993321  )
        53           C   tau(  53) = (  -0.1138500   0.3670924   1.0012423  )
        54           C   tau(  54) = (   0.8012972   0.8657337   1.4019967  )
        55           C   tau(  55) = (   0.9054815   0.6301902   0.6009171  )
        56           C   tau(  56) = (  -0.0096657   0.1315489   0.2001626  )
        57           C   tau(  57) = (   0.5256885   0.0079362   1.0012298  )
        58           C   tau(  58) = (   0.1617588   0.5065775   1.4020092  )
        59           C   tau(  59) = (   0.2659430   0.9893464   0.6009295  )
        60           C   tau(  60) = (   0.6298727   0.4907051   0.2001502  )
        61           C   tau(  61) = (   0.3000914   0.2346012   1.0007807  )
        62           C   tau(  62) = (   0.3873558   0.7332426   1.4024582  )
        63           C   tau(  63) = (   0.4915401   0.7626814   0.6013786  )
        64           C   tau(  64) = (   0.4042757   0.2640401   0.1997011  )
        65           C   tau(  65) = (   0.4812618   0.1899542   1.4592364  )
        66           C   tau(  66) = (   0.2061854   0.6885955   0.9440026  )
        67           C   tau(  67) = (   0.3103697   0.8073284   0.1429230  )
        68           C   tau(  68) = (   0.5854461   0.3086871   0.6581567  )
        69           C   tau(  69) = (   0.7046517   0.4130140   1.4587188  )
        70           C   tau(  70) = (  -0.0172045   0.9116553   0.9445202  )
        71           C   tau(  71) = (   0.0869798   0.5842686   0.1434405  )
        72           C   tau(  72) = (   0.8088359   0.0856273   0.6576391  )
        73           H   tau(  73) = (   0.7568101   0.6438062   1.0465180  )
        74           H   tau(  74) = (  -0.0693629   0.1451649   1.3567210  )
        75           H   tau(  75) = (   0.0348214   0.3534764   0.5556413  )
        76           H   tau(  76) = (   0.8609943   0.8521177   0.2454384  )
        77           H   tau(  77) = (   0.5670998   0.6676703   1.0143687  )
        78           H   tau(  78) = (   0.1203474   0.1690290   1.3888703  )
        79           H   tau(  79) = (   0.2245317   0.3296123   0.5877906  )
        80           H   tau(  80) = (   0.6712841   0.8282536   0.2132890  )
        81           H   tau(  81) = (   0.6747215   0.5719703   0.8840915  )
        82           H   tau(  82) = (   0.0127257   0.0733290   1.5191474  )
        83           H   tau(  83) = (   0.1169100   0.4253123   0.7180678  )
        84           H   tau(  84) = (   0.7789058   0.9239536   0.0830119  )
        85           H   tau(  85) = (   0.8646949   0.3857464   0.8853419  )
        86           H   tau(  86) = (  -0.1772477   0.8843878   1.5178971  )
        87           H   tau(  87) = (  -0.0730634   0.6115362   0.7168175  )
        88           H   tau(  88) = (   0.9688791   0.1128949   0.0842622  )
        89           H   tau(  89) = (  -0.0397882   0.2743701   1.0130644  )
        90           H   tau(  90) = (   0.7272354   0.7730114   1.3901746  )
        91           H   tau(  91) = (   0.8314197   0.7229125   0.5890949  )
        92           H   tau(  92) = (   0.0643961   0.2242712   0.2119848  )
        93           H   tau(  93) = (  -0.0629067   0.4635015   1.0490609  )
        94           H   tau(  94) = (   0.7503539   0.9621428   1.3541781  )
        95           H   tau(  95) = (   0.8545382   0.5337811   0.5530984  )
        96           H   tau(  96) = (   0.0412775   0.0351398   0.2479813  )
        97           H   tau(  97) = (   0.5064383   0.0298587   0.8855169  )
        98           H   tau(  98) = (   0.1810089   0.5285000   1.5177221  )
        99           H   tau(  99) = (   0.2851932   0.9674239   0.7166424  )
       100           H   tau( 100) = (   0.6106226   0.4687826   0.0844373  )
       101           H   tau( 101) = (   0.4293335   0.9545439   1.0494119  )
       102           H   tau( 102) = (   0.2581137   0.4559026   1.3538270  )
       103           H   tau( 103) = (   0.3622980   0.0427387   0.5527474  )
       104           H   tau( 104) = (   0.5335178   0.5413800   0.2483323  )
       105           H   tau( 105) = (   0.6181488   0.9307472   1.0122641  )
       106           H   tau( 106) = (   0.0692984   0.4321059   1.3909749  )
       107           H   tau( 107) = (   0.1734827   0.0665354   0.5898952  )
       108           H   tau( 108) = (   0.7223331   0.5651767   0.2111844  )
       109           H   tau( 109) = (   0.2501410   0.1366345   1.0463644  )
       110           H   tau( 110) = (   0.4373063   0.6352758   1.3568746  )
       111           H   tau( 111) = (   0.5414905   0.8606481   0.5557949  )
       112           H   tau( 112) = (   0.3543252   0.3620068   0.2452847  )
       113           H   tau( 113) = (   0.3212174   0.2200283   0.8843045  )
       114           H   tau( 114) = (   0.3662298   0.7186697   1.5189345  )
       115           H   tau( 115) = (   0.4704140   0.7772543   0.7178549  )
       116           H   tau( 116) = (   0.4254017   0.2786130   0.0832248  )
       117           H   tau( 117) = (   0.2253772   0.3263588   1.0155373  )
       118           H   tau( 118) = (   0.4620701   0.8250001   1.3877017  )
       119           H   tau( 119) = (   0.5662543   0.6709238   0.5866221  )
       120           H   tau( 120) = (   0.3295614   0.1722825   0.2144576  )
       121           H   tau( 121) = (   0.5729602   0.1485201   1.5229509  )
       122           H   tau( 122) = (   0.1144870   0.6471614   0.8802881  )
       123           H   tau( 123) = (   0.2186713   0.8487625   0.0792084  )
       124           H   tau( 124) = (   0.6771445   0.3501212   0.7218713  )
       125           H   tau( 125) = (   0.3992927   0.1043102   1.4466100  )
       126           H   tau( 126) = (   0.2881546   0.6029515   0.9566290  )
       127           H   tau( 127) = (   0.3923388   0.8929724   0.1555493  )
       128           H   tau( 128) = (   0.5034769   0.3943311   0.6455303  )
       129           H   tau( 129) = (   0.4343954   0.2812779   1.5196860  )
       130           H   tau( 130) = (   0.2530518   0.7799192   0.8835530  )
       131           H   tau( 131) = (   0.3572361   0.7160047   0.0824734  )
       132           H   tau( 132) = (   0.5385797   0.2173634   0.7186063  )
       133           H   tau( 133) = (   0.6133224   0.4575929   1.5209201  )
       134           H   tau( 134) = (   0.0741248   0.9562342   0.8823189  )
       135           H   tau( 135) = (   0.1783091   0.5396897   0.0812392  )
       136           H   tau( 136) = (   0.7175067   0.0410484   0.7198405  )
       137           H   tau( 137) = (   0.7880227   0.4970138   1.4442646  )
       138           H   tau( 138) = (  -0.1005755   0.9956551   0.9589744  )
       139           H   tau( 139) = (   0.0036088   0.5002688   0.1578947  )
       140           H   tau( 140) = (   0.8922069   0.0016275   0.6431849  )
       141           H   tau( 141) = (   0.7499801   0.3221716   1.5210686  )
       142           H   tau( 142) = (  -0.0625329   0.8208129   0.8821704  )
       143           H   tau( 143) = (   0.0416514   0.6751110   0.0810907  )
       144           H   tau( 144) = (   0.8541644   0.1764697   0.7199890  )

     number of k points=     8
                       cart. coord. in units 2pi/alat
        k(    1) = (   0.0000000   0.0000000   0.0000000), wk =   0.2500000
        k(    2) = (   0.0000000   0.0000000  -0.3120788), wk =   0.2500000
        k(    3) = (   0.0000000  -0.5013624   0.0000000), wk =   0.2500000
        k(    4) = (   0.0000000  -0.5013624  -0.3120788), wk =   0.2500000
        k(    5) = (  -0.5000000   0.0000000  -0.0650274), wk =   0.2500000
        k(    6) = (  -0.5000000   0.0000000  -0.3771062), wk =   0.2500000
        k(    7) = (  -0.5000000  -0.5013624  -0.0650274), wk =   0.2500000
        k(    8) = (  -0.5000000  -0.5013624  -0.3771062), wk =   0.2500000

     Dense  grid:  1134221 G-vectors     FFT dimensions: ( 120, 120, 180)

     Estimated max dynamical RAM per process >    1434.23MB

     Estimated total allocated dynamical RAM >   11473.86MB

     Check: negative/imaginary core charge=   -0.000002    0.000000

     Initial potential from superposition of free atoms

     starting charge  407.99728, renormalised to  408.00000
     Starting wfc are  360 randomized atomic wfcs
     Checking if some PAW data can be deallocated... 

     total cpu time spent up to now is       98.2 secs

     per-process dynamical memory:   942.0 Mb

     Self-consistent Calculation

     iteration #  1     ecut=   100.00 Ry     beta=0.50
     Davidson diagonalization with overlap
     ethr =  1.00E-02,  avg # of iterations =  4.8

     total cpu time spent up to now is      403.0 secs

     total energy              =   -1967.61845900 Ry
     Harris-Foulkes estimate   =   -1975.45228739 Ry
     estimated scf accuracy    <      14.91300938 Ry

     iteration #  2     ecut=   100.00 Ry     beta=0.50
     Davidson diagonalization with overlap
     ethr =  3.66E-03,  avg # of iterations =  2.2

     total cpu time spent up to now is      553.9 secs

     total energy              =   -1968.68715534 Ry
     Harris-Foulkes estimate   =   -1969.27459003 Ry
     estimated scf accuracy    <       1.36656677 Ry

     iteration #  3     ecut=   100.00 Ry     beta=0.50
     Davidson diagonalization with overlap
     ethr =  3.35E-04,  avg # of iterations =  5.0

     total cpu time spent up to now is      911.3 secs

     total energy              =   -1970.55005247 Ry
     Harris-Foulkes estimate   =   -1971.32503730 Ry
     estimated scf accuracy    <       2.62535727 Ry

     iteration #  4     ecut=   100.00 Ry     beta=0.50
     Davidson diagonalization with overlap
     ethr =  3.35E-04,  avg # of iterations =  1.2

     total cpu time spent up to now is     1054.0 secs

     total energy              =   -1969.67116121 Ry
     Harris-Foulkes estimate   =   -1970.60110988 Ry
     estimated scf accuracy    <       1.25945782 Ry

     iteration #  5     ecut=   100.00 Ry     beta=0.50
     Davidson diagonalization with overlap
     ethr =  3.09E-04,  avg # of iterations =  5.0

     total cpu time spent up to now is     1396.6 secs

     total energy              =   -1969.83382455 Ry
     Harris-Foulkes estimate   =   -1972.00159262 Ry
     estimated scf accuracy    <       4.81636053 Ry

     iteration #  6     ecut=   100.00 Ry     beta=0.50
     Davidson diagonalization with overlap
     ethr =  3.09E-04,  avg # of iterations =  4.1

     total cpu time spent up to now is     1637.9 secs

     total energy              =   -1970.47043443 Ry
     Harris-Foulkes estimate   =   -1970.51016222 Ry
     estimated scf accuracy    <       0.10444651 Ry

     iteration #  7     ecut=   100.00 Ry     beta=0.50
     Davidson diagonalization with overlap
     ethr =  2.56E-05,  avg # of iterations = 11.1

     total cpu time spent up to now is     1848.5 secs

     total energy              =   -1970.46893367 Ry
     Harris-Foulkes estimate   =   -1970.47992439 Ry
     estimated scf accuracy    <       0.02812327 Ry

     iteration #  8     ecut=   100.00 Ry     beta=0.50
     Davidson diagonalization with overlap
     ethr =  6.89E-06,  avg # of iterations =  7.6

     total cpu time spent up to now is     2176.7 secs

     total energy              =   -1970.48445413 Ry
     Harris-Foulkes estimate   =   -1970.48550882 Ry
     estimated scf accuracy    <       0.00191691 Ry

     iteration #  9     ecut=   100.00 Ry     beta=0.50
     Davidson diagonalization with overlap
     ethr =  4.70E-07,  avg # of iterations =  3.5

     total cpu time spent up to now is     2333.7 secs

     total energy              =   -1970.48451497 Ry
     Harris-Foulkes estimate   =   -1970.48467844 Ry
     estimated scf accuracy    <       0.00023558 Ry

     iteration # 10     ecut=   100.00 Ry     beta=0.50
     Davidson diagonalization with overlap
     ethr =  5.77E-08,  avg # of iterations =  4.2

     total cpu time spent up to now is     2683.1 secs

     total energy              =   -1970.48459081 Ry
     Harris-Foulkes estimate   =   -1970.48547183 Ry
     estimated scf accuracy    <       0.00166052 Ry

     iteration # 11     ecut=   100.00 Ry     beta=0.50
     Davidson diagonalization with overlap
     ethr =  5.77E-08,  avg # of iterations =  4.0

     total cpu time spent up to now is     3016.0 secs

     total energy              =   -1970.48496204 Ry
     Harris-Foulkes estimate   =   -1970.48498237 Ry
     estimated scf accuracy    <       0.00003206 Ry

     iteration # 12     ecut=   100.00 Ry     beta=0.50
     Davidson diagonalization with overlap
     ethr =  7.86E-09,  avg # of iterations =  5.0

     total cpu time spent up to now is     3199.4 secs

     total energy              =   -1970.48497051 Ry
     Harris-Foulkes estimate   =   -1970.48497036 Ry
     estimated scf accuracy    <       0.00000106 Ry

     iteration # 13     ecut=   100.00 Ry     beta=0.50
     Davidson diagonalization with overlap
     ethr =  2.61E-10,  avg # of iterations =  4.5

     total cpu time spent up to now is     3532.9 secs

     total energy              =   -1970.48497125 Ry
     Harris-Foulkes estimate   =   -1970.48497611 Ry
     estimated scf accuracy    <       0.00001003 Ry

     iteration # 14     ecut=   100.00 Ry     beta=0.50
     Davidson diagonalization with overlap
     ethr =  2.61E-10,  avg # of iterations =  4.0

     total cpu time spent up to now is     3839.3 secs

     total energy              =   -1970.48497295 Ry
     Harris-Foulkes estimate   =   -1970.48497296 Ry
     estimated scf accuracy    <       0.00000004 Ry

     iteration # 15     ecut=   100.00 Ry     beta=0.50
     Davidson diagonalization with overlap
     ethr =  9.56E-12,  avg # of iterations =  2.0

     total cpu time spent up to now is     3990.1 secs

     End of self-consistent calculation

          k = 0.0000 0.0000 0.0000 (141801 PWs)   bands (ev):

   -22.2642 -22.2634 -22.2564 -22.2557 -20.9896 -20.9895 -20.9895 -20.9894
   -20.2764 -20.2764 -20.2762 -20.2762 -19.8423 -19.8392 -19.8378 -19.8354
   -18.6714 -18.6713 -18.6562 -18.6562 -18.2022 -18.2022 -18.2020 -18.2020
   -14.0891 -14.0887 -14.0819 -14.0814 -13.6019 -13.5833 -13.5824 -13.5729
   -12.3128 -12.2958 -12.2717 -12.2572 -12.1446 -12.0407 -12.0117 -12.0096
   -11.6354 -11.6324 -11.5799 -11.5772 -11.3079 -11.3071 -11.3064 -11.3058
    -9.8676  -9.6741  -9.6234  -9.6150  -9.6051  -9.5838  -9.5448  -9.5445
    -9.3892  -9.3752  -9.2700  -9.2663  -8.7109  -8.6621  -8.5929  -8.5508
    -8.1623  -8.1614  -8.1605  -8.1604  -8.1248  -8.1236  -8.0666  -8.0657
    -7.2642  -7.2625  -7.2617  -7.2599  -7.2484  -7.2013  -7.1937  -7.1363
    -6.7072  -6.7012  -6.6872  -6.6735  -5.9650  -5.9609  -5.8313  -5.7515
    -4.8703  -4.8579  -4.8024  -4.7960  -4.7796  -4.7291  -4.7159  -4.6719
    -4.5812  -4.4847  -4.4779  -4.4725  -4.4579  -4.4064  -4.1982  -4.1878
    -4.1755  -4.1306  -4.0396  -4.0379  -3.8991  -3.8566  -3.7808  -3.7694
    -3.6947  -3.6605  -3.6386  -3.6297  -3.5632  -3.5624  -3.5316  -3.5313
    -3.5117  -3.4953  -3.4857  -3.4766  -3.4747  -3.4225  -3.4207  -3.3526
    -3.3296  -3.3262  -3.3137  -3.2999  -3.2998  -3.2976  -3.2467  -3.2385
    -3.2200  -3.2158  -3.2093  -3.1835  -3.1723  -3.1602  -3.1259  -2.9113
    -2.9028  -2.9027  -2.8890  -2.8832  -2.8519  -2.8433  -2.8427  -2.7551
    -2.7167  -2.6719  -2.6638  -2.6633  -2.6380  -2.6368  -2.5990  -2.5811
    -2.5088  -2.5053  -2.3718  -2.3704  -2.0534  -2.0062  -1.9786  -1.9734
    -1.8620  -1.8234  -1.8209  -1.8172  -1.8161  -1.7832  -1.7806  -1.7739
    -1.7738  -1.7377  -1.5631  -1.5544  -1.4773  -1.4755  -1.4734  -1.4725
    -0.9504  -0.9503  -0.9384  -0.9382  -0.2693  -0.2673  -0.2628  -0.2620
    -0.1269  -0.1199  -0.0319  -0.0212   0.0672   0.0868   0.1218   0.1334
     0.4585   0.4624   0.5087   0.6096   6.0198   6.1454   6.6037   6.8837
     6.8910   6.9278   7.0195   7.0460   7.0783   7.0831   7.1838   7.2904
     7.2991   7.3455   7.5447   7.5726   7.6060   7.6710   7.8634   7.8942
     7.9259   7.9394   7.9585   7.9891   8.0241   8.1072   8.1675   8.2116
     8.2304   8.2781   8.3761   8.4354   8.4494   8.4584   8.5221   8.5239
     8.5959   8.6121   8.6886   8.6943

          k = 0.0000 0.0000-0.3121 (141778 PWs)   bands (ev):

   -22.2638 -22.2638 -22.2561 -22.2561 -20.9895 -20.9895 -20.9894 -20.9894
   -20.2764 -20.2764 -20.2762 -20.2762 -19.8407 -19.8407 -19.8366 -19.8366
   -18.6713 -18.6713 -18.6562 -18.6562 -18.2022 -18.2022 -18.2020 -18.2020
   -14.0872 -14.0872 -14.0834 -14.0834 -13.5935 -13.5935 -13.5769 -13.5769
   -12.3058 -12.3058 -12.2630 -12.2630 -12.0815 -12.0815 -12.0244 -12.0244
   -11.6276 -11.6276 -11.5854 -11.5854 -11.3068 -11.3068 -11.3063 -11.3063
    -9.7445  -9.7445  -9.6413  -9.6413  -9.5879  -9.5879  -9.5570  -9.5570
    -9.3799  -9.3799  -9.2679  -9.2679  -8.6908  -8.6908  -8.5675  -8.5675
    -8.1722  -8.1722  -8.1631  -8.1631  -8.1144  -8.1144  -8.0625  -8.0625
    -7.2630  -7.2630  -7.2600  -7.2600  -7.2280  -7.2280  -7.1669  -7.1669
    -6.7042  -6.7042  -6.6804  -6.6804  -5.9053  -5.9053  -5.8492  -5.8492
    -4.8410  -4.8410  -4.8196  -4.8196  -4.7572  -4.7572  -4.6643  -4.6643
    -4.4943  -4.4943  -4.4551  -4.4551  -4.4064  -4.4064  -4.3080  -4.3080
    -4.1889  -4.1889  -4.0820  -4.0820  -3.8559  -3.8559  -3.7214  -3.7214
    -3.6440  -3.6440  -3.6151  -3.6151  -3.5980  -3.5980  -3.5317  -3.5317
    -3.5252  -3.5252  -3.5013  -3.5013  -3.4540  -3.4540  -3.3837  -3.3837
    -3.3460  -3.3460  -3.3097  -3.3097  -3.2907  -3.2907  -3.2159  -3.2159
    -3.1945  -3.1945  -3.1885  -3.1885  -3.1654  -3.1654  -2.9971  -2.9971
    -2.9102  -2.9102  -2.8787  -2.8787  -2.8657  -2.8657  -2.8300  -2.8300
    -2.7077  -2.7077  -2.6818  -2.6818  -2.6404  -2.6404  -2.5334  -2.5334
    -2.5212  -2.5212  -2.3702  -2.3702  -1.9918  -1.9918  -1.9528  -1.9528
    -1.8656  -1.8656  -1.8175  -1.8175  -1.8097  -1.8097  -1.7838  -1.7838
    -1.7695  -1.7695  -1.5587  -1.5587  -1.4809  -1.4809  -1.4677  -1.4677
    -0.9616  -0.9616  -0.9285  -0.9285  -0.2662  -0.2662  -0.2640  -0.2640
    -0.1228  -0.1228  -0.0268  -0.0268   0.0762   0.0762   0.1285   0.1285
     0.4583   0.4583   0.5607   0.5607   6.0783   6.0783   6.8202   6.8202
     6.8868   6.8868   6.9632   6.9632   7.1158   7.1158   7.1645   7.1645
     7.3138   7.3138   7.5708   7.5708   7.6265   7.6265   7.8508   7.8508
     7.9349   7.9349   8.0794   8.0794   8.1395   8.1395   8.1711   8.1711
     8.3110   8.3110   8.3506   8.3506   8.4652   8.4652   8.5004   8.5004
     8.5572   8.5572   8.6536   8.6538

          k = 0.0000-0.5014 0.0000 (141836 PWs)   bands (ev):

   -22.2603 -22.2603 -22.2595 -22.2595 -20.9895 -20.9895 -20.9895 -20.9895
   -20.2765 -20.2765 -20.2763 -20.2763 -19.8401 -19.8401 -19.8372 -19.8372
   -18.6637 -18.6637 -18.6636 -18.6636 -18.2022 -18.2022 -18.2020 -18.2020
   -14.0903 -14.0903 -14.0893 -14.0893 -13.5890 -13.5890 -13.5769 -13.5769
   -12.2728 -12.2728 -12.2661 -12.2661 -12.0794 -12.0794 -11.9924 -11.9924
   -11.6331 -11.6331 -11.5881 -11.5881 -11.3463 -11.3463 -11.3307 -11.3307
    -9.7852  -9.7852  -9.6287  -9.6287  -9.6050  -9.6050  -9.5846  -9.5846
    -9.3137  -9.3137  -9.3047  -9.3047  -8.6041  -8.6041  -8.5824  -8.5824
    -8.1777  -8.1777  -8.1638  -8.1638  -8.1173  -8.1173  -8.0642  -8.0642
    -7.2653  -7.2653  -7.2626  -7.2626  -7.2145  -7.2145  -7.1638  -7.1638
    -6.6971  -6.6971  -6.6855  -6.6855  -5.8835  -5.8835  -5.7968  -5.7968
    -4.8697  -4.8697  -4.8495  -4.8495  -4.6840  -4.6840  -4.6612  -4.6612
    -4.5850  -4.5850  -4.4937  -4.4937  -4.4755  -4.4755  -4.1676  -4.1676
    -4.1597  -4.1597  -4.1534  -4.1534  -3.9183  -3.9183  -3.8605  -3.8605
    -3.8141  -3.8141  -3.7132  -3.7132  -3.6152  -3.6152  -3.5666  -3.5666
    -3.5265  -3.5265  -3.4767  -3.4767  -3.4499  -3.4499  -3.3752  -3.3752
    -3.2948  -3.2948  -3.2121  -3.2121  -3.2004  -3.2004  -3.1742  -3.1742
    -3.1364  -3.1364  -3.0739  -3.0739  -3.0201  -3.0201  -3.0130  -3.0130
    -2.9099  -2.9099  -2.8748  -2.8748  -2.8159  -2.8159  -2.7366  -2.7366
    -2.7077  -2.7077  -2.6398  -2.6398  -2.5641  -2.5641  -2.5392  -2.5392
    -2.5208  -2.5208  -2.5094  -2.5094  -2.0064  -2.0064  -1.9712  -1.9712
    -1.9602  -1.9602  -1.8525  -1.8525  -1.8425  -1.8425  -1.7424  -1.7424
    -1.7177  -1.7177  -1.7081  -1.7081  -1.5066  -1.5066  -1.4989  -1.4989
    -0.9627  -0.9627  -0.9428  -0.9428  -0.2732  -0.2732  -0.2676  -0.2676
    -0.0435  -0.0435  -0.0393  -0.0393   0.1065   0.1065   0.1124   0.1124
     0.4785   0.4785   0.5454   0.5454   6.3350   6.3350   6.5335   6.5335
     6.9329   6.9329   7.1139   7.1139   7.1732   7.1732   7.2909   7.2909
     7.3818   7.3818   7.4684   7.4684   7.7650   7.7650   7.8600   7.8600
     7.9228   7.9228   7.9538   7.9538   8.0710   8.0710   8.0953   8.0953
     8.1876   8.1876   8.2783   8.2783   8.3070   8.3070   8.5309   8.5309
     8.5861   8.5862   8.6601   8.6601

          k = 0.0000-0.5014-0.3121 (141780 PWs)   bands (ev):

   -22.2599 -22.2599 -22.2599 -22.2599 -20.9895 -20.9895 -20.9895 -20.9895
   -20.2765 -20.2765 -20.2763 -20.2763 -19.8387 -19.8387 -19.8386 -19.8386
   -18.6637 -18.6637 -18.6637 -18.6637 -18.2022 -18.2022 -18.2020 -18.2020
   -14.0920 -14.0920 -14.0875 -14.0875 -13.5883 -13.5883 -13.5779 -13.5779
   -12.2727 -12.2727 -12.2659 -12.2659 -12.0407 -12.0407 -12.0320 -12.0320
   -11.6386 -11.6386 -11.5852 -11.5852 -11.3460 -11.3460 -11.3304 -11.3304
    -9.7091  -9.7091  -9.6652  -9.6652  -9.6328  -9.6328  -9.5974  -9.5974
    -9.3115  -9.3115  -9.3049  -9.3049  -8.6034  -8.6034  -8.5831  -8.5831
    -8.1814  -8.1814  -8.1707  -8.1707  -8.1111  -8.1111  -8.0595  -8.0595
    -7.2657  -7.2657  -7.2615  -7.2615  -7.1952  -7.1952  -7.1873  -7.1873
    -6.6916  -6.6916  -6.6911  -6.6911  -5.8508  -5.8508  -5.8159  -5.8159
    -4.8987  -4.8987  -4.8494  -4.8494  -4.6601  -4.6601  -4.6561  -4.6561
    -4.5267  -4.5267  -4.4969  -4.4969  -4.3868  -4.3868  -4.3739  -4.3739
    -4.1838  -4.1838  -4.1823  -4.1823  -3.8667  -3.8667  -3.8001  -3.8001
    -3.7578  -3.7578  -3.7372  -3.7372  -3.6240  -3.6240  -3.6137  -3.6137
    -3.5323  -3.5323  -3.4872  -3.4872  -3.4328  -3.4328  -3.3936  -3.3936
    -3.2523  -3.2523  -3.2308  -3.2308  -3.1691  -3.1691  -3.1537  -3.1537
    -3.1165  -3.1165  -3.0980  -3.0980  -3.0365  -3.0365  -3.0190  -3.0190
    -2.9165  -2.9165  -2.8875  -2.8875  -2.7947  -2.7947  -2.7453  -2.7453
    -2.7099  -2.7099  -2.6860  -2.6860  -2.5513  -2.5513  -2.5412  -2.5412
    -2.5200  -2.5200  -2.4913  -2.4913  -1.9868  -1.9868  -1.9602  -1.9602
    -1.9067  -1.9067  -1.8704  -1.8704  -1.8384  -1.8384  -1.7988  -1.7988
    -1.7144  -1.7144  -1.7113  -1.7113  -1.5068  -1.5068  -1.4987  -1.4987
    -0.9581  -0.9581  -0.9490  -0.9490  -0.2729  -0.2729  -0.2675  -0.2675
    -0.0501  -0.0501  -0.0327  -0.0327   0.1071   0.1071   0.1118   0.1118
     0.5020   0.5020   0.5217   0.5217   6.3863   6.3863   6.4723   6.4723
     6.9686   6.9686   7.0656   7.0656   7.1875   7.1875   7.2639   7.2639
     7.4720   7.4720   7.4882   7.4882   7.6796   7.6796   7.7960   7.7960
     7.9248   7.9248   7.9740   7.9740   8.0485   8.0485   8.0798   8.0798
     8.1409   8.1409   8.3143   8.3143   8.3951   8.3951   8.5599   8.5599
     8.5777   8.5777   8.6878   8.6878

          k =-0.5000 0.0000-0.0650 (141786 PWs)   bands (ev):

   -22.2604 -22.2602 -22.2596 -22.2595 -20.9896 -20.9895 -20.9895 -20.9895
   -20.2765 -20.2765 -20.2763 -20.2763 -19.8402 -19.8399 -19.8373 -19.8372
   -18.6639 -18.6638 -18.6635 -18.6635 -18.2022 -18.2022 -18.2021 -18.2020
   -14.0917 -14.0916 -14.0879 -14.0872 -13.5897 -13.5866 -13.5802 -13.5757
   -12.2752 -12.2718 -12.2679 -12.2659 -12.0816 -12.0751 -11.9993 -11.9895
   -11.6377 -11.6347 -11.5861 -11.5822 -11.3456 -11.3442 -11.3332 -11.3273
    -9.7998  -9.7593  -9.6435  -9.6197  -9.6160  -9.6141  -9.5866  -9.5670
    -9.3151  -9.3110  -9.3089  -9.3002  -8.6100  -8.5997  -8.5856  -8.5827
    -8.1776  -8.1762  -8.1643  -8.1634  -8.1190  -8.1169  -8.0654  -8.0617
    -7.2687  -7.2638  -7.2621  -7.2610  -7.2197  -7.2094  -7.1671  -7.1608
    -6.6968  -6.6963  -6.6869  -6.6852  -5.8738  -5.8451  -5.8420  -5.8064
    -4.8937  -4.8734  -4.8593  -4.8178  -4.6755  -4.6728  -4.6651  -4.6464
    -4.5987  -4.5834  -4.5033  -4.4993  -4.4756  -4.4646  -4.1922  -4.1753
    -4.1690  -4.1503  -4.1465  -4.1244  -3.9616  -3.9078  -3.8313  -3.8257
    -3.8138  -3.7939  -3.7312  -3.7199  -3.6291  -3.6263  -3.5950  -3.5676
    -3.5607  -3.4945  -3.4893  -3.4710  -3.4390  -3.3919  -3.3798  -3.3761
    -3.2851  -3.2777  -3.2129  -3.2106  -3.2099  -3.1998  -3.1897  -3.1856
    -3.1495  -3.1160  -3.0826  -3.0523  -3.0516  -3.0322  -3.0213  -3.0036
    -2.9214  -2.9143  -2.8971  -2.8825  -2.8336  -2.7681  -2.7492  -2.7215
    -2.7079  -2.6742  -2.6688  -2.6474  -2.5836  -2.5586  -2.5491  -2.5434
    -2.5359  -2.5109  -2.4994  -2.4888  -2.0084  -1.9910  -1.9863  -1.9675
    -1.9573  -1.9470  -1.8675  -1.8551  -1.8469  -1.8225  -1.7459  -1.7429
    -1.7161  -1.7134  -1.7128  -1.7048  -1.5054  -1.5048  -1.4979  -1.4970
    -0.9597  -0.9554  -0.9490  -0.9461  -0.2745  -0.2721  -0.2686  -0.2661
    -0.0524  -0.0487  -0.0333  -0.0329   0.1050   0.1083   0.1106   0.1123
     0.4729   0.4925   0.5314   0.5507   6.3023   6.3846   6.4628   6.5747
     6.8947   6.9683   7.0667   7.1131   7.2118   7.2485   7.2692   7.2985
     7.3228   7.3405   7.4633   7.5446   7.7347   7.8016   7.8180   7.8392
     7.9036   7.9335   7.9494   7.9891   8.0015   8.0681   8.1150   8.1593
     8.1661   8.1923   8.2128   8.2879   8.3526   8.3822   8.4688   8.4932
     8.6119   8.6842   8.6982   8.7424

          k =-0.5000 0.0000-0.3771 (141772 PWs)   bands (ev):

   -22.2600 -22.2600 -22.2598 -22.2598 -20.9896 -20.9896 -20.9895 -20.9895
   -20.2765 -20.2765 -20.2763 -20.2763 -19.8388 -19.8388 -19.8385 -19.8385
   -18.6639 -18.6639 -18.6635 -18.6635 -18.2022 -18.2022 -18.2020 -18.2020
   -14.0899 -14.0899 -14.0893 -14.0893 -13.5889 -13.5889 -13.5773 -13.5773
   -12.2737 -12.2737 -12.2666 -12.2666 -12.0485 -12.0485 -12.0249 -12.0249
   -11.6346 -11.6346 -11.5887 -11.5887 -11.3449 -11.3449 -11.3295 -11.3295
    -9.7223  -9.7223  -9.6543  -9.6543  -9.6144  -9.6144  -9.6110  -9.6110
    -9.3103  -9.3103  -9.3069  -9.3069  -8.6060  -8.6060  -8.5831  -8.5831
    -8.1810  -8.1810  -8.1708  -8.1708  -8.1097  -8.1097  -8.0607  -8.0607
    -7.2646  -7.2646  -7.2627  -7.2627  -7.1925  -7.1925  -7.1902  -7.1902
    -6.6938  -6.6938  -6.6889  -6.6889  -5.8759  -5.8759  -5.7930  -5.7930
    -4.8808  -4.8808  -4.8569  -4.8569  -4.6716  -4.6716  -4.6543  -4.6543
    -4.5303  -4.5303  -4.4930  -4.4930  -4.4002  -4.4002  -4.3556  -4.3556
    -4.1884  -4.1884  -4.1744  -4.1744  -3.8580  -3.8580  -3.8293  -3.8293
    -3.7831  -3.7831  -3.7094  -3.7094  -3.6101  -3.6101  -3.5740  -3.5740
    -3.5507  -3.5507  -3.4793  -3.4793  -3.4552  -3.4552  -3.3961  -3.3961
    -3.2641  -3.2641  -3.2337  -3.2337  -3.1847  -3.1847  -3.1563  -3.1563
    -3.1022  -3.1022  -3.0937  -3.0937  -3.0369  -3.0369  -3.0258  -3.0258
    -2.9043  -2.9043  -2.8796  -2.8796  -2.7907  -2.7907  -2.7606  -2.7606
    -2.7371  -2.7371  -2.6555  -2.6555  -2.5579  -2.5579  -2.5302  -2.5302
    -2.5138  -2.5138  -2.5036  -2.5036  -1.9830  -1.9830  -1.9618  -1.9618
    -1.9041  -1.9041  -1.8759  -1.8759  -1.8419  -1.8419  -1.7934  -1.7934
    -1.7169  -1.7169  -1.7071  -1.7071  -1.5050  -1.5050  -1.4972  -1.4972
    -0.9629  -0.9629  -0.9439  -0.9439  -0.2732  -0.2732  -0.2671  -0.2671
    -0.0442  -0.0442  -0.0393  -0.0393   0.1062   0.1062   0.1120   0.1120
     0.4950   0.4950   0.5283   0.5283   6.3731   6.3731   6.4831   6.4831
     6.9839   6.9839   7.0432   7.0432   7.1485   7.1485   7.3287   7.3287
     7.4699   7.4699   7.4988   7.4988   7.6337   7.6337   7.8724   7.8724
     7.9218   7.9218   7.9418   7.9418   8.0033   8.0033   8.1004   8.1004
     8.1603   8.1603   8.3223   8.3223   8.4603   8.4603   8.4890   8.4890
     8.5763   8.5763   8.6440   8.6441

          k =-0.5000-0.5014-0.0650 (141728 PWs)   bands (ev):

   -22.2603 -22.2603 -22.2595 -22.2595 -20.9896 -20.9896 -20.9896 -20.9896
   -20.2765 -20.2765 -20.2763 -20.2763 -19.8400 -19.8400 -19.8372 -19.8372
   -18.6636 -18.6636 -18.6635 -18.6635 -18.2023 -18.2023 -18.2021 -18.2021
   -14.0998 -14.0998 -14.0874 -14.0874 -13.5879 -13.5879 -13.5747 -13.5747
   -12.2529 -12.2529 -12.2510 -12.2510 -12.0674 -12.0674 -11.9775 -11.9775
   -11.6514 -11.6514 -11.5847 -11.5847 -11.3800 -11.3800 -11.3538 -11.3538
    -9.7600  -9.7600  -9.6970  -9.6970  -9.6085  -9.6085  -9.5702  -9.5702
    -9.3187  -9.3187  -9.3095  -9.3095  -8.5505  -8.5505  -8.5438  -8.5438
    -8.2135  -8.2135  -8.1731  -8.1731  -8.1034  -8.1034  -8.0637  -8.0637
    -7.2685  -7.2685  -7.2661  -7.2661  -7.2112  -7.2112  -7.1603  -7.1603
    -6.6957  -6.6957  -6.6852  -6.6852  -5.8549  -5.8549  -5.7251  -5.7251
    -4.9907  -4.9907  -4.8568  -4.8568  -4.7555  -4.7555  -4.6874  -4.6874
    -4.5375  -4.5375  -4.5072  -4.5072  -4.4460  -4.4460  -4.2926  -4.2926
    -4.0970  -4.0970  -4.0557  -4.0557  -3.8693  -3.8693  -3.8543  -3.8543
    -3.7966  -3.7966  -3.7251  -3.7251  -3.6753  -3.6753  -3.6487  -3.6487
    -3.5611  -3.5611  -3.4353  -3.4353  -3.3953  -3.3953  -3.3494  -3.3494
    -3.3363  -3.3363  -3.2819  -3.2819  -3.1464  -3.1464  -3.1213  -3.1213
    -3.0692  -3.0692  -2.9785  -2.9785  -2.9724  -2.9724  -2.9525  -2.9524
    -2.9150  -2.9150  -2.9062  -2.9062  -2.8381  -2.8381  -2.7969  -2.7969
    -2.6973  -2.6973  -2.6381  -2.6381  -2.6265  -2.6265  -2.6106  -2.6106
    -2.5643  -2.5643  -2.4864  -2.4864  -1.9892  -1.9892  -1.9866  -1.9866
    -1.9767  -1.9767  -1.8231  -1.8231  -1.8086  -1.8086  -1.7617  -1.7617
    -1.7208  -1.7208  -1.7178  -1.7178  -1.5384  -1.5384  -1.5364  -1.5364
    -0.9568  -0.9568  -0.9381  -0.9381  -0.2715  -0.2715  -0.2628  -0.2628
    -0.0424  -0.0424  -0.0333  -0.0333   0.1170   0.1170   0.1175   0.1175
     0.4864   0.4864   0.5562   0.5562   6.5163   6.5163   6.6222   6.6222
     6.7410   6.7410   6.8395   6.8395   7.1485   7.1485   7.1955   7.1955
     7.4088   7.4088   7.6244   7.6244   7.7523   7.7523   7.7882   7.7882
     7.8810   7.8810   7.9772   7.9772   8.1116   8.1116   8.1798   8.1798
     8.2880   8.2880   8.3577   8.3577   8.4897   8.4897   8.5432   8.5432
     8.6109   8.6110   8.6543   8.6543

          k =-0.5000-0.5014-0.3771 (141740 PWs)   bands (ev):

   -22.2599 -22.2599 -22.2599 -22.2599 -20.9896 -20.9896 -20.9896 -20.9896
   -20.2765 -20.2765 -20.2763 -20.2763 -19.8387 -19.8387 -19.8385 -19.8385
   -18.6635 -18.6635 -18.6635 -18.6635 -18.2022 -18.2022 -18.2021 -18.2021
   -14.0981 -14.0981 -14.0892 -14.0892 -13.5857 -13.5857 -13.5770 -13.5770
   -12.2526 -12.2526 -12.2512 -12.2512 -12.0271 -12.0271 -12.0202 -12.0202
   -11.6390 -11.6390 -11.5981 -11.5981 -11.3790 -11.3790 -11.3540 -11.3540
    -9.6951  -9.6951  -9.6876  -9.6876  -9.6377  -9.6377  -9.6161  -9.6161
    -9.3144  -9.3144  -9.3114  -9.3114  -8.5495  -8.5495  -8.5448  -8.5448
    -8.2244  -8.2244  -8.1671  -8.1671  -8.0907  -8.0907  -8.0713  -8.0713
    -7.2674  -7.2674  -7.2670  -7.2670  -7.1890  -7.1890  -7.1862  -7.1862
    -6.6925  -6.6925  -6.6884  -6.6884  -5.7898  -5.7898  -5.7868  -5.7868
    -4.9597  -4.9597  -4.8847  -4.8847  -4.7348  -4.7348  -4.7014  -4.7014
    -4.5524  -4.5524  -4.4887  -4.4887  -4.3202  -4.3202  -4.2954  -4.2954
    -4.2609  -4.2609  -4.1381  -4.1381  -3.8286  -3.8286  -3.8033  -3.8033
    -3.7478  -3.7478  -3.7108  -3.7108  -3.7027  -3.7027  -3.6544  -3.6544
    -3.5307  -3.5307  -3.4908  -3.4908  -3.3757  -3.3757  -3.3720  -3.3720
    -3.3498  -3.3498  -3.2813  -3.2813  -3.1320  -3.1320  -3.1185  -3.1185
    -3.0735  -3.0735  -2.9799  -2.9799  -2.9672  -2.9672  -2.9631  -2.9631
    -2.9135  -2.9135  -2.8982  -2.8982  -2.8024  -2.8024  -2.7554  -2.7554
    -2.7367  -2.7367  -2.7218  -2.7218  -2.6136  -2.6136  -2.5724  -2.5724
    -2.5497  -2.5497  -2.4969  -2.4969  -1.9877  -1.9877  -1.9864  -1.9864
    -1.8836  -1.8836  -1.8722  -1.8722  -1.8119  -1.8119  -1.7984  -1.7984
    -1.7230  -1.7230  -1.7153  -1.7153  -1.5429  -1.5429  -1.5305  -1.5305
    -0.9707  -0.9707  -0.9260  -0.9260  -0.2670  -0.2670  -0.2667  -0.2667
    -0.0400  -0.0400  -0.0354  -0.0354   0.1171   0.1171   0.1175   0.1175
     0.5062   0.5062   0.5354   0.5354   6.5715   6.5715   6.6277   6.6277
     6.6600   6.6600   6.7962   6.7962   7.1817   7.1817   7.2952   7.2952
     7.4194   7.4194   7.5443   7.5443   7.7370   7.7370   7.8609   7.8609
     7.8722   7.8722   7.9969   7.9969   8.1340   8.1340   8.1586   8.1586
     8.2174   8.2174   8.2524   8.2524   8.5180   8.5180   8.5616   8.5616
     8.5918   8.5918   8.6947   8.6947

     highest occupied, lowest unoccupied level (ev):     0.6096    6.0198

!    total energy              =   -1970.48497295 Ry
     Harris-Foulkes estimate   =   -1970.48497295 Ry
     estimated scf accuracy    <          9.9E-09 Ry

     total all-electron energy =     -7355.486947 Ry

     The total energy is the sum of the following terms:

     one-electron contribution =   -1672.30312034 Ry
     hartree contribution      =     994.18913005 Ry
     xc contribution           =    -429.35950551 Ry
     ewald contribution        =    -314.80605924 Ry
     Dispersion Correction     =      -0.62899745 Ry
     one-center paw contrib.   =    -547.57642044 Ry

     convergence has been achieved in  15 iterations

     Forces acting on atoms (cartesian axes, Ry/au):

     atom    1 type  4   force =     0.00002727   -0.00023794    0.00026454
     atom    2 type  4   force =    -0.00002727   -0.00023794   -0.00026454
     atom    3 type  4   force =    -0.00002727    0.00023794   -0.00026454
     atom    4 type  4   force =     0.00002727    0.00023794    0.00026454
     atom    5 type  4   force =    -0.00030553    0.00003920    0.00020303
     atom    6 type  4   force =     0.00030553    0.00003920   -0.00020303
     atom    7 type  4   force =     0.00030553   -0.00003920   -0.00020303
     atom    8 type  4   force =    -0.00030553   -0.00003920    0.00020303
     atom    9 type  4   force =    -0.00003452    0.00019563    0.00026509
     atom   10 type  4   force =     0.00003452    0.00019563   -0.00026509
     atom   11 type  4   force =     0.00003452   -0.00019563   -0.00026509
     atom   12 type  4   force =    -0.00003452   -0.00019563    0.00026509
     atom   13 type  4   force =     0.00022707   -0.00011929    0.00028574
     atom   14 type  4   force =    -0.00022707   -0.00011929   -0.00028574
     atom   15 type  4   force =    -0.00022707    0.00011929   -0.00028574
     atom   16 type  4   force =     0.00022707    0.00011929    0.00028574
     atom   17 type  4   force =    -0.00109798    0.00106944   -0.00068977
     atom   18 type  4   force =     0.00109798    0.00106944    0.00068977
     atom   19 type  4   force =     0.00109798   -0.00106944    0.00068977
     atom   20 type  4   force =    -0.00109798   -0.00106944   -0.00068977
     atom   21 type  4   force =     0.00099271   -0.00107359   -0.00084201
     atom   22 type  4   force =    -0.00099271   -0.00107359    0.00084201
     atom   23 type  4   force =    -0.00099271    0.00107359    0.00084201
     atom   24 type  4   force =     0.00099271    0.00107359   -0.00084201
     atom   25 type  1   force =    -0.00065545   -0.00019476   -0.00011412
     atom   26 type  1   force =     0.00065545   -0.00019476    0.00011412
     atom   27 type  1   force =     0.00065545    0.00019476    0.00011412
     atom   28 type  1   force =    -0.00065545    0.00019476   -0.00011412
     atom   29 type  1   force =    -0.00028137   -0.00064460   -0.00013077
     atom   30 type  1   force =     0.00028137   -0.00064460    0.00013077
     atom   31 type  1   force =     0.00028137    0.00064460    0.00013077
     atom   32 type  1   force =    -0.00028137    0.00064460   -0.00013077
     atom   33 type  1   force =     0.00064493    0.00016126   -0.00012055
     atom   34 type  1   force =    -0.00064493    0.00016126    0.00012055
     atom   35 type  1   force =    -0.00064493   -0.00016126    0.00012055
     atom   36 type  1   force =     0.00064493   -0.00016126   -0.00012055
     atom   37 type  1   force =     0.00015399    0.00065517   -0.00012813
     atom   38 type  1   force =    -0.00015399    0.00065517    0.00012813
     atom   39 type  1   force =    -0.00015399   -0.00065517    0.00012813
     atom   40 type  1   force =     0.00015399   -0.00065517   -0.00012813
     atom   41 type  1   force =    -0.00001509   -0.00006547   -0.00012042
     atom   42 type  1   force =     0.00001509   -0.00006547    0.00012042
     atom   43 type  1   force =     0.00001509    0.00006547    0.00012042
     atom   44 type  1   force =    -0.00001509    0.00006547   -0.00012042
     atom   45 type  1   force =    -0.00001427   -0.00000812   -0.00023858
     atom   46 type  1   force =     0.00001427   -0.00000812    0.00023858
     atom   47 type  1   force =     0.00001427    0.00000812    0.00023858
     atom   48 type  1   force =    -0.00001427    0.00000812   -0.00023858
     atom   49 type  1   force =     0.00038790   -0.00029374    0.00017888
     atom   50 type  1   force =    -0.00038790   -0.00029374   -0.00017888
     atom   51 type  1   force =    -0.00038790    0.00029374   -0.00017888
     atom   52 type  1   force =     0.00038790    0.00029374    0.00017888
     atom   53 type  1   force =    -0.00035519    0.00031368    0.00012968
     atom   54 type  1   force =     0.00035519    0.00031368   -0.00012968
     atom   55 type  1   force =     0.00035519   -0.00031368   -0.00012968
     atom   56 type  1   force =    -0.00035519   -0.00031368    0.00012968
     atom   57 type  1   force =    -0.00030945    0.00030958    0.00012153
     atom   58 type  1   force =     0.00030945    0.00030958   -0.00012153
     atom   59 type  1   force =     0.00030945   -0.00030958   -0.00012153
     atom   60 type  1   force =    -0.00030945   -0.00030958    0.00012153
     atom   61 type  1   force =     0.00037627   -0.00031036    0.00020955
     atom   62 type  1   force =    -0.00037627   -0.00031036   -0.00020955
     atom   63 type  1   force =    -0.00037627    0.00031036   -0.00020955
     atom   64 type  1   force =     0.00037627    0.00031036    0.00020955
     atom   65 type  1   force =    -0.00034660   -0.00045405    0.00061786
     atom   66 type  1   force =     0.00034660   -0.00045405   -0.00061786
     atom   67 type  1   force =     0.00034660    0.00045405   -0.00061786
     atom   68 type  1   force =    -0.00034660    0.00045405    0.00061786
     atom   69 type  1   force =     0.00037057    0.00025973    0.00061249
     atom   70 type  1   force =    -0.00037057    0.00025973   -0.00061249
     atom   71 type  1   force =    -0.00037057   -0.00025973   -0.00061249
     atom   72 type  1   force =     0.00037057   -0.00025973    0.00061249
     atom   73 type  3   force =     0.00016316    0.00002029   -0.00020094
     atom   74 type  3   force =    -0.00016316    0.00002029    0.00020094
     atom   75 type  3   force =    -0.00016316   -0.00002029    0.00020094
     atom   76 type  3   force =     0.00016316   -0.00002029   -0.00020094
     atom   77 type  3   force =    -0.00087233    0.00086052   -0.00021298
     atom   78 type  3   force =     0.00087233    0.00086052    0.00021298
     atom   79 type  3   force =     0.00087233   -0.00086052    0.00021298
     atom   80 type  3   force =    -0.00087233   -0.00086052   -0.00021298
     atom   81 type  3   force =    -0.00020980   -0.00037003   -0.00022754
     atom   82 type  3   force =     0.00020980   -0.00037003    0.00022754
     atom   83 type  3   force =     0.00020980    0.00037003    0.00022754
     atom   84 type  3   force =    -0.00020980    0.00037003   -0.00022754
     atom   85 type  3   force =    -0.00039306   -0.00027598   -0.00018002
     atom   86 type  3   force =     0.00039306   -0.00027598    0.00018002
     atom   87 type  3   force =     0.00039306    0.00027598    0.00018002
     atom   88 type  3   force =    -0.00039306    0.00027598   -0.00018002
     atom   89 type  3   force =     0.00060641   -0.00091231   -0.00020294
     atom   90 type  3   force =    -0.00060641   -0.00091231    0.00020294
     atom   91 type  3   force =    -0.00060641    0.00091231    0.00020294
     atom   92 type  3   force =     0.00060641    0.00091231   -0.00020294
     atom   93 type  3   force =     0.00006130    0.00014406   -0.00016420
     atom   94 type  3   force =    -0.00006130    0.00014406    0.00016420
     atom   95 type  3   force =    -0.00006130   -0.00014406    0.00016420
     atom   96 type  3   force =     0.00006130   -0.00014406   -0.00016420
     atom   97 type  3   force =     0.00044578    0.00037248   -0.00026031
     atom   98 type  3   force =    -0.00044578    0.00037248    0.00026031
     atom   99 type  3   force =    -0.00044578   -0.00037248    0.00026031
     atom  100 type  3   force =     0.00044578   -0.00037248   -0.00026031
     atom  101 type  3   force =     0.00002925   -0.00015576   -0.00017426
     atom  102 type  3   force =    -0.00002925   -0.00015576    0.00017426
     atom  103 type  3   force =    -0.00002925    0.00015576    0.00017426
     atom  104 type  3   force =     0.00002925    0.00015576   -0.00017426
     atom  105 type  3   force =     0.00118571   -0.00055778   -0.00009797
     atom  106 type  3   force =    -0.00118571   -0.00055778    0.00009797
     atom  107 type  3   force =    -0.00118571    0.00055778    0.00009797
     atom  108 type  3   force =     0.00118571    0.00055778   -0.00009797
     atom  109 type  3   force =     0.00001018   -0.00001281   -0.00005778
     atom  110 type  3   force =    -0.00001018   -0.00001281    0.00005778
     atom  111 type  3   force =    -0.00001018    0.00001281    0.00005778
     atom  112 type  3   force =     0.00001018    0.00001281   -0.00005778
     atom  113 type  3   force =     0.00041795    0.00025253   -0.00023462
     atom  114 type  3   force =    -0.00041795    0.00025253    0.00023462
     atom  115 type  3   force =    -0.00041795   -0.00025253    0.00023462
     atom  116 type  3   force =     0.00041795   -0.00025253   -0.00023462
     atom  117 type  3   force =    -0.00072584    0.00102637   -0.00021118
     atom  118 type  3   force =     0.00072584    0.00102637    0.00021118
     atom  119 type  3   force =     0.00072584   -0.00102637    0.00021118
     atom  120 type  3   force =    -0.00072584   -0.00102637   -0.00021118
     atom  121 type  3   force =     0.00046037   -0.00059239   -0.00021059
     atom  122 type  3   force =    -0.00046037   -0.00059239    0.00021059
     atom  123 type  3   force =    -0.00046037    0.00059239    0.00021059
     atom  124 type  3   force =     0.00046037    0.00059239   -0.00021059
     atom  125 type  3   force =    -0.00066163   -0.00034916   -0.00002082
     atom  126 type  3   force =     0.00066163   -0.00034916    0.00002082
     atom  127 type  3   force =     0.00066163    0.00034916    0.00002082
     atom  128 type  3   force =    -0.00066163    0.00034916   -0.00002082
     atom  129 type  3   force =    -0.00028813    0.00053574    0.00006584
     atom  130 type  3   force =     0.00028813    0.00053574   -0.00006584
     atom  131 type  3   force =     0.00028813   -0.00053574   -0.00006584
     atom  132 type  3   force =    -0.00028813   -0.00053574    0.00006584
     atom  133 type  3   force =    -0.00048583    0.00031272   -0.00014168
     atom  134 type  3   force =     0.00048583    0.00031272    0.00014168
     atom  135 type  3   force =     0.00048583   -0.00031272    0.00014168
     atom  136 type  3   force =    -0.00048583   -0.00031272   -0.00014168
     atom  137 type  3   force =     0.00051468    0.00047392    0.00004996
     atom  138 type  3   force =    -0.00051468    0.00047392   -0.00004996
     atom  139 type  3   force =    -0.00051468   -0.00047392   -0.00004996
     atom  140 type  3   force =     0.00051468   -0.00047392    0.00004996
     atom  141 type  3   force =     0.00034387   -0.00060696   -0.00023362
     atom  142 type  3   force =    -0.00034387   -0.00060696    0.00023362
     atom  143 type  3   force =    -0.00034387    0.00060696    0.00023362
     atom  144 type  3   force =     0.00034387    0.00060696   -0.00023362

     Total force =     0.009146     Total SCF correction =     0.000113


     Computing stress (Cartesian axis) and pressure

          total   stress  (Ry/bohr**3)                   (kbar)     P=   -3.53
  -0.00002091   0.00000000   0.00000016         -3.08      0.00      0.02
   0.00000000  -0.00001853   0.00000000          0.00     -2.73      0.00
   0.00000016   0.00000000  -0.00003246          0.02      0.00     -4.78


     Writing output data file scf.save
 
     init_run     :     94.29s CPU     97.41s WALL (       1 calls)
     electrons    :   3777.11s CPU   3892.12s WALL (       1 calls)
     forces       :     47.17s CPU     47.52s WALL (       1 calls)
     stress       :    218.72s CPU    219.28s WALL (       1 calls)

     Called by init_run:
     wfcinit      :     80.67s CPU     83.54s WALL (       1 calls)
     potinit      :      4.89s CPU      4.95s WALL (       1 calls)

     Called by electrons:
     c_bands      :   3489.32s CPU   3590.95s WALL (      15 calls)
     sum_band     :    268.59s CPU    279.83s WALL (      15 calls)
     v_of_rho     :      2.62s CPU      2.86s WALL (      16 calls)
     newd         :      7.14s CPU      8.95s WALL (      16 calls)
     PAW_pot      :      8.79s CPU      8.80s WALL (      16 calls)
     mix_rho      :      0.54s CPU      0.59s WALL (      15 calls)

     Called by c_bands:
     init_us_2    :     12.31s CPU     12.39s WALL (     264 calls)
     cegterg      :   3442.78s CPU   3544.30s WALL (     120 calls)

     Called by sum_band:
     sum_band:bec :      0.12s CPU      0.12s WALL (     120 calls)
     addusdens    :      7.24s CPU      8.97s WALL (      15 calls)

     Called by *egterg:
     h_psi        :   1671.65s CPU   1753.97s WALL (     675 calls)
     s_psi        :    434.86s CPU    435.10s WALL (     675 calls)
     g_psi        :      7.64s CPU      7.64s WALL (     547 calls)
     cdiaghg      :    184.75s CPU    184.92s WALL (     667 calls)

     Called by h_psi:
     h_psi:pot    :   1661.62s CPU   1743.76s WALL (     675 calls)
     h_psi:calbec :    423.07s CPU    423.82s WALL (     675 calls)
     vloc_psi     :    803.63s CPU    884.76s WALL (     675 calls)
     add_vuspsi   :    434.92s CPU    435.17s WALL (     675 calls)

     General routines
     calbec       :    589.33s CPU    590.38s WALL (     835 calls)
     fft          :      1.64s CPU      2.09s WALL (     232 calls)
     fftw         :    835.87s CPU    925.67s WALL (  224866 calls)
 
     Parallel routines
     fft_scatter  :    142.57s CPU    224.56s WALL (  225098 calls)
 
     PWSCF        :     1h 9m CPU        1h12m WALL

 
   This run was terminated on:  11: 3:53   4Nov2017            

=------------------------------------------------------------------------------=
   JOB DONE.
=------------------------------------------------------------------------------=
