
     Program PWSCF v.6.1 (svn rev. 13369) starts on  7Dec2017 at  6:22:40 

     This program is part of the open-source Quantum ESPRESSO suite
     for quantum simulation of materials; please cite
         "P. Giannozzi et al., J. Phys.:Condens. Matter 21 395502 (2009);
          URL http://www.quantum-espresso.org", 
     in publications or presentations arising from this work. More details at
     http://www.quantum-espresso.org/quote

     Parallel version (MPI), running on     8 processors
     R & G space division:  proc/nbgrp/npool/nimage =       8
     Waiting for input...
     Reading input from standard input

     Current dimensions of program PWSCF are:
     Max number of different atomic species (ntypx) = 10
     Max number of k-points (npk) =  40000
     Max angular momentum in pseudopotentials (lmaxx) =  3
               file C.pbe-n-kjpaw_psl.0.1.UPF: wavefunction(s)  2P renormalized
               file N.pbe-n-kjpaw_psl.0.1.UPF: wavefunction(s)  2P renormalized
               file H.pbe-kjpaw_psl.0.1.UPF: wavefunction(s)  1S renormalized
               file O.pbe-n-kjpaw_psl.0.1.UPF: wavefunction(s)  2P renormalized

     -------------------------------------
     Parameters for Dispersion Correction:
     -------------------------------------
       atom      VdW radius       C_6     

        C          2.744         60.710
        N          2.640         42.670
        H          1.892          4.857
        O          2.536         24.284

     Subspace diagonalization in iterative solution of the eigenvalue problem:
     a serial algorithm will be used

 
     Parallelization info
     --------------------
     sticks:   dense  smooth     PW     G-vecs:    dense   smooth      PW
     Min        1305    1305    343                86498    86498   11631
     Max        1307    1307    344                86499    86499   11634
     Sum       10445   10445   2747               691991   691991   93065
 


     bravais-lattice index     =            0
     lattice parameter (alat)  =      13.2281  a.u.
     unit-cell volume          =    5122.3061 (a.u.)^3
     number of atoms/cell      =           84
     number of atomic types    =            4
     number of electrons       =       288.00
     number of Kohn-Sham states=          172
     kinetic-energy cutoff     =     100.0000  Ry
     charge density cutoff     =     400.0000  Ry
     convergence threshold     =      1.0E-08
     mixing beta               =       0.5000
     number of iterations used =            8  plain     mixing
     Exchange-correlation      =  SLA  PW   PBX  PBC ( 1  4  3  4 0 0)

     celldm(1)=  13.228083  celldm(2)=   0.000000  celldm(3)=   0.000000
     celldm(4)=   0.000000  celldm(5)=   0.000000  celldm(6)=   0.000000

     crystal axes: (cart. coord. in units of alat)
               a(1) = (   1.000000   0.000000   0.000000 )  
               a(2) = (   0.000000   1.874714   0.000000 )  
               a(3) = (   0.000000   0.000000   1.180429 )  

     reciprocal axes: (cart. coord. in units 2 pi/alat)
               b(1) = (  1.000000  0.000000  0.000000 )  
               b(2) = (  0.000000  0.533415  0.000000 )  
               b(3) = (  0.000000  0.000000  0.847150 )  


     PseudoPot. # 1 for  C read from file:
     /scratch/ahofstet/pseudo/C.pbe-n-kjpaw_psl.0.1.UPF
     MD5 check sum: 430fe95172b1e11ef3f8ed03bac87931
     Pseudo is Projector augmented-wave + core cor, Zval =  4.0
     Generated using "atomic" code by A. Dal Corso  v.5.0.99 svn rev. 10869
     Shape of augmentation charge: BESSEL
     Using radial grid of 1073 points,  4 beta functions with: 
                l(1) =   0
                l(2) =   0
                l(3) =   1
                l(4) =   1
     Q(r) pseudized with 0 coefficients 


     PseudoPot. # 2 for  N read from file:
     /scratch/ahofstet/pseudo/N.pbe-n-kjpaw_psl.0.1.UPF
     MD5 check sum: f73187c8b701007e77325f868c9291d7
     Pseudo is Projector augmented-wave + core cor, Zval =  5.0
     Generated using "atomic" code by A. Dal Corso  v.5.0.99 svn rev. 10869
     Shape of augmentation charge: PSQ
     Using radial grid of 1085 points,  4 beta functions with: 
                l(1) =   0
                l(2) =   0
                l(3) =   1
                l(4) =   1
     Q(r) pseudized with 0 coefficients 


     PseudoPot. # 3 for  H read from file:
     /scratch/ahofstet/pseudo/H.pbe-kjpaw_psl.0.1.UPF
     MD5 check sum: 94e484f906d9e9773b2f6e52662335b2
     Pseudo is Projector augmented-wave, Zval =  1.0
     Generated using "atomic" code by A. Dal Corso  v.5.0.99 svn rev. 10869
     Shape of augmentation charge: PSQ
     Using radial grid of  929 points,  2 beta functions with: 
                l(1) =   0
                l(2) =   0
     Q(r) pseudized with 0 coefficients 


     PseudoPot. # 4 for  O read from file:
     /scratch/ahofstet/pseudo/O.pbe-n-kjpaw_psl.0.1.UPF
     MD5 check sum: 3f94a2996a3169367d6eb21d9b593f20
     Pseudo is Projector augmented-wave + core cor, Zval =  6.0
     Generated using "atomic" code by A. Dal Corso  v.5.0.99 svn rev. 10869
     Shape of augmentation charge: BESSEL
     Using radial grid of 1095 points,  4 beta functions with: 
                l(1) =   0
                l(2) =   0
                l(3) =   1
                l(4) =   1
     Q(r) pseudized with 0 coefficients 


     atomic species   valence    mass     pseudopotential
        C              4.00    12.01070      C( 1.00)
        N              5.00    14.00670      N( 1.00)
        H              1.00     1.00794      H( 1.00)
        O              6.00    15.99940      O( 1.00)

      2 Sym. Ops. (no inversion) found ( 1 have fractional translation)



   Cartesian axes

     site n.     atom                  positions (alat units)
         1           N   tau(   1) = (   0.3256644   0.8957637   0.2720527  )
         2           N   tau(   2) = (   0.6743356   0.9789506   0.8622669  )
         3           N   tau(   3) = (   0.8256725   0.0416943   0.2720333  )
         4           N   tau(   4) = (   0.1743275   1.8330200   0.8622476  )
         5           C   tau(   5) = (   0.4061650   0.8108258   0.1190940  )
         6           C   tau(   6) = (   0.5938350   1.0638885   0.7093082  )
         7           C   tau(   7) = (   0.9061511   0.1266306   0.1191124  )
         8           C   tau(   8) = (   0.0938489   1.7480837   0.7093266  )
         9           H   tau(   9) = (   0.4490818   0.9056717   0.0042510  )
        10           H   tau(  10) = (   0.5509182   0.9690426   0.5944652  )
        11           H   tau(  11) = (   0.9490854   0.0317752   0.0042567  )
        12           H   tau(  12) = (   0.0509146   1.8429391   0.5944710  )
        13           C   tau(  13) = (   0.4280052   0.6113208   0.1091567  )
        14           C   tau(  14) = (   0.5719948   1.2633935   0.6993710  )
        15           C   tau(  15) = (   0.9280086   0.3261274   0.1091440  )
        16           C   tau(  16) = (   0.0719914   1.5485869   0.6993583  )
        17           C   tau(  17) = (   0.3548068   0.4978176   0.2652666  )
        18           C   tau(  18) = (   0.6451932   1.3768967   0.8554809  )
        19           C   tau(  19) = (   0.8547987   0.4396644   0.2652672  )
        20           C   tau(  20) = (   0.1452013   1.4350499   0.8554815  )
        21           C   tau(  21) = (   0.2754041   0.5942961   0.4294467  )
        22           C   tau(  22) = (   0.7245959   1.2804181   1.0196610  )
        23           C   tau(  23) = (   0.7754156   0.3431790   0.4294026  )
        24           C   tau(  24) = (   0.2245844   1.5315353   1.0196169  )
        25           C   tau(  25) = (   0.2653194   0.7951986   0.4258167  )
        26           C   tau(  26) = (   0.7346806   1.0795157   1.0160310  )
        27           C   tau(  27) = (   0.7653052   0.1422687   0.4258312  )
        28           C   tau(  28) = (   0.2346948   1.7324456   1.0160454  )
        29           H   tau(  29) = (   0.2013600   0.8773713   0.5409908  )
        30           H   tau(  30) = (   0.7986400   0.9973430   1.1312050  )
        31           H   tau(  31) = (   0.7013696   0.0601134   0.5409833  )
        32           H   tau(  32) = (   0.2986304   1.8146009   1.1311976  )
        33           O   tau(  33) = (   0.3038652   1.0822447   0.2700919  )
        34           O   tau(  34) = (   0.6961348   0.7924696   0.8603062  )
        35           O   tau(  35) = (   0.8038726   1.7299238   0.2701151  )
        36           O   tau(  36) = (   0.1961274   0.1447905   0.8603294  )
        37           O   tau(  37) = (   0.4448890   0.2160666   0.1205883  )
        38           O   tau(  38) = (   0.5551110   1.6586477   0.7108026  )
        39           O   tau(  39) = (   0.9448949   0.7213877   0.1205676  )
        40           O   tau(  40) = (   0.0551051   1.1533266   0.7107819  )
        41           O   tau(  41) = (   0.2783890   0.1975919   0.3830404  )
        42           O   tau(  42) = (   0.7216110   1.6771223   0.9732547  )
        43           O   tau(  43) = (   0.7783930   0.7398809   0.3830235  )
        44           O   tau(  44) = (   0.2216070   1.1348333   0.9732378  )
        45           N   tau(  45) = (   0.5131637   0.5417138   1.1330699  )
        46           N   tau(  46) = (   0.4868363   1.3330005   0.5428556  )
        47           N   tau(  47) = (   1.0131743   0.3956988   1.1330597  )
        48           N   tau(  48) = (  -0.0131743   1.4790155   0.5428454  )
        49           H   tau(  49) = (   0.5672952   0.6360980   1.0341648  )
        50           H   tau(  50) = (   0.4327048   1.2386163   0.4439505  )
        51           H   tau(  51) = (   0.0672870   0.3012923   1.0341758  )
        52           H   tau(  52) = (   0.9327130   1.5734220   0.4439616  )
        53           H   tau(  53) = (   0.5331755   0.3984018   1.1145808  )
        54           H   tau(  54) = (   0.4668245   1.4763124   0.5243665  )
        55           H   tau(  55) = (   0.0331974   0.5390140   1.1145250  )
        56           H   tau(  56) = (   0.9668026   1.3357003   0.5243107  )
        57           N   tau(  57) = (   0.3601562   0.2972174   0.2558775  )
        58           N   tau(  58) = (   0.6398438   1.5774969   0.8460918  )
        59           N   tau(  59) = (   0.8601695   0.6402527   0.2558440  )
        60           N   tau(  60) = (   0.1398305   1.2344616   0.8460583  )
        61           N   tau(  61) = (   0.2106704   0.5067612   0.5867758  )
        62           N   tau(  62) = (   0.7893296   1.3679531  -0.0034385  )
        63           N   tau(  63) = (   0.7106508   0.4306853   0.5867963  )
        64           N   tau(  64) = (   0.2893492   1.4440289  -0.0034180  )
        65           H   tau(  65) = (   0.2119094   0.3615213   0.5938800  )
        66           H   tau(  66) = (   0.7880906   1.5131930   0.0036657  )
        67           H   tau(  67) = (   0.7118932   0.5759173   0.5939210  )
        68           H   tau(  68) = (   0.2881068   1.2987970   0.0037067  )
        69           H   tau(  69) = (   0.1635864   0.5892660   0.7004346  )
        70           H   tau(  70) = (   0.8364136   1.2854483   0.1102203  )
        71           H   tau(  71) = (   0.6635885   0.3481537   0.7004075  )
        72           H   tau(  72) = (   0.3364115   1.5265606   0.1101932  )
        73           O   tau(  73) = (   0.9163957   1.1391771   0.3023461  )
        74           O   tau(  74) = (   0.0836043   0.7355372   0.8925604  )
        75           O   tau(  75) = (   0.4164034   1.6728821   0.3023366  )
        76           O   tau(  76) = (   0.5835966   0.2018322   0.8925509  )
        77           H   tau(  77) = (   0.8650872   1.0105976   0.3238147  )
        78           H   tau(  78) = (   0.1349128   0.8641167   0.9140290  )
        79           H   tau(  79) = (   0.3650840   1.8014609   0.3238091  )
        80           H   tau(  80) = (   0.6349160   0.0732534   0.9140234  )
        81           H   tau(  81) = (   0.0565459   1.1204753   0.2907743  )
        82           H   tau(  82) = (   0.9434541   0.7542390   0.8809886  )
        83           H   tau(  83) = (   0.5565498   1.6916069   0.2907811  )
        84           H   tau(  84) = (   0.4434502   0.1831074   0.8809953  )

     number of k points=     8
                       cart. coord. in units 2pi/alat
        k(    1) = (   0.0000000   0.0000000   0.0000000), wk =   0.1111111
        k(    2) = (   0.0000000   0.0000000   0.2823833), wk =   0.2222222
        k(    3) = (   0.0000000  -0.2667073   0.0000000), wk =   0.1111111
        k(    4) = (   0.0000000  -0.2667073   0.2823833), wk =   0.2222222
        k(    5) = (   0.3333333   0.0000000   0.0000000), wk =   0.2222222
        k(    6) = (   0.3333333   0.0000000   0.2823833), wk =   0.4444444
        k(    7) = (   0.3333333  -0.2667073   0.0000000), wk =   0.2222222
        k(    8) = (   0.3333333  -0.2667073   0.2823833), wk =   0.4444444

     Dense  grid:   691991 G-vectors     FFT dimensions: (  90, 160, 100)

     Estimated max dynamical RAM per process >     628.75MB

     Estimated total allocated dynamical RAM >    5030.00MB

     Check: negative/imaginary core charge=   -0.000002    0.000000

     Initial potential from superposition of free atoms

     starting charge  287.99872, renormalised to  288.00000
     Starting wfc are  240 randomized atomic wfcs
     Checking if some PAW data can be deallocated... 

     total cpu time spent up to now is       32.8 secs

     per-process dynamical memory:   449.9 Mb

     Self-consistent Calculation

     iteration #  1     ecut=   100.00 Ry     beta=0.50
     Davidson diagonalization with overlap
     ethr =  1.00E-02,  avg # of iterations =  3.0

     total cpu time spent up to now is      129.1 secs

     total energy              =   -1522.14091519 Ry
     Harris-Foulkes estimate   =   -1526.99458191 Ry
     estimated scf accuracy    <       8.75742654 Ry

     iteration #  2     ecut=   100.00 Ry     beta=0.50
     Davidson diagonalization with overlap
     ethr =  3.04E-03,  avg # of iterations =  3.0

     total cpu time spent up to now is      197.6 secs

     total energy              =   -1523.57066292 Ry
     Harris-Foulkes estimate   =   -1524.72884434 Ry
     estimated scf accuracy    <       2.44235217 Ry

     iteration #  3     ecut=   100.00 Ry     beta=0.50
     Davidson diagonalization with overlap
     ethr =  8.48E-04,  avg # of iterations =  4.8

     total cpu time spent up to now is      263.8 secs

     total energy              =   -1524.13224770 Ry
     Harris-Foulkes estimate   =   -1524.28533616 Ry
     estimated scf accuracy    <       0.40164610 Ry

     iteration #  4     ecut=   100.00 Ry     beta=0.50
     Davidson diagonalization with overlap
     ethr =  1.39E-04,  avg # of iterations =  9.8

     total cpu time spent up to now is      344.4 secs

     total energy              =   -1524.21249601 Ry
     Harris-Foulkes estimate   =   -1524.23207185 Ry
     estimated scf accuracy    <       0.05633217 Ry

     iteration #  5     ecut=   100.00 Ry     beta=0.50
     Davidson diagonalization with overlap
     ethr =  1.96E-05,  avg # of iterations =  7.2

     total cpu time spent up to now is      432.7 secs

     total energy              =   -1524.22478266 Ry
     Harris-Foulkes estimate   =   -1524.23124688 Ry
     estimated scf accuracy    <       0.01708490 Ry

     iteration #  6     ecut=   100.00 Ry     beta=0.50
     Davidson diagonalization with overlap
     ethr =  5.93E-06,  avg # of iterations =  4.1

     total cpu time spent up to now is      493.8 secs

     total energy              =   -1524.22783636 Ry
     Harris-Foulkes estimate   =   -1524.22923912 Ry
     estimated scf accuracy    <       0.00387085 Ry

     iteration #  7     ecut=   100.00 Ry     beta=0.50
     Davidson diagonalization with overlap
     ethr =  1.34E-06,  avg # of iterations =  7.2

     total cpu time spent up to now is      558.8 secs

     total energy              =   -1524.22862618 Ry
     Harris-Foulkes estimate   =   -1524.22887444 Ry
     estimated scf accuracy    <       0.00075458 Ry

     iteration #  8     ecut=   100.00 Ry     beta=0.50
     Davidson diagonalization with overlap
     ethr =  2.62E-07,  avg # of iterations =  3.0

     total cpu time spent up to now is      622.5 secs

     total energy              =   -1524.22882452 Ry
     Harris-Foulkes estimate   =   -1524.22883679 Ry
     estimated scf accuracy    <       0.00005703 Ry

     iteration #  9     ecut=   100.00 Ry     beta=0.50
     Davidson diagonalization with overlap
     ethr =  1.98E-08,  avg # of iterations =  3.0

     total cpu time spent up to now is      709.4 secs

     total energy              =   -1524.22884450 Ry
     Harris-Foulkes estimate   =   -1524.22885100 Ry
     estimated scf accuracy    <       0.00001773 Ry

     iteration # 10     ecut=   100.00 Ry     beta=0.50
     Davidson diagonalization with overlap
     ethr =  6.16E-09,  avg # of iterations =  2.2

     total cpu time spent up to now is      764.3 secs

     total energy              =   -1524.22884713 Ry
     Harris-Foulkes estimate   =   -1524.22884914 Ry
     estimated scf accuracy    <       0.00000658 Ry

     iteration # 11     ecut=   100.00 Ry     beta=0.50
     Davidson diagonalization with overlap
     ethr =  2.28E-09,  avg # of iterations =  3.0

     total cpu time spent up to now is      824.0 secs

     total energy              =   -1524.22884843 Ry
     Harris-Foulkes estimate   =   -1524.22884890 Ry
     estimated scf accuracy    <       0.00000119 Ry

     iteration # 12     ecut=   100.00 Ry     beta=0.50
     Davidson diagonalization with overlap
     ethr =  4.12E-10,  avg # of iterations =  3.0

     total cpu time spent up to now is      894.7 secs

     total energy              =   -1524.22884877 Ry
     Harris-Foulkes estimate   =   -1524.22884888 Ry
     estimated scf accuracy    <       0.00000032 Ry

     iteration # 13     ecut=   100.00 Ry     beta=0.50
     Davidson diagonalization with overlap
     ethr =  1.10E-10,  avg # of iterations =  2.0

     total cpu time spent up to now is      949.0 secs

     total energy              =   -1524.22884883 Ry
     Harris-Foulkes estimate   =   -1524.22884884 Ry
     estimated scf accuracy    <       0.00000003 Ry

     iteration # 14     ecut=   100.00 Ry     beta=0.50
     Davidson diagonalization with overlap
     ethr =  9.69E-12,  avg # of iterations =  4.0

     total cpu time spent up to now is     1045.8 secs

     End of self-consistent calculation

          k = 0.0000 0.0000 0.0000 ( 86485 PWs)   bands (ev):

   -23.3100 -23.3090 -23.2953 -23.2945 -20.8322 -20.8314 -20.8210 -20.8197
   -18.7488 -18.7477 -18.7454 -18.7439 -17.5433 -17.5239 -17.5227 -17.5204
   -16.7392 -16.7067 -16.6499 -16.6165 -16.2030 -16.2009 -16.1257 -16.1210
   -15.0190 -14.9708 -14.9042 -14.8777 -13.6439 -13.5938 -13.5889 -13.5633
   -12.0301 -12.0040 -11.9434 -11.9425 -10.6957 -10.6918 -10.6478 -10.5812
    -9.1708  -9.1578  -9.1480  -9.0341  -8.5640  -8.5309  -8.4437  -8.3363
    -7.2730  -7.2156  -7.1836  -7.1677  -6.7884  -6.6292  -6.6246  -6.6026
    -6.4012  -6.3772  -6.3465  -6.2612  -6.2123  -6.1576  -5.8688  -5.8018
    -5.7712  -5.7632  -5.7597  -5.7525  -5.7440  -5.4316  -5.4237  -5.4123
    -5.2997  -5.2339  -5.1358  -5.0283  -4.9638  -4.9242  -4.9083  -4.8593
    -4.8514  -4.7511  -4.7328  -4.6682  -4.6099  -4.5215  -4.4912  -4.3810
    -4.1586  -4.0011  -3.9938  -3.8518  -3.3888  -3.3676  -3.3148  -3.1979
    -2.9549  -2.8439  -2.8397  -2.6989  -2.6265  -2.6241  -2.2888  -2.2301
    -2.2297  -2.1891  -1.9180  -1.8480  -1.8178  -1.7399  -1.7129  -1.6977
    -0.4321  -0.4078  -0.3940  -0.3906  -0.3869  -0.3659  -0.1984  -0.1018
    -0.0037   0.1252   0.1805   0.1932   0.4320   0.4479   0.4675   0.5737
     0.6634   0.7019   0.7277   0.7640   0.7823   0.8352   0.8445   0.8548
     1.1300   1.1330   1.2638   1.3142   1.8357   1.9282   1.9711   2.0545
     3.8147   3.8494   3.8817   3.8897   5.4423   5.4651   5.6180   5.7826
     5.8227   6.0137   6.1090   6.3336   7.3344   7.6361   8.0199   8.1113
     8.2484   8.3620   8.5803   8.8673   8.9639   9.0666   9.2048   9.3861
     9.4882   9.6514   9.7194   9.7205

          k = 0.0000 0.0000 0.2824 ( 86494 PWs)   bands (ev):

   -23.3097 -23.3092 -23.2951 -23.2947 -20.8294 -20.8285 -20.8238 -20.8227
   -18.7478 -18.7471 -18.7460 -18.7452 -17.5352 -17.5255 -17.5235 -17.5223
   -16.7383 -16.7223 -16.6382 -16.6213 -16.1991 -16.1979 -16.1272 -16.1250
   -14.9818 -14.9553 -14.9222 -14.9112 -13.6307 -13.6057 -13.5805 -13.5677
   -12.0069 -11.9924 -11.9636 -11.9619 -10.6875 -10.6635 -10.6587 -10.6025
    -9.1553  -9.1489  -9.1470  -9.0930  -8.5116  -8.4974  -8.4544  -8.3986
    -7.2539  -7.2018  -7.2008  -7.1882  -6.6490  -6.6363  -6.6124  -6.5202
    -6.4605  -6.4486  -6.4089  -6.2710  -6.2575  -6.2468  -5.8944  -5.8441
    -5.7540  -5.7515  -5.7404  -5.7390  -5.5659  -5.4836  -5.4731  -5.4243
    -5.1718  -5.1689  -5.0724  -5.0391  -4.9794  -4.9616  -4.9483  -4.8711
    -4.8282  -4.7781  -4.7771  -4.6564  -4.5865  -4.5145  -4.5081  -4.4348
    -4.0756  -4.0167  -3.9931  -3.9214  -3.3763  -3.3379  -3.3212  -3.2140
    -2.9137  -2.8973  -2.8802  -2.7710  -2.5949  -2.5930  -2.2282  -2.2151
    -2.2110  -2.2013  -1.8677  -1.8261  -1.7893  -1.7819  -1.7454  -1.7219
    -0.4431  -0.4164  -0.4041  -0.4004  -0.3476  -0.3078  -0.2190  -0.2110
     0.0642   0.1537   0.1821   0.1940   0.4107   0.4615   0.4717   0.5106
     0.6966   0.7078   0.7167   0.7386   0.7661   0.7999   0.8303   0.8567
     1.1020   1.1077   1.2730   1.2963   1.9071   1.9763   1.9789   2.0403
     3.8027   3.8218   3.8693   3.8729   5.4642   5.5319   5.5498   5.6747
     5.9537   6.0838   6.1966   6.3644   7.5703   7.8271   8.1992   8.2236
     8.2912   8.4543   8.5783   8.7565   8.8616   9.0263   9.0447   9.1139
     9.1637   9.2998   9.3248   9.6217

          k = 0.0000-0.2667 0.0000 ( 86482 PWs)   bands (ev):

   -23.3095 -23.3095 -23.2949 -23.2948 -20.8322 -20.8315 -20.8207 -20.8200
   -18.7487 -18.7480 -18.7449 -18.7443 -17.5331 -17.5326 -17.5224 -17.5220
   -16.7285 -16.7285 -16.6278 -16.6276 -16.2019 -16.2017 -16.1238 -16.1235
   -14.9947 -14.9943 -14.8916 -14.8914 -13.6240 -13.6235 -13.5711 -13.5705
   -12.0183 -12.0181 -11.9424 -11.9423 -10.7035 -10.7029 -10.6055 -10.6049
    -9.1751  -9.1751  -9.0787  -9.0786  -8.5169  -8.5166  -8.4296  -8.4294
    -7.2461  -7.2460  -7.1710  -7.1708  -6.6988  -6.6987  -6.5240  -6.5238
    -6.4989  -6.4985  -6.2973  -6.2971  -6.2013  -6.2011  -5.8772  -5.8770
    -5.7650  -5.7648  -5.7170  -5.7169  -5.5724  -5.5723  -5.4318  -5.4316
    -5.2440  -5.2431  -5.0539  -5.0533  -4.9554  -4.9552  -4.9316  -4.9314
    -4.7740  -4.7737  -4.7133  -4.7132  -4.5717  -4.5715  -4.4229  -4.4227
    -4.0766  -4.0766  -3.9154  -3.9148  -3.3856  -3.3855  -3.2561  -3.2542
    -2.9133  -2.9129  -2.7550  -2.7535  -2.6430  -2.6430  -2.2475  -2.2467
    -2.2042  -2.2034  -1.8703  -1.8701  -1.7847  -1.7846  -1.7159  -1.7157
    -0.4005  -0.3999  -0.3965  -0.3960  -0.3133  -0.3130  -0.2447  -0.2441
     0.0499   0.0502   0.2269   0.2274   0.4168   0.4175   0.5467   0.5473
     0.6909   0.6909   0.7243   0.7243   0.7868   0.7870   0.8787   0.8790
     1.1236   1.1238   1.2879   1.2879   1.8674   1.8675   2.0272   2.0273
     3.8311   3.8311   3.8851   3.8851   5.4522   5.4523   5.7082   5.7083
     5.8787   5.8791   6.2499   6.2504   7.4899   7.4902   8.0507   8.0507
     8.2711   8.2713   8.9240   8.9242   8.9692   8.9696   9.3496   9.3498
     9.4232   9.4234   9.6598   9.6598

          k = 0.0000-0.2667 0.2824 ( 86478 PWs)   bands (ev):

   -23.3095 -23.3094 -23.2949 -23.2949 -20.8294 -20.8287 -20.8235 -20.8229
   -18.7478 -18.7471 -18.7459 -18.7452 -17.5292 -17.5287 -17.5244 -17.5239
   -16.7329 -16.7329 -16.6278 -16.6277 -16.1980 -16.1979 -16.1263 -16.1261
   -14.9761 -14.9758 -14.9092 -14.9090 -13.6194 -13.6191 -13.5733 -13.5730
   -12.0013 -12.0011 -11.9624 -11.9623 -10.6909 -10.6906 -10.6138 -10.6134
    -9.1601  -9.1601  -9.1144  -9.1143  -8.4956  -8.4955  -8.4329  -8.4327
    -7.2358  -7.2358  -7.1872  -7.1871  -6.6501  -6.6500  -6.5427  -6.5423
    -6.4784  -6.4784  -6.3413  -6.3411  -6.2559  -6.2559  -5.8496  -5.8495
    -5.7803  -5.7802  -5.7156  -5.7155  -5.5488  -5.5486  -5.4268  -5.4267
    -5.2244  -5.2239  -5.0331  -5.0325  -4.9834  -4.9821  -4.8815  -4.8814
    -4.7853  -4.7849  -4.7030  -4.7029  -4.5893  -4.5890  -4.4320  -4.4320
    -4.0502  -4.0502  -3.9620  -3.9616  -3.4116  -3.4115  -3.2315  -3.2306
    -2.9114  -2.9113  -2.8160  -2.8153  -2.6023  -2.6021  -2.2189  -2.2185
    -2.1966  -2.1963  -1.8799  -1.8799  -1.7695  -1.7695  -1.7151  -1.7151
    -0.4260  -0.4260  -0.4031  -0.4031  -0.3501  -0.3501  -0.1950  -0.1950
     0.0764   0.0768   0.2174   0.2178   0.4130   0.4133   0.5126   0.5129
     0.6937   0.6937   0.7267   0.7268   0.7797   0.7798   0.8601   0.8602
     1.1055   1.1056   1.2804   1.2804   1.9282   1.9283   2.0225   2.0226
     3.8123   3.8123   3.8712   3.8712   5.4779   5.4779   5.6392   5.6393
     5.9846   5.9849   6.3085   6.3088   7.7092   7.7094   8.1364   8.1368
     8.3661   8.3663   8.7062   8.7065   8.9775   8.9777   9.0966   9.0968
     9.1981   9.1983   9.3972   9.3977

          k = 0.3333 0.0000 0.0000 ( 86552 PWs)   bands (ev):

   -23.3062 -23.3052 -23.2987 -23.2980 -20.8320 -20.8313 -20.8213 -20.8205
   -18.7489 -18.7481 -18.7453 -18.7444 -17.5369 -17.5257 -17.5240 -17.5231
   -16.7318 -16.6883 -16.6732 -16.6270 -16.1826 -16.1803 -16.1442 -16.1400
   -15.0154 -14.9951 -14.8846 -14.8751 -13.6328 -13.6065 -13.5831 -13.5667
   -12.0239 -12.0110 -11.9411 -11.9404 -10.7003 -10.6969 -10.6270 -10.5953
    -9.1679  -9.1548  -9.1238  -9.0635  -8.5669  -8.5549  -8.4071  -8.3577
    -7.2600  -7.2330  -7.1751  -7.1688  -6.7481  -6.6768  -6.6309  -6.6024
    -6.4463  -6.4215  -6.2166  -6.1564  -6.0968  -6.0692  -5.8941  -5.8527
    -5.8394  -5.8054  -5.7147  -5.7139  -5.6134  -5.5361  -5.4376  -5.4211
    -5.2745  -5.1887  -5.0682  -5.0657  -5.0357  -4.9730  -4.9249  -4.9035
    -4.7986  -4.7379  -4.7017  -4.6968  -4.6465  -4.6170  -4.5605  -4.4400
    -4.1477  -4.0835  -3.9437  -3.8844  -3.4084  -3.3988  -3.2257  -3.1670
    -2.9826  -2.9569  -2.8225  -2.7657  -2.5591  -2.5374  -2.3950  -2.3396
    -2.0989  -2.0539  -1.9269  -1.8925  -1.8465  -1.7394  -1.7382  -1.7328
    -0.4092  -0.4086  -0.4015  -0.4012  -0.3911  -0.3756  -0.1821  -0.1343
     0.0135   0.0615   0.2134   0.2330   0.4315   0.4393   0.5037   0.5615
     0.6755   0.7056   0.7302   0.7420   0.8537   0.8704   0.9071   0.9400
     1.1140   1.1398   1.1684   1.2274   1.8753   1.9255   2.0063   2.0488
     3.8001   3.8301   3.8317   3.8520   5.4187   5.4332   5.5723   5.6809
     5.9218   6.0288   6.1523   6.2681   7.7446   8.0779   8.2147   8.3189
     8.4406   8.5487   8.6121   8.6805   8.9188   9.0090   9.1793   9.1990
     9.3880   9.5724   9.6323   9.6493

          k = 0.3333 0.0000 0.2824 ( 86527 PWs)   bands (ev):

   -23.3059 -23.3055 -23.2985 -23.2982 -20.8294 -20.8286 -20.8241 -20.8232
   -18.7480 -18.7473 -18.7462 -18.7454 -17.5321 -17.5261 -17.5251 -17.5237
   -16.7216 -16.6920 -16.6722 -16.6411 -16.1819 -16.1785 -16.1454 -16.1424
   -14.9785 -14.9671 -14.9120 -14.9085 -13.6196 -13.5951 -13.5947 -13.5752
   -12.0031 -11.9960 -11.9615 -11.9605 -10.6839 -10.6687 -10.6466 -10.6169
    -9.1578  -9.1511  -9.1287  -9.1032  -8.5151  -8.5104  -8.4377  -8.4118
    -7.2415  -7.2160  -7.1963  -7.1881  -6.6556  -6.6545  -6.5807  -6.5407
    -6.4844  -6.4756  -6.3653  -6.2891  -6.0874  -6.0723  -5.8531  -5.8338
    -5.7864  -5.7343  -5.7272  -5.7077  -5.5743  -5.5379  -5.4589  -5.4468
    -5.2084  -5.1882  -5.0527  -5.0445  -4.9750  -4.9622  -4.9198  -4.8896
    -4.8727  -4.8577  -4.7392  -4.7098  -4.6562  -4.6004  -4.5540  -4.5087
    -4.0465  -4.0182  -3.9545  -3.9259  -3.3741  -3.3562  -3.3107  -3.2449
    -2.9143  -2.8746  -2.8333  -2.7962  -2.5861  -2.5395  -2.4098  -2.3695
    -2.0741  -2.0430  -1.8765  -1.8538  -1.8182  -1.7791  -1.7724  -1.7463
    -0.4344  -0.4204  -0.4168  -0.4102  -0.3401  -0.3193  -0.2180  -0.2138
     0.0809   0.1176   0.1986   0.2000   0.4366   0.4516   0.5010   0.5302
     0.6877   0.6987   0.7159   0.7253   0.8326   0.8606   0.8666   0.9103
     1.1053   1.1275   1.1869   1.2175   1.9384   1.9759   2.0093   2.0408
     3.7881   3.8072   3.8194   3.8352   5.4492   5.4917   5.5248   5.6120
     6.0289   6.1537   6.1687   6.2962   7.8544   8.1553   8.2981   8.3866
     8.3940   8.5073   8.6424   8.7569   8.8520   8.9958   9.0917   9.1146
     9.2768   9.2846   9.5264   9.5685

          k = 0.3333-0.2667 0.0000 ( 86376 PWs)   bands (ev):

   -23.3058 -23.3057 -23.2984 -23.2983 -20.8320 -20.8313 -20.8213 -20.8206
   -18.7488 -18.7481 -18.7452 -18.7445 -17.5315 -17.5309 -17.5237 -17.5231
   -16.7210 -16.7208 -16.6398 -16.6394 -16.1814 -16.1813 -16.1422 -16.1420
   -15.0026 -15.0022 -14.8831 -14.8828 -13.6179 -13.6172 -13.5770 -13.5762
   -12.0177 -12.0175 -11.9411 -11.9411 -10.7041 -10.7035 -10.6063 -10.6057
    -9.1586  -9.1586  -9.0947  -9.0946  -8.5233  -8.5231  -8.4297  -8.4294
    -7.2389  -7.2388  -7.1770  -7.1768  -6.6848  -6.6847  -6.5370  -6.5367
    -6.5182  -6.5178  -6.2346  -6.2341  -6.0840  -6.0840  -5.8743  -5.8740
    -5.8232  -5.8230  -5.7119  -5.7113  -5.5334  -5.5329  -5.4591  -5.4585
    -5.1980  -5.1973  -5.0751  -5.0744  -4.9700  -4.9695  -4.9273  -4.9266
    -4.7904  -4.7901  -4.7207  -4.7201  -4.6390  -4.6390  -4.4892  -4.4891
    -4.0966  -4.0964  -3.9263  -3.9258  -3.3976  -3.3971  -3.2098  -3.2081
    -2.9397  -2.9394  -2.8245  -2.8235  -2.5549  -2.5547  -2.3604  -2.3602
    -2.0789  -2.0786  -1.8788  -1.8788  -1.8105  -1.8102  -1.7449  -1.7447
    -0.4067  -0.4065  -0.4018  -0.4016  -0.2964  -0.2960  -0.2592  -0.2587
     0.0616   0.0621   0.2159   0.2164   0.4296   0.4303   0.5510   0.5516
     0.6944   0.6948   0.7232   0.7235   0.8588   0.8590   0.9188   0.9191
     1.1247   1.1249   1.2032   1.2034   1.8890   1.8891   2.0365   2.0368
     3.8142   3.8144   3.8418   3.8419   5.4359   5.4360   5.6139   5.6142
     5.9637   5.9643   6.2217   6.2222   7.9069   7.9073   8.2631   8.2635
     8.4869   8.4874   8.7278   8.7282   8.9933   8.9939   9.1560   9.1561
     9.4571   9.4574   9.5242   9.5246

          k = 0.3333-0.2667 0.2824 ( 86534 PWs)   bands (ev):

   -23.3057 -23.3057 -23.2984 -23.2983 -20.8294 -20.8287 -20.8240 -20.8233
   -18.7481 -18.7472 -18.7462 -18.7454 -17.5324 -17.5269 -17.5242 -17.5229
   -16.7152 -16.7117 -16.6576 -16.6436 -16.1817 -16.1782 -16.1449 -16.1424
   -14.9894 -14.9570 -14.9243 -14.8953 -13.6118 -13.6086 -13.5841 -13.5801
   -12.0069 -11.9932 -11.9647 -11.9586 -10.7011 -10.6665 -10.6341 -10.6112
    -9.1574  -9.1474  -9.1354  -9.1052  -8.5078  -8.4830  -8.4594  -8.4196
    -7.2288  -7.2281  -7.1983  -7.1870  -6.6769  -6.5986  -6.5586  -6.5546
    -6.5475  -6.4359  -6.3679  -6.3257  -6.0865  -6.0748  -5.8424  -5.8363
    -5.7777  -5.7736  -5.7061  -5.6958  -5.5750  -5.5317  -5.4906  -5.4184
    -5.2658  -5.1227  -5.1020  -5.0204  -5.0107  -4.9548  -4.8973  -4.8934
    -4.8582  -4.8276  -4.7451  -4.6864  -4.6558  -4.6080  -4.5301  -4.5251
    -4.0250  -4.0248  -3.9621  -3.9398  -3.4479  -3.3737  -3.2793  -3.2106
    -2.8906  -2.8794  -2.8413  -2.8079  -2.6008  -2.5464  -2.3918  -2.3712
    -2.0654  -2.0517  -1.8733  -1.8556  -1.8187  -1.8054  -1.7434  -1.7354
    -0.4334  -0.4185  -0.4155  -0.4037  -0.3765  -0.3341  -0.2172  -0.1652
     0.0689   0.1210   0.1827   0.2112   0.4361   0.4403   0.4876   0.5570
     0.6641   0.7026   0.7258   0.7332   0.8187   0.8266   0.9084   0.9258
     1.0992   1.1169   1.2050   1.2094   1.9450   1.9563   2.0206   2.0400
     3.7920   3.8002   3.8229   3.8348   5.4638   5.4686   5.5683   5.5765
     6.0448   6.0910   6.2509   6.2664   7.9164   8.1189   8.1865   8.2918
     8.5000   8.5266   8.5643   8.7485   8.9100   8.9630   9.0962   9.1448
     9.2795   9.4217   9.5421   9.5794

     highest occupied, lowest unoccupied level (ev):     2.0545    3.7881

!    total energy              =   -1524.22884885 Ry
     Harris-Foulkes estimate   =   -1524.22884885 Ry
     estimated scf accuracy    <          9.2E-09 Ry

     total all-electron energy =     -5721.841835 Ry

     The total energy is the sum of the following terms:

     one-electron contribution =    -760.76265942 Ry
     hartree contribution      =     499.58789029 Ry
     xc contribution           =    -311.06952278 Ry
     ewald contribution        =    -533.87008633 Ry
     Dispersion Correction     =      -0.40660831 Ry
     one-center paw contrib.   =    -417.70786229 Ry

     convergence has been achieved in  14 iterations

     Forces acting on atoms (cartesian axes, Ry/au):

     atom    1 type  2   force =     0.00150675   -0.00219641   -0.00157151
     atom    2 type  2   force =    -0.00150675    0.00219641   -0.00157151
     atom    3 type  2   force =     0.00114397    0.00211167   -0.00080405
     atom    4 type  2   force =    -0.00114397   -0.00211167   -0.00080405
     atom    5 type  1   force =    -0.00073874    0.00032352    0.00037965
     atom    6 type  1   force =     0.00073874   -0.00032352    0.00037965
     atom    7 type  1   force =    -0.00050493   -0.00041197   -0.00012597
     atom    8 type  1   force =     0.00050493    0.00041197   -0.00012597
     atom    9 type  3   force =     0.00002019   -0.00011728    0.00056751
     atom   10 type  3   force =    -0.00002019    0.00011728    0.00056751
     atom   11 type  3   force =    -0.00001926    0.00022187    0.00068459
     atom   12 type  3   force =     0.00001926   -0.00022187    0.00068459
     atom   13 type  1   force =    -0.00165921    0.00044010   -0.00104613
     atom   14 type  1   force =     0.00165921   -0.00044010   -0.00104613
     atom   15 type  1   force =    -0.00179940   -0.00028917   -0.00076136
     atom   16 type  1   force =     0.00179940    0.00028917   -0.00076136
     atom   17 type  1   force =    -0.00033424   -0.00240750   -0.00007938
     atom   18 type  1   force =     0.00033424    0.00240750   -0.00007938
     atom   19 type  1   force =    -0.00009379    0.00223377   -0.00055481
     atom   20 type  1   force =     0.00009379   -0.00223377   -0.00055481
     atom   21 type  1   force =     0.00143913    0.00038633    0.00009164
     atom   22 type  1   force =    -0.00143913   -0.00038633    0.00009164
     atom   23 type  1   force =     0.00103254   -0.00045832    0.00097874
     atom   24 type  1   force =    -0.00103254    0.00045832    0.00097874
     atom   25 type  1   force =    -0.00055635    0.00133135    0.00033792
     atom   26 type  1   force =     0.00055635   -0.00133135    0.00033792
     atom   27 type  1   force =    -0.00018558   -0.00115532   -0.00039459
     atom   28 type  1   force =     0.00018558    0.00115532   -0.00039459
     atom   29 type  3   force =    -0.00017582    0.00034147   -0.00033891
     atom   30 type  3   force =     0.00017582   -0.00034147   -0.00033891
     atom   31 type  3   force =    -0.00030831   -0.00049535   -0.00010728
     atom   32 type  3   force =     0.00030831    0.00049535   -0.00010728
     atom   33 type  4   force =     0.00020648    0.00189635    0.00057382
     atom   34 type  4   force =    -0.00020648   -0.00189635    0.00057382
     atom   35 type  4   force =     0.00025957   -0.00186452    0.00049126
     atom   36 type  4   force =    -0.00025957    0.00186452    0.00049126
     atom   37 type  4   force =    -0.00222235   -0.00081700   -0.00148354
     atom   38 type  4   force =     0.00222235    0.00081700   -0.00148354
     atom   39 type  4   force =    -0.00211763    0.00087841   -0.00164732
     atom   40 type  4   force =     0.00211763   -0.00087841   -0.00164732
     atom   41 type  4   force =     0.00223845    0.00034666    0.00211681
     atom   42 type  4   force =    -0.00223845   -0.00034666    0.00211681
     atom   43 type  4   force =     0.00232270   -0.00040713    0.00199523
     atom   44 type  4   force =    -0.00232270    0.00040713    0.00199523
     atom   45 type  2   force =     0.00134814   -0.00040780   -0.00033878
     atom   46 type  2   force =    -0.00134814    0.00040780   -0.00033878
     atom   47 type  2   force =     0.00138383    0.00059266   -0.00038885
     atom   48 type  2   force =    -0.00138383   -0.00059266   -0.00038885
     atom   49 type  3   force =     0.00033672   -0.00014579   -0.00087145
     atom   50 type  3   force =    -0.00033672    0.00014579   -0.00087145
     atom   51 type  3   force =     0.00035895    0.00010674   -0.00091427
     atom   52 type  3   force =    -0.00035895   -0.00010674   -0.00091427
     atom   53 type  3   force =    -0.00037397    0.00032250   -0.00064051
     atom   54 type  3   force =     0.00037397   -0.00032250   -0.00064051
     atom   55 type  3   force =    -0.00038203   -0.00041748   -0.00062763
     atom   56 type  3   force =     0.00038203    0.00041748   -0.00062763
     atom   57 type  2   force =    -0.00009727    0.00169258   -0.00026559
     atom   58 type  2   force =     0.00009727   -0.00169258   -0.00026559
     atom   59 type  2   force =    -0.00032473   -0.00168421    0.00010563
     atom   60 type  2   force =     0.00032473    0.00168421    0.00010563
     atom   61 type  2   force =    -0.00056275   -0.00150668    0.00156287
     atom   62 type  2   force =     0.00056275    0.00150668    0.00156287
     atom   63 type  2   force =    -0.00026377    0.00147544    0.00084179
     atom   64 type  2   force =     0.00026377   -0.00147544    0.00084179
     atom   65 type  3   force =     0.00016379    0.00049111    0.00069724
     atom   66 type  3   force =    -0.00016379   -0.00049111    0.00069724
     atom   67 type  3   force =     0.00014596   -0.00043388    0.00074140
     atom   68 type  3   force =    -0.00014596    0.00043388    0.00074140
     atom   69 type  3   force =     0.00062727   -0.00015127    0.00022932
     atom   70 type  3   force =    -0.00062727    0.00015127    0.00022932
     atom   71 type  3   force =     0.00055452    0.00005000    0.00040938
     atom   72 type  3   force =    -0.00055452   -0.00005000    0.00040938
     atom   73 type  4   force =    -0.00134004   -0.00021867   -0.00003290
     atom   74 type  4   force =     0.00134004    0.00021867   -0.00003290
     atom   75 type  4   force =    -0.00138851    0.00031700   -0.00001632
     atom   76 type  4   force =     0.00138851   -0.00031700   -0.00001632
     atom   77 type  3   force =     0.00013388    0.00029754    0.00000077
     atom   78 type  3   force =    -0.00013388   -0.00029754    0.00000077
     atom   79 type  3   force =     0.00017072   -0.00036918   -0.00001989
     atom   80 type  3   force =    -0.00017072    0.00036918   -0.00001989
     atom   81 type  3   force =     0.00115347   -0.00071348    0.00011183
     atom   82 type  3   force =    -0.00115347    0.00071348    0.00011183
     atom   83 type  3   force =     0.00116681    0.00072536    0.00011366
     atom   84 type  3   force =    -0.00116681   -0.00072536    0.00011366

     Total force =     0.015538     Total SCF correction =     0.000132


     Computing stress (Cartesian axis) and pressure

          total   stress  (Ry/bohr**3)                   (kbar)     P=   -4.22
  -0.00001376   0.00000033   0.00000000         -2.02      0.05      0.00
   0.00000033  -0.00006649   0.00000000          0.05     -9.78      0.00
   0.00000000   0.00000000  -0.00000591          0.00      0.00     -0.87


     Writing output data file scf.save
 
     init_run     :     30.89s CPU     32.17s WALL (       1 calls)
     electrons    :    974.18s CPU   1013.13s WALL (       1 calls)
     forces       :     15.43s CPU     15.55s WALL (       1 calls)
     stress       :     65.76s CPU     65.96s WALL (       1 calls)

     Called by init_run:
     wfcinit      :     26.15s CPU     27.31s WALL (       1 calls)
     potinit      :      1.71s CPU      1.73s WALL (       1 calls)

     Called by electrons:
     c_bands      :    873.29s CPU    907.30s WALL (      14 calls)
     sum_band     :     90.98s CPU     95.12s WALL (      14 calls)
     v_of_rho     :      1.45s CPU      1.59s WALL (      15 calls)
     newd         :      2.85s CPU      3.49s WALL (      15 calls)
     PAW_pot      :      5.14s CPU      5.14s WALL (      15 calls)
     mix_rho      :      0.31s CPU      0.34s WALL (      14 calls)

     Called by c_bands:
     init_us_2    :      5.11s CPU      5.14s WALL (     248 calls)
     cegterg      :    853.23s CPU    887.13s WALL (     112 calls)

     Called by sum_band:
     sum_band:bec :      0.07s CPU      0.07s WALL (     112 calls)
     addusdens    :      2.90s CPU      3.47s WALL (      14 calls)

     Called by *egterg:
     h_psi        :    465.33s CPU    491.49s WALL (     595 calls)
     s_psi        :    101.45s CPU    101.48s WALL (     595 calls)
     g_psi        :      2.35s CPU      2.36s WALL (     475 calls)
     cdiaghg      :     57.44s CPU     57.43s WALL (     587 calls)

     Called by h_psi:
     h_psi:pot    :    461.68s CPU    487.76s WALL (     595 calls)
     h_psi:calbec :    101.05s CPU    101.32s WALL (     595 calls)
     vloc_psi     :    258.80s CPU    284.55s WALL (     595 calls)
     add_vuspsi   :    101.83s CPU    101.88s WALL (     595 calls)

     General routines
     calbec       :    149.30s CPU    149.67s WALL (     747 calls)
     fft          :      1.89s CPU      2.13s WALL (     219 calls)
     fftw         :    278.82s CPU    306.03s WALL (  126710 calls)
 
     Parallel routines
     fft_scatter  :     62.06s CPU     82.10s WALL (  126929 calls)
 
     PWSCF        : 18m14.74s CPU    19m39.18s WALL

 
   This run was terminated on:   6:42:19   7Dec2017            

=------------------------------------------------------------------------------=
   JOB DONE.
=------------------------------------------------------------------------------=
