
     Program PWSCF v.6.1 (svn rev. 13369) starts on 20Dec2017 at  8:21: 6 

     This program is part of the open-source Quantum ESPRESSO suite
     for quantum simulation of materials; please cite
         "P. Giannozzi et al., J. Phys.:Condens. Matter 21 395502 (2009);
          URL http://www.quantum-espresso.org", 
     in publications or presentations arising from this work. More details at
     http://www.quantum-espresso.org/quote

     Parallel version (MPI), running on     8 processors
     R & G space division:  proc/nbgrp/npool/nimage =       8
     Waiting for input...
     Reading input from standard input

     Current dimensions of program PWSCF are:
     Max number of different atomic species (ntypx) = 10
     Max number of k-points (npk) =  40000
     Max angular momentum in pseudopotentials (lmaxx) =  3
               file C.pbe-n-kjpaw_psl.0.1.UPF: wavefunction(s)  2P renormalized
               file N.pbe-n-kjpaw_psl.0.1.UPF: wavefunction(s)  2P renormalized
               file H.pbe-kjpaw_psl.0.1.UPF: wavefunction(s)  1S renormalized
               file O.pbe-n-kjpaw_psl.0.1.UPF: wavefunction(s)  2P renormalized

     -------------------------------------
     Parameters for Dispersion Correction:
     -------------------------------------
       atom      VdW radius       C_6     

        C          2.744         60.710
        N          2.640         42.670
        H          1.892          4.857
        O          2.536         24.284

     Subspace diagonalization in iterative solution of the eigenvalue problem:
     a serial algorithm will be used

 
     Parallelization info
     --------------------
     sticks:   dense  smooth     PW     G-vecs:    dense   smooth      PW
     Min        1462    1462    388               146135   146135   19962
     Max        1463    1463    389               146137   146137   19965
     Sum       11699   11699   3105              1169091  1169091  159705
 


     bravais-lattice index     =            0
     lattice parameter (alat)  =      20.4090  a.u.
     unit-cell volume          =    8654.6698 (a.u.)^3
     number of atoms/cell      =          152
     number of atomic types    =            4
     number of electrons       =       416.00
     number of Kohn-Sham states=          249
     kinetic-energy cutoff     =     100.0000  Ry
     charge density cutoff     =     400.0000  Ry
     convergence threshold     =      1.0E-08
     mixing beta               =       0.5000
     number of iterations used =            8  plain     mixing
     Exchange-correlation      =  SLA  PW   PBX  PBC ( 1  4  3  4 0 0)

     celldm(1)=  20.409042  celldm(2)=   0.000000  celldm(3)=   0.000000
     celldm(4)=   0.000000  celldm(5)=   0.000000  celldm(6)=   0.000000

     crystal axes: (cart. coord. in units of alat)
               a(1) = (   1.000000   0.000000   0.000000 )  
               a(2) = (   0.000000   0.883241   0.000000 )  
               a(3) = (  -0.387669   0.000000   1.152666 )  

     reciprocal axes: (cart. coord. in units 2 pi/alat)
               b(1) = (  1.000000  0.000000  0.336323 )  
               b(2) = (  0.000000  1.132194  0.000000 )  
               b(3) = (  0.000000  0.000000  0.867554 )  


     PseudoPot. # 1 for  C read from file:
     /scratch/ahofstet/pseudo/C.pbe-n-kjpaw_psl.0.1.UPF
     MD5 check sum: 430fe95172b1e11ef3f8ed03bac87931
     Pseudo is Projector augmented-wave + core cor, Zval =  4.0
     Generated using "atomic" code by A. Dal Corso  v.5.0.99 svn rev. 10869
     Shape of augmentation charge: BESSEL
     Using radial grid of 1073 points,  4 beta functions with: 
                l(1) =   0
                l(2) =   0
                l(3) =   1
                l(4) =   1
     Q(r) pseudized with 0 coefficients 


     PseudoPot. # 2 for  N read from file:
     /scratch/ahofstet/pseudo/N.pbe-n-kjpaw_psl.0.1.UPF
     MD5 check sum: f73187c8b701007e77325f868c9291d7
     Pseudo is Projector augmented-wave + core cor, Zval =  5.0
     Generated using "atomic" code by A. Dal Corso  v.5.0.99 svn rev. 10869
     Shape of augmentation charge: PSQ
     Using radial grid of 1085 points,  4 beta functions with: 
                l(1) =   0
                l(2) =   0
                l(3) =   1
                l(4) =   1
     Q(r) pseudized with 0 coefficients 


     PseudoPot. # 3 for  H read from file:
     /scratch/ahofstet/pseudo/H.pbe-kjpaw_psl.0.1.UPF
     MD5 check sum: 94e484f906d9e9773b2f6e52662335b2
     Pseudo is Projector augmented-wave, Zval =  1.0
     Generated using "atomic" code by A. Dal Corso  v.5.0.99 svn rev. 10869
     Shape of augmentation charge: PSQ
     Using radial grid of  929 points,  2 beta functions with: 
                l(1) =   0
                l(2) =   0
     Q(r) pseudized with 0 coefficients 


     PseudoPot. # 4 for  O read from file:
     /scratch/ahofstet/pseudo/O.pbe-n-kjpaw_psl.0.1.UPF
     MD5 check sum: 3f94a2996a3169367d6eb21d9b593f20
     Pseudo is Projector augmented-wave + core cor, Zval =  6.0
     Generated using "atomic" code by A. Dal Corso  v.5.0.99 svn rev. 10869
     Shape of augmentation charge: BESSEL
     Using radial grid of 1095 points,  4 beta functions with: 
                l(1) =   0
                l(2) =   0
                l(3) =   1
                l(4) =   1
     Q(r) pseudized with 0 coefficients 


     atomic species   valence    mass     pseudopotential
        C              4.00    12.01070      C( 1.00)
        N              5.00    14.00670      N( 1.00)
        H              1.00     1.00794      H( 1.00)
        O              6.00    15.99940      O( 1.00)

      2 Sym. Ops., with inversion, found



   Cartesian axes

     site n.     atom                  positions (alat units)
         1           N   tau(   1) = (  -0.2772974   0.3443293   0.8292022  )
         2           N   tau(   2) = (   0.6957935   0.7859484   0.8997973  )
         3           N   tau(   3) = (   0.8896287   0.5389114   0.3234639  )
         4           N   tau(   4) = (  -0.0834622   0.0972923   0.2528689  )
         5           N   tau(   5) = (   0.7522764   0.3557181   0.7073323  )
         6           N   tau(   6) = (  -0.3337839   0.7973416   1.0216660  )
         7           N   tau(   7) = (  -0.1399451   0.5275227   0.4453339  )
         8           N   tau(   8) = (   0.9461152   0.0858992   0.1310001  )
         9           N   tau(   9) = (  -0.0731570   0.3508387   0.8241902  )
        10           N   tau(  10) = (   0.4916530   0.7924583   0.9048026  )
        11           N   tau(  11) = (   0.6854883   0.5324020   0.3284759  )
        12           N   tau(  12) = (   0.1206784   0.0907825   0.2478636  )
        13           N   tau(  13) = (   0.2934622   0.2664655   0.7057179  )
        14           N   tau(  14) = (   0.1250278   0.7080881   1.0232876  )
        15           N   tau(  15) = (   0.3188691   0.6167752   0.4469482  )
        16           N   tau(  16) = (   0.4873035   0.1751526   0.1293785  )
        17           N   tau(  17) = (   0.3191301   0.1619190   0.6400921  )
        18           N   tau(  18) = (   0.0993664   0.6035367   1.0889076  )
        19           N   tau(  19) = (   0.2932012   0.7213218   0.5125741  )
        20           N   tau(  20) = (   0.5129649   0.2797041   0.0637586  )
        21           N   tau(  21) = (   0.1518281   0.2596788   0.5586539  )
        22           N   tau(  22) = (   0.6543369   0.7012973   0.0176786  )
        23           N   tau(  23) = (   0.4605032   0.6235620   0.5940122  )
        24           N   tau(  24) = (  -0.0420055   0.1819435   1.1349876  )
        25           C   tau(  25) = (   0.5930721   0.3427655   0.8732437  )
        26           C   tau(  26) = (  -0.1745763   0.7843869   0.8557567  )
        27           C   tau(  27) = (   0.0192593   0.5404752   0.2794224  )
        28           C   tau(  28) = (   0.7869076   0.0988538   0.2969094  )
        29           C   tau(  29) = (   0.5075198   0.3056610   0.7659132  )
        30           C   tau(  30) = (  -0.0890301   0.7472830   0.9630913  )
        31           C   tau(  31) = (   0.1048116   0.5775797   0.3867529  )
        32           C   tau(  32) = (   0.7013614   0.1359577   0.1895748  )
        33           H   tau(  33) = (   0.5330877   0.2140302   0.7302036  )
        34           H   tau(  34) = (  -0.1145992   0.6556506   0.9987959  )
        35           H   tau(  35) = (   0.0792437   0.6692106   0.4224626  )
        36           H   tau(  36) = (   0.7269305   0.2275901   0.1538703  )
        37           H   tau(  37) = (   0.5164438   0.3733016   0.6905571  )
        38           H   tau(  38) = (  -0.0979585   0.8149215   1.0384486  )
        39           H   tau(  39) = (   0.0958875   0.5099392   0.4621091  )
        40           H   tau(  40) = (   0.7102899   0.0683193   0.1142175  )
        41           C   tau(  41) = (   0.3723098   0.3033268   0.8113264  )
        42           C   tau(  42) = (   0.0461799   0.7449500   0.9176812  )
        43           C   tau(  43) = (   0.2400216   0.5799140   0.3413397  )
        44           C   tau(  44) = (   0.5661514   0.1382907   0.2349849  )
        45           C   tau(  45) = (   0.3585444   0.2093840   0.9175499  )
        46           C   tau(  46) = (   0.0599486   0.6510061   0.8114597  )
        47           C   tau(  47) = (   0.2537869   0.6738567   0.2351163  )
        48           C   tau(  48) = (   0.5523828   0.2322347   0.3412065  )
        49           H   tau(  49) = (   0.2615848   0.2091091   0.9490504  )
        50           H   tau(  50) = (   0.1569112   0.6507274   0.7799686  )
        51           H   tau(  51) = (   0.3507466   0.6741316   0.2036157  )
        52           H   tau(  52) = (   0.4554201   0.2325133   0.3726976  )
        53           H   tau(  53) = (   0.3820727   0.1163660   0.8834289  )
        54           H   tau(  54) = (   0.0364146   0.5579895   0.8455810  )
        55           H   tau(  55) = (   0.2302586   0.7668748   0.2692372  )
        56           H   tau(  56) = (   0.5759167   0.3252513   0.3070852  )
        57           C   tau(  57) = (   0.4448769   0.2470175   1.0244520  )
        58           C   tau(  58) = (  -0.0263750   0.6886415   0.7045518  )
        59           C   tau(  59) = (   0.1674544   0.6362232   0.1282142  )
        60           C   tau(  60) = (   0.6387063   0.1945992   0.4481143  )
        61           H   tau(  61) = (   0.4375037   0.1795303   1.1002437  )
        62           H   tau(  62) = (  -0.0189982   0.6211551   0.6287593  )
        63           H   tau(  63) = (   0.1748277   0.7037104   0.0524224  )
        64           H   tau(  64) = (   0.6313296   0.2620856   0.5239068  )
        65           C   tau(  65) = (   0.5798520   0.2485024   0.9793795  )
        66           C   tau(  66) = (  -0.1613513   0.6901244   0.7496211  )
        67           C   tau(  67) = (   0.0324794   0.6347384   0.1732867  )
        68           C   tau(  68) = (   0.7736826   0.1931164   0.4030450  )
        69           H   tau(  69) = (   0.6405909   0.2741206   1.0570572  )
        70           H   tau(  70) = (  -0.2220895   0.7157417   0.6719427  )
        71           H   tau(  71) = (  -0.0282595   0.6091202   0.0956089  )
        72           H   tau(  72) = (   0.8344209   0.1674991   0.4807234  )
        73           H   tau(  73) = (   0.6083184   0.1562445   0.9470915  )
        74           H   tau(  74) = (  -0.1898164   0.5978663   0.7819099  )
        75           H   tau(  75) = (   0.0040129   0.7269962   0.2055746  )
        76           H   tau(  76) = (   0.8021478   0.2853744   0.3707562  )
        77           C   tau(  77) = (   0.4093780   0.3768790   1.0709163  )
        78           C   tau(  78) = (   0.0091238   0.8185041   0.6580893  )
        79           C   tau(  79) = (   0.2029533   0.5063617   0.0817499  )
        80           C   tau(  80) = (   0.6032075   0.0647367   0.4945769  )
        81           H   tau(  81) = (   0.4714507   0.4037716   1.1474829  )
        82           H   tau(  82) = (  -0.0529463   0.8453937   0.5815195  )
        83           H   tau(  83) = (   0.1408806   0.4794692   0.0051833  )
        84           H   tau(  84) = (   0.6652776   0.0378470   0.5711467  )
        85           H   tau(  85) = (   0.3143076   0.3756641   1.1072705  )
        86           H   tau(  86) = (   0.1041960   0.8172918   0.6217392  )
        87           H   tau(  87) = (   0.2980237   0.5075767   0.0453957  )
        88           H   tau(  88) = (   0.5081354   0.0659490   0.5309270  )
        89           C   tau(  89) = (   0.5560821   0.4729202   0.9180963  )
        90           C   tau(  90) = (  -0.1375899   0.0313009   0.8109048  )
        91           C   tau(  91) = (   0.0562492   0.4103206   0.2345699  )
        92           C   tau(  92) = (   0.7499212   0.8519399   0.3417614  )
        93           H   tau(  93) = (   0.6184695   0.5023126   0.9932508  )
        94           H   tau(  94) = (  -0.1999765   0.0606904   0.7357484  )
        95           H   tau(  95) = (  -0.0061382   0.3809281   0.1594153  )
        96           H   tau(  96) = (   0.8123079   0.8225503   0.4169177  )
        97           H   tau(  97) = (   0.5656839   0.5384370   0.8408006  )
        98           H   tau(  98) = (  -0.1471955   0.0968190   0.8881986  )
        99           H   tau(  99) = (   0.0466474   0.3448038   0.3118656  )
       100           H   tau( 100) = (   0.7595269   0.7864217   0.2644675  )
       101           C   tau( 101) = (   0.4215198   0.4704563   0.9643602  )
       102           C   tau( 102) = (  -0.0030265   0.0288399   0.7646458  )
       103           C   tau( 103) = (   0.1908115   0.4127844   0.1883060  )
       104           C   tau( 104) = (   0.6153578   0.8544008   0.3880204  )
       105           H   tau( 105) = (   0.3958236   0.5638340   0.9956003  )
       106           H   tau( 106) = (   0.0226702   0.1222185   0.7334085  )
       107           H   tau( 107) = (   0.2165077   0.3194067   0.1570659  )
       108           H   tau( 108) = (   0.5896611   0.7610223   0.4192577  )
       109           C   tau( 109) = (   0.3354540   0.4329367   0.8570630  )
       110           C   tau( 110) = (   0.0830372   0.8745596   0.8719438  )
       111           C   tau( 111) = (   0.2768774   0.4503041   0.2956032  )
       112           C   tau( 112) = (   0.5292941   0.0086811   0.2807224  )
       113           H   tau( 113) = (   0.2387509   0.4324458   0.8891199  )
       114           H   tau( 114) = (   0.1797394   0.8740652   0.8398838  )
       115           H   tau( 115) = (   0.3735804   0.4507949   0.2635462  )
       116           H   tau( 116) = (   0.4325919   0.0091755   0.3127824  )
       117           H   tau( 117) = (   0.3445186   0.5001429   0.7809684  )
       118           H   tau( 118) = (   0.0739762   0.0585254   0.9480383  )
       119           H   tau( 119) = (   0.2678128   0.3830979   0.3716978  )
       120           H   tau( 120) = (   0.5383552   0.8247153   0.2046279  )
       121           C   tau( 121) = (  -0.1722478   0.3422918   0.8972914  )
       122           C   tau( 122) = (   0.5907469   0.7839087   0.8317067  )
       123           C   tau( 123) = (   0.7845791   0.5409489   0.2553748  )
       124           C   tau( 124) = (   0.0215844   0.0993321   0.3209595  )
       125           H   tau( 125) = (  -0.1711709   0.3312815   0.9971507  )
       126           H   tau( 126) = (   0.5896746   0.7728964   0.7318474  )
       127           H   tau( 127) = (   0.7835022   0.5519593   0.1555155  )
       128           H   tau( 128) = (   0.0226567   0.1103443   0.4208187  )
       129           C   tau( 129) = (  -0.1244052   0.3585303   0.7091752  )
       130           C   tau( 130) = (   0.5428982   0.8001536   1.0198174  )
       131           C   tau( 131) = (   0.7367365   0.5247105   0.4434910  )
       132           C   tau( 132) = (   0.0694331   0.0830871   0.1328487  )
       133           H   tau( 133) = (  -0.0710262   0.3659195   0.6241020  )
       134           H   tau( 134) = (   0.4895170   0.8075451   1.1048896  )
       135           H   tau( 135) = (   0.6833575   0.5173213   0.5285641  )
       136           H   tau( 136) = (   0.1228144   0.0756956   0.0477765  )
       137           C   tau( 137) = (   0.2321724   0.1623375   0.5527966  )
       138           C   tau( 138) = (   0.5739965   0.6039530   0.0235319  )
       139           C   tau( 139) = (   0.3801589   0.7209033   0.5998695  )
       140           C   tau( 140) = (   0.0383348   0.2792878   1.1291343  )
       141           H   tau( 141) = (   0.2276456   0.0899588   0.4828393  )
       142           H   tau( 142) = (   0.5785255   0.5315710   0.0934867  )
       143           H   tau( 143) = (   0.3846858   0.7932819   0.6698269  )
       144           H   tau( 144) = (   0.0338058   0.3516697   1.0591794  )
       145           C   tau( 145) = (   0.1934251   0.3229825   0.6562386  )
       146           C   tau( 146) = (   0.2250648   0.7646055   1.0727654  )
       147           C   tau( 147) = (   0.4189063   0.5602583   0.4964275  )
       148           C   tau( 148) = (   0.3872665   0.1186353   0.0799008  )
       149           H   tau( 149) = (   0.1527717   0.4064050   0.6946244  )
       150           H   tau( 150) = (   0.2657144   0.8480297   1.0343791  )
       151           H   tau( 151) = (   0.4595596   0.4768358   0.4580418  )
       152           H   tau( 152) = (   0.3466169   0.0352111   0.1182870  )

     number of k points=     8
                       cart. coord. in units 2pi/alat
        k(    1) = (   0.0000000   0.0000000   0.0000000), wk =   0.2500000
        k(    2) = (   0.0000000   0.0000000  -0.4337769), wk =   0.2500000
        k(    3) = (   0.0000000  -0.5660971   0.0000000), wk =   0.2500000
        k(    4) = (   0.0000000  -0.5660971  -0.4337769), wk =   0.2500000
        k(    5) = (  -0.5000000   0.0000000  -0.1681617), wk =   0.2500000
        k(    6) = (  -0.5000000   0.0000000  -0.6019387), wk =   0.2500000
        k(    7) = (  -0.5000000  -0.5660971  -0.1681617), wk =   0.2500000
        k(    8) = (  -0.5000000  -0.5660971  -0.6019387), wk =   0.2500000

     Dense  grid:  1169091 G-vectors     FFT dimensions: ( 135, 120, 160)

     Estimated max dynamical RAM per process >    1519.20MB

     Estimated total allocated dynamical RAM >   12153.60MB

     Check: negative/imaginary core charge=   -0.000002    0.000000

     Initial potential from superposition of free atoms

     starting charge  415.99681, renormalised to  416.00000
     Starting wfc are  392 randomized atomic wfcs
     Checking if some PAW data can be deallocated... 

     total cpu time spent up to now is      124.4 secs

     per-process dynamical memory:  1003.8 Mb

     Self-consistent Calculation

     iteration #  1     ecut=   100.00 Ry     beta=0.50
     Davidson diagonalization with overlap
     ethr =  1.00E-02,  avg # of iterations =  4.0

     total cpu time spent up to now is      492.4 secs

     total energy              =   -1793.22740764 Ry
     Harris-Foulkes estimate   =   -1800.52096114 Ry
     estimated scf accuracy    <      14.41949215 Ry

     iteration #  2     ecut=   100.00 Ry     beta=0.50
     Davidson diagonalization with overlap
     ethr =  3.47E-03,  avg # of iterations =  2.0

     total cpu time spent up to now is      665.9 secs

     total energy              =   -1793.66831140 Ry
     Harris-Foulkes estimate   =   -1794.55030226 Ry
     estimated scf accuracy    <       1.87956210 Ry

     iteration #  3     ecut=   100.00 Ry     beta=0.50
     Davidson diagonalization with overlap
     ethr =  4.52E-04,  avg # of iterations =  5.0

     total cpu time spent up to now is     1081.5 secs

     total energy              =   -1795.41643600 Ry
     Harris-Foulkes estimate   =   -1796.37670401 Ry
     estimated scf accuracy    <       2.94937298 Ry

     iteration #  4     ecut=   100.00 Ry     beta=0.50
     Davidson diagonalization with overlap
     ethr =  4.52E-04,  avg # of iterations =  1.9

     total cpu time spent up to now is     1252.0 secs

     total energy              =   -1794.61596643 Ry
     Harris-Foulkes estimate   =   -1795.51162020 Ry
     estimated scf accuracy    <       1.19523168 Ry

     iteration #  5     ecut=   100.00 Ry     beta=0.50
     Davidson diagonalization with overlap
     ethr =  2.87E-04,  avg # of iterations =  5.0

     total cpu time spent up to now is     1652.1 secs

     total energy              =   -1795.19099803 Ry
     Harris-Foulkes estimate   =   -1796.57936785 Ry
     estimated scf accuracy    <       3.50524412 Ry

     iteration #  6     ecut=   100.00 Ry     beta=0.50
     Davidson diagonalization with overlap
     ethr =  2.87E-04,  avg # of iterations =  4.5

     total cpu time spent up to now is     1852.9 secs

     total energy              =   -1795.02512746 Ry
     Harris-Foulkes estimate   =   -1795.41247474 Ry
     estimated scf accuracy    <       0.71882291 Ry

     iteration #  7     ecut=   100.00 Ry     beta=0.50
     Davidson diagonalization with overlap
     ethr =  1.73E-04,  avg # of iterations =  7.4

     total cpu time spent up to now is     2229.7 secs

     total energy              =   -1795.49258532 Ry
     Harris-Foulkes estimate   =   -1795.58417485 Ry
     estimated scf accuracy    <       0.26461697 Ry

     iteration #  8     ecut=   100.00 Ry     beta=0.50
     Davidson diagonalization with overlap
     ethr =  6.36E-05,  avg # of iterations =  1.1

     total cpu time spent up to now is     2396.6 secs

     total energy              =   -1795.45706441 Ry
     Harris-Foulkes estimate   =   -1795.50068123 Ry
     estimated scf accuracy    <       0.10172097 Ry

     iteration #  9     ecut=   100.00 Ry     beta=0.50
     Davidson diagonalization with overlap
     ethr =  2.45E-05,  avg # of iterations =  5.2

     total cpu time spent up to now is     2698.0 secs

     total energy              =   -1795.50703921 Ry
     Harris-Foulkes estimate   =   -1795.51087145 Ry
     estimated scf accuracy    <       0.01143845 Ry

     iteration # 10     ecut=   100.00 Ry     beta=0.50
     Davidson diagonalization with overlap
     ethr =  2.75E-06,  avg # of iterations =  2.0

     total cpu time spent up to now is     2874.4 secs

     total energy              =   -1795.50597661 Ry
     Harris-Foulkes estimate   =   -1795.50772948 Ry
     estimated scf accuracy    <       0.00446466 Ry

     iteration # 11     ecut=   100.00 Ry     beta=0.50
     Davidson diagonalization with overlap
     ethr =  1.07E-06,  avg # of iterations =  8.2

     total cpu time spent up to now is     3179.3 secs

     total energy              =   -1795.50791865 Ry
     Harris-Foulkes estimate   =   -1795.50800372 Ry
     estimated scf accuracy    <       0.00017696 Ry

     iteration # 12     ecut=   100.00 Ry     beta=0.50
     Davidson diagonalization with overlap
     ethr =  4.25E-08,  avg # of iterations =  5.0

     total cpu time spent up to now is     3442.7 secs

     total energy              =   -1795.50798629 Ry
     Harris-Foulkes estimate   =   -1795.50798344 Ry
     estimated scf accuracy    <       0.00001127 Ry

     iteration # 13     ecut=   100.00 Ry     beta=0.50
     Davidson diagonalization with overlap
     ethr =  2.71E-09,  avg # of iterations =  4.2

     total cpu time spent up to now is     3794.8 secs

     total energy              =   -1795.50798534 Ry
     Harris-Foulkes estimate   =   -1795.50799408 Ry
     estimated scf accuracy    <       0.00002950 Ry

     iteration # 14     ecut=   100.00 Ry     beta=0.50
     Davidson diagonalization with overlap
     ethr =  2.71E-09,  avg # of iterations =  1.6

     total cpu time spent up to now is     3963.4 secs

     total energy              =   -1795.50798044 Ry
     Harris-Foulkes estimate   =   -1795.50798630 Ry
     estimated scf accuracy    <       0.00001351 Ry

     iteration # 15     ecut=   100.00 Ry     beta=0.50
     Davidson diagonalization with overlap
     ethr =  2.71E-09,  avg # of iterations =  4.0

     total cpu time spent up to now is     4239.5 secs

     total energy              =   -1795.50798547 Ry
     Harris-Foulkes estimate   =   -1795.50798602 Ry
     estimated scf accuracy    <       0.00000104 Ry

     iteration # 16     ecut=   100.00 Ry     beta=0.50
     Davidson diagonalization with overlap
     ethr =  2.49E-10,  avg # of iterations =  4.0

     total cpu time spent up to now is     4443.6 secs

     total energy              =   -1795.50798564 Ry
     Harris-Foulkes estimate   =   -1795.50798568 Ry
     estimated scf accuracy    <       0.00000010 Ry

     iteration # 17     ecut=   100.00 Ry     beta=0.50
     Davidson diagonalization with overlap
     ethr =  2.29E-11,  avg # of iterations =  4.0

     total cpu time spent up to now is     4827.9 secs

     total energy              =   -1795.50798572 Ry
     Harris-Foulkes estimate   =   -1795.50798583 Ry
     estimated scf accuracy    <       0.00000028 Ry

     iteration # 18     ecut=   100.00 Ry     beta=0.50
     Davidson diagonalization with overlap
     ethr =  2.29E-11,  avg # of iterations =  5.0

     total cpu time spent up to now is     5094.6 secs

     End of self-consistent calculation

          k = 0.0000 0.0000 0.0000 (146193 PWs)   bands (ev):

   -20.2068 -20.2034 -20.1972 -20.1965 -20.1670 -20.1636 -20.1624 -20.1566
   -16.1027 -16.0784 -16.0649 -16.0631 -15.7180 -15.7150 -15.6969 -15.6939
   -14.9341 -14.9096 -14.8917 -14.8740 -14.1759 -14.1676 -14.1362 -14.1253
   -13.7236 -13.6870 -13.6735 -13.6649 -12.4112 -12.4002 -12.3692 -12.3653
   -12.3600 -12.3058 -12.2692 -12.2578 -12.1229 -12.0771 -12.0684 -12.0551
   -10.0311 -10.0198  -9.9778  -9.9472  -9.9140  -9.8415  -9.8332  -9.8290
    -9.4123  -9.3372  -9.3151  -9.2796  -8.9767  -8.9234  -8.8512  -8.8347
    -8.5989  -8.5954  -8.5891  -8.5359  -8.4765  -8.4180  -8.3676  -8.3563
    -7.6852  -7.6613  -7.6287  -7.5957  -7.4752  -7.4457  -7.4418  -7.4160
    -7.3966  -7.3428  -7.2848  -7.2833  -7.0568  -6.7660  -6.7169  -6.6494
    -5.7847  -5.7695  -5.7642  -5.7548  -5.6231  -5.5509  -5.5469  -5.3976
    -4.9783  -4.9430  -4.9422  -4.9206  -4.9027  -4.7615  -4.7575  -4.7567
    -4.7408  -4.6382  -4.6054  -4.5964  -4.5230  -4.5095  -4.4190  -4.3898
    -4.3859  -4.3629  -4.3551  -4.3379  -4.2956  -4.2183  -4.2030  -4.1580
    -3.8575  -3.8233  -3.8135  -3.7678  -3.5940  -3.5591  -3.5327  -3.5037
    -3.4672  -3.4504  -3.4262  -3.3932  -3.3576  -3.3498  -3.2997  -3.2547
    -3.2200  -3.1983  -3.1929  -3.1812  -3.1148  -3.0962  -3.0690  -3.0445
    -2.9897  -2.9459  -2.8817  -2.8148  -2.7491  -2.7200  -2.6727  -2.6644
    -1.7445  -1.6617  -1.6295  -1.6225  -1.5590  -1.5446  -1.5286  -1.5248
    -1.5065  -1.4689  -1.4369  -1.3881  -1.3855  -1.3493  -1.3474  -1.3439
    -1.2635  -1.2300  -1.1638  -1.1468  -1.1079  -1.0476  -1.0471  -1.0092
    -0.9482  -0.8773  -0.8289  -0.8286  -0.7590  -0.7196  -0.6213  -0.5652
    -0.5608  -0.4596  -0.4551  -0.4300  -0.4244  -0.3627  -0.3144  -0.2916
    -0.2375  -0.2328  -0.1661  -0.1027  -0.0275  -0.0224   0.0020   0.0767
     0.1339   0.2140   0.3086   0.3221   0.3431   0.3567   0.3575   0.3943
     0.4426   0.4507   0.4860   0.5290   0.5822   0.6221   0.7009   0.7034
     5.7121   5.7476   5.7514   5.8205   5.8399   5.8519   5.9139   5.9573
     6.5211   6.5600   6.6193   6.7185   6.7212   6.8118   6.8379   6.8548
     6.8904   7.2436   7.3752   7.6273   7.6631   7.6841   7.7361   7.8708
     7.9221   8.0173   8.1535   8.1725   8.2025   8.2327   8.3271   8.4528
     8.4711   8.4971   8.6181   8.6233   8.6469   8.7325   8.8853   8.9121
     8.9940

          k = 0.0000 0.0000-0.4338 (146100 PWs)   bands (ev):

   -20.2053 -20.2051 -20.1969 -20.1967 -20.1662 -20.1661 -20.1586 -20.1585
   -16.0928 -16.0928 -16.0618 -16.0617 -15.7081 -15.7080 -15.7039 -15.7038
   -14.9224 -14.9224 -14.8828 -14.8827 -14.1708 -14.1706 -14.1317 -14.1316
   -13.7097 -13.7096 -13.6643 -13.6642 -12.4072 -12.4072 -12.3676 -12.3676
   -12.3154 -12.3154 -12.2802 -12.2802 -12.0952 -12.0952 -12.0670 -12.0670
   -10.0250 -10.0250  -9.9672  -9.9672  -9.8781  -9.8780  -9.8281  -9.8281
    -9.3760  -9.3760  -9.3000  -9.3000  -8.9038  -8.9038  -8.8855  -8.8855
    -8.5867  -8.5866  -8.5639  -8.5638  -8.4397  -8.4397  -8.3714  -8.3714
    -7.6805  -7.6805  -7.6228  -7.6228  -7.4595  -7.4595  -7.3964  -7.3964
    -7.3661  -7.3660  -7.3085  -7.3085  -6.9192  -6.9192  -6.6958  -6.6957
    -5.7937  -5.7937  -5.7639  -5.7639  -5.5431  -5.5431  -5.4797  -5.4797
    -4.9549  -4.9549  -4.9375  -4.9375  -4.8469  -4.8469  -4.7645  -4.7645
    -4.6343  -4.6343  -4.5885  -4.5885  -4.5183  -4.5183  -4.3910  -4.3910
    -4.3793  -4.3793  -4.3310  -4.3310  -4.3093  -4.3093  -4.1771  -4.1771
    -3.8545  -3.8545  -3.8035  -3.8035  -3.6112  -3.6112  -3.4720  -3.4720
    -3.4351  -3.4351  -3.3869  -3.3868  -3.3422  -3.3422  -3.2940  -3.2940
    -3.2362  -3.2362  -3.1850  -3.1850  -3.1305  -3.1305  -3.0298  -3.0298
    -2.9725  -2.9724  -2.8861  -2.8861  -2.7282  -2.7282  -2.6465  -2.6465
    -1.6818  -1.6818  -1.6378  -1.6378  -1.5848  -1.5848  -1.5480  -1.5480
    -1.4951  -1.4950  -1.4264  -1.4264  -1.3500  -1.3500  -1.3001  -1.3001
    -1.2580  -1.2580  -1.1572  -1.1571  -1.0811  -1.0811  -0.9692  -0.9692
    -0.9116  -0.9115  -0.8820  -0.8820  -0.6981  -0.6981  -0.6622  -0.6622
    -0.5277  -0.5277  -0.4477  -0.4477  -0.3777  -0.3777  -0.3118  -0.3118
    -0.2216  -0.2216  -0.0926  -0.0926  -0.0352  -0.0351   0.0563   0.0563
     0.2324   0.2324   0.2724   0.2725   0.3333   0.3334   0.3630   0.3631
     0.4819   0.4820   0.5202   0.5202   0.5673   0.5673   0.6975   0.6975
     5.7541   5.7541   5.7656   5.7656   5.8685   5.8685   5.9090   5.9090
     6.5627   6.5627   6.6517   6.6518   6.8188   6.8189   6.8543   6.8543
     6.9325   6.9325   7.5187   7.5187   7.6968   7.6968   7.8553   7.8553
     7.8873   7.8874   8.0437   8.0437   8.2619   8.2620   8.4524   8.4524
     8.4996   8.4996   8.6654   8.6654   8.7838   8.7838   8.8836   8.8837
     8.9582

          k = 0.0000-0.5661 0.0000 (146250 PWs)   bands (ev):

   -20.2023 -20.2022 -20.1998 -20.1997 -20.1653 -20.1651 -20.1596 -20.1595
   -16.0861 -16.0860 -16.0686 -16.0685 -15.7170 -15.7169 -15.6952 -15.6952
   -14.9125 -14.9124 -14.8931 -14.8930 -14.1605 -14.1604 -14.1431 -14.1430
   -13.6984 -13.6984 -13.6759 -13.6759 -12.3925 -12.3925 -12.3772 -12.3771
   -12.3323 -12.3323 -12.2625 -12.2625 -12.1015 -12.1015 -12.0606 -12.0606
    -9.9997  -9.9997  -9.9780  -9.9780  -9.8849  -9.8849  -9.8441  -9.8440
    -9.3613  -9.3613  -9.3021  -9.3021  -8.9544  -8.9544  -8.8412  -8.8412
    -8.5999  -8.5998  -8.5543  -8.5543  -8.4400  -8.4400  -8.3695  -8.3694
    -7.6589  -7.6589  -7.6397  -7.6397  -7.4542  -7.4542  -7.4344  -7.4344
    -7.3743  -7.3742  -7.2812  -7.2812  -6.9322  -6.9321  -6.6836  -6.6836
    -5.7838  -5.7838  -5.7499  -5.7498  -5.6232  -5.6231  -5.4765  -5.4765
    -4.9836  -4.9836  -4.8741  -4.8741  -4.8265  -4.8265  -4.8083  -4.8083
    -4.6845  -4.6844  -4.6184  -4.6183  -4.4558  -4.4557  -4.4182  -4.4182
    -4.3420  -4.3420  -4.2794  -4.2794  -4.2263  -4.2263  -4.2071  -4.2071
    -3.8235  -3.8235  -3.7944  -3.7943  -3.5753  -3.5752  -3.5360  -3.5360
    -3.4464  -3.4464  -3.4322  -3.4322  -3.2758  -3.2758  -3.2545  -3.2545
    -3.1981  -3.1980  -3.1782  -3.1782  -3.1108  -3.1108  -3.0382  -3.0381
    -2.9958  -2.9957  -2.8884  -2.8884  -2.7384  -2.7383  -2.7075  -2.7074
    -1.6959  -1.6959  -1.6623  -1.6623  -1.5992  -1.5992  -1.5355  -1.5355
    -1.4776  -1.4776  -1.4477  -1.4477  -1.4011  -1.4011  -1.3353  -1.3353
    -1.2299  -1.2299  -1.2170  -1.2170  -1.0754  -1.0754  -0.9701  -0.9701
    -0.8935  -0.8935  -0.8606  -0.8605  -0.7038  -0.7038  -0.6437  -0.6436
    -0.5134  -0.5134  -0.4822  -0.4822  -0.3835  -0.3835  -0.2885  -0.2885
    -0.2479  -0.2479  -0.0958  -0.0957   0.0117   0.0117   0.0778   0.0778
     0.2022   0.2023   0.2582   0.2582   0.3344   0.3344   0.3751   0.3751
     0.4701   0.4701   0.5240   0.5241   0.6257   0.6257   0.6517   0.6517
     5.7238   5.7238   5.7814   5.7814   5.8444   5.8444   5.9076   5.9077
     6.6090   6.6091   6.6514   6.6514   6.8079   6.8079   6.8683   6.8683
     7.0775   7.0775   7.6373   7.6374   7.7243   7.7244   7.8966   7.8966
     7.9437   7.9438   7.9693   7.9693   8.0695   8.0695   8.3509   8.3509
     8.4688   8.4688   8.5882   8.5882   8.8192   8.8193   8.9047   8.9051
     8.9502

          k = 0.0000-0.5661-0.4338 (146064 PWs)   bands (ev):

   -20.2018 -20.2016 -20.2004 -20.2002 -20.1653 -20.1651 -20.1596 -20.1595
   -16.0849 -16.0848 -16.0699 -16.0698 -15.7076 -15.7074 -15.7046 -15.7045
   -14.9070 -14.9069 -14.8989 -14.8988 -14.1580 -14.1579 -14.1459 -14.1458
   -13.6936 -13.6935 -13.6796 -13.6795 -12.3889 -12.3889 -12.3822 -12.3821
   -12.3058 -12.3057 -12.2894 -12.2894 -12.0843 -12.0843 -12.0777 -12.0777
    -9.9894  -9.9893  -9.9868  -9.9868  -9.8877  -9.8876  -9.8443  -9.8442
    -9.3476  -9.3476  -9.3180  -9.3180  -8.9054  -8.9054  -8.8870  -8.8869
    -8.5971  -8.5970  -8.5530  -8.5530  -8.4213  -8.4212  -8.3873  -8.3873
    -7.6625  -7.6625  -7.6491  -7.6491  -7.4356  -7.4356  -7.4279  -7.4278
    -7.3699  -7.3698  -7.3018  -7.3017  -6.8537  -6.8536  -6.7807  -6.7807
    -5.8345  -5.8345  -5.7376  -5.7376  -5.5365  -5.5365  -5.5162  -5.5162
    -4.9480  -4.9479  -4.8970  -4.8969  -4.8203  -4.8202  -4.8200  -4.8199
    -4.6715  -4.6715  -4.5745  -4.5745  -4.4873  -4.4873  -4.4219  -4.4219
    -4.3147  -4.3146  -4.3103  -4.3103  -4.2343  -4.2343  -4.1904  -4.1904
    -3.8417  -3.8417  -3.8027  -3.8027  -3.5737  -3.5737  -3.5398  -3.5397
    -3.4302  -3.4302  -3.3991  -3.3991  -3.2840  -3.2840  -3.2511  -3.2510
    -3.2028  -3.2027  -3.1770  -3.1770  -3.1146  -3.1146  -3.0489  -3.0489
    -2.9992  -2.9991  -2.9414  -2.9414  -2.7134  -2.7133  -2.7113  -2.7112
    -1.6899  -1.6899  -1.6457  -1.6457  -1.6043  -1.6043  -1.5222  -1.5222
    -1.5219  -1.5219  -1.4415  -1.4414  -1.3990  -1.3989  -1.3268  -1.3268
    -1.2283  -1.2283  -1.2054  -1.2054  -1.0434  -1.0434  -0.9852  -0.9851
    -0.9184  -0.9183  -0.8466  -0.8466  -0.7316  -0.7316  -0.6099  -0.6098
    -0.5310  -0.5310  -0.5050  -0.5049  -0.3869  -0.3869  -0.3230  -0.3230
    -0.1964  -0.1964  -0.1421  -0.1421   0.0618   0.0619   0.1191   0.1191
     0.2108   0.2109   0.2487   0.2488   0.3351   0.3352   0.3607   0.3608
     0.4885   0.4885   0.5144   0.5145   0.6083   0.6083   0.6435   0.6435
     5.7546   5.7546   5.7552   5.7553   5.8607   5.8608   5.8893   5.8893
     6.6209   6.6209   6.6409   6.6410   6.8434   6.8434   6.8441   6.8441
     7.1121   7.1121   7.4544   7.4544   7.7634   7.7634   7.8354   7.8354
     7.8772   7.8772   8.0082   8.0082   8.2270   8.2270   8.2508   8.2508
     8.5832   8.5832   8.6236   8.6236   8.8508   8.8509   8.9352   8.9353
     9.0298

          k =-0.5000 0.0000-0.1682 (146112 PWs)   bands (ev):

   -20.2039 -20.2036 -20.1962 -20.1953 -20.1699 -20.1635 -20.1625 -20.1587
   -16.0883 -16.0636 -16.0613 -16.0558 -15.7341 -15.7341 -15.7172 -15.7133
   -14.9150 -14.8897 -14.8789 -14.8679 -14.1597 -14.1554 -14.1489 -14.1457
   -13.7182 -13.7173 -13.6750 -13.6675 -12.3963 -12.3897 -12.3823 -12.3815
   -12.3366 -12.3272 -12.2768 -12.2723 -12.0815 -12.0758 -12.0725 -12.0578
   -10.0124  -9.9982  -9.9954  -9.9528  -9.8919  -9.8676  -9.8617  -9.8297
    -9.3482  -9.2947  -9.2874  -9.2831  -9.0423  -8.9563  -8.9382  -8.9087
    -8.5811  -8.5675  -8.5344  -8.5156  -8.4408  -8.3966  -8.3706  -8.3469
    -7.6983  -7.6535  -7.6399  -7.5918  -7.5327  -7.4518  -7.4200  -7.4194
    -7.3756  -7.3601  -7.3140  -7.3106  -6.8049  -6.8005  -6.7630  -6.6810
    -5.8912  -5.8438  -5.8267  -5.7081  -5.6244  -5.6180  -5.5651  -5.4620
    -4.9657  -4.9447  -4.8816  -4.8780  -4.7869  -4.7789  -4.7144  -4.6975
    -4.6793  -4.6646  -4.5683  -4.5313  -4.4822  -4.4373  -4.4318  -4.4019
    -4.3961  -4.3544  -4.3542  -4.2882  -4.2719  -4.2500  -4.2382  -4.2333
    -3.9735  -3.9026  -3.8383  -3.8024  -3.5579  -3.5513  -3.5406  -3.4764
    -3.4417  -3.4330  -3.4101  -3.4079  -3.4065  -3.4025  -3.3892  -3.3460
    -3.2843  -3.1786  -3.1491  -3.0936  -3.0811  -3.0756  -3.0673  -3.0329
    -3.0178  -2.9431  -2.8404  -2.8258  -2.7334  -2.6914  -2.6417  -2.6390
    -1.6991  -1.6671  -1.6459  -1.6152  -1.5733  -1.5246  -1.4856  -1.4828
    -1.4688  -1.4590  -1.4551  -1.4100  -1.3806  -1.3768  -1.3318  -1.3086
    -1.2581  -1.2390  -1.1754  -1.1752  -1.1665  -1.0482  -0.9706  -0.9665
    -0.9280  -0.9135  -0.8721  -0.8424  -0.7798  -0.7276  -0.6951  -0.5909
    -0.5804  -0.4823  -0.4629  -0.4607  -0.4036  -0.3701  -0.3006  -0.2710
    -0.2669  -0.2003  -0.1762  -0.1725  -0.0935   0.0234   0.0373   0.1531
     0.3013   0.3079   0.3387   0.3408   0.3430   0.3525   0.3839   0.4163
     0.4203   0.4257   0.4340   0.4418   0.5660   0.5701   0.6028   0.6795
     5.7792   5.7806   5.8049   5.8236   5.8366   5.8472   5.8823   5.9052
     6.5828   6.6469   6.6918   6.6989   6.6995   6.7863   6.8091   6.8288
     6.9398   7.1312   7.1513   7.5193   7.7538   7.7642   7.7877   7.9727
     7.9805   8.0135   8.0445   8.2299   8.2424   8.2456   8.2845   8.3645
     8.4049   8.4147   8.5994   8.6049   8.6856   8.7770   8.8095   8.8805
     8.9767

          k =-0.5000 0.0000-0.6019 (146072 PWs)   bands (ev):

   -20.2039 -20.2037 -20.1959 -20.1957 -20.1675 -20.1674 -20.1598 -20.1597
   -16.0788 -16.0787 -16.0561 -16.0561 -15.7265 -15.7264 -15.7228 -15.7227
   -14.9005 -14.9005 -14.8748 -14.8748 -14.1558 -14.1557 -14.1503 -14.1502
   -13.7003 -13.7003 -13.6887 -13.6887 -12.3932 -12.3932 -12.3820 -12.3820
   -12.3137 -12.3137 -12.2927 -12.2926 -12.0797 -12.0796 -12.0630 -12.0630
   -10.0060 -10.0060  -9.9709  -9.9709  -9.8784  -9.8783  -9.8511  -9.8510
    -9.3198  -9.3198  -9.2909  -9.2909  -8.9897  -8.9897  -8.9335  -8.9335
    -8.5599  -8.5598  -8.5342  -8.5341  -8.4168  -8.4168  -8.3617  -8.3616
    -7.6766  -7.6766  -7.6042  -7.6042  -7.5132  -7.5132  -7.4339  -7.4339
    -7.3358  -7.3358  -7.3211  -7.3211  -6.8087  -6.8086  -6.7130  -6.7129
    -5.8405  -5.8405  -5.7380  -5.7379  -5.6561  -5.6561  -5.5541  -5.5540
    -4.9623  -4.9622  -4.8606  -4.8606  -4.7878  -4.7877  -4.7102  -4.7102
    -4.6485  -4.6485  -4.5723  -4.5723  -4.4504  -4.4503  -4.4044  -4.4044
    -4.3535  -4.3535  -4.3459  -4.3459  -4.2755  -4.2755  -4.2371  -4.2371
    -3.8981  -3.8981  -3.8360  -3.8360  -3.5639  -3.5638  -3.5282  -3.5282
    -3.4899  -3.4898  -3.4252  -3.4252  -3.3628  -3.3628  -3.3418  -3.3418
    -3.2300  -3.2299  -3.0942  -3.0942  -3.0540  -3.0540  -3.0358  -3.0357
    -3.0011  -3.0011  -2.8988  -2.8987  -2.6878  -2.6878  -2.6306  -2.6306
    -1.6971  -1.6971  -1.5920  -1.5919  -1.5723  -1.5722  -1.5000  -1.5000
    -1.4689  -1.4689  -1.4190  -1.4189  -1.3508  -1.3508  -1.3199  -1.3199
    -1.2734  -1.2734  -1.1631  -1.1631  -1.0639  -1.0639  -0.9997  -0.9997
    -0.9402  -0.9402  -0.8579  -0.8579  -0.7885  -0.7885  -0.6065  -0.6065
    -0.5116  -0.5116  -0.4525  -0.4525  -0.4380  -0.4380  -0.3085  -0.3085
    -0.2065  -0.2065  -0.1156  -0.1156  -0.0538  -0.0538   0.1145   0.1145
     0.2239   0.2239   0.3089   0.3090   0.3552   0.3552   0.3752   0.3752
     0.4266   0.4267   0.4881   0.4882   0.5711   0.5711   0.6693   0.6693
     5.7624   5.7624   5.7817   5.7817   5.8794   5.8795   5.9090   5.9090
     6.5988   6.5988   6.6957   6.6958   6.7821   6.7821   6.8149   6.8149
     6.9922   6.9923   7.3474   7.3474   7.7536   7.7536   7.8170   7.8170
     8.0633   8.0633   8.0975   8.0976   8.1674   8.1674   8.3415   8.3415
     8.5349   8.5349   8.6097   8.6097   8.7754   8.7754   8.8587   8.8588
     9.0567

          k =-0.5000-0.5661-0.1682 (146144 PWs)   bands (ev):

   -20.2004 -20.2002 -20.1993 -20.1991 -20.1669 -20.1667 -20.1606 -20.1604
   -16.0764 -16.0762 -16.0580 -16.0579 -15.7347 -15.7347 -15.7151 -15.7151
   -14.9029 -14.9029 -14.8734 -14.8734 -14.1650 -14.1649 -14.1393 -14.1392
   -13.7229 -13.7228 -13.6673 -13.6673 -12.3951 -12.3951 -12.3816 -12.3816
   -12.3281 -12.3281 -12.2743 -12.2743 -12.0808 -12.0808 -12.0602 -12.0602
   -10.0116 -10.0116  -9.9848  -9.9848  -9.8827  -9.8826  -9.8261  -9.8260
    -9.3310  -9.3309  -9.2775  -9.2775  -9.0038  -9.0038  -8.9189  -8.9189
    -8.5889  -8.5889  -8.5139  -8.5138  -8.4228  -8.4228  -8.3554  -8.3554
    -7.6705  -7.6705  -7.6161  -7.6161  -7.4899  -7.4898  -7.4316  -7.4316
    -7.3690  -7.3690  -7.3050  -7.3050  -6.8138  -6.8138  -6.7237  -6.7237
    -5.8712  -5.8712  -5.7796  -5.7796  -5.6675  -5.6675  -5.5307  -5.5307
    -4.8735  -4.8734  -4.8588  -4.8588  -4.8213  -4.8213  -4.7856  -4.7856
    -4.6435  -4.6434  -4.5235  -4.5234  -4.4734  -4.4734  -4.4310  -4.4310
    -4.3780  -4.3780  -4.3147  -4.3147  -4.1914  -4.1914  -4.1531  -4.1531
    -3.9417  -3.9417  -3.8191  -3.8190  -3.5472  -3.5472  -3.5163  -3.5162
    -3.4674  -3.4674  -3.3984  -3.3984  -3.3200  -3.3199  -3.2739  -3.2739
    -3.2230  -3.2230  -3.1327  -3.1326  -3.1222  -3.1222  -3.0494  -3.0494
    -2.9826  -2.9826  -2.8678  -2.8678  -2.7386  -2.7385  -2.7182  -2.7181
    -1.7152  -1.7152  -1.6573  -1.6572  -1.5739  -1.5738  -1.5460  -1.5460
    -1.4526  -1.4526  -1.4003  -1.4003  -1.3671  -1.3671  -1.3163  -1.3163
    -1.2292  -1.2292  -1.2018  -1.2018  -1.0911  -1.0910  -0.9818  -0.9818
    -0.8872  -0.8872  -0.8708  -0.8708  -0.7845  -0.7845  -0.6157  -0.6156
    -0.5465  -0.5464  -0.5336  -0.5336  -0.4235  -0.4235  -0.2912  -0.2912
    -0.2001  -0.2001  -0.0922  -0.0921   0.0344   0.0345   0.0695   0.0695
     0.2969   0.2969   0.3083   0.3083   0.3734   0.3734   0.3955   0.3956
     0.4028   0.4028   0.4337   0.4337   0.5876   0.5876   0.6370   0.6371
     5.7720   5.7721   5.8142   5.8143   5.8415   5.8415   5.8665   5.8665
     6.6280   6.6280   6.7016   6.7016   6.7279   6.7279   6.8830   6.8830
     7.1363   7.1364   7.3933   7.3933   7.7546   7.7547   7.8740   7.8741
     8.0015   8.0015   8.0303   8.0303   8.1960   8.1960   8.2266   8.2266
     8.5188   8.5188   8.5283   8.5283   8.8101   8.8101   8.9174   8.9174
     9.1256

          k =-0.5000-0.5661-0.6019 (146156 PWs)   bands (ev):

   -20.2004 -20.2002 -20.1994 -20.1992 -20.1667 -20.1666 -20.1607 -20.1606
   -16.0740 -16.0738 -16.0608 -16.0606 -15.7251 -15.7250 -15.7245 -15.7244
   -14.8962 -14.8961 -14.8799 -14.8798 -14.1635 -14.1634 -14.1414 -14.1413
   -13.7154 -13.7153 -13.6754 -13.6754 -12.3964 -12.3964 -12.3787 -12.3786
   -12.3093 -12.3092 -12.2943 -12.2942 -12.0761 -12.0761 -12.0642 -12.0642
   -10.0093 -10.0093  -9.9868  -9.9868  -9.8645  -9.8644  -9.8463  -9.8462
    -9.3117  -9.3117  -9.3018  -9.3017  -8.9647  -8.9647  -8.9588  -8.9588
    -8.5622  -8.5621  -8.5312  -8.5312  -8.4114  -8.4114  -8.3694  -8.3694
    -7.6461  -7.6461  -7.6332  -7.6332  -7.4851  -7.4851  -7.4728  -7.4727
    -7.3376  -7.3376  -7.3117  -7.3117  -6.7772  -6.7772  -6.7595  -6.7594
    -5.7940  -5.7940  -5.7609  -5.7608  -5.6773  -5.6773  -5.6369  -5.6369
    -4.8655  -4.8654  -4.8483  -4.8483  -4.8149  -4.8148  -4.7698  -4.7698
    -4.6167  -4.6166  -4.6114  -4.6114  -4.4549  -4.4549  -4.4337  -4.4337
    -4.3481  -4.3480  -4.3039  -4.3038  -4.1901  -4.1900  -4.1737  -4.1737
    -3.8866  -3.8865  -3.8518  -3.8518  -3.5864  -3.5864  -3.4759  -3.4759
    -3.4639  -3.4638  -3.3924  -3.3924  -3.3800  -3.3799  -3.2719  -3.2719
    -3.1558  -3.1558  -3.1377  -3.1376  -3.1093  -3.1093  -3.0654  -3.0654
    -3.0032  -3.0032  -2.9188  -2.9188  -2.7133  -2.7133  -2.7123  -2.7122
    -1.7230  -1.7230  -1.6532  -1.6532  -1.5308  -1.5307  -1.5115  -1.5114
    -1.4718  -1.4718  -1.4219  -1.4219  -1.3514  -1.3514  -1.3418  -1.3417
    -1.2222  -1.2222  -1.2070  -1.2069  -1.0671  -1.0671  -1.0045  -1.0044
    -0.9539  -0.9539  -0.8133  -0.8133  -0.7371  -0.7371  -0.6292  -0.6292
    -0.5899  -0.5899  -0.5251  -0.5250  -0.4102  -0.4101  -0.2614  -0.2614
    -0.1926  -0.1926  -0.1548  -0.1548   0.0079   0.0079   0.1175   0.1175
     0.2684   0.2684   0.2956   0.2956   0.3385   0.3386   0.3818   0.3818
     0.4324   0.4325   0.4506   0.4506   0.6012   0.6012   0.6532   0.6533
     5.7424   5.7424   5.8130   5.8130   5.8605   5.8606   5.8805   5.8805
     6.6220   6.6220   6.7253   6.7254   6.7491   6.7492   6.8759   6.8760
     7.0472   7.0473   7.5320   7.5321   7.7240   7.7240   7.7427   7.7428
     7.9942   7.9942   8.0652   8.0652   8.2382   8.2382   8.2869   8.2870
     8.5016   8.5016   8.6646   8.6646   8.7105   8.7105   8.9438   8.9441
     9.0636

     highest occupied, lowest unoccupied level (ev):     0.7034    5.7121

!    total energy              =   -1795.50798575 Ry
     Harris-Foulkes estimate   =   -1795.50798576 Ry
     estimated scf accuracy    <          8.1E-09 Ry

     total all-electron energy =     -6981.468580 Ry

     The total energy is the sum of the following terms:

     one-electron contribution =    -995.16568970 Ry
     hartree contribution      =     657.67143679 Ry
     xc contribution           =    -414.53673173 Ry
     ewald contribution        =    -471.50781108 Ry
     Dispersion Correction     =      -0.80290854 Ry
     one-center paw contrib.   =    -571.16628151 Ry

     convergence has been achieved in  18 iterations

     Forces acting on atoms (cartesian axes, Ry/au):

     atom    1 type  2   force =     0.00066177    0.00038074    0.00006561
     atom    2 type  2   force =    -0.00066149    0.00038072   -0.00006650
     atom    3 type  2   force =    -0.00066177   -0.00038074   -0.00006561
     atom    4 type  2   force =     0.00066149   -0.00038072    0.00006650
     atom    5 type  2   force =    -0.00004305   -0.00038172   -0.00023829
     atom    6 type  2   force =     0.00004879   -0.00038207    0.00023705
     atom    7 type  2   force =     0.00004305    0.00038172    0.00023829
     atom    8 type  2   force =    -0.00004879    0.00038207   -0.00023705
     atom    9 type  2   force =     0.00025306   -0.00024199    0.00074509
     atom   10 type  2   force =    -0.00025539   -0.00024369   -0.00074845
     atom   11 type  2   force =    -0.00025306    0.00024199   -0.00074509
     atom   12 type  2   force =     0.00025539    0.00024369    0.00074845
     atom   13 type  2   force =     0.00055386    0.00003782    0.00073581
     atom   14 type  2   force =    -0.00055333    0.00004091   -0.00073665
     atom   15 type  2   force =    -0.00055386   -0.00003782   -0.00073581
     atom   16 type  2   force =     0.00055333   -0.00004091    0.00073665
     atom   17 type  2   force =     0.00002355    0.00004664    0.00021635
     atom   18 type  2   force =    -0.00003387    0.00004814   -0.00022688
     atom   19 type  2   force =    -0.00002355   -0.00004664   -0.00021635
     atom   20 type  2   force =     0.00003387   -0.00004814    0.00022688
     atom   21 type  2   force =    -0.00026616   -0.00039262    0.00015285
     atom   22 type  2   force =     0.00026948   -0.00038908   -0.00015737
     atom   23 type  2   force =     0.00026616    0.00039262   -0.00015285
     atom   24 type  2   force =    -0.00026948    0.00038908    0.00015737
     atom   25 type  1   force =    -0.00010927   -0.00104359    0.00002625
     atom   26 type  1   force =     0.00009919   -0.00104424   -0.00001360
     atom   27 type  1   force =     0.00010927    0.00104359   -0.00002625
     atom   28 type  1   force =    -0.00009919    0.00104424    0.00001360
     atom   29 type  1   force =     0.00107749    0.00007088   -0.00063658
     atom   30 type  1   force =    -0.00106519    0.00006807    0.00062717
     atom   31 type  1   force =    -0.00107749   -0.00007088    0.00063658
     atom   32 type  1   force =     0.00106519   -0.00006807   -0.00062717
     atom   33 type  3   force =     0.00025513   -0.00061633   -0.00018955
     atom   34 type  3   force =    -0.00025418   -0.00061638    0.00019422
     atom   35 type  3   force =    -0.00025513    0.00061633    0.00018955
     atom   36 type  3   force =     0.00025418    0.00061638   -0.00019422
     atom   37 type  3   force =     0.00008585   -0.00004555   -0.00057078
     atom   38 type  3   force =    -0.00008524   -0.00004377    0.00057037
     atom   39 type  3   force =    -0.00008585    0.00004555    0.00057078
     atom   40 type  3   force =     0.00008524    0.00004377   -0.00057037
     atom   41 type  1   force =    -0.00104828    0.00035552   -0.00000000
     atom   42 type  1   force =     0.00105519    0.00035735   -0.00000591
     atom   43 type  1   force =     0.00104828   -0.00035552    0.00000000
     atom   44 type  1   force =    -0.00105519   -0.00035735    0.00000591
     atom   45 type  1   force =     0.00017432    0.00017425   -0.00008877
     atom   46 type  1   force =    -0.00016495    0.00017786    0.00008367
     atom   47 type  1   force =    -0.00017432   -0.00017425    0.00008877
     atom   48 type  1   force =     0.00016495   -0.00017786   -0.00008367
     atom   49 type  3   force =    -0.00047807   -0.00000078    0.00034364
     atom   50 type  3   force =     0.00047828   -0.00000151   -0.00034780
     atom   51 type  3   force =     0.00047807    0.00000078   -0.00034364
     atom   52 type  3   force =    -0.00047828    0.00000151    0.00034780
     atom   53 type  3   force =     0.00004848   -0.00038735    0.00019559
     atom   54 type  3   force =    -0.00004791   -0.00038682   -0.00019921
     atom   55 type  3   force =    -0.00004848    0.00038735   -0.00019559
     atom   56 type  3   force =     0.00004791    0.00038682    0.00019921
     atom   57 type  1   force =    -0.00032562    0.00022347   -0.00017854
     atom   58 type  1   force =     0.00031875    0.00022061    0.00018053
     atom   59 type  1   force =     0.00032562   -0.00022347    0.00017854
     atom   60 type  1   force =    -0.00031875   -0.00022061   -0.00018053
     atom   61 type  3   force =    -0.00012430    0.00037604   -0.00031423
     atom   62 type  3   force =     0.00012323    0.00037671    0.00031768
     atom   63 type  3   force =     0.00012430   -0.00037604    0.00031423
     atom   64 type  3   force =    -0.00012323   -0.00037671   -0.00031768
     atom   65 type  1   force =     0.00003705    0.00137288   -0.00067129
     atom   66 type  1   force =    -0.00004328    0.00137190    0.00066997
     atom   67 type  1   force =    -0.00003705   -0.00137288    0.00067129
     atom   68 type  1   force =     0.00004328   -0.00137190   -0.00066997
     atom   69 type  3   force =     0.00052876    0.00002919    0.00029958
     atom   70 type  3   force =    -0.00052950    0.00002853   -0.00030092
     atom   71 type  3   force =    -0.00052876   -0.00002919   -0.00029958
     atom   72 type  3   force =     0.00052950   -0.00002853    0.00030092
     atom   73 type  3   force =    -0.00001566   -0.00072911   -0.00070918
     atom   74 type  3   force =     0.00001574   -0.00072962    0.00070539
     atom   75 type  3   force =     0.00001566    0.00072911    0.00070918
     atom   76 type  3   force =    -0.00001574    0.00072962   -0.00070539
     atom   77 type  1   force =     0.00010251   -0.00037100   -0.00017703
     atom   78 type  1   force =    -0.00011031   -0.00037329    0.00018201
     atom   79 type  1   force =    -0.00010251    0.00037100    0.00017703
     atom   80 type  1   force =     0.00011031    0.00037329   -0.00018201
     atom   81 type  3   force =    -0.00001973    0.00008446    0.00017672
     atom   82 type  3   force =     0.00002097    0.00008569   -0.00017579
     atom   83 type  3   force =     0.00001973   -0.00008446   -0.00017672
     atom   84 type  3   force =    -0.00002097   -0.00008569    0.00017579
     atom   85 type  3   force =    -0.00030440    0.00029073    0.00013724
     atom   86 type  3   force =     0.00030232    0.00029108   -0.00013480
     atom   87 type  3   force =     0.00030440   -0.00029073   -0.00013724
     atom   88 type  3   force =    -0.00030232   -0.00029108    0.00013480
     atom   89 type  1   force =     0.00038871    0.00083907    0.00089585
     atom   90 type  1   force =    -0.00038452    0.00084318   -0.00089727
     atom   91 type  1   force =    -0.00038871   -0.00083907   -0.00089585
     atom   92 type  1   force =     0.00038452   -0.00084318    0.00089727
     atom   93 type  3   force =     0.00036714    0.00010782    0.00000132
     atom   94 type  3   force =    -0.00036543    0.00010751   -0.00000224
     atom   95 type  3   force =    -0.00036714   -0.00010782   -0.00000132
     atom   96 type  3   force =     0.00036543   -0.00010751    0.00000224
     atom   97 type  3   force =     0.00011129    0.00035993   -0.00024559
     atom   98 type  3   force =    -0.00011166    0.00035928    0.00024839
     atom   99 type  3   force =    -0.00011129   -0.00035993    0.00024559
     atom  100 type  3   force =     0.00011166   -0.00035928   -0.00024839
     atom  101 type  1   force =    -0.00028446   -0.00031052   -0.00010678
     atom  102 type  1   force =     0.00029488   -0.00031224    0.00009750
     atom  103 type  1   force =     0.00028446    0.00031052    0.00010678
     atom  104 type  1   force =    -0.00029488    0.00031224   -0.00009750
     atom  105 type  3   force =     0.00005701   -0.00069356    0.00011101
     atom  106 type  3   force =    -0.00005788   -0.00069493   -0.00011180
     atom  107 type  3   force =    -0.00005701    0.00069356   -0.00011101
     atom  108 type  3   force =     0.00005788    0.00069493    0.00011180
     atom  109 type  1   force =     0.00003538   -0.00046662   -0.00019129
     atom  110 type  1   force =    -0.00003196   -0.00046994    0.00019151
     atom  111 type  1   force =    -0.00003538    0.00046662    0.00019129
     atom  112 type  1   force =     0.00003196    0.00046994   -0.00019151
     atom  113 type  3   force =    -0.00071602   -0.00022476    0.00011779
     atom  114 type  3   force =     0.00071604   -0.00022297   -0.00011230
     atom  115 type  3   force =     0.00071602    0.00022476   -0.00011779
     atom  116 type  3   force =    -0.00071604    0.00022297    0.00011230
     atom  117 type  3   force =    -0.00026848    0.00008199   -0.00013580
     atom  118 type  3   force =     0.00026696    0.00008330    0.00013609
     atom  119 type  3   force =     0.00026848   -0.00008199    0.00013580
     atom  120 type  3   force =    -0.00026696   -0.00008330   -0.00013609
     atom  121 type  1   force =    -0.00001137   -0.00011178    0.00047362
     atom  122 type  1   force =     0.00000239   -0.00011209   -0.00051536
     atom  123 type  1   force =     0.00001137    0.00011178   -0.00047362
     atom  124 type  1   force =    -0.00000239    0.00011209    0.00051536
     atom  125 type  3   force =    -0.00074460   -0.00038846   -0.00058307
     atom  126 type  3   force =     0.00074099   -0.00038945    0.00058365
     atom  127 type  3   force =     0.00074460    0.00038846    0.00058307
     atom  128 type  3   force =    -0.00074099    0.00038945   -0.00058365
     atom  129 type  1   force =    -0.00069368   -0.00008125   -0.00069915
     atom  130 type  1   force =     0.00067949   -0.00007907    0.00074168
     atom  131 type  1   force =     0.00069368    0.00008125    0.00069915
     atom  132 type  1   force =    -0.00067949    0.00007907   -0.00074168
     atom  133 type  3   force =    -0.00100427    0.00069625    0.00081611
     atom  134 type  3   force =     0.00100718    0.00069587   -0.00082156
     atom  135 type  3   force =     0.00100427   -0.00069625   -0.00081611
     atom  136 type  3   force =    -0.00100718   -0.00069587    0.00082156
     atom  137 type  1   force =    -0.00018780    0.00082887    0.00079909
     atom  138 type  1   force =     0.00018973    0.00081402   -0.00076584
     atom  139 type  1   force =     0.00018780   -0.00082887   -0.00079909
     atom  140 type  1   force =    -0.00018973   -0.00081402    0.00076584
     atom  141 type  3   force =     0.00038825    0.00008356    0.00085459
     atom  142 type  3   force =    -0.00038531    0.00009016   -0.00086308
     atom  143 type  3   force =    -0.00038825   -0.00008356   -0.00085459
     atom  144 type  3   force =     0.00038531   -0.00009016    0.00086308
     atom  145 type  1   force =    -0.00046985    0.00002450    0.00061003
     atom  146 type  1   force =     0.00047679    0.00002319   -0.00061038
     atom  147 type  1   force =     0.00046985   -0.00002450   -0.00061003
     atom  148 type  1   force =    -0.00047679   -0.00002319    0.00061038
     atom  149 type  3   force =     0.00088432   -0.00011348    0.00014308
     atom  150 type  3   force =    -0.00088361   -0.00011235   -0.00013734
     atom  151 type  3   force =    -0.00088432    0.00011348   -0.00014308
     atom  152 type  3   force =     0.00088361    0.00011235    0.00013734

     Total force =     0.009849     Total SCF correction =     0.000220


     Computing stress (Cartesian axis) and pressure

          total   stress  (Ry/bohr**3)                   (kbar)     P=   -7.74
  -0.00004603   0.00000000  -0.00000199         -6.77      0.00     -0.29
   0.00000000  -0.00005618   0.00000000          0.00     -8.26      0.00
  -0.00000199   0.00000000  -0.00005568         -0.29      0.00     -8.19


     Writing output data file scf.save
 
     init_run     :    119.42s CPU    123.76s WALL (       1 calls)
     electrons    :   4821.06s CPU   4970.33s WALL (       1 calls)
     forces       :     54.92s CPU     55.32s WALL (       1 calls)
     stress       :    266.18s CPU    266.94s WALL (       1 calls)

     Called by init_run:
     wfcinit      :    104.73s CPU    108.85s WALL (       1 calls)
     potinit      :      5.26s CPU      5.30s WALL (       1 calls)

     Called by electrons:
     c_bands      :   4405.61s CPU   4534.86s WALL (      18 calls)
     sum_band     :    390.36s CPU    407.75s WALL (      18 calls)
     v_of_rho     :      3.44s CPU      3.75s WALL (      19 calls)
     newd         :      9.60s CPU     11.91s WALL (      19 calls)
     PAW_pot      :     11.16s CPU     11.16s WALL (      19 calls)
     mix_rho      :      0.82s CPU      0.92s WALL (      18 calls)

     Called by c_bands:
     init_us_2    :     16.98s CPU     17.09s WALL (     312 calls)
     cegterg      :   4337.36s CPU   4466.22s WALL (     144 calls)

     Called by sum_band:
     sum_band:bec :      0.19s CPU      0.19s WALL (     144 calls)
     addusdens    :      9.54s CPU     11.89s WALL (      18 calls)

     Called by *egterg:
     h_psi        :   2209.94s CPU   2315.49s WALL (     746 calls)
     s_psi        :    569.90s CPU    570.04s WALL (     746 calls)
     g_psi        :      8.76s CPU      8.77s WALL (     594 calls)
     cdiaghg      :    225.03s CPU    225.12s WALL (     738 calls)

     Called by h_psi:
     h_psi:pot    :   2197.80s CPU   2303.12s WALL (     746 calls)
     h_psi:calbec :    556.95s CPU    557.84s WALL (     746 calls)
     vloc_psi     :   1069.61s CPU   1173.89s WALL (     746 calls)
     add_vuspsi   :    571.23s CPU    571.38s WALL (     746 calls)

     General routines
     calbec       :    793.87s CPU    795.05s WALL (     930 calls)
     fft          :      4.01s CPU      4.51s WALL (     271 calls)
     fftw         :   1113.47s CPU   1231.84s WALL (  258378 calls)
 
     Parallel routines
     fft_scatter  :    229.85s CPU    346.67s WALL (  258649 calls)
 
     PWSCF        :     1h28m CPU        1h31m WALL

 
   This run was terminated on:   9:52:43  20Dec2017            

=------------------------------------------------------------------------------=
   JOB DONE.
=------------------------------------------------------------------------------=
