
     Program PWSCF v.6.1 (svn rev. 13369) starts on 20Dec2017 at 12: 4:40 

     This program is part of the open-source Quantum ESPRESSO suite
     for quantum simulation of materials; please cite
         "P. Giannozzi et al., J. Phys.:Condens. Matter 21 395502 (2009);
          URL http://www.quantum-espresso.org", 
     in publications or presentations arising from this work. More details at
     http://www.quantum-espresso.org/quote

     Parallel version (MPI), running on     8 processors
     R & G space division:  proc/nbgrp/npool/nimage =       8
     Waiting for input...
     Reading input from standard input

     Current dimensions of program PWSCF are:
     Max number of different atomic species (ntypx) = 10
     Max number of k-points (npk) =  40000
     Max angular momentum in pseudopotentials (lmaxx) =  3
               file C.pbe-n-kjpaw_psl.0.1.UPF: wavefunction(s)  2P renormalized
               file N.pbe-n-kjpaw_psl.0.1.UPF: wavefunction(s)  2P renormalized
               file H.pbe-kjpaw_psl.0.1.UPF: wavefunction(s)  1S renormalized
               file O.pbe-n-kjpaw_psl.0.1.UPF: wavefunction(s)  2P renormalized

     -------------------------------------
     Parameters for Dispersion Correction:
     -------------------------------------
       atom      VdW radius       C_6     

        C          2.744         60.710
        N          2.640         42.670
        H          1.892          4.857
        O          2.536         24.284

     Subspace diagonalization in iterative solution of the eigenvalue problem:
     a serial algorithm will be used

 
     Parallelization info
     --------------------
     sticks:   dense  smooth     PW     G-vecs:    dense   smooth      PW
     Min         800     800    211                75299    75299   10175
     Max         801     801    212                75302    75302   10180
     Sum        6407    6407   1695               602409   602409   81413
 


     bravais-lattice index     =            0
     lattice parameter (alat)  =      14.4318  a.u.
     unit-cell volume          =    4459.6412 (a.u.)^3
     number of atoms/cell      =           84
     number of atomic types    =            4
     number of electrons       =       200.00
     number of Kohn-Sham states=          120
     kinetic-energy cutoff     =     100.0000  Ry
     charge density cutoff     =     400.0000  Ry
     convergence threshold     =      1.0E-08
     mixing beta               =       0.5000
     number of iterations used =            8  plain     mixing
     Exchange-correlation      =  SLA  PW   PBX  PBC ( 1  4  3  4 0 0)

     celldm(1)=  14.431838  celldm(2)=   0.000000  celldm(3)=   0.000000
     celldm(4)=   0.000000  celldm(5)=   0.000000  celldm(6)=   0.000000

     crystal axes: (cart. coord. in units of alat)
               a(1) = (   1.000000   0.000000   0.000000 )  
               a(2) = (  -0.372728   0.968462   0.000000 )  
               a(3) = (  -0.438336  -0.222249   1.531978 )  

     reciprocal axes: (cart. coord. in units 2 pi/alat)
               b(1) = (  1.000000  0.384866  0.341958 )  
               b(2) = (  0.000000  1.032565  0.149797 )  
               b(3) = (  0.000000  0.000000  0.652751 )  


     PseudoPot. # 1 for  C read from file:
     /scratch/ahofstet/pseudo/C.pbe-n-kjpaw_psl.0.1.UPF
     MD5 check sum: 430fe95172b1e11ef3f8ed03bac87931
     Pseudo is Projector augmented-wave + core cor, Zval =  4.0
     Generated using "atomic" code by A. Dal Corso  v.5.0.99 svn rev. 10869
     Shape of augmentation charge: BESSEL
     Using radial grid of 1073 points,  4 beta functions with: 
                l(1) =   0
                l(2) =   0
                l(3) =   1
                l(4) =   1
     Q(r) pseudized with 0 coefficients 


     PseudoPot. # 2 for  N read from file:
     /scratch/ahofstet/pseudo/N.pbe-n-kjpaw_psl.0.1.UPF
     MD5 check sum: f73187c8b701007e77325f868c9291d7
     Pseudo is Projector augmented-wave + core cor, Zval =  5.0
     Generated using "atomic" code by A. Dal Corso  v.5.0.99 svn rev. 10869
     Shape of augmentation charge: PSQ
     Using radial grid of 1085 points,  4 beta functions with: 
                l(1) =   0
                l(2) =   0
                l(3) =   1
                l(4) =   1
     Q(r) pseudized with 0 coefficients 


     PseudoPot. # 3 for  H read from file:
     /scratch/ahofstet/pseudo/H.pbe-kjpaw_psl.0.1.UPF
     MD5 check sum: 94e484f906d9e9773b2f6e52662335b2
     Pseudo is Projector augmented-wave, Zval =  1.0
     Generated using "atomic" code by A. Dal Corso  v.5.0.99 svn rev. 10869
     Shape of augmentation charge: PSQ
     Using radial grid of  929 points,  2 beta functions with: 
                l(1) =   0
                l(2) =   0
     Q(r) pseudized with 0 coefficients 


     PseudoPot. # 4 for  O read from file:
     /scratch/ahofstet/pseudo/O.pbe-n-kjpaw_psl.0.1.UPF
     MD5 check sum: 3f94a2996a3169367d6eb21d9b593f20
     Pseudo is Projector augmented-wave + core cor, Zval =  6.0
     Generated using "atomic" code by A. Dal Corso  v.5.0.99 svn rev. 10869
     Shape of augmentation charge: BESSEL
     Using radial grid of 1095 points,  4 beta functions with: 
                l(1) =   0
                l(2) =   0
                l(3) =   1
                l(4) =   1
     Q(r) pseudized with 0 coefficients 


     atomic species   valence    mass     pseudopotential
        C              4.00    12.01070      C( 1.00)
        N              5.00    14.00670      N( 1.00)
        H              1.00     1.00794      H( 1.00)
        O              6.00    15.99940      O( 1.00)

      2 Sym. Ops., with inversion, found



   Cartesian axes

     site n.     atom                  positions (alat units)
         1           N   tau(   1) = (   0.3579867   0.5104081   0.8074477  )
         2           N   tau(   2) = (  -0.1690503   0.2358053   0.7245298  )
         3           H   tau(   3) = (   0.4761298   0.5619693   0.7689756  )
         4           H   tau(   4) = (  -0.2871934   0.1842441   0.7630020  )
         5           H   tau(   5) = (   0.2646943   0.5638552   0.7269161  )
         6           H   tau(   6) = (  -0.0757579   0.1823582   0.8050615  )
         7           N   tau(   7) = (  -0.4009332   0.5539451   1.4005574  )
         8           N   tau(   8) = (   0.5898696   0.1922683   0.1314201  )
         9           H   tau(   9) = (  -0.4303990   0.5833825   1.5288376  )
        10           H   tau(  10) = (   0.6193354   0.1628309   0.0031400  )
        11           H   tau(  11) = (  -0.3638050   0.4251711   1.3969910  )
        12           H   tau(  12) = (   0.5527415   0.3210422   0.1349865  )
        13           N   tau(  13) = (   0.1317982   0.4744741   1.2439024  )
        14           N   tau(  14) = (   0.0571382   0.2717393   0.2880751  )
        15           N   tau(  15) = (   0.6270236  -0.1440786   1.1797331  )
        16           N   tau(  16) = (  -0.4380871   0.8902920   0.3522444  )
        17           O   tau(  17) = (   0.4029406   0.1368440   0.7807993  )
        18           O   tau(  18) = (  -0.2140041   0.6093694   0.7511782  )
        19           H   tau(  19) = (   0.3814560   0.2660177   0.7841929  )
        20           H   tau(  20) = (  -0.1925196   0.4801957   0.7477846  )
        21           H   tau(  21) = (   0.3100206   0.0815699   0.8536822  )
        22           H   tau(  22) = (  -0.1210842   0.6646434   0.6782953  )
        23           O   tau(  23) = (   0.2441601  -0.1738598   1.2853637  )
        24           O   tau(  24) = (  -0.0552237   0.9200731   0.2466139  )
        25           H   tau(  25) = (  -0.2120556   0.6995501   1.3192326  )
        26           H   tau(  26) = (   0.4009921   0.0466632   0.2127449  )
        27           H   tau(  27) = (  -0.0126253   0.7394499   1.2641712  )
        28           H   tau(  28) = (   0.2015618   0.0067634   0.2678063  )
        29           O   tau(  29) = (   0.1519195  -0.0506607   0.9594765  )
        30           O   tau(  30) = (   0.0370170   0.7968740   0.5725010  )
        31           H   tau(  31) = (   0.1842091  -0.0862238   1.0808248  )
        32           H   tau(  32) = (   0.0047273   0.8324371   0.4511528  )
        33           H   tau(  33) = (  -0.2237953   0.8055894   0.8951920  )
        34           H   tau(  34) = (   0.4127318  -0.0593760   0.6367855  )
        35           C   tau(  35) = (   0.3220805   0.5629068   0.9904883  )
        36           C   tau(  36) = (  -0.1331440   0.1833066   0.5414892  )
        37           C   tau(  37) = (   0.1722645   0.4465683   1.0581932  )
        38           C   tau(  38) = (   0.0166720   0.2996451   0.4737843  )
        39           H   tau(  39) = (   0.0522890   0.4713103   0.9819320  )
        40           H   tau(  40) = (   0.1366475   0.2749030   0.5500455  )
        41           H   tau(  41) = (   0.2115600   0.3082884   1.0347828  )
        42           H   tau(  42) = (  -0.0226235   0.4379250   0.4971947  )
        43           C   tau(  43) = (   0.2884275   0.4646641   1.3546234  )
        44           C   tau(  44) = (  -0.0994911   0.2815493   0.1773542  )
        45           H   tau(  45) = (   0.3372410   0.3268543   1.3620822  )
        46           H   tau(  46) = (  -0.1483045   0.4193590   0.1698953  )
        47           H   tau(  47) = (   0.2517670   0.5042202   1.4883819  )
        48           H   tau(  48) = (  -0.0628305   0.2419931   0.0435956  )
        49           C   tau(  49) = (  -0.5579842   0.5793709   1.2909635  )
        50           C   tau(  50) = (   0.7469207   0.1668425   0.2410141  )
        51           C   tau(  51) = (  -0.6006901   0.7757743   1.2954917  )
        52           C   tau(  52) = (   0.7896265  -0.0295609   0.2364859  )
        53           H   tau(  53) = (  -0.2620782  -0.1531356   1.4300634  )
        54           H   tau(  54) = (   0.4510146   0.8993490   0.1019142  )
        55           H   tau(  55) = (  -0.1058197  -0.1222808   1.2582847  )
        56           H   tau(  56) = (   0.2947562   0.8684942   0.2736928  )
        57           C   tau(  57) = (   0.2812572   0.7597613   1.0003990  )
        58           C   tau(  58) = (  -0.0923208  -0.0135480   0.5315785  )
        59           H   tau(  59) = (  -0.6067993   0.8290627   0.9379019  )
        60           H   tau(  60) = (   0.7957358  -0.0828494   0.5940756  )
        61           H   tau(  61) = (   0.1629193   0.7898694   0.9240293  )
        62           H   tau(  62) = (   0.0260171  -0.0436560   0.6079482  )
        63           C   tau(  63) = (  -0.5155930   0.5281522   1.1020603  )
        64           C   tau(  64) = (   0.7045295   0.2180612   0.4299172  )
        65           H   tau(  65) = (  -0.4046932   0.6061189   1.0536114  )
        66           H   tau(  66) = (   0.5936297   0.1400945   0.4783662  )
        67           H   tau(  67) = (  -0.4801374   0.3885969   1.0947036  )
        68           H   tau(  68) = (   0.6690739   0.3576165   0.4372739  )
        69           C   tau(  69) = (  -0.3951711   0.0443433   1.1776118  )
        70           C   tau(  70) = (   0.5841076   0.7018701   0.3543658  )
        71           H   tau(  71) = (   0.4951267   0.0795145   1.0915305  )
        72           H   tau(  72) = (  -0.3061903   0.6666989   0.4404470  )
        73           H   tau(  73) = (  -0.2760165   0.1125417   1.1285824  )
        74           H   tau(  74) = (   0.4649530   0.6336716   0.4033951  )
        75           H   tau(  75) = (  -0.4230535   0.0921343   1.3108858  )
        76           H   tau(  76) = (   0.6119899   0.6540791   0.2210917  )
        77           C   tau(  77) = (   0.0033437   0.3463486   1.3016654  )
        78           C   tau(  78) = (   0.1855927   0.3998648   0.2303121  )
        79           H   tau(  79) = (  -0.1136421   0.3535611   1.2179678  )
        80           H   tau(  80) = (   0.3025786   0.3926523   0.3140098  )
        81           H   tau(  81) = (  -0.0356719   0.3739868   1.4378016  )
        82           H   tau(  82) = (   0.2246083   0.3722266   0.0941759  )
        83           H   tau(  83) = (   0.0552812   0.2102046   1.2947081  )
        84           H   tau(  84) = (   0.1336553   0.5360087   0.2372695  )

     number of k points=    10
                       cart. coord. in units 2pi/alat
        k(    1) = (   0.0000000   0.0000000   0.0000000), wk =   0.1111111
        k(    2) = (   0.0000000   0.0000000  -0.3263755), wk =   0.1111111
        k(    3) = (   0.0000000   0.3441884   0.0499324), wk =   0.2222222
        k(    4) = (   0.0000000   0.3441884  -0.2764431), wk =   0.2222222
        k(    5) = (   0.3333333   0.1282885   0.1139859), wk =   0.2222222
        k(    6) = (   0.3333333   0.1282885  -0.2123896), wk =   0.2222222
        k(    7) = (   0.3333333   0.4724769   0.1639184), wk =   0.2222222
        k(    8) = (   0.3333333   0.4724769  -0.1624572), wk =   0.2222222
        k(    9) = (   0.3333333  -0.2158998   0.0640535), wk =   0.2222222
        k(   10) = (   0.3333333  -0.2158998  -0.2623220), wk =   0.2222222

     Dense  grid:   602409 G-vectors     FFT dimensions: (  96,  96, 150)

     Estimated max dynamical RAM per process >     432.51MB

     Estimated total allocated dynamical RAM >    3460.06MB

     Check: negative/imaginary core charge=   -0.000002    0.000000

     Initial potential from superposition of free atoms

     starting charge  199.99869, renormalised to  200.00000
     Starting wfc are  180 randomized atomic wfcs
     Checking if some PAW data can be deallocated... 

     total cpu time spent up to now is       28.5 secs

     per-process dynamical memory:   330.0 Mb

     Self-consistent Calculation

     iteration #  1     ecut=   100.00 Ry     beta=0.50
     Davidson diagonalization with overlap
     ethr =  1.00E-02,  avg # of iterations =  4.1

     total cpu time spent up to now is       96.4 secs

     total energy              =    -868.13628653 Ry
     Harris-Foulkes estimate   =    -872.66585224 Ry
     estimated scf accuracy    <       8.52975029 Ry

     iteration #  2     ecut=   100.00 Ry     beta=0.50
     Davidson diagonalization with overlap
     ethr =  4.26E-03,  avg # of iterations =  3.3

     total cpu time spent up to now is      139.0 secs

     total energy              =    -869.55759549 Ry
     Harris-Foulkes estimate   =    -869.86574944 Ry
     estimated scf accuracy    <       0.78176219 Ry

     iteration #  3     ecut=   100.00 Ry     beta=0.50
     Davidson diagonalization with overlap
     ethr =  3.91E-04,  avg # of iterations =  7.3

     total cpu time spent up to now is      211.3 secs

     total energy              =    -869.85274773 Ry
     Harris-Foulkes estimate   =    -869.96591948 Ry
     estimated scf accuracy    <       0.29351094 Ry

     iteration #  4     ecut=   100.00 Ry     beta=0.50
     Davidson diagonalization with overlap
     ethr =  1.47E-04,  avg # of iterations =  1.4

     total cpu time spent up to now is      244.1 secs

     total energy              =    -869.84584397 Ry
     Harris-Foulkes estimate   =    -869.87218993 Ry
     estimated scf accuracy    <       0.06483017 Ry

     iteration #  5     ecut=   100.00 Ry     beta=0.50
     Davidson diagonalization with overlap
     ethr =  3.24E-05,  avg # of iterations =  5.1

     total cpu time spent up to now is      317.9 secs

     total energy              =    -869.87975439 Ry
     Harris-Foulkes estimate   =    -869.92008108 Ry
     estimated scf accuracy    <       0.11579236 Ry

     iteration #  6     ecut=   100.00 Ry     beta=0.50
     Davidson diagonalization with overlap
     ethr =  3.24E-05,  avg # of iterations =  1.8

     total cpu time spent up to now is      352.0 secs

     total energy              =    -869.86159011 Ry
     Harris-Foulkes estimate   =    -869.88371462 Ry
     estimated scf accuracy    <       0.04047172 Ry

     iteration #  7     ecut=   100.00 Ry     beta=0.50
     Davidson diagonalization with overlap
     ethr =  2.02E-05,  avg # of iterations =  6.2

     total cpu time spent up to now is      418.1 secs

     total energy              =    -869.88303475 Ry
     Harris-Foulkes estimate   =    -869.88762387 Ry
     estimated scf accuracy    <       0.01158318 Ry

     iteration #  8     ecut=   100.00 Ry     beta=0.50
     Davidson diagonalization with overlap
     ethr =  5.79E-06,  avg # of iterations =  1.3

     total cpu time spent up to now is      451.5 secs

     total energy              =    -869.88169316 Ry
     Harris-Foulkes estimate   =    -869.88354294 Ry
     estimated scf accuracy    <       0.00325288 Ry

     iteration #  9     ecut=   100.00 Ry     beta=0.50
     Davidson diagonalization with overlap
     ethr =  1.63E-06,  avg # of iterations =  5.6

     total cpu time spent up to now is      522.0 secs

     total energy              =    -869.88437484 Ry
     Harris-Foulkes estimate   =    -869.88483420 Ry
     estimated scf accuracy    <       0.00216438 Ry

     iteration # 10     ecut=   100.00 Ry     beta=0.50
     Davidson diagonalization with overlap
     ethr =  1.08E-06,  avg # of iterations =  1.0

     total cpu time spent up to now is      554.6 secs

     total energy              =    -869.88374481 Ry
     Harris-Foulkes estimate   =    -869.88439486 Ry
     estimated scf accuracy    <       0.00132300 Ry

     iteration # 11     ecut=   100.00 Ry     beta=0.50
     Davidson diagonalization with overlap
     ethr =  6.62E-07,  avg # of iterations =  4.9

     total cpu time spent up to now is      601.2 secs

     total energy              =    -869.88418055 Ry
     Harris-Foulkes estimate   =    -869.88417036 Ry
     estimated scf accuracy    <       0.00005347 Ry

     iteration # 12     ecut=   100.00 Ry     beta=0.50
     Davidson diagonalization with overlap
     ethr =  2.67E-08,  avg # of iterations =  4.1

     total cpu time spent up to now is      656.5 secs

     total energy              =    -869.88416258 Ry
     Harris-Foulkes estimate   =    -869.88420755 Ry
     estimated scf accuracy    <       0.00011631 Ry

     iteration # 13     ecut=   100.00 Ry     beta=0.50
     Davidson diagonalization with overlap
     ethr =  2.67E-08,  avg # of iterations =  3.3

     total cpu time spent up to now is      692.9 secs

     total energy              =    -869.88415633 Ry
     Harris-Foulkes estimate   =    -869.88416742 Ry
     estimated scf accuracy    <       0.00003267 Ry

     iteration # 14     ecut=   100.00 Ry     beta=0.50
     Davidson diagonalization with overlap
     ethr =  1.63E-08,  avg # of iterations =  4.0

     total cpu time spent up to now is      745.9 secs

     total energy              =    -869.88417093 Ry
     Harris-Foulkes estimate   =    -869.88417042 Ry
     estimated scf accuracy    <       0.00000041 Ry

     iteration # 15     ecut=   100.00 Ry     beta=0.50
     Davidson diagonalization with overlap
     ethr =  2.05E-10,  avg # of iterations =  4.0

     total cpu time spent up to now is      813.8 secs

     total energy              =    -869.88416988 Ry
     Harris-Foulkes estimate   =    -869.88417147 Ry
     estimated scf accuracy    <       0.00000350 Ry

     iteration # 16     ecut=   100.00 Ry     beta=0.50
     Davidson diagonalization with overlap
     ethr =  2.05E-10,  avg # of iterations =  4.0

     total cpu time spent up to now is      877.2 secs

     total energy              =    -869.88417039 Ry
     Harris-Foulkes estimate   =    -869.88417041 Ry
     estimated scf accuracy    <       0.00000004 Ry

     iteration # 17     ecut=   100.00 Ry     beta=0.50
     Davidson diagonalization with overlap
     ethr =  2.08E-11,  avg # of iterations =  4.8

     total cpu time spent up to now is      919.4 secs

     End of self-consistent calculation

          k = 0.0000 0.0000 0.0000 ( 75317 PWs)   bands (ev):

   -18.8961 -18.7922 -18.5774 -18.4011 -18.2951 -18.0812 -17.9066 -17.8960
   -17.1800 -17.1747 -16.5657 -16.5561 -16.4049 -16.4025 -13.5156 -13.4952
   -12.6966 -12.6920 -11.5721 -11.5347 -11.4656 -11.4588 -11.3534 -11.3520
    -9.4946  -9.4446  -9.0593  -8.9641  -8.8221  -8.7518  -7.1919  -7.1559
    -6.8598  -6.7868  -6.7327  -6.6935  -6.6786  -6.5311  -6.5260  -6.4619
    -6.2686  -6.1660  -6.0238  -5.9447  -5.9126  -5.8782  -5.7542  -5.7270
    -5.4764  -5.4177  -5.1624  -5.1289  -4.9626  -4.9455  -4.8583  -4.7641
    -4.5027  -4.4604  -4.4174  -4.3727  -4.0849  -3.9698  -3.8681  -3.6700
    -3.6531  -3.5619  -3.5468  -3.3925  -3.3114  -3.1066  -3.0832  -3.0714
    -2.9804  -2.9242  -2.9233  -2.8282  -2.6864  -2.5506  -2.4791  -2.3435
    -2.1449  -2.0385  -2.0005  -1.8660  -1.8509  -1.8262  -1.0575  -1.0081
    -0.9734  -0.9113  -0.7160  -0.6964  -0.3374  -0.3195  -0.1730  -0.1427
     0.2142   0.3052   1.1469   1.1836   5.1142   5.8117   5.9188   6.2090
     6.4189   6.8050   6.9106   7.0445   7.0458   7.0640   7.3139   7.3823
     7.4771   7.6676   7.6730   7.8449   7.9941   8.1021   8.2402   8.2661

          k = 0.0000 0.0000-0.3264 ( 75310 PWs)   bands (ev):

   -18.8899 -18.8042 -18.5649 -18.4095 -18.2958 -18.0766 -17.9057 -17.8990
   -17.1810 -17.1737 -16.5610 -16.5609 -16.4071 -16.4003 -13.5089 -13.5021
   -12.7118 -12.6763 -11.5717 -11.5385 -11.4802 -11.4414 -11.3539 -11.3512
    -9.5085  -9.4323  -9.0149  -9.0086  -8.7904  -8.7852  -7.1841  -7.1478
    -6.8843  -6.7603  -6.7341  -6.7115  -6.6443  -6.5838  -6.4990  -6.4590
    -6.2589  -6.1543  -6.0126  -5.9924  -5.9346  -5.8939  -5.7201  -5.6996
    -5.4943  -5.4247  -5.1838  -5.1114  -4.9622  -4.9401  -4.8328  -4.7955
    -4.4881  -4.4803  -4.3942  -4.3754  -4.0278  -4.0177  -3.9146  -3.6670
    -3.6118  -3.6118  -3.4708  -3.4459  -3.2204  -3.1932  -3.0996  -3.0889
    -3.0419  -2.9164  -2.8491  -2.7942  -2.6925  -2.5330  -2.4940  -2.3830
    -2.0825  -2.0793  -1.9845  -1.8372  -1.8251  -1.8064  -1.0874  -1.0647
    -0.9715  -0.9014  -0.7185  -0.6984  -0.3288  -0.3288  -0.1888  -0.1449
     0.2574   0.2685   1.1474   1.1858   5.3324   5.5207   6.1494   6.1876
     6.4690   6.5653   6.8092   6.9003   7.0522   7.1722   7.3366   7.4046
     7.6015   7.6722   7.6931   7.9015   7.9787   8.1444   8.2267   8.2894

          k = 0.0000 0.3442 0.0499 ( 75275 PWs)   bands (ev):

   -18.8924 -18.7916 -18.5785 -18.4047 -18.3026 -18.0629 -17.9048 -17.9024
   -17.1854 -17.1786 -16.5664 -16.5589 -16.4049 -16.4029 -13.5162 -13.5059
   -12.7028 -12.6837 -11.5634 -11.5447 -11.5088 -11.4631 -11.2608 -11.2495
    -9.4789  -9.4520  -9.1129  -9.0609  -8.8764  -8.8269  -7.2255  -7.1965
    -6.8464  -6.7839  -6.7507  -6.6656  -6.5758  -6.5480  -6.5170  -6.4941
    -6.2020  -6.1520  -6.0137  -5.9559  -5.9132  -5.9002  -5.8140  -5.7739
    -5.4796  -5.4110  -5.1335  -5.1011  -4.9067  -4.8438  -4.8026  -4.7534
    -4.5914  -4.5460  -4.2870  -4.2458  -4.0579  -3.9961  -3.9012  -3.7239
    -3.6828  -3.5306  -3.4626  -3.4258  -3.2539  -3.1848  -3.0521  -3.0328
    -2.9940  -2.9614  -2.8801  -2.8190  -2.6984  -2.5117  -2.4333  -2.3498
    -2.1669  -2.1172  -2.0587  -1.9469  -1.8871  -1.7897  -1.0628  -1.0073
    -0.9621  -0.9048  -0.7353  -0.6767  -0.3309  -0.3087  -0.2442  -0.1899
     0.2446   0.2791   1.1469   1.1686   5.4138   5.8625   5.9888   6.2163
     6.2488   6.5105   6.7798   6.9284   6.9990   7.0686   7.2179   7.3778
     7.4346   7.6826   7.7519   7.9056   8.0312   8.0747   8.2450   8.3636

          k = 0.0000 0.3442-0.2764 ( 75280 PWs)   bands (ev):

   -18.8865 -18.8033 -18.5652 -18.4135 -18.3029 -18.0609 -17.9096 -17.8978
   -17.1868 -17.1772 -16.5646 -16.5610 -16.4079 -16.3997 -13.5185 -13.5035
   -12.7038 -12.6828 -11.5637 -11.5453 -11.5149 -11.4571 -11.2601 -11.2486
    -9.5019  -9.4295  -9.1491  -9.0200  -8.9065  -8.7969  -7.2518  -7.1677
    -6.8410  -6.7677  -6.7569  -6.6821  -6.6085  -6.5482  -6.5025  -6.4698
    -6.2047  -6.1625  -6.0287  -5.9686  -5.9364  -5.8535  -5.8037  -5.7838
    -5.4817  -5.4032  -5.1769  -5.0699  -4.9113  -4.8598  -4.8110  -4.7246
    -4.5849  -4.5506  -4.2889  -4.2392  -4.0460  -3.9716  -3.9262  -3.7206
    -3.6772  -3.5246  -3.4834  -3.4379  -3.2213  -3.2025  -3.0529  -3.0507
    -2.9853  -2.9698  -2.8718  -2.7854  -2.7131  -2.5010  -2.4743  -2.3695
    -2.1442  -2.1076  -2.0910  -1.9075  -1.8552  -1.7565  -1.0935  -1.0637
    -0.9584  -0.8968  -0.7351  -0.6807  -0.3488  -0.3097  -0.2382  -0.1771
     0.2258   0.3033   1.1339   1.1820   5.5523   5.7976   6.0232   6.1707
     6.3490   6.4050   6.6513   6.7945   7.0706   7.1501   7.2310   7.3498
     7.4970   7.5901   7.7493   7.9301   8.0474   8.0753   8.2609   8.3822

          k = 0.3333 0.1283 0.1140 ( 75330 PWs)   bands (ev):

   -18.8908 -18.7903 -18.5728 -18.4011 -18.3056 -18.0674 -17.9112 -17.9087
   -17.1847 -17.1782 -16.5621 -16.5594 -16.4063 -16.4014 -13.4917 -13.4831
   -12.7064 -12.6843 -11.5899 -11.5675 -11.4929 -11.4608 -11.3194 -11.2950
    -9.5003  -9.4672  -9.0486  -8.9685  -8.8531  -8.8157  -7.1402  -7.1052
    -6.8557  -6.8166  -6.7933  -6.6909  -6.5838  -6.5718  -6.4482  -6.4306
    -6.2387  -6.1515  -6.0643  -6.0164  -5.9109  -5.8809  -5.8278  -5.7389
    -5.4173  -5.3588  -5.1485  -5.0786  -4.9920  -4.9657  -4.8683  -4.7683
    -4.5777  -4.5750  -4.3607  -4.2911  -4.0760  -4.0010  -3.9308  -3.7945
    -3.6565  -3.5314  -3.4580  -3.4495  -3.2141  -3.0988  -3.0771  -3.0216
    -3.0020  -2.9848  -2.8921  -2.7951  -2.7636  -2.5476  -2.4794  -2.3621
    -2.1048  -2.0242  -1.9621  -1.8755  -1.8487  -1.7526  -1.0819  -1.0366
    -0.9688  -0.9347  -0.7323  -0.6798  -0.3691  -0.3260  -0.1710  -0.1607
     0.2951   0.3686   1.0803   1.1283   5.4337   5.7884   6.0328   6.2079
     6.3582   6.6048   6.8632   6.9319   7.0495   7.1599   7.2850   7.4077
     7.5392   7.6534   7.7464   7.9157   7.9383   8.0158   8.2342   8.2843

          k = 0.3333 0.1283-0.2124 ( 75289 PWs)   bands (ev):

   -18.8866 -18.7991 -18.5629 -18.4069 -18.3053 -18.0678 -17.9134 -17.9059
   -17.1858 -17.1770 -16.5627 -16.5587 -16.4081 -16.3995 -13.4890 -13.4857
   -12.7070 -12.6835 -11.5901 -11.5688 -11.5020 -11.4516 -11.3177 -11.2960
    -9.5055  -9.4610  -9.0299  -8.9909  -8.8649  -8.8000  -7.1346  -7.1031
    -6.8769  -6.7959  -6.7815  -6.6860  -6.6386  -6.5291  -6.4740  -6.4148
    -6.2467  -6.1307  -6.0753  -6.0247  -5.9331  -5.8494  -5.8118  -5.7606
    -5.4005  -5.3783  -5.1260  -5.1130  -5.0273  -4.9368  -4.8349  -4.8078
    -4.5925  -4.5559  -4.3346  -4.3019  -4.0672  -4.0034  -3.9278  -3.7751
    -3.6808  -3.5303  -3.4804  -3.4338  -3.1879  -3.1058  -3.0479  -3.0220
    -3.0121  -2.9797  -2.8937  -2.7800  -2.7565  -2.5329  -2.5118  -2.3806
    -2.1092  -2.0207  -1.9843  -1.8881  -1.8329  -1.7921  -1.0458  -1.0308
    -0.9675  -0.9244  -0.7353  -0.6828  -0.3620  -0.3334  -0.1813  -0.1568
     0.3283   0.3365   1.0931   1.1163   5.4427   5.7722   5.9625   6.3414
     6.5021   6.5645   6.8273   6.8760   6.9717   7.0792   7.2413   7.4170
     7.5434   7.6432   7.7779   7.8830   8.0119   8.0585   8.1710   8.2327

          k = 0.3333 0.4725 0.1639 ( 75309 PWs)   bands (ev):

   -18.8888 -18.7898 -18.5743 -18.4040 -18.3034 -18.0597 -17.9132 -17.9112
   -17.1865 -17.1795 -16.5662 -16.5595 -16.4077 -16.4023 -13.4986 -13.4971
   -12.7072 -12.6818 -11.5656 -11.5526 -11.4921 -11.4607 -11.2561 -11.2388
    -9.5391  -9.5081  -9.0856  -9.0436  -8.8920  -8.8199  -7.1793  -7.1421
    -6.8387  -6.8301  -6.8059  -6.6571  -6.5889  -6.5736  -6.4516  -6.4152
    -6.1870  -6.1777  -6.0689  -6.0296  -5.9292  -5.8555  -5.8336  -5.8104
    -5.3707  -5.3405  -5.1147  -5.0694  -4.9687  -4.9129  -4.8076  -4.7989
    -4.5628  -4.5536  -4.2749  -4.2216  -4.0249  -4.0174  -3.9212  -3.7467
    -3.6700  -3.5813  -3.5123  -3.4232  -3.1679  -3.1283  -3.0755  -3.0424
    -2.9920  -2.9265  -2.9136  -2.8083  -2.7842  -2.5011  -2.4592  -2.3634
    -2.1444  -2.0764  -2.0666  -1.9275  -1.8712  -1.7698  -1.0861  -1.0373
    -0.9664  -0.9339  -0.7368  -0.6747  -0.3479  -0.3187  -0.2287  -0.1831
     0.2833   0.3270   1.1301   1.1686   5.6791   5.8650   5.9573   6.2632
     6.4174   6.5146   6.5909   6.6967   6.8954   7.1081   7.2517   7.4072
     7.4325   7.7349   7.8217   7.8715   8.0632   8.1810   8.2148   8.3605

          k = 0.3333 0.4725-0.1625 ( 75335 PWs)   bands (ev):

   -18.8847 -18.7985 -18.5646 -18.4095 -18.3032 -18.0601 -17.9156 -17.9082
   -17.1877 -17.1783 -16.5632 -16.5627 -16.4093 -16.4005 -13.5065 -13.4889
   -12.7079 -12.6812 -11.5662 -11.5543 -11.5002 -11.4512 -11.2546 -11.2395
    -9.5638  -9.4829  -9.1201  -9.0026  -8.8849  -8.8308  -7.2037  -7.1207
    -6.8375  -6.8072  -6.7903  -6.7114  -6.5807  -6.5527  -6.4829  -6.3985
    -6.1928  -6.1654  -6.1053  -6.0024  -5.9277  -5.8874  -5.8461  -5.7627
    -5.3996  -5.3116  -5.1633  -5.0502  -4.9465  -4.9137  -4.8544  -4.7454
    -4.5711  -4.5407  -4.2712  -4.2309  -4.0421  -4.0031  -3.9325  -3.7101
    -3.6913  -3.5726  -3.4960  -3.4664  -3.1490  -3.1020  -3.0603  -3.0425
    -2.9760  -2.9644  -2.9198  -2.8094  -2.7473  -2.5101  -2.4850  -2.3469
    -2.1682  -2.1022  -2.0275  -1.9312  -1.8912  -1.8141  -1.0498  -1.0283
    -0.9628  -0.9274  -0.7401  -0.6773  -0.3539  -0.3224  -0.2302  -0.1731
     0.2784   0.3338   1.1207   1.1758   5.6725   5.8437   6.0409   6.1893
     6.3970   6.4776   6.6500   6.7408   7.0051   7.1345   7.2276   7.3187
     7.4275   7.4786   7.7968   7.9314   8.0832   8.1651   8.2591   8.3640

          k = 0.3333-0.2159 0.0641 ( 75318 PWs)   bands (ev):

   -18.8907 -18.7899 -18.5745 -18.4033 -18.2939 -18.0712 -17.9147 -17.9085
   -17.1830 -17.1769 -16.5674 -16.5593 -16.4089 -16.4031 -13.5074 -13.4976
   -12.6964 -12.6931 -11.5518 -11.5349 -11.4622 -11.4520 -11.2768 -11.2749
    -9.5927  -9.5430  -9.0577  -9.0134  -8.8501  -8.7999  -7.1891  -7.1507
    -6.8521  -6.8299  -6.7843  -6.6453  -6.6252  -6.5358  -6.4836  -6.4321
    -6.2648  -6.1442  -6.0643  -6.0243  -5.9369  -5.8714  -5.8137  -5.7929
    -5.3704  -5.3256  -5.1209  -5.0692  -4.9586  -4.9426  -4.8378  -4.7895
    -4.5100  -4.4471  -4.3283  -4.3021  -4.0235  -3.9629  -3.9112  -3.6563
    -3.6183  -3.6027  -3.5185  -3.4259  -3.3119  -3.1467  -3.0921  -3.0119
    -2.9946  -2.9431  -2.8820  -2.8124  -2.7812  -2.5322  -2.4886  -2.2992
    -2.1460  -2.0936  -2.0568  -1.9297  -1.8461  -1.8145  -1.0805  -1.0398
    -0.9701  -0.9469  -0.7241  -0.6878  -0.3533  -0.3281  -0.2166  -0.1798
     0.2622   0.2939   1.2001   1.2174   5.4702   5.9078   6.0364   6.1711
     6.3493   6.5446   6.7196   6.8796   6.9692   7.0421   7.2914   7.3793
     7.4095   7.7239   7.8152   7.8386   8.0029   8.0689   8.1944   8.4317

          k = 0.3333-0.2159-0.2623 ( 75337 PWs)   bands (ev):

   -18.8861 -18.7989 -18.5659 -18.4079 -18.2946 -18.0682 -17.9157 -17.9097
   -17.1838 -17.1760 -16.5655 -16.5611 -16.4088 -16.4030 -13.5131 -13.4921
   -12.7164 -12.6724 -11.5539 -11.5396 -11.4690 -11.4384 -11.2783 -11.2734
    -9.6226  -9.5149  -9.0730  -8.9921  -8.8390  -8.8137  -7.1974  -7.1434
    -6.8672  -6.8183  -6.7837  -6.6281  -6.5936  -6.5544  -6.5221  -6.4307
    -6.2598  -6.1287  -6.1177  -6.0040  -5.9198  -5.8769  -5.8103  -5.7658
    -5.3941  -5.3188  -5.1632  -5.0532  -4.9779  -4.9219  -4.8357  -4.7687
    -4.4935  -4.4645  -4.3228  -4.3129  -4.0202  -3.9814  -3.9252  -3.6301
    -3.6124  -3.5891  -3.5461  -3.4518  -3.2083  -3.1880  -3.0824  -3.0492
    -2.9801  -2.9508  -2.9065  -2.7750  -2.7389  -2.5195  -2.4959  -2.3271
    -2.1397  -2.1078  -2.0649  -1.9052  -1.8737  -1.8689  -1.0471  -1.0324
    -0.9729  -0.9323  -0.7291  -0.6883  -0.3501  -0.3350  -0.2251  -0.1751
     0.2539   0.3063   1.1727   1.2423   5.5198   5.8468   6.0599   6.1889
     6.4175   6.5101   6.6126   6.7918   7.0024   7.1202   7.2315   7.3691
     7.4566   7.6585   7.8011   7.8655   8.0250   8.1476   8.2990   8.4356

     highest occupied, lowest unoccupied level (ev):     1.2423    5.1142

!    total energy              =    -869.88417040 Ry
     Harris-Foulkes estimate   =    -869.88417040 Ry
     estimated scf accuracy    <          2.6E-09 Ry

     total all-electron energy =     -3213.109534 Ry

     The total energy is the sum of the following terms:

     one-electron contribution =    -514.69094800 Ry
     hartree contribution      =     331.15815495 Ry
     xc contribution           =    -200.63919475 Ry
     ewald contribution        =    -242.41499924 Ry
     Dispersion Correction     =      -0.37655601 Ry
     one-center paw contrib.   =    -242.92062735 Ry

     convergence has been achieved in  17 iterations

     Forces acting on atoms (cartesian axes, Ry/au):

     atom    1 type  2   force =    -0.00038195   -0.00042840    0.00148446
     atom    2 type  2   force =     0.00038195    0.00042840   -0.00148446
     atom    3 type  3   force =    -0.00003753    0.00085773    0.00056380
     atom    4 type  3   force =     0.00003753   -0.00085773   -0.00056380
     atom    5 type  3   force =    -0.00048366   -0.00058108   -0.00090102
     atom    6 type  3   force =     0.00048366    0.00058108    0.00090102
     atom    7 type  2   force =    -0.00035940    0.00144237   -0.00054605
     atom    8 type  2   force =     0.00035940   -0.00144237    0.00054605
     atom    9 type  3   force =    -0.00004212    0.00064322    0.00084563
     atom   10 type  3   force =     0.00004212   -0.00064322   -0.00084563
     atom   11 type  3   force =    -0.00166394    0.00142866   -0.00062707
     atom   12 type  3   force =     0.00166394   -0.00142866    0.00062707
     atom   13 type  2   force =     0.00324144    0.00073301    0.00012901
     atom   14 type  2   force =    -0.00324144   -0.00073301   -0.00012901
     atom   15 type  2   force =     0.00309987   -0.00806064   -0.00077117
     atom   16 type  2   force =    -0.00309987    0.00806064    0.00077117
     atom   17 type  4   force =    -0.00050986   -0.00021688   -0.00042778
     atom   18 type  4   force =     0.00050986    0.00021688    0.00042778
     atom   19 type  3   force =    -0.00062166    0.00069967   -0.00063183
     atom   20 type  3   force =     0.00062166   -0.00069967    0.00063183
     atom   21 type  3   force =     0.00088401   -0.00018466   -0.00011428
     atom   22 type  3   force =    -0.00088401    0.00018466    0.00011428
     atom   23 type  4   force =     0.00332954   -0.00485222    0.00181757
     atom   24 type  4   force =    -0.00332954    0.00485222   -0.00181757
     atom   25 type  3   force =     0.00080912    0.00004043    0.00021105
     atom   26 type  3   force =    -0.00080912   -0.00004043   -0.00021105
     atom   27 type  3   force =    -0.00462470    0.00146346    0.00172091
     atom   28 type  3   force =     0.00462470   -0.00146346   -0.00172091
     atom   29 type  4   force =    -0.00050672   -0.00069760   -0.00020294
     atom   30 type  4   force =     0.00050672    0.00069760    0.00020294
     atom   31 type  3   force =    -0.00001438   -0.00063775   -0.00018419
     atom   32 type  3   force =     0.00001438    0.00063775    0.00018419
     atom   33 type  3   force =    -0.00056865   -0.00076447   -0.00009979
     atom   34 type  3   force =     0.00056865    0.00076447    0.00009979
     atom   35 type  1   force =     0.00163843   -0.00326568   -0.00210676
     atom   36 type  1   force =    -0.00163843    0.00326568    0.00210676
     atom   37 type  1   force =     0.00006664   -0.00068033    0.00075762
     atom   38 type  1   force =    -0.00006664    0.00068033   -0.00075762
     atom   39 type  3   force =    -0.00055078    0.00073370   -0.00028874
     atom   40 type  3   force =     0.00055078   -0.00073370    0.00028874
     atom   41 type  3   force =     0.00012430    0.00006556   -0.00065367
     atom   42 type  3   force =    -0.00012430   -0.00006556    0.00065367
     atom   43 type  1   force =    -0.00113860   -0.00114977   -0.00090301
     atom   44 type  1   force =     0.00113860    0.00114977    0.00090301
     atom   45 type  3   force =     0.00082077    0.00169056   -0.00075762
     atom   46 type  3   force =    -0.00082077   -0.00169056    0.00075762
     atom   47 type  3   force =    -0.00016185    0.00046489    0.00137172
     atom   48 type  3   force =     0.00016185   -0.00046489   -0.00137172
     atom   49 type  1   force =     0.00111164   -0.00209652   -0.00268332
     atom   50 type  1   force =    -0.00111164    0.00209652    0.00268332
     atom   51 type  1   force =    -0.00018719    0.00388801   -0.00238294
     atom   52 type  1   force =     0.00018719   -0.00388801    0.00238294
     atom   53 type  3   force =     0.00003320   -0.00047018    0.00105430
     atom   54 type  3   force =    -0.00003320    0.00047018   -0.00105430
     atom   55 type  3   force =    -0.00139252    0.00055346    0.00017416
     atom   56 type  3   force =     0.00139252   -0.00055346   -0.00017416
     atom   57 type  1   force =    -0.00101269    0.00362473    0.00357996
     atom   58 type  1   force =     0.00101269   -0.00362473   -0.00357996
     atom   59 type  3   force =     0.00045168    0.00061229   -0.00108039
     atom   60 type  3   force =    -0.00045168   -0.00061229    0.00108039
     atom   61 type  3   force =    -0.00064249   -0.00021924   -0.00069138
     atom   62 type  3   force =     0.00064249    0.00021924    0.00069138
     atom   63 type  1   force =    -0.00055546   -0.00069059    0.00160007
     atom   64 type  1   force =     0.00055546    0.00069059   -0.00160007
     atom   65 type  3   force =     0.00134939    0.00048077   -0.00080779
     atom   66 type  3   force =    -0.00134939   -0.00048077    0.00080779
     atom   67 type  3   force =     0.00035246   -0.00142278   -0.00014150
     atom   68 type  3   force =    -0.00035246    0.00142278    0.00014150
     atom   69 type  1   force =    -0.00255607    0.00593937    0.00102284
     atom   70 type  1   force =     0.00255607   -0.00593937   -0.00102284
     atom   71 type  3   force =     0.00062553    0.00003884    0.00063254
     atom   72 type  3   force =    -0.00062553   -0.00003884   -0.00063254
     atom   73 type  3   force =     0.00050676    0.00059688   -0.00003989
     atom   74 type  3   force =    -0.00050676   -0.00059688    0.00003989
     atom   75 type  3   force =    -0.00007244   -0.00073530   -0.00064353
     atom   76 type  3   force =     0.00007244    0.00073530    0.00064353
     atom   77 type  1   force =    -0.00069877   -0.00113177    0.00128873
     atom   78 type  1   force =     0.00069877    0.00113177   -0.00128873
     atom   79 type  3   force =     0.00029192    0.00101413    0.00060318
     atom   80 type  3   force =    -0.00029192   -0.00101413   -0.00060318
     atom   81 type  3   force =     0.00034214    0.00027173   -0.00046142
     atom   82 type  3   force =    -0.00034214   -0.00027173    0.00046142
     atom   83 type  3   force =    -0.00115996    0.00031324    0.00020632
     atom   84 type  3   force =     0.00115996   -0.00031324   -0.00020632

     Total force =     0.025572     Total SCF correction =     0.000078


     Computing stress (Cartesian axis) and pressure

          total   stress  (Ry/bohr**3)                   (kbar)     P=  -10.94
  -0.00009765  -0.00000085   0.00000942        -14.36     -0.13      1.39
  -0.00000085  -0.00006714  -0.00000341         -0.13     -9.88     -0.50
   0.00000942  -0.00000341  -0.00005830          1.39     -0.50     -8.58


     Writing output data file scf.save
 
     init_run     :     27.18s CPU     27.87s WALL (       1 calls)
     electrons    :    860.66s CPU    891.01s WALL (       1 calls)
     forces       :     13.70s CPU     13.84s WALL (       1 calls)
     stress       :     43.83s CPU     44.06s WALL (       1 calls)

     Called by init_run:
     wfcinit      :     19.32s CPU     19.92s WALL (       1 calls)
     potinit      :      2.75s CPU      2.78s WALL (       1 calls)

     Called by electrons:
     c_bands      :    771.06s CPU    796.58s WALL (      17 calls)
     sum_band     :     80.34s CPU     84.27s WALL (      17 calls)
     v_of_rho     :      1.61s CPU      1.76s WALL (      18 calls)
     newd         :      3.46s CPU      4.17s WALL (      18 calls)
     PAW_pot      :      3.38s CPU      3.39s WALL (      18 calls)
     mix_rho      :      0.38s CPU      0.40s WALL (      17 calls)

     Called by c_bands:
     init_us_2    :      5.49s CPU      5.51s WALL (     370 calls)
     cegterg      :    752.60s CPU    778.08s WALL (     170 calls)

     Called by sum_band:
     sum_band:bec :      0.05s CPU      0.05s WALL (     170 calls)
     addusdens    :      3.43s CPU      4.17s WALL (      17 calls)

     Called by *egterg:
     h_psi        :    435.97s CPU    453.85s WALL (     842 calls)
     s_psi        :     77.86s CPU     77.88s WALL (     842 calls)
     g_psi        :      2.51s CPU      2.51s WALL (     662 calls)
     cdiaghg      :     41.45s CPU     41.43s WALL (     832 calls)

     Called by h_psi:
     h_psi:pot    :    432.95s CPU    450.77s WALL (     842 calls)
     h_psi:calbec :     78.12s CPU     78.35s WALL (     842 calls)
     vloc_psi     :    276.79s CPU    294.34s WALL (     842 calls)
     add_vuspsi   :     78.04s CPU     78.07s WALL (     842 calls)

     General routines
     calbec       :    110.90s CPU    111.22s WALL (    1062 calls)
     fft          :      1.46s CPU      1.72s WALL (     258 calls)
     fftw         :    294.71s CPU    314.07s WALL (  144818 calls)
 
     Parallel routines
     fft_scatter  :     77.79s CPU     91.80s WALL (  145076 calls)
 
     PWSCF        : 15m52.25s CPU    17m 3.94s WALL

 
   This run was terminated on:  12:21:44  20Dec2017            

=------------------------------------------------------------------------------=
   JOB DONE.
=------------------------------------------------------------------------------=
