
     Program PWSCF v.6.1 (svn rev. 13369) starts on  4Nov2017 at  4:43: 5 

     This program is part of the open-source Quantum ESPRESSO suite
     for quantum simulation of materials; please cite
         "P. Giannozzi et al., J. Phys.:Condens. Matter 21 395502 (2009);
          URL http://www.quantum-espresso.org", 
     in publications or presentations arising from this work. More details at
     http://www.quantum-espresso.org/quote

     Parallel version (MPI), running on     8 processors
     R & G space division:  proc/nbgrp/npool/nimage =       8
     Waiting for input...
     Reading input from standard input

     Current dimensions of program PWSCF are:
     Max number of different atomic species (ntypx) = 10
     Max number of k-points (npk) =  40000
     Max angular momentum in pseudopotentials (lmaxx) =  3
               file C.pbe-n-kjpaw_psl.0.1.UPF: wavefunction(s)  2P renormalized
               file N.pbe-n-kjpaw_psl.0.1.UPF: wavefunction(s)  2P renormalized
               file H.pbe-kjpaw_psl.0.1.UPF: wavefunction(s)  1S renormalized
               file O.pbe-n-kjpaw_psl.0.1.UPF: wavefunction(s)  2P renormalized

     -------------------------------------
     Parameters for Dispersion Correction:
     -------------------------------------
       atom      VdW radius       C_6     

        C          2.744         60.710
        N          2.640         42.670
        H          1.892          4.857
        O          2.536         24.284

     Subspace diagonalization in iterative solution of the eigenvalue problem:
     a serial algorithm will be used

 
     Parallelization info
     --------------------
     sticks:   dense  smooth     PW     G-vecs:    dense   smooth      PW
     Min        1186    1186    310               116536   116536   15645
     Max        1187    1187    311               116539   116539   15647
     Sum        9495    9495   2485               932297   932297  125165
 


     bravais-lattice index     =            0
     lattice parameter (alat)  =      16.4771  a.u.
     unit-cell volume          =    6900.2835 (a.u.)^3
     number of atoms/cell      =          114
     number of atomic types    =            4
     number of electrons       =       304.00
     number of Kohn-Sham states=          182
     kinetic-energy cutoff     =     100.0000  Ry
     charge density cutoff     =     400.0000  Ry
     convergence threshold     =      1.0E-08
     mixing beta               =       0.5000
     number of iterations used =            8  plain     mixing
     Exchange-correlation      =  SLA  PW   PBX  PBC ( 1  4  3  4 0 0)

     celldm(1)=  16.477089  celldm(2)=   0.000000  celldm(3)=   0.000000
     celldm(4)=   0.000000  celldm(5)=   0.000000  celldm(6)=   0.000000

     crystal axes: (cart. coord. in units of alat)
               a(1) = (   1.000000   0.000000   0.000000 )  
               a(2) = (   0.400382   1.098130   0.000000 )  
               a(3) = (   0.130961   0.265985   1.404661 )  

     reciprocal axes: (cart. coord. in units 2 pi/alat)
               b(1) = (  1.000000 -0.364603 -0.024193 )  
               b(2) = (  0.000000  0.910639 -0.172437 )  
               b(3) = (  0.000000  0.000000  0.711916 )  


     PseudoPot. # 1 for  C read from file:
     /scratch/ahofstet/pseudo/C.pbe-n-kjpaw_psl.0.1.UPF
     MD5 check sum: 430fe95172b1e11ef3f8ed03bac87931
     Pseudo is Projector augmented-wave + core cor, Zval =  4.0
     Generated using "atomic" code by A. Dal Corso  v.5.0.99 svn rev. 10869
     Shape of augmentation charge: BESSEL
     Using radial grid of 1073 points,  4 beta functions with: 
                l(1) =   0
                l(2) =   0
                l(3) =   1
                l(4) =   1
     Q(r) pseudized with 0 coefficients 


     PseudoPot. # 2 for  N read from file:
     /scratch/ahofstet/pseudo/N.pbe-n-kjpaw_psl.0.1.UPF
     MD5 check sum: f73187c8b701007e77325f868c9291d7
     Pseudo is Projector augmented-wave + core cor, Zval =  5.0
     Generated using "atomic" code by A. Dal Corso  v.5.0.99 svn rev. 10869
     Shape of augmentation charge: PSQ
     Using radial grid of 1085 points,  4 beta functions with: 
                l(1) =   0
                l(2) =   0
                l(3) =   1
                l(4) =   1
     Q(r) pseudized with 0 coefficients 


     PseudoPot. # 3 for  H read from file:
     /scratch/ahofstet/pseudo/H.pbe-kjpaw_psl.0.1.UPF
     MD5 check sum: 94e484f906d9e9773b2f6e52662335b2
     Pseudo is Projector augmented-wave, Zval =  1.0
     Generated using "atomic" code by A. Dal Corso  v.5.0.99 svn rev. 10869
     Shape of augmentation charge: PSQ
     Using radial grid of  929 points,  2 beta functions with: 
                l(1) =   0
                l(2) =   0
     Q(r) pseudized with 0 coefficients 


     PseudoPot. # 4 for  O read from file:
     /scratch/ahofstet/pseudo/O.pbe-n-kjpaw_psl.0.1.UPF
     MD5 check sum: 3f94a2996a3169367d6eb21d9b593f20
     Pseudo is Projector augmented-wave + core cor, Zval =  6.0
     Generated using "atomic" code by A. Dal Corso  v.5.0.99 svn rev. 10869
     Shape of augmentation charge: BESSEL
     Using radial grid of 1095 points,  4 beta functions with: 
                l(1) =   0
                l(2) =   0
                l(3) =   1
                l(4) =   1
     Q(r) pseudized with 0 coefficients 


     atomic species   valence    mass     pseudopotential
        C              4.00    12.01070      C( 1.00)
        N              5.00    14.00670      N( 1.00)
        H              1.00     1.00794      H( 1.00)
        O              6.00    15.99940      O( 1.00)

      2 Sym. Ops., with inversion, found



   Cartesian axes

     site n.     atom                  positions (alat units)
         1           C   tau(   1) = (   0.4101026   0.4079432   0.3599686  )
         2           C   tau(   2) = (   1.1212402   0.9561723   1.0446924  )
         3           C   tau(   3) = (   0.1432737   0.3259490   0.2768526  )
         4           C   tau(   4) = (   1.3880691   1.0381665   1.1278084  )
         5           C   tau(   5) = (   0.1196347   0.1379907   0.4501856  )
         6           C   tau(   6) = (   1.4117081   1.2261248   0.9544754  )
         7           C   tau(   7) = (   1.0435283   0.2143410   0.3286144  )
         8           C   tau(   8) = (   0.4878145   1.1497745   1.0760466  )
         9           H   tau(   9) = (   0.9298941   0.1929428   0.2827212  )
        10           H   tau(  10) = (   0.6014486   1.1711727   1.1219398  )
        11           C   tau(  11) = (   0.4643123   1.1040721   0.5439105  )
        12           C   tau(  12) = (   1.0670305   0.2600434   0.8607505  )
        13           H   tau(  13) = (   0.4667732   0.9964704   0.4778134  )
        14           H   tau(  14) = (   1.0645695   0.3676451   0.9268476  )
        15           H   tau(  15) = (   1.3451306   1.1216422   0.5809607  )
        16           H   tau(  16) = (   0.1862122   0.2424733   0.8237003  )
        17           H   tau(  17) = (   0.5349852   1.0889091   0.6467909  )
        18           H   tau(  18) = (   0.9963576   0.2752064   0.7578701  )
        19           C   tau(  19) = (   1.1228276   0.4398637   0.1516803  )
        20           C   tau(  20) = (   0.4085151   0.9242518   1.2529806  )
        21           H   tau(  21) = (   1.0193056   0.4123045   0.0861932  )
        22           H   tau(  22) = (   0.5120372   0.9518110   1.3184677  )
        23           H   tau(  23) = (   0.2207300   0.4377115   0.0728970  )
        24           H   tau(  24) = (   1.3106128   0.9264040   1.3317640  )
        25           H   tau(  25) = (   1.1114094   0.5574499   0.1962688  )
        26           H   tau(  26) = (   0.4199333   0.8066656   1.2083922  )
        27           C   tau(  27) = (   0.6016783   0.2542059   0.5163704  )
        28           C   tau(  28) = (   0.9296645   1.1099096   0.8882906  )
        29           C   tau(  29) = (   0.6400773   0.4354394   0.6933387  )
        30           C   tau(  30) = (   0.8912655   0.9286761   0.7113223  )
        31           C   tau(  31) = (   0.6848320   0.2864057   0.6470300  )
        32           C   tau(  32) = (   0.8465108   1.0777098   0.7576310  )
        33           H   tau(  33) = (   0.7627821   0.2085614   0.7051103  )
        34           H   tau(  34) = (   0.7685607   1.1555541   0.6995507  )
        35           C   tau(  35) = (   0.6997312   0.5267018   0.8254469  )
        36           C   tau(  36) = (   0.8316115   0.8374136   0.5792141  )
        37           H   tau(  37) = (   0.8205158   0.5589309   0.8079674  )
        38           H   tau(  38) = (   0.7108270   0.8051846   0.5966936  )
        39           H   tau(  39) = (   0.6947693   0.4592286   0.9317866  )
        40           H   tau(  40) = (   0.8365735   0.9048869   0.4728744  )
        41           H   tau(  41) = (   0.6331054   0.6322576   0.8408500  )
        42           H   tau(  42) = (   0.8982374   0.7318579   0.5638110  )
        43           C   tau(  43) = (   0.6066897   0.1151996   0.4175223  )
        44           C   tau(  44) = (   0.9246531   1.2489159   0.9871387  )
        45           H   tau(  45) = (   0.4910378   0.0704398   0.3962929  )
        46           H   tau(  46) = (   1.0403050   1.2936757   1.0083681  )
        47           H   tau(  47) = (   1.0747445   1.1249659   0.4760762  )
        48           H   tau(  48) = (   0.4565983   0.2391496   0.9285848  )
        49           H   tau(  49) = (   0.6599601   0.1392761   0.3055634  )
        50           H   tau(  50) = (   0.8713827   1.2248394   1.0990976  )
        51           C   tau(  51) = (   0.2500934   0.6332236   0.4519924  )
        52           C   tau(  52) = (   1.2812494   0.7308919   0.9526686  )
        53           C   tau(  53) = (   0.3283860   0.7950228   0.2684405  )
        54           C   tau(  54) = (   1.2029568   0.5690927   1.1362205  )
        55           C   tau(  55) = (   1.2302266   0.7806597   0.3970749  )
        56           C   tau(  56) = (   0.3011162   0.5834557   1.0075860  )
        57           H   tau(  57) = (   1.1542768   0.8662758   0.4458562  )
        58           H   tau(  58) = (   0.3770660   0.4978396   0.9588048  )
        59           C   tau(  59) = (   0.3476646   0.9287919   0.1631147  )
        60           C   tau(  60) = (   1.1836782   0.4353235   1.2415463  )
        61           H   tau(  61) = (   0.4632389   0.9300747   0.1131221  )
        62           H   tau(  62) = (   1.0681039   0.4340408   1.2915389  )
        63           H   tau(  63) = (   1.3303353   1.0371792   0.2245496  )
        64           H   tau(  64) = (   0.2010074   0.3269362   1.1801114  )
        65           H   tau(  65) = (   1.2641840   0.9242215   0.0683828  )
        66           H   tau(  66) = (   0.2671588   0.4398940   1.3362781  )
        67           C   tau(  67) = (   1.1726657   0.5537393   0.5818289  )
        68           C   tau(  68) = (   0.3586771   0.8103762   0.8228321  )
        69           H   tau(  69) = (   1.1207459   0.6391002   0.6584171  )
        70           H   tau(  70) = (   0.4105969   0.7250153   0.7462439  )
        71           H   tau(  71) = (   0.2541075   0.4849471   0.6484176  )
        72           H   tau(  72) = (   1.2772353   0.8791684   0.7562434  )
        73           H   tau(  73) = (   1.0820880   0.4761111   0.5400863  )
        74           H   tau(  74) = (   0.4492548   0.8880043   0.8645746  )
        75           C   tau(  75) = (   0.6449535   0.4224839   0.1879767  )
        76           C   tau(  76) = (   0.8863893   0.9416316   1.2166842  )
        77           C   tau(  77) = (   0.5524847   0.2644268   0.0082158  )
        78           C   tau(  78) = (   0.9788581   1.0996887   1.3964452  )
        79           C   tau(  79) = (   0.6810597   0.3551623   0.0490296  )
        80           C   tau(  80) = (   0.8502831   1.0089532   1.3556314  )
        81           H   tau(  81) = (   0.9159528   0.6404327   1.3877655  )
        82           H   tau(  82) = (   0.6153899   0.7236828   0.0168954  )
        83           C   tau(  83) = (   0.6612403   0.4334741   1.2735118  )
        84           C   tau(  84) = (   0.8701025   0.9306414   0.1311492  )
        85           H   tau(  85) = (   0.5503914   0.3742711   1.2788254  )
        86           H   tau(  86) = (   0.9809514   0.9898443   0.1258356  )
        87           H   tau(  87) = (   0.7518245   0.3464143   1.2621215  )
        88           H   tau(  88) = (   0.7795183   1.0177011   0.1425395  )
        89           H   tau(  89) = (   0.6639293   0.5047157   1.1694504  )
        90           H   tau(  90) = (   0.8674135   0.8593998   0.2352106  )
        91           C   tau(  91) = (   0.7383485   0.5259087   0.2866442  )
        92           C   tau(  92) = (   0.7929943   0.8382068   1.1180168  )
        93           H   tau(  93) = (   0.6698991   0.6223236   0.3293749  )
        94           H   tau(  94) = (   0.8614437   0.7417919   1.0752861  )
        95           H   tau(  95) = (   0.8342132   0.5710429   0.2189574  )
        96           H   tau(  96) = (   0.6971296   0.7930725   1.1857036  )
        97           H   tau(  97) = (   0.7856824   0.4641174   0.3861605  )
        98           H   tau(  98) = (   0.7456604   0.8999981   1.0185004  )
        99           N   tau(  99) = (   0.2719504   0.3121071   0.3675402  )
       100           N   tau( 100) = (   1.2593924   1.0520084   1.0371208  )
       101           N   tau( 101) = (   0.2584686   0.1982632   0.4739655  )
       102           N   tau( 102) = (   1.2728741   1.1658522   0.9306955  )
       103           N   tau( 103) = (   0.5108110   0.3812113   0.4917515  )
       104           N   tau( 104) = (   1.0205318   0.9829042   0.9129095  )
       105           N   tau( 105) = (   0.5340798   0.4931597   0.5990063  )
       106           N   tau( 106) = (   0.9972630   0.8709558   0.8056547  )
       107           N   tau( 107) = (   0.3576767   0.5678567   0.3565984  )
       108           N   tau( 108) = (   1.1736661   0.7962588   1.0480626  )
       109           N   tau( 109) = (   0.4061097   0.6653353   0.2442774  )
       110           N   tau( 110) = (   1.1252331   0.6987801   1.1603836  )
       111           N   tau( 111) = (   0.4993744   0.3713043   0.2224352  )
       112           N   tau( 112) = (   1.0319684   0.9928112   1.1822257  )
       113           N   tau( 113) = (   0.4421484   0.2744120   0.1137806  )
       114           N   tau( 114) = (   1.0891944   1.0897034   1.2908804  )

     number of k points=     8
                       cart. coord. in units 2pi/alat
        k(    1) = (   0.0000000   0.0000000   0.0000000), wk =   0.2500000
        k(    2) = (   0.0000000   0.0000000  -0.3559578), wk =   0.2500000
        k(    3) = (   0.0000000  -0.4553193   0.0862187), wk =   0.2500000
        k(    4) = (   0.0000000  -0.4553193  -0.2697390), wk =   0.2500000
        k(    5) = (  -0.5000000   0.1823014   0.0120963), wk =   0.2500000
        k(    6) = (  -0.5000000   0.1823014  -0.3438615), wk =   0.2500000
        k(    7) = (  -0.5000000  -0.2730179   0.0983150), wk =   0.2500000
        k(    8) = (  -0.5000000  -0.2730179  -0.2576427), wk =   0.2500000

     Dense  grid:   932297 G-vectors     FFT dimensions: ( 108, 125, 160)

     Estimated max dynamical RAM per process >     903.96MB

     Estimated total allocated dynamical RAM >    7231.70MB

     Check: negative/imaginary core charge=   -0.000002    0.000000

     Initial potential from superposition of free atoms

     starting charge  303.99760, renormalised to  304.00000
     Starting wfc are  288 randomized atomic wfcs
     Checking if some PAW data can be deallocated... 

     total cpu time spent up to now is       56.7 secs

     per-process dynamical memory:   636.1 Mb

     Self-consistent Calculation

     iteration #  1     ecut=   100.00 Ry     beta=0.50
     Davidson diagonalization with overlap
     ethr =  1.00E-02,  avg # of iterations =  4.5

     total cpu time spent up to now is      197.8 secs

     total energy              =   -1290.17810247 Ry
     Harris-Foulkes estimate   =   -1296.65522180 Ry
     estimated scf accuracy    <      12.26226659 Ry

     iteration #  2     ecut=   100.00 Ry     beta=0.50
     Davidson diagonalization with overlap
     ethr =  4.03E-03,  avg # of iterations =  2.0

     total cpu time spent up to now is      268.9 secs

     total energy              =   -1290.39235229 Ry
     Harris-Foulkes estimate   =   -1291.30134063 Ry
     estimated scf accuracy    <       1.71305654 Ry

     iteration #  3     ecut=   100.00 Ry     beta=0.50
     Davidson diagonalization with overlap
     ethr =  5.64E-04,  avg # of iterations =  5.0

     total cpu time spent up to now is      423.0 secs

     total energy              =   -1292.19200440 Ry
     Harris-Foulkes estimate   =   -1293.07674083 Ry
     estimated scf accuracy    <       2.56565645 Ry

     iteration #  4     ecut=   100.00 Ry     beta=0.50
     Davidson diagonalization with overlap
     ethr =  5.64E-04,  avg # of iterations =  1.1

     total cpu time spent up to now is      490.4 secs

     total energy              =   -1291.67596713 Ry
     Harris-Foulkes estimate   =   -1292.31356305 Ry
     estimated scf accuracy    <       0.91577974 Ry

     iteration #  5     ecut=   100.00 Ry     beta=0.50
     Davidson diagonalization with overlap
     ethr =  3.01E-04,  avg # of iterations =  4.4

     total cpu time spent up to now is      637.2 secs

     total energy              =   -1292.41504583 Ry
     Harris-Foulkes estimate   =   -1292.66513719 Ry
     estimated scf accuracy    <       1.20184668 Ry

     iteration #  6     ecut=   100.00 Ry     beta=0.50
     Davidson diagonalization with overlap
     ethr =  3.01E-04,  avg # of iterations =  1.0

     total cpu time spent up to now is      704.3 secs

     total energy              =   -1292.12403712 Ry
     Harris-Foulkes estimate   =   -1292.43159218 Ry
     estimated scf accuracy    <       0.73288122 Ry

     iteration #  7     ecut=   100.00 Ry     beta=0.50
     Davidson diagonalization with overlap
     ethr =  2.41E-04,  avg # of iterations =  1.6

     total cpu time spent up to now is      772.4 secs

     total energy              =   -1292.11196616 Ry
     Harris-Foulkes estimate   =   -1292.17472265 Ry
     estimated scf accuracy    <       0.15823500 Ry

     iteration #  8     ecut=   100.00 Ry     beta=0.50
     Davidson diagonalization with overlap
     ethr =  5.21E-05,  avg # of iterations =  8.4

     total cpu time spent up to now is      923.0 secs

     total energy              =   -1292.27444624 Ry
     Harris-Foulkes estimate   =   -1292.28098384 Ry
     estimated scf accuracy    <       0.04254250 Ry

     iteration #  9     ecut=   100.00 Ry     beta=0.50
     Davidson diagonalization with overlap
     ethr =  1.40E-05,  avg # of iterations =  1.5

     total cpu time spent up to now is      991.1 secs

     total energy              =   -1292.26088661 Ry
     Harris-Foulkes estimate   =   -1292.27488315 Ry
     estimated scf accuracy    <       0.03033836 Ry

     iteration # 10     ecut=   100.00 Ry     beta=0.50
     Davidson diagonalization with overlap
     ethr =  9.98E-06,  avg # of iterations =  2.0

     total cpu time spent up to now is     1061.9 secs

     total energy              =   -1292.26195859 Ry
     Harris-Foulkes estimate   =   -1292.26323276 Ry
     estimated scf accuracy    <       0.00513767 Ry

     iteration # 11     ecut=   100.00 Ry     beta=0.50
     Davidson diagonalization with overlap
     ethr =  1.69E-06,  avg # of iterations =  8.6

     total cpu time spent up to now is     1219.4 secs

     total energy              =   -1292.26841388 Ry
     Harris-Foulkes estimate   =   -1292.26849084 Ry
     estimated scf accuracy    <       0.00164194 Ry

     iteration # 12     ecut=   100.00 Ry     beta=0.50
     Davidson diagonalization with overlap
     ethr =  5.40E-07,  avg # of iterations =  1.0

     total cpu time spent up to now is     1286.6 secs

     total energy              =   -1292.26749775 Ry
     Harris-Foulkes estimate   =   -1292.26842574 Ry
     estimated scf accuracy    <       0.00151729 Ry

     iteration # 13     ecut=   100.00 Ry     beta=0.50
     Davidson diagonalization with overlap
     ethr =  4.99E-07,  avg # of iterations =  4.4

     total cpu time spent up to now is     1395.7 secs

     total energy              =   -1292.26794168 Ry
     Harris-Foulkes estimate   =   -1292.26806535 Ry
     estimated scf accuracy    <       0.00029864 Ry

     iteration # 14     ecut=   100.00 Ry     beta=0.50
     Davidson diagonalization with overlap
     ethr =  9.82E-08,  avg # of iterations =  1.2

     total cpu time spent up to now is     1463.2 secs

     total energy              =   -1292.26789913 Ry
     Harris-Foulkes estimate   =   -1292.26795805 Ry
     estimated scf accuracy    <       0.00008879 Ry

     iteration # 15     ecut=   100.00 Ry     beta=0.50
     Davidson diagonalization with overlap
     ethr =  2.92E-08,  avg # of iterations =  4.0

     total cpu time spent up to now is     1597.5 secs

     total energy              =   -1292.26798735 Ry
     Harris-Foulkes estimate   =   -1292.26800946 Ry
     estimated scf accuracy    <       0.00009620 Ry

     iteration # 16     ecut=   100.00 Ry     beta=0.50
     Davidson diagonalization with overlap
     ethr =  2.92E-08,  avg # of iterations =  1.0

     total cpu time spent up to now is     1664.7 secs

     total energy              =   -1292.26796716 Ry
     Harris-Foulkes estimate   =   -1292.26798908 Ry
     estimated scf accuracy    <       0.00005967 Ry

     iteration # 17     ecut=   100.00 Ry     beta=0.50
     Davidson diagonalization with overlap
     ethr =  1.96E-08,  avg # of iterations =  4.0

     total cpu time spent up to now is     1755.2 secs

     total energy              =   -1292.26797690 Ry
     Harris-Foulkes estimate   =   -1292.26797984 Ry
     estimated scf accuracy    <       0.00001055 Ry

     iteration # 18     ecut=   100.00 Ry     beta=0.50
     Davidson diagonalization with overlap
     ethr =  3.47E-09,  avg # of iterations =  3.8

     total cpu time spent up to now is     1836.3 secs

     total energy              =   -1292.26797740 Ry
     Harris-Foulkes estimate   =   -1292.26797844 Ry
     estimated scf accuracy    <       0.00000377 Ry

     iteration # 19     ecut=   100.00 Ry     beta=0.50
     Davidson diagonalization with overlap
     ethr =  1.24E-09,  avg # of iterations =  4.0

     total cpu time spent up to now is     1923.7 secs

     total energy              =   -1292.26797772 Ry
     Harris-Foulkes estimate   =   -1292.26797815 Ry
     estimated scf accuracy    <       0.00000092 Ry

     iteration # 20     ecut=   100.00 Ry     beta=0.50
     Davidson diagonalization with overlap
     ethr =  3.03E-10,  avg # of iterations =  4.4

     total cpu time spent up to now is     2049.6 secs

     total energy              =   -1292.26797823 Ry
     Harris-Foulkes estimate   =   -1292.26797827 Ry
     estimated scf accuracy    <       0.00000009 Ry

     iteration # 21     ecut=   100.00 Ry     beta=0.50
     Davidson diagonalization with overlap
     ethr =  3.07E-11,  avg # of iterations =  2.6

     total cpu time spent up to now is     2121.7 secs

     total energy              =   -1292.26797822 Ry
     Harris-Foulkes estimate   =   -1292.26797823 Ry
     estimated scf accuracy    <       0.00000002 Ry

     iteration # 22     ecut=   100.00 Ry     beta=0.50
     Davidson diagonalization with overlap
     ethr =  7.41E-12,  avg # of iterations =  4.0

     total cpu time spent up to now is     2254.2 secs

     total energy              =   -1292.26797824 Ry
     Harris-Foulkes estimate   =   -1292.26797825 Ry
     estimated scf accuracy    <       0.00000002 Ry

     iteration # 23     ecut=   100.00 Ry     beta=0.50
     Davidson diagonalization with overlap
     ethr =  6.16E-12,  avg # of iterations =  1.0

     total cpu time spent up to now is     2321.4 secs

     End of self-consistent calculation

          k = 0.0000 0.0000 0.0000 (116525 PWs)   bands (ev):

   -21.1386 -21.1369 -19.8377 -19.8376 -19.8113 -19.8095 -19.7992 -19.7960
   -16.5222 -16.5095 -14.8257 -14.8241 -14.3346 -14.3182 -14.3122 -14.2991
   -13.7535 -13.7348 -13.5381 -13.4847 -13.4570 -13.4117 -13.3556 -13.2858
   -12.3666 -12.2335 -11.5763 -11.5676 -11.3201 -11.2906 -11.2861 -11.2454
   -11.1669 -11.1538 -11.1167 -11.1136 -11.0817 -10.9986 -10.9832 -10.9572
    -9.8290  -9.8011  -9.0240  -8.9665  -8.9357  -8.8833  -8.3887  -8.3804
    -8.1469  -8.1234  -8.1201  -8.0701  -7.2951  -7.2866  -7.2598  -7.2044
    -6.5599  -6.5413  -6.4474  -6.4292  -6.3783  -6.3377  -6.3329  -6.2404
    -5.5064  -5.4198  -5.3863  -5.2642  -4.8820  -4.8479  -4.8369  -4.8032
    -4.7818  -4.7289  -4.5380  -4.4475  -4.3956  -4.3751  -4.3309  -4.3041
    -4.2594  -4.2219  -4.2094  -4.1889  -4.1421  -4.0899  -4.0379  -4.0055
    -3.9784  -3.9533  -3.9294  -3.8543  -3.8224  -3.7701  -3.6967  -3.6737
    -3.6532  -3.6179  -3.5851  -3.5804  -3.5379  -3.4517  -3.4399  -3.4210
    -3.3998  -3.2264  -3.2235  -3.2135  -3.1081  -3.0465  -3.0151  -2.9472
    -2.9380  -2.8893  -2.8578  -2.8164  -2.8050  -2.7698  -2.7498  -2.7339
    -2.5762  -2.5500  -2.4791  -2.4517  -2.3733  -2.3031  -2.2760  -2.2520
    -0.7624  -0.7451  -0.7005  -0.6500  -0.6220  -0.5672  -0.5534  -0.5502
    -0.0945  -0.0855  -0.0037   0.0626   0.1067   0.1087   0.1519   0.3328
     0.3538   0.3778   0.4302   0.4748   0.4826   0.5592   0.5750   0.6201
     5.0953   5.1277   5.3162   5.3219   5.4011   5.4559   5.4628   5.4959
     5.9027   6.2878   6.4092   6.4469   6.5709   6.6660   6.7106   6.7419
     6.7781   6.8173   6.9906   7.0432   7.3715   7.4162   7.4667   7.6844
     7.7242   7.7863   7.8391   7.8518   7.9488   7.9975

          k = 0.0000 0.0000-0.3560 (116570 PWs)   bands (ev):

   -21.1379 -21.1376 -19.8382 -19.8371 -19.8110 -19.8097 -19.7981 -19.7971
   -16.5172 -16.5142 -14.8309 -14.8171 -14.3258 -14.3215 -14.3133 -14.3103
   -13.7489 -13.7441 -13.5037 -13.4822 -13.4757 -13.4468 -13.3184 -13.3065
   -12.2914 -12.2648 -11.5565 -11.5080 -11.3629 -11.3545 -11.3086 -11.2833
   -11.1790 -11.1450 -11.1442 -11.0932 -11.0603 -10.9972 -10.9782 -10.9641
    -9.7980  -9.7832  -9.0031  -8.9949  -8.9199  -8.9134  -8.3711  -8.3601
    -8.1111  -8.1054  -8.0918  -8.0782  -7.3142  -7.2966  -7.2949  -7.2574
    -6.5727  -6.5308  -6.4562  -6.4161  -6.3944  -6.3279  -6.3209  -6.2739
    -5.5033  -5.4222  -5.3824  -5.2685  -4.9369  -4.8708  -4.8286  -4.8217
    -4.7536  -4.7262  -4.5144  -4.4489  -4.4077  -4.3539  -4.3268  -4.3143
    -4.2561  -4.2320  -4.1378  -4.1232  -4.1176  -4.0718  -4.0388  -4.0180
    -4.0146  -3.9833  -3.8787  -3.8357  -3.8035  -3.7744  -3.6735  -3.6601
    -3.6149  -3.6017  -3.5986  -3.5481  -3.5273  -3.4498  -3.4406  -3.3708
    -3.3436  -3.2808  -3.2331  -3.1924  -3.1329  -3.0801  -3.0776  -3.0644
    -2.9815  -2.9622  -2.8666  -2.8292  -2.8260  -2.7717  -2.7366  -2.7176
    -2.5646  -2.5293  -2.4272  -2.4057  -2.4052  -2.3491  -2.3287  -2.2214
    -0.7697  -0.7290  -0.6733  -0.6694  -0.6258  -0.6013  -0.5324  -0.5259
    -0.0580  -0.0527   0.0437   0.0855   0.1037   0.1367   0.1710   0.2089
     0.3863   0.4002   0.4379   0.4549   0.4833   0.5159   0.5700   0.6005
     5.0755   5.1628   5.2978   5.3302   5.4036   5.4320   5.4556   5.4744
     5.9652   6.2018   6.4158   6.4861   6.5443   6.5896   6.7129   6.7542
     6.7790   6.8194   7.0492   7.2778   7.3108   7.4810   7.5018   7.6433
     7.6849   7.6890   7.8383   7.8591   7.9624   8.0331

          k = 0.0000-0.4553 0.0862 (116548 PWs)   bands (ev):

   -21.1378 -21.1375 -19.8385 -19.8377 -19.8110 -19.8095 -19.7978 -19.7973
   -16.5140 -16.5129 -14.8222 -14.8195 -14.3361 -14.3315 -14.3145 -14.3095
   -13.7450 -13.7445 -13.5165 -13.4965 -13.4735 -13.4718 -13.3095 -13.2926
   -12.2418 -12.2378 -11.5477 -11.5378 -11.3647 -11.3208 -11.2753 -11.2743
   -11.1819 -11.1495 -11.1233 -11.0993 -11.0777 -11.0263 -10.9970 -10.9710
    -9.8511  -9.8352  -8.9796  -8.9570  -8.9388  -8.9242  -8.3520  -8.3469
    -8.1727  -8.1293  -8.0817  -8.0595  -7.2900  -7.2555  -7.2334  -7.2284
    -6.5393  -6.5126  -6.4632  -6.4120  -6.3793  -6.3498  -6.3360  -6.3042
    -5.4316  -5.3971  -5.3729  -5.3547  -4.9412  -4.9327  -4.8971  -4.8790
    -4.8651  -4.7919  -4.4908  -4.4709  -4.4274  -4.4194  -4.3470  -4.2752
    -4.2715  -4.2020  -4.1927  -4.1897  -4.1052  -4.0327  -4.0053  -3.9692
    -3.9363  -3.9298  -3.8772  -3.8195  -3.8059  -3.7657  -3.6762  -3.6658
    -3.6234  -3.5791  -3.5753  -3.5003  -3.4724  -3.4708  -3.4380  -3.3646
    -3.3058  -3.2890  -3.2565  -3.1837  -3.1288  -3.1037  -3.0112  -2.9701
    -2.9504  -2.9086  -2.8769  -2.8473  -2.8251  -2.8198  -2.7308  -2.6699
    -2.5812  -2.5114  -2.4749  -2.4196  -2.3890  -2.3828  -2.3208  -2.2131
    -0.8038  -0.7234  -0.6862  -0.6569  -0.6108  -0.6007  -0.5626  -0.5351
    -0.1875  -0.1646  -0.0368   0.0358   0.1036   0.1523   0.1702   0.2438
     0.3720   0.4420   0.4574   0.4698   0.5130   0.5616   0.6075   0.6346
     5.0527   5.1276   5.3547   5.3762   5.4192   5.4461   5.5132   5.5181
     5.9286   6.2499   6.3558   6.3890   6.5926   6.6251   6.7450   6.7935
     6.8228   6.8483   7.0199   7.1691   7.2478   7.2679   7.3401   7.4709
     7.6069   7.7197   7.8297   7.8649   7.9886   8.0035

          k = 0.0000-0.4553-0.2697 (116572 PWs)   bands (ev):

   -21.1382 -21.1372 -19.8383 -19.8379 -19.8112 -19.8093 -19.7986 -19.7965
   -16.5162 -16.5102 -14.8315 -14.8080 -14.3432 -14.3334 -14.3206 -14.3012
   -13.7504 -13.7356 -13.5429 -13.5261 -13.4707 -13.4151 -13.3301 -13.2781
   -12.2399 -12.1961 -11.5473 -11.4740 -11.3636 -11.3551 -11.3390 -11.3252
   -11.1949 -11.1631 -11.1204 -11.0859 -11.0812 -11.0205 -10.9856 -10.9715
    -9.8249  -9.8170  -8.9944  -8.9925  -8.9345  -8.8961  -8.3308  -8.3239
    -8.1529  -8.1323  -8.0583  -8.0331  -7.3156  -7.2953  -7.2564  -7.2470
    -6.5709  -6.5031  -6.4892  -6.4093  -6.3880  -6.3872  -6.3124  -6.2590
    -5.4864  -5.4416  -5.3122  -5.3062  -5.0180  -4.9484  -4.9127  -4.8675
    -4.8407  -4.8246  -4.4699  -4.4297  -4.4297  -4.3872  -4.3761  -4.3577
    -4.2331  -4.2003  -4.1803  -4.0945  -4.0678  -4.0146  -3.9846  -3.9816
    -3.9488  -3.8656  -3.8460  -3.8281  -3.8236  -3.7043  -3.6875  -3.6413
    -3.6375  -3.5799  -3.4878  -3.4848  -3.4621  -3.4410  -3.3903  -3.3586
    -3.3212  -3.2970  -3.2546  -3.2430  -3.1891  -3.1565  -3.1061  -3.0587
    -3.0061  -2.9905  -2.8514  -2.8404  -2.7816  -2.7555  -2.7478  -2.7082
    -2.5920  -2.5021  -2.4857  -2.4612  -2.3956  -2.3269  -2.3000  -2.2281
    -0.7824  -0.7204  -0.6901  -0.6572  -0.6092  -0.6072  -0.5672  -0.5391
    -0.1853  -0.1157   0.0212   0.0314   0.1081   0.1681   0.1787   0.3022
     0.3156   0.4114   0.4418   0.5011   0.5165   0.5310   0.5650   0.6325
     5.0504   5.1600   5.3030   5.3769   5.3875   5.4753   5.5061   5.5146
     5.9354   6.2957   6.3292   6.4695   6.4956   6.6731   6.7138   6.7222
     6.8193   6.8379   6.9879   7.2374   7.2768   7.3802   7.4225   7.4600
     7.6708   7.7107   7.7799   7.8125   7.9275   8.0248

          k =-0.5000 0.1823 0.0121 (116556 PWs)   bands (ev):

   -21.1378 -21.1373 -19.8375 -19.8375 -19.8117 -19.8101 -19.7993 -19.7964
   -16.5171 -16.5126 -14.8318 -14.8205 -14.3451 -14.3159 -14.3052 -14.3041
   -13.7182 -13.6997 -13.5156 -13.4908 -13.4621 -13.4075 -13.3906 -13.3531
   -12.3016 -12.2739 -11.5815 -11.5605 -11.3254 -11.3120 -11.2825 -11.2345
   -11.2023 -11.1147 -11.1016 -11.1009 -11.0688 -11.0370 -10.9890 -10.9686
    -9.8020  -9.7759  -8.9739  -8.9724  -8.9429  -8.8927  -8.4469  -8.4308
    -8.1767  -8.1349  -8.0796  -8.0329  -7.3401  -7.2900  -7.2408  -7.2044
    -6.5469  -6.5423  -6.4274  -6.4214  -6.3616  -6.3380  -6.3257  -6.2764
    -5.4962  -5.3840  -5.3487  -5.2022  -4.9327  -4.8935  -4.8806  -4.8700
    -4.7872  -4.7642  -4.4488  -4.4381  -4.3868  -4.3583  -4.3321  -4.2967
    -4.2817  -4.2116  -4.1880  -4.1071  -4.1071  -4.0725  -3.9992  -3.9887
    -3.9602  -3.9565  -3.9458  -3.8912  -3.8329  -3.8129  -3.8055  -3.6858
    -3.6545  -3.6471  -3.5890  -3.5653  -3.5292  -3.5221  -3.4360  -3.4013
    -3.3223  -3.3175  -3.1694  -3.1147  -3.0832  -3.0341  -3.0229  -3.0154
    -2.9598  -2.9104  -2.8623  -2.8304  -2.7908  -2.7834  -2.7356  -2.6973
    -2.5664  -2.5566  -2.4939  -2.4776  -2.3590  -2.3302  -2.2846  -2.2650
    -0.8351  -0.7258  -0.6767  -0.6746  -0.5946  -0.5829  -0.5427  -0.5093
    -0.1319  -0.0493   0.0190   0.0594   0.0941   0.1217   0.1219   0.3143
     0.3311   0.4281   0.4619   0.4851   0.4893   0.5101   0.5933   0.6480
     5.0759   5.1154   5.3180   5.3545   5.4062   5.4390   5.4568   5.4688
     6.2089   6.2436   6.3622   6.4531   6.5047   6.6224   6.6724   6.7103
     6.8597   6.8602   6.9864   7.0828   7.1287   7.2253   7.4621   7.5104
     7.7160   7.7225   7.8692   7.9217   7.9620   8.0904

          k =-0.5000 0.1823-0.3439 (116498 PWs)   bands (ev):

   -21.1376 -21.1374 -19.8379 -19.8372 -19.8119 -19.8099 -19.7987 -19.7970
   -16.5147 -16.5146 -14.8345 -14.8161 -14.3299 -14.3219 -14.3157 -14.3104
   -13.7116 -13.7077 -13.4960 -13.4895 -13.4744 -13.4593 -13.3602 -13.3374
   -12.2728 -12.2631 -11.5590 -11.5048 -11.3703 -11.3608 -11.3087 -11.2971
   -11.1807 -11.1413 -11.1012 -11.1009 -11.0702 -11.0096 -10.9890 -10.9619
    -9.7748  -9.7564  -8.9813  -8.9632  -8.9441  -8.9181  -8.4305  -8.4204
    -8.1346  -8.1224  -8.0402  -8.0400  -7.3219  -7.3171  -7.2845  -7.2573
    -6.5846  -6.5012  -6.4579  -6.4337  -6.3851  -6.3509  -6.3004  -6.2620
    -5.4677  -5.3867  -5.3687  -5.2447  -4.9539  -4.8959  -4.8485  -4.8468
    -4.8267  -4.8095  -4.4661  -4.4064  -4.3468  -4.3369  -4.3173  -4.2901
    -4.2135  -4.1911  -4.1595  -4.1151  -4.0837  -4.0515  -4.0217  -4.0070
    -3.9894  -3.9785  -3.8980  -3.8909  -3.8166  -3.7834  -3.7566  -3.7367
    -3.6464  -3.6117  -3.5952  -3.5739  -3.4491  -3.4268  -3.4055  -3.3864
    -3.3219  -3.2862  -3.2584  -3.2428  -3.1093  -3.1083  -3.0483  -3.0439
    -3.0102  -2.9373  -2.8920  -2.8749  -2.7704  -2.7700  -2.7168  -2.7147
    -2.5770  -2.4923  -2.4410  -2.4078  -2.3950  -2.3717  -2.3680  -2.2435
    -0.7836  -0.7656  -0.7003  -0.6577  -0.5953  -0.5642  -0.5401  -0.5290
    -0.0829   0.0003   0.0514   0.0626   0.1248   0.1352   0.1549   0.1867
     0.3930   0.4046   0.4099   0.4839   0.5119   0.5345   0.5701   0.6087
     5.0827   5.1275   5.3270   5.3427   5.3563   5.4088   5.4745   5.4770
     6.2455   6.2752   6.3737   6.4469   6.5543   6.6108   6.6223   6.6547
     6.7716   6.8798   7.0156   7.0387   7.2506   7.3098   7.4454   7.4876
     7.5863   7.7887   7.8673   7.9429   7.9447   8.0330

          k =-0.5000-0.2730 0.0983 (116514 PWs)   bands (ev):

   -21.1378 -21.1371 -19.8380 -19.8378 -19.8111 -19.8104 -19.7982 -19.7974
   -16.5138 -16.5113 -14.8250 -14.8210 -14.3399 -14.3397 -14.3147 -14.3080
   -13.7177 -13.7102 -13.5120 -13.4985 -13.4761 -13.4548 -13.3372 -13.3332
   -12.2430 -12.2272 -11.5755 -11.5116 -11.3844 -11.3502 -11.2810 -11.2640
   -11.1586 -11.1367 -11.1155 -11.0828 -11.0699 -11.0353 -11.0221 -10.9817
    -9.8414  -9.8128  -8.9788  -8.9550  -8.9364  -8.9170  -8.3904  -8.3757
    -8.1938  -8.1601  -8.0391  -8.0298  -7.2981  -7.2741  -7.2461  -7.2120
    -6.5667  -6.5309  -6.4191  -6.4067  -6.3877  -6.3325  -6.3173  -6.2921
    -5.3735  -5.3535  -5.3372  -5.3296  -4.9730  -4.9128  -4.8883  -4.8614
    -4.8161  -4.7943  -4.5609  -4.5178  -4.4461  -4.3930  -4.3558  -4.3173
    -4.2451  -4.1987  -4.1660  -4.1481  -4.1048  -4.0825  -4.0268  -4.0136
    -3.9532  -3.9352  -3.8969  -3.8465  -3.8217  -3.7555  -3.7539  -3.6958
    -3.6733  -3.6080  -3.5522  -3.5275  -3.4899  -3.4643  -3.4085  -3.3737
    -3.2699  -3.2285  -3.1986  -3.1985  -3.1255  -3.1015  -3.0035  -2.9530
    -2.9456  -2.8882  -2.8826  -2.8668  -2.8085  -2.7897  -2.7391  -2.7176
    -2.5949  -2.5203  -2.4205  -2.4185  -2.3934  -2.3913  -2.3108  -2.2489
    -0.7583  -0.7424  -0.6975  -0.6445  -0.6006  -0.5955  -0.5875  -0.5721
    -0.2175  -0.1461  -0.0082   0.0333   0.1258   0.1608   0.1823   0.2161
     0.3980   0.4148   0.4628   0.5047   0.5332   0.5733   0.6166   0.6303
     5.0422   5.1158   5.3282   5.4048   5.4104   5.4707   5.5050   5.5184
     6.1825   6.2064   6.3503   6.4036   6.5328   6.6392   6.7281   6.7412
     6.7769   6.8271   6.9106   7.0865   7.1058   7.2148   7.4653   7.7026
     7.7070   7.8361   7.8460   8.0400   8.0583   8.1003

          k =-0.5000-0.2730-0.2576 (116514 PWs)   bands (ev):

   -21.1379 -21.1370 -19.8381 -19.8377 -19.8108 -19.8106 -19.7989 -19.7967
   -16.5136 -16.5111 -14.8229 -14.8211 -14.3543 -14.3367 -14.3260 -14.2913
   -13.7278 -13.6961 -13.5278 -13.5095 -13.4861 -13.4067 -13.3659 -13.3231
   -12.2208 -12.1993 -11.5294 -11.5016 -11.3787 -11.3712 -11.3376 -11.3230
   -11.1902 -11.1291 -11.1134 -11.1016 -11.0712 -11.0164 -11.0115 -10.9817
    -9.8148  -9.7911  -8.9817  -8.9708  -8.9588  -8.8878  -8.3771  -8.3524
    -8.1897  -8.1325  -8.0324  -7.9971  -7.3590  -7.2910  -7.2734  -7.2345
    -6.5612  -6.5414  -6.4137  -6.3916  -6.3786  -6.3625  -6.3268  -6.2830
    -5.4241  -5.4087  -5.2962  -5.2489  -4.9504  -4.9362  -4.9181  -4.8888
    -4.8560  -4.8106  -4.5739  -4.4940  -4.4503  -4.4205  -4.3766  -4.2801
    -4.2742  -4.1465  -4.1224  -4.0984  -4.0549  -4.0287  -4.0256  -3.9834
    -3.9591  -3.9383  -3.9019  -3.8218  -3.8092  -3.7668  -3.7197  -3.6757
    -3.6171  -3.5832  -3.5647  -3.5272  -3.4562  -3.4410  -3.3727  -3.3591
    -3.3330  -3.2446  -3.2222  -3.1949  -3.1724  -3.1286  -3.1100  -2.9820
    -2.9696  -2.9213  -2.9025  -2.8675  -2.8523  -2.7692  -2.7642  -2.6928
    -2.6164  -2.5269  -2.4591  -2.4367  -2.3662  -2.3264  -2.2950  -2.2731
    -0.7567  -0.7309  -0.7256  -0.6541  -0.6061  -0.5784  -0.5639  -0.5505
    -0.2128  -0.1171   0.0390   0.0431   0.1246   0.1303   0.2034   0.3070
     0.3247   0.3934   0.4696   0.5168   0.5330   0.5501   0.5651   0.6349
     5.0610   5.1132   5.3145   5.3820   5.4344   5.4429   5.4828   5.5299
     6.1319   6.3351   6.3490   6.4068   6.4761   6.6013   6.6689   6.6919
     6.8398   6.9068   6.9544   7.0428   7.1163   7.3314   7.5255   7.5949
     7.7186   7.7377   7.8910   7.9799   8.0055   8.0469

     highest occupied, lowest unoccupied level (ev):     0.6480    5.0422

!    total energy              =   -1292.26797824 Ry
     Harris-Foulkes estimate   =   -1292.26797824 Ry
     estimated scf accuracy    <          6.6E-09 Ry

     total all-electron energy =     -5019.140813 Ry

     The total energy is the sum of the following terms:

     one-electron contribution =    -947.70074192 Ry
     hartree contribution      =     583.00660267 Ry
     xc contribution           =    -301.11934358 Ry
     ewald contribution        =    -214.09159559 Ry
     Dispersion Correction     =      -0.54640611 Ry
     one-center paw contrib.   =    -411.81649371 Ry

     convergence has been achieved in  23 iterations

     Forces acting on atoms (cartesian axes, Ry/au):

     atom    1 type  1   force =    -0.00025759    0.00003046   -0.00043142
     atom    2 type  1   force =     0.00025759   -0.00003046    0.00043142
     atom    3 type  1   force =     0.00049025    0.00007222    0.00015182
     atom    4 type  1   force =    -0.00049025   -0.00007222   -0.00015182
     atom    5 type  1   force =     0.00022558    0.00044025   -0.00121457
     atom    6 type  1   force =    -0.00022558   -0.00044025    0.00121457
     atom    7 type  1   force =     0.00153899    0.00077085    0.00093918
     atom    8 type  1   force =    -0.00153899   -0.00077085   -0.00093918
     atom    9 type  3   force =    -0.00132667    0.00035199    0.00079957
     atom   10 type  3   force =     0.00132667   -0.00035199   -0.00079957
     atom   11 type  1   force =    -0.00101180   -0.00053799    0.00058775
     atom   12 type  1   force =     0.00101180    0.00053799   -0.00058775
     atom   13 type  3   force =     0.00029155    0.00029775    0.00020762
     atom   14 type  3   force =    -0.00029155   -0.00029775   -0.00020762
     atom   15 type  3   force =    -0.00022178    0.00099247    0.00077786
     atom   16 type  3   force =     0.00022178   -0.00099247   -0.00077786
     atom   17 type  3   force =    -0.00043747   -0.00042512   -0.00018131
     atom   18 type  3   force =     0.00043747    0.00042512    0.00018131
     atom   19 type  1   force =     0.00019828    0.00065189   -0.00069673
     atom   20 type  1   force =    -0.00019828   -0.00065189    0.00069673
     atom   21 type  3   force =    -0.00058189   -0.00056596   -0.00017498
     atom   22 type  3   force =     0.00058189    0.00056596    0.00017498
     atom   23 type  3   force =    -0.00001399    0.00053717    0.00032421
     atom   24 type  3   force =     0.00001399   -0.00053717   -0.00032421
     atom   25 type  3   force =     0.00003114   -0.00022948   -0.00046105
     atom   26 type  3   force =    -0.00003114    0.00022948    0.00046105
     atom   27 type  1   force =     0.00034072   -0.00038984   -0.00002550
     atom   28 type  1   force =    -0.00034072    0.00038984    0.00002550
     atom   29 type  1   force =     0.00027247   -0.00009690   -0.00002109
     atom   30 type  1   force =    -0.00027247    0.00009690    0.00002109
     atom   31 type  1   force =    -0.00056194   -0.00019620    0.00038814
     atom   32 type  1   force =     0.00056194    0.00019620   -0.00038814
     atom   33 type  3   force =    -0.00041826    0.00022751    0.00016847
     atom   34 type  3   force =     0.00041826   -0.00022751   -0.00016847
     atom   35 type  1   force =     0.00024178   -0.00009889   -0.00001938
     atom   36 type  1   force =    -0.00024178    0.00009889    0.00001938
     atom   37 type  3   force =     0.00003641    0.00086573   -0.00040357
     atom   38 type  3   force =    -0.00003641   -0.00086573    0.00040357
     atom   39 type  3   force =    -0.00036284   -0.00022758    0.00019884
     atom   40 type  3   force =     0.00036284    0.00022758   -0.00019884
     atom   41 type  3   force =     0.00025706   -0.00022500    0.00037422
     atom   42 type  3   force =    -0.00025706    0.00022500   -0.00037422
     atom   43 type  1   force =    -0.00014188   -0.00056460   -0.00048418
     atom   44 type  1   force =     0.00014188    0.00056460    0.00048418
     atom   45 type  3   force =     0.00016588   -0.00008858   -0.00043010
     atom   46 type  3   force =    -0.00016588    0.00008858    0.00043010
     atom   47 type  3   force =     0.00027636   -0.00007498    0.00091606
     atom   48 type  3   force =    -0.00027636    0.00007498   -0.00091606
     atom   49 type  3   force =    -0.00039701   -0.00016736   -0.00002800
     atom   50 type  3   force =     0.00039701    0.00016736    0.00002800
     atom   51 type  1   force =     0.00009670   -0.00056822    0.00025913
     atom   52 type  1   force =    -0.00009670    0.00056822   -0.00025913
     atom   53 type  1   force =    -0.00007605   -0.00081485    0.00038931
     atom   54 type  1   force =     0.00007605    0.00081485   -0.00038931
     atom   55 type  1   force =     0.00025414   -0.00062873   -0.00012412
     atom   56 type  1   force =    -0.00025414    0.00062873    0.00012412
     atom   57 type  3   force =    -0.00056496    0.00029013   -0.00027036
     atom   58 type  3   force =     0.00056496   -0.00029013    0.00027036
     atom   59 type  1   force =    -0.00054213    0.00035463   -0.00002261
     atom   60 type  1   force =     0.00054213   -0.00035463    0.00002261
     atom   61 type  3   force =    -0.00024511   -0.00011426   -0.00094608
     atom   62 type  3   force =     0.00024511    0.00011426    0.00094608
     atom   63 type  3   force =     0.00036810    0.00025557    0.00054385
     atom   64 type  3   force =    -0.00036810   -0.00025557   -0.00054385
     atom   65 type  3   force =    -0.00020651   -0.00039651   -0.00062293
     atom   66 type  3   force =     0.00020651    0.00039651    0.00062293
     atom   67 type  1   force =    -0.00012649    0.00023492    0.00050859
     atom   68 type  1   force =     0.00012649   -0.00023492   -0.00050859
     atom   69 type  3   force =     0.00028334    0.00083574   -0.00020909
     atom   70 type  3   force =    -0.00028334   -0.00083574    0.00020909
     atom   71 type  3   force =    -0.00000577   -0.00006573    0.00002971
     atom   72 type  3   force =     0.00000577    0.00006573   -0.00002971
     atom   73 type  3   force =    -0.00002587   -0.00021035    0.00010569
     atom   74 type  3   force =     0.00002587    0.00021035   -0.00010569
     atom   75 type  1   force =    -0.00035996    0.00005531   -0.00032183
     atom   76 type  1   force =     0.00035996   -0.00005531    0.00032183
     atom   77 type  1   force =     0.00003282   -0.00010968   -0.00010593
     atom   78 type  1   force =    -0.00003282    0.00010968    0.00010593
     atom   79 type  1   force =    -0.00101016   -0.00000336    0.00115756
     atom   80 type  1   force =     0.00101016    0.00000336   -0.00115756
     atom   81 type  3   force =     0.00036158   -0.00022772   -0.00040045
     atom   82 type  3   force =    -0.00036158    0.00022772    0.00040045
     atom   83 type  1   force =     0.00031873    0.00034613    0.00001234
     atom   84 type  1   force =    -0.00031873   -0.00034613   -0.00001234
     atom   85 type  3   force =    -0.00034203   -0.00019860   -0.00034590
     atom   86 type  3   force =     0.00034203    0.00019860    0.00034590
     atom   87 type  3   force =     0.00000126   -0.00079830    0.00045852
     atom   88 type  3   force =    -0.00000126    0.00079830   -0.00045852
     atom   89 type  3   force =    -0.00058122    0.00008727   -0.00038510
     atom   90 type  3   force =     0.00058122   -0.00008727    0.00038510
     atom   91 type  1   force =     0.00139568    0.00046640   -0.00032091
     atom   92 type  1   force =    -0.00139568   -0.00046640    0.00032091
     atom   93 type  3   force =     0.00025944   -0.00004013    0.00029653
     atom   94 type  3   force =    -0.00025944    0.00004013   -0.00029653
     atom   95 type  3   force =    -0.00078707   -0.00059261   -0.00047316
     atom   96 type  3   force =     0.00078707    0.00059261    0.00047316
     atom   97 type  3   force =    -0.00036571    0.00000170    0.00019189
     atom   98 type  3   force =     0.00036571   -0.00000170   -0.00019189
     atom   99 type  2   force =    -0.00059822    0.00102678    0.00013482
     atom  100 type  2   force =     0.00059822   -0.00102678   -0.00013482
     atom  101 type  2   force =     0.00018659   -0.00055717   -0.00007703
     atom  102 type  2   force =    -0.00018659    0.00055717    0.00007703
     atom  103 type  2   force =     0.00030143    0.00008233    0.00033569
     atom  104 type  2   force =    -0.00030143   -0.00008233   -0.00033569
     atom  105 type  2   force =    -0.00066646   -0.00000412   -0.00095814
     atom  106 type  2   force =     0.00066646    0.00000412    0.00095814
     atom  107 type  2   force =    -0.00084002   -0.00015266   -0.00009842
     atom  108 type  2   force =     0.00084002    0.00015266    0.00009842
     atom  109 type  2   force =     0.00016033   -0.00036491   -0.00037793
     atom  110 type  2   force =    -0.00016033    0.00036491    0.00037793
     atom  111 type  2   force =     0.00085430    0.00082812    0.00007118
     atom  112 type  2   force =    -0.00085430   -0.00082812   -0.00007118
     atom  113 type  2   force =    -0.00038263    0.00032178    0.00055675
     atom  114 type  2   force =     0.00038263   -0.00032178   -0.00055675

     Total force =     0.008959     Total SCF correction =     0.000197


     Computing stress (Cartesian axis) and pressure

          total   stress  (Ry/bohr**3)                   (kbar)     P=   -5.45
  -0.00003873  -0.00000446   0.00000285         -5.70     -0.66      0.42
  -0.00000446  -0.00003591  -0.00000055         -0.66     -5.28     -0.08
   0.00000285  -0.00000055  -0.00003659          0.42     -0.08     -5.38


     Writing output data file scf.save
 
     init_run     :     53.62s CPU     55.94s WALL (       1 calls)
     electrons    :   2154.48s CPU   2264.98s WALL (       1 calls)
     forces       :     24.80s CPU     25.05s WALL (       1 calls)
     stress       :    151.37s CPU    151.77s WALL (       1 calls)

     Called by init_run:
     wfcinit      :     39.46s CPU     41.58s WALL (       1 calls)
     potinit      :      4.93s CPU      5.02s WALL (       1 calls)

     Called by electrons:
     c_bands      :   1910.54s CPU   2003.63s WALL (      23 calls)
     sum_band     :    219.89s CPU    234.76s WALL (      23 calls)
     v_of_rho     :      3.54s CPU      3.90s WALL (      24 calls)
     newd         :      7.88s CPU      9.86s WALL (      24 calls)
     PAW_pot      :     11.41s CPU     11.43s WALL (      24 calls)
     mix_rho      :      0.93s CPU      1.00s WALL (      23 calls)

     Called by c_bands:
     init_us_2    :     15.60s CPU     15.63s WALL (     392 calls)
     cegterg      :   1854.37s CPU   1947.40s WALL (     184 calls)

     Called by sum_band:
     sum_band:bec :      0.14s CPU      0.14s WALL (     184 calls)
     addusdens    :      8.36s CPU     10.27s WALL (      23 calls)

     Called by *egterg:
     h_psi        :   1134.87s CPU   1209.26s WALL (     796 calls)
     s_psi        :    191.45s CPU    191.47s WALL (     796 calls)
     g_psi        :      7.42s CPU      7.43s WALL (     604 calls)
     cdiaghg      :     92.12s CPU     92.16s WALL (     788 calls)

     Called by h_psi:
     h_psi:pot    :   1126.30s CPU   1200.58s WALL (     796 calls)
     h_psi:calbec :    182.35s CPU    182.76s WALL (     796 calls)
     vloc_psi     :    752.55s CPU    826.40s WALL (     796 calls)
     add_vuspsi   :    191.40s CPU    191.41s WALL (     796 calls)

     General routines
     calbec       :    258.34s CPU    258.90s WALL (    1020 calls)
     fft          :      1.84s CPU      2.42s WALL (     336 calls)
     fftw         :    811.49s CPU    896.74s WALL (  224964 calls)
 
     Parallel routines
     fft_scatter  :    123.58s CPU    200.33s WALL (  225300 calls)
 
     PWSCF        : 39m56.22s CPU    42m32.15s WALL

 
   This run was terminated on:   5:25:37   4Nov2017            

=------------------------------------------------------------------------------=
   JOB DONE.
=------------------------------------------------------------------------------=
