
     Program PWSCF v.6.1 (svn rev. 13369) starts on 13Nov2017 at 12:24: 3 

     This program is part of the open-source Quantum ESPRESSO suite
     for quantum simulation of materials; please cite
         "P. Giannozzi et al., J. Phys.:Condens. Matter 21 395502 (2009);
          URL http://www.quantum-espresso.org", 
     in publications or presentations arising from this work. More details at
     http://www.quantum-espresso.org/quote

     Parallel version (MPI), running on     8 processors
     R & G space division:  proc/nbgrp/npool/nimage =       8
     Waiting for input...
     Reading input from standard input

     Current dimensions of program PWSCF are:
     Max number of different atomic species (ntypx) = 10
     Max number of k-points (npk) =  40000
     Max angular momentum in pseudopotentials (lmaxx) =  3
               file C.pbe-n-kjpaw_psl.0.1.UPF: wavefunction(s)  2P renormalized
               file N.pbe-n-kjpaw_psl.0.1.UPF: wavefunction(s)  2P renormalized
               file H.pbe-kjpaw_psl.0.1.UPF: wavefunction(s)  1S renormalized
               file O.pbe-n-kjpaw_psl.0.1.UPF: wavefunction(s)  2P renormalized

     -------------------------------------
     Parameters for Dispersion Correction:
     -------------------------------------
       atom      VdW radius       C_6     

        C          2.744         60.710
        N          2.640         42.670
        H          1.892          4.857
        O          2.536         24.284

     Subspace diagonalization in iterative solution of the eigenvalue problem:
     a serial algorithm will be used

 
     Parallelization info
     --------------------
     sticks:   dense  smooth     PW     G-vecs:    dense   smooth      PW
     Min        1228    1228    321               157336   157336   21071
     Max        1229    1229    322               157341   157341   21074
     Sum        9825    9825   2573              1258693  1258693  168583
 


     bravais-lattice index     =            0
     lattice parameter (alat)  =      14.1994  a.u.
     unit-cell volume          =    9317.3471 (a.u.)^3
     number of atoms/cell      =          144
     number of atomic types    =            4
     number of electrons       =       432.00
     number of Kohn-Sham states=          259
     kinetic-energy cutoff     =     100.0000  Ry
     charge density cutoff     =     400.0000  Ry
     convergence threshold     =      1.0E-08
     mixing beta               =       0.5000
     number of iterations used =            8  plain     mixing
     Exchange-correlation      =  SLA  PW   PBX  PBC ( 1  4  3  4 0 0)

     celldm(1)=  14.199402  celldm(2)=   0.000000  celldm(3)=   0.000000
     celldm(4)=   0.000000  celldm(5)=   0.000000  celldm(6)=   0.000000

     crystal axes: (cart. coord. in units of alat)
               a(1) = (   1.000000   0.000000   0.000000 )  
               a(2) = (   0.000000   1.529438   0.000000 )  
               a(3) = (   0.000000   0.000000   2.127895 )  

     reciprocal axes: (cart. coord. in units 2 pi/alat)
               b(1) = (  1.000000  0.000000  0.000000 )  
               b(2) = (  0.000000  0.653835  0.000000 )  
               b(3) = (  0.000000  0.000000  0.469948 )  


     PseudoPot. # 1 for  C read from file:
     /scratch/ahofstet/pseudo/C.pbe-n-kjpaw_psl.0.1.UPF
     MD5 check sum: 430fe95172b1e11ef3f8ed03bac87931
     Pseudo is Projector augmented-wave + core cor, Zval =  4.0
     Generated using "atomic" code by A. Dal Corso  v.5.0.99 svn rev. 10869
     Shape of augmentation charge: BESSEL
     Using radial grid of 1073 points,  4 beta functions with: 
                l(1) =   0
                l(2) =   0
                l(3) =   1
                l(4) =   1
     Q(r) pseudized with 0 coefficients 


     PseudoPot. # 2 for  N read from file:
     /scratch/ahofstet/pseudo/N.pbe-n-kjpaw_psl.0.1.UPF
     MD5 check sum: f73187c8b701007e77325f868c9291d7
     Pseudo is Projector augmented-wave + core cor, Zval =  5.0
     Generated using "atomic" code by A. Dal Corso  v.5.0.99 svn rev. 10869
     Shape of augmentation charge: PSQ
     Using radial grid of 1085 points,  4 beta functions with: 
                l(1) =   0
                l(2) =   0
                l(3) =   1
                l(4) =   1
     Q(r) pseudized with 0 coefficients 


     PseudoPot. # 3 for  H read from file:
     /scratch/ahofstet/pseudo/H.pbe-kjpaw_psl.0.1.UPF
     MD5 check sum: 94e484f906d9e9773b2f6e52662335b2
     Pseudo is Projector augmented-wave, Zval =  1.0
     Generated using "atomic" code by A. Dal Corso  v.5.0.99 svn rev. 10869
     Shape of augmentation charge: PSQ
     Using radial grid of  929 points,  2 beta functions with: 
                l(1) =   0
                l(2) =   0
     Q(r) pseudized with 0 coefficients 


     PseudoPot. # 4 for  O read from file:
     /scratch/ahofstet/pseudo/O.pbe-n-kjpaw_psl.0.1.UPF
     MD5 check sum: 3f94a2996a3169367d6eb21d9b593f20
     Pseudo is Projector augmented-wave + core cor, Zval =  6.0
     Generated using "atomic" code by A. Dal Corso  v.5.0.99 svn rev. 10869
     Shape of augmentation charge: BESSEL
     Using radial grid of 1095 points,  4 beta functions with: 
                l(1) =   0
                l(2) =   0
                l(3) =   1
                l(4) =   1
     Q(r) pseudized with 0 coefficients 


     atomic species   valence    mass     pseudopotential
        C              4.00    12.01070      C( 1.00)
        N              5.00    14.00670      N( 1.00)
        H              1.00     1.00794      H( 1.00)
        O              6.00    15.99940      O( 1.00)

      4 Sym. Ops. (no inversion) found ( 3 have fractional translation)



   Cartesian axes

     site n.     atom                  positions (alat units)
         1           N   tau(   1) = (   0.8730684   0.8274062   1.9446698  )
         2           N   tau(   2) = (   0.6269316   0.7020322   0.8807225  )
         3           N   tau(   3) = (   0.1269316   0.0626870   1.2471721  )
         4           N   tau(   4) = (   0.3730684   1.4667513   0.1832248  )
         5           N   tau(   5) = (   0.7787280   0.9530821   1.9902288  )
         6           N   tau(   6) = (   0.7212720   0.5763563   0.9262815  )
         7           N   tau(   7) = (   0.2212720   0.1883629   1.2016131  )
         8           N   tau(   8) = (   0.2787280   1.3410755   0.1376658  )
         9           N   tau(   9) = (   0.6969482   1.0652840   2.0541893  )
        10           N   tau(  10) = (   0.8030518   0.4641544   0.9902420  )
        11           N   tau(  11) = (   0.3030518   0.3005648   1.1376526  )
        12           N   tau(  12) = (   0.1969482   1.2288736   0.0737053  )
        13           N   tau(  13) = (   0.5360579   0.5681508   1.9818589  )
        14           N   tau(  14) = (   0.9639421   0.9612876   0.9179116  )
        15           N   tau(  15) = (   0.4639421   1.3328700   1.2099830  )
        16           N   tau(  16) = (   0.0360579   0.1965684   0.1460357  )
        17           N   tau(  17) = (   0.4238770   0.6817982   2.0182530  )
        18           N   tau(  18) = (   0.0761230   0.8476402   0.9543057  )
        19           N   tau(  19) = (   0.5761230   1.4465174   1.1735889  )
        20           N   tau(  20) = (   0.9238770   0.0829210   0.1096416  )
        21           N   tau(  21) = (   0.3245271   0.7839634   2.0734210  )
        22           N   tau(  22) = (   0.1754729   0.7454750   1.0094737  )
        23           N   tau(  23) = (   0.6754729   0.0192442   1.1184209  )
        24           N   tau(  24) = (   0.8245271   1.5101942   0.0544736  )
        25           C   tau(  25) = (   0.8577803   0.3700598   1.9010805  )
        26           C   tau(  26) = (   0.6422197   1.1593785   0.8371332  )
        27           C   tau(  27) = (   0.1422197   1.1347790   1.2907614  )
        28           C   tau(  28) = (   0.3577803   0.3946594   0.2268141  )
        29           H   tau(  29) = (   0.9009982   0.2304271   1.8944545  )
        30           H   tau(  30) = (   0.5990018   1.2990113   0.8305072  )
        31           H   tau(  31) = (   0.0990018   0.9951463   1.2973874  )
        32           H   tau(  32) = (   0.4009982   0.5342921   0.2334401  )
        33           H   tau(  33) = (   0.8111250   0.3965228   2.0367698  )
        34           H   tau(  34) = (   0.6888750   1.1329156   0.9728225  )
        35           H   tau(  35) = (   0.1888750   1.1612420   1.1550721  )
        36           H   tau(  36) = (   0.3111250   0.3681964   0.0911248  )
        37           C   tau(  37) = (   0.0298884   0.4902852   1.8646007  )
        38           C   tau(  38) = (   0.4701116   1.0391532   0.8006534  )
        39           C   tau(  39) = (   0.9701116   1.2550044   1.3272412  )
        40           C   tau(  40) = (   0.5298884   0.2744340   0.2632939  )
        41           H   tau(  41) = (   0.0696406   0.5496576   1.9919727  )
        42           H   tau(  42) = (   0.4303594   0.9797808   0.9280254  )
        43           H   tau(  43) = (   0.9303594   1.3143768   1.1998692  )
        44           H   tau(  44) = (   0.5696406   0.2150616   0.1359219  )
        45           H   tau(  45) = (   0.1379362   0.4027649   1.8195228  )
        46           H   tau(  46) = (   0.3620638   1.1266735   0.7555755  )
        47           H   tau(  47) = (   0.8620638   1.1674841   1.3723191  )
        48           H   tau(  48) = (   0.6379362   0.3619543   0.3083718  )
        49           C   tau(  49) = (   0.9968509   0.6306618   1.7255975  )
        50           C   tau(  50) = (   0.5031491   0.8987766   0.6616502  )
        51           C   tau(  51) = (   0.0031491   1.3953810   1.4662444  )
        52           C   tau(  52) = (   0.4968509   0.1340574   0.4022971  )
        53           C   tau(  53) = (   0.8914197   0.7813649   1.7629141  )
        54           C   tau(  54) = (   0.6085803   0.7480735   0.6989668  )
        55           C   tau(  55) = (   0.1085803   0.0166457   1.4289278  )
        56           C   tau(  56) = (   0.3914197   1.5127927   0.3649805  )
        57           C   tau(  57) = (   0.7945840   0.8654663   1.6275597  )
        58           C   tau(  58) = (   0.7054160   0.6639721   0.5636124  )
        59           C   tau(  59) = (   0.2054160   0.1007471   1.5642822  )
        60           C   tau(  60) = (   0.2945840   1.4286913   0.5003349  )
        61           H   tau(  61) = (   0.6947265   0.9656823   1.6621650  )
        62           H   tau(  62) = (   0.8052735   0.5637561   0.5982177  )
        63           H   tau(  63) = (   0.3052735   0.2009631   1.5296769  )
        64           H   tau(  64) = (   0.1947265   1.3284752   0.4657296  )
        65           C   tau(  65) = (   0.8062115   0.8056554   1.4515738  )
        66           C   tau(  66) = (   0.6937885   0.7237830   0.3876265  )
        67           C   tau(  67) = (   0.1937885   0.0409362   1.7402681  )
        68           C   tau(  68) = (   0.3062115   1.4885022   0.6763208  )
        69           C   tau(  69) = (   0.9425433   0.6852660   1.4099894  )
        70           C   tau(  70) = (   0.5574567   0.8441724   0.3460421  )
        71           C   tau(  71) = (   0.0574567   1.4499852   1.7818525  )
        72           C   tau(  72) = (   0.4425433   0.0794532   0.7179052  )
        73           H   tau(  73) = (   0.9627695   0.6425811   1.2726866  )
        74           H   tau(  74) = (   0.5372305   0.8868573   0.2087393  )
        75           H   tau(  75) = (   0.0372305   1.4073003   1.9191553  )
        76           H   tau(  76) = (   0.4627695   0.1221381   0.8552080  )
        77           C   tau(  77) = (   0.0345784   0.5985194   1.5460129  )
        78           C   tau(  78) = (   0.4654216   0.9309189   0.4820656  )
        79           C   tau(  79) = (   0.9654216   1.3632386   1.6458290  )
        80           C   tau(  80) = (   0.5345784   0.1661997   0.5818817  )
        81           H   tau(  81) = (   0.1238042   0.4888796   1.5134874  )
        82           H   tau(  82) = (   0.3761958   1.0405588   0.4495401  )
        83           H   tau(  83) = (   0.8761958   1.2535988   1.6783544  )
        84           H   tau(  84) = (   0.6238042   0.2758396   0.6144072  )
        85           C   tau(  85) = (   0.6553942   0.8433661   1.3246099  )
        86           C   tau(  86) = (   0.8446058   0.6860723   0.2606626  )
        87           C   tau(  87) = (   0.3446058   0.0786469   1.8672320  )
        88           C   tau(  88) = (   0.1553942   1.4507915   0.8032847  )
        89           H   tau(  89) = (   0.7030193   0.8435955   1.1864022  )
        90           H   tau(  90) = (   0.7969807   0.6858429   0.1224549  )
        91           H   tau(  91) = (   0.2969807   0.0788763   2.0054397  )
        92           H   tau(  92) = (   0.2030193   1.4505621   0.9414924  )
        93           H   tau(  93) = (   0.5998437   0.9758947   1.3519842  )
        94           H   tau(  94) = (   0.9001563   0.5535437   0.2880369  )
        95           H   tau(  95) = (   0.4001563   0.2111755   1.8398577  )
        96           H   tau(  96) = (   0.0998437   1.3182629   0.7759104  )
        97           C   tau(  97) = (   0.4952896   0.7032411   1.3403561  )
        98           C   tau(  98) = (   1.0047104   0.8261973   0.2764088  )
        99           C   tau(  99) = (   0.5047104   1.4679602   1.8514858  )
       100           C   tau( 100) = (  -0.0047104   0.0614781   0.7875385  )
       101           H   tau( 101) = (   0.3728665   0.7781179   1.3681411  )
       102           H   tau( 102) = (   0.1271335   0.7513205   0.3041938  )
       103           H   tau( 103) = (   0.6271335   1.5428371   1.8237008  )
       104           H   tau( 104) = (   0.8728665  -0.0133987   0.7597535  )
       105           H   tau( 105) = (   0.4779572   0.6382084   1.2108038  )
       106           H   tau( 106) = (   0.0220428   0.8912300   0.1468565  )
       107           H   tau( 107) = (   0.5220428   1.4029276   1.9810381  )
       108           H   tau( 108) = (   0.9779572   0.1265108   0.9170908  )
       109           C   tau( 109) = (   0.5269617   0.5676745   1.4841947  )
       110           C   tau( 110) = (   0.9730383   0.9617639   0.4202474  )
       111           C   tau( 111) = (   0.4730383   1.3323937   1.7076472  )
       112           C   tau( 112) = (   0.0269617   0.1970447   0.6436999  )
       113           C   tau( 113) = (   0.6354223   0.4188189   1.4531094  )
       114           C   tau( 114) = (   0.8645777   1.1106195   0.3891621  )
       115           C   tau( 115) = (   0.3645777   1.1835381   1.7387325  )
       116           C   tau( 116) = (   0.1354223   0.3459003   0.6747852  )
       117           H   tau( 117) = (   0.6653872   0.3782242   1.3168837  )
       118           H   tau( 118) = (   0.8346128   1.1512141   0.2529364  )
       119           H   tau( 119) = (   0.3346128   1.1429434   1.8749582  )
       120           H   tau( 120) = (   0.1653872   0.3864949   0.8110109  )
       121           C   tau( 121) = (   0.7265210   0.3398543   1.5941917  )
       122           C   tau( 122) = (   0.7734790   1.1895841   0.5302444  )
       123           C   tau( 123) = (   0.2734790   1.1045734   1.5976502  )
       124           C   tau( 124) = (   0.2265210   0.4248649   0.5337029  )
       125           H   tau( 125) = (   0.8284235   0.2399484   1.5661058  )
       126           H   tau( 126) = (   0.6715765   1.2894900   0.5021585  )
       127           H   tau( 127) = (   0.1715765   1.0046676   1.6257361  )
       128           H   tau( 128) = (   0.3284235   0.5247708   0.5617888  )
       129           C   tau( 129) = (   0.7099355   0.4020203   1.7690911  )
       130           C   tau( 130) = (   0.7900645   1.1274180   0.7051438  )
       131           C   tau( 131) = (   0.2900645   1.1667395   1.4227508  )
       132           C   tau( 132) = (   0.2099355   0.3626988   0.3588035  )
       133           C   tau( 133) = (   0.5696090   0.5222337   1.8016169  )
       134           C   tau( 134) = (   0.9303910   1.0072046   0.7376696  )
       135           C   tau( 135) = (   0.4303910   1.2869529   1.3902250  )
       136           C   tau( 136) = (   0.0696090   0.2424854   0.3262777  )
       137           C   tau( 137) = (   0.4802773   0.6053205   1.6604543  )
       138           C   tau( 138) = (   0.0197227   0.9241179   0.5965070  )
       139           C   tau( 139) = (   0.5197227   1.3700397   1.5313876  )
       140           C   tau( 140) = (   0.9802773   0.1593987   0.4674403  )
       141           H   tau( 141) = (   0.3874098   0.7137114   1.6875361  )
       142           H   tau( 142) = (   0.1125902   0.8157270   0.6235888  )
       143           H   tau( 143) = (   0.6125902   1.4784306   1.5043058  )
       144           H   tau( 144) = (   0.8874098   0.0510078   0.4403585  )

     number of k points=     8
                       cart. coord. in units 2pi/alat
        k(    1) = (   0.0000000   0.0000000   0.0000000), wk =   0.1666667
        k(    2) = (   0.0000000   0.0000000  -0.2349740), wk =   0.1666667
        k(    3) = (   0.0000000  -0.3269174   0.0000000), wk =   0.1666667
        k(    4) = (   0.0000000  -0.3269174  -0.2349740), wk =   0.1666667
        k(    5) = (   0.3333333   0.0000000   0.0000000), wk =   0.3333333
        k(    6) = (   0.3333333   0.0000000  -0.2349740), wk =   0.3333333
        k(    7) = (   0.3333333  -0.3269174   0.0000000), wk =   0.3333333
        k(    8) = (   0.3333333  -0.3269174  -0.2349740), wk =   0.3333333

     Dense  grid:  1258693 G-vectors     FFT dimensions: (  96, 144, 200)

     Estimated max dynamical RAM per process >    1696.13MB

     Estimated total allocated dynamical RAM >   13569.02MB

     Check: negative/imaginary core charge=   -0.000002    0.000000

     Initial potential from superposition of free atoms

     starting charge  431.99663, renormalised to  432.00000
     Starting wfc are  408 randomized atomic wfcs
     Checking if some PAW data can be deallocated... 

     total cpu time spent up to now is      120.4 secs

     per-process dynamical memory:  1099.3 Mb

     Self-consistent Calculation

     iteration #  1     ecut=   100.00 Ry     beta=0.50
     Davidson diagonalization with overlap
     ethr =  1.00E-02,  avg # of iterations =  4.0

     total cpu time spent up to now is      497.3 secs

     total energy              =   -1919.93760931 Ry
     Harris-Foulkes estimate   =   -1928.13279245 Ry
     estimated scf accuracy    <      15.37714586 Ry

     iteration #  2     ecut=   100.00 Ry     beta=0.50
     Davidson diagonalization with overlap
     ethr =  3.56E-03,  avg # of iterations =  1.0

     total cpu time spent up to now is      673.1 secs

     total energy              =   -1919.84350455 Ry
     Harris-Foulkes estimate   =   -1921.35591971 Ry
     estimated scf accuracy    <       2.77298101 Ry

     iteration #  3     ecut=   100.00 Ry     beta=0.50
     Davidson diagonalization with overlap
     ethr =  6.42E-04,  avg # of iterations =  5.0

     total cpu time spent up to now is     1110.8 secs

     total energy              =   -1922.18780963 Ry
     Harris-Foulkes estimate   =   -1923.76551748 Ry
     estimated scf accuracy    <       4.79860281 Ry

     iteration #  4     ecut=   100.00 Ry     beta=0.50
     Davidson diagonalization with overlap
     ethr =  6.42E-04,  avg # of iterations =  1.9

     total cpu time spent up to now is     1289.2 secs

     total energy              =   -1922.09559580 Ry
     Harris-Foulkes estimate   =   -1922.58188434 Ry
     estimated scf accuracy    <       1.38694185 Ry

     iteration #  5     ecut=   100.00 Ry     beta=0.50
     Davidson diagonalization with overlap
     ethr =  3.21E-04,  avg # of iterations =  7.9

     total cpu time spent up to now is     1594.6 secs

     total energy              =   -1922.49518707 Ry
     Harris-Foulkes estimate   =   -1922.54861571 Ry
     estimated scf accuracy    <       0.15423038 Ry

     iteration #  6     ecut=   100.00 Ry     beta=0.50
     Davidson diagonalization with overlap
     ethr =  3.57E-05,  avg # of iterations = 11.1

     total cpu time spent up to now is     1888.0 secs

     total energy              =   -1922.52610027 Ry
     Harris-Foulkes estimate   =   -1922.53125095 Ry
     estimated scf accuracy    <       0.01578690 Ry

     iteration #  7     ecut=   100.00 Ry     beta=0.50
     Davidson diagonalization with overlap
     ethr =  3.65E-06,  avg # of iterations =  9.2

     total cpu time spent up to now is     2311.1 secs

     total energy              =   -1922.53269533 Ry
     Harris-Foulkes estimate   =   -1922.53432309 Ry
     estimated scf accuracy    <       0.00434719 Ry

     iteration #  8     ecut=   100.00 Ry     beta=0.50
     Davidson diagonalization with overlap
     ethr =  1.01E-06,  avg # of iterations =  1.0

     total cpu time spent up to now is     2486.9 secs

     total energy              =   -1922.53286095 Ry
     Harris-Foulkes estimate   =   -1922.53323689 Ry
     estimated scf accuracy    <       0.00091214 Ry

     iteration #  9     ecut=   100.00 Ry     beta=0.50
     Davidson diagonalization with overlap
     ethr =  2.11E-07,  avg # of iterations =  4.0

     total cpu time spent up to now is     2849.7 secs

     total energy              =   -1922.53341487 Ry
     Harris-Foulkes estimate   =   -1922.53376694 Ry
     estimated scf accuracy    <       0.00134293 Ry

     iteration # 10     ecut=   100.00 Ry     beta=0.50
     Davidson diagonalization with overlap
     ethr =  2.11E-07,  avg # of iterations =  1.0

     total cpu time spent up to now is     3025.2 secs

     total energy              =   -1922.53334491 Ry
     Harris-Foulkes estimate   =   -1922.53352979 Ry
     estimated scf accuracy    <       0.00040419 Ry

     iteration # 11     ecut=   100.00 Ry     beta=0.50
     Davidson diagonalization with overlap
     ethr =  9.36E-08,  avg # of iterations =  4.0

     total cpu time spent up to now is     3306.0 secs

     total energy              =   -1922.53348141 Ry
     Harris-Foulkes estimate   =   -1922.53349001 Ry
     estimated scf accuracy    <       0.00004247 Ry

     iteration # 12     ecut=   100.00 Ry     beta=0.50
     Davidson diagonalization with overlap
     ethr =  9.83E-09,  avg # of iterations =  3.0

     total cpu time spent up to now is     3500.7 secs

     total energy              =   -1922.53348084 Ry
     Harris-Foulkes estimate   =   -1922.53348630 Ry
     estimated scf accuracy    <       0.00001403 Ry

     iteration # 13     ecut=   100.00 Ry     beta=0.50
     Davidson diagonalization with overlap
     ethr =  3.25E-09,  avg # of iterations =  4.0

     total cpu time spent up to now is     3805.4 secs

     total energy              =   -1922.53348726 Ry
     Harris-Foulkes estimate   =   -1922.53348793 Ry
     estimated scf accuracy    <       0.00000203 Ry

     iteration # 14     ecut=   100.00 Ry     beta=0.50
     Davidson diagonalization with overlap
     ethr =  4.69E-10,  avg # of iterations =  3.0

     total cpu time spent up to now is     4009.4 secs

     total energy              =   -1922.53348735 Ry
     Harris-Foulkes estimate   =   -1922.53348758 Ry
     estimated scf accuracy    <       0.00000054 Ry

     iteration # 15     ecut=   100.00 Ry     beta=0.50
     Davidson diagonalization with overlap
     ethr =  1.24E-10,  avg # of iterations =  4.0

     total cpu time spent up to now is     4352.1 secs

     total energy              =   -1922.53348766 Ry
     Harris-Foulkes estimate   =   -1922.53348772 Ry
     estimated scf accuracy    <       0.00000017 Ry

     iteration # 16     ecut=   100.00 Ry     beta=0.50
     Davidson diagonalization with overlap
     ethr =  3.96E-11,  avg # of iterations =  1.0

     total cpu time spent up to now is     4527.2 secs

     total energy              =   -1922.53348764 Ry
     Harris-Foulkes estimate   =   -1922.53348767 Ry
     estimated scf accuracy    <       0.00000006 Ry

     iteration # 17     ecut=   100.00 Ry     beta=0.50
     Davidson diagonalization with overlap
     ethr =  1.37E-11,  avg # of iterations =  4.0

     total cpu time spent up to now is     4828.3 secs

     total energy              =   -1922.53348767 Ry
     Harris-Foulkes estimate   =   -1922.53348767 Ry
     estimated scf accuracy    <       0.00000001 Ry

     iteration # 18     ecut=   100.00 Ry     beta=0.50
     Davidson diagonalization with overlap
     ethr =  2.54E-12,  avg # of iterations =  3.0

     total cpu time spent up to now is     5023.6 secs

     End of self-consistent calculation

          k = 0.0000 0.0000 0.0000 (157357 PWs)   bands (ev):

   -22.0883 -22.0882 -22.0859 -22.0859 -22.0220 -22.0220 -22.0220 -22.0220
   -18.2332 -18.2331 -18.2312 -18.2308 -18.1631 -18.1630 -18.1621 -18.1621
   -15.1247 -15.1218 -15.0684 -15.0675 -14.5726 -14.5708 -14.5528 -14.5516
   -13.6271 -13.6196 -13.5515 -13.5466 -12.4480 -12.4456 -12.4368 -12.4364
   -12.3299 -12.3296 -12.3174 -12.2884 -11.9901 -11.9788 -11.9761 -11.9750
   -11.9343 -11.9204 -11.8921 -11.8848 -10.4559 -10.4459 -10.4274 -10.4053
    -9.7927  -9.7867  -9.7240  -9.7089  -9.5044  -9.5042  -9.4765  -9.4694
    -9.4415  -9.4342  -9.4283  -9.4246  -8.1808  -8.1352  -8.0794  -8.0776
    -7.9736  -7.9111  -7.8348  -7.8323  -7.6485  -7.5946  -7.4833  -7.4387
    -6.9035  -6.8866  -6.8448  -6.8101  -6.3665  -6.3606  -6.3536  -6.3268
    -6.2307  -6.2138  -6.1681  -6.1428  -6.1263  -6.0921  -6.0838  -6.0793
    -5.8318  -5.8229  -5.8172  -5.8149  -5.8050  -5.7192  -5.7086  -5.6659
    -5.3965  -5.3694  -5.3043  -5.2876  -5.2004  -5.1453  -5.0790  -5.0158
    -4.7366  -4.6799  -4.6654  -4.6235  -4.5181  -4.5018  -4.4728  -4.4407
    -4.4209  -4.3607  -4.3560  -4.3231  -4.3052  -4.2942  -4.2685  -4.1917
    -4.1781  -4.1312  -4.0874  -4.0186  -3.9807  -3.9788  -3.9754  -3.9741
    -3.8744  -3.8186  -3.7571  -3.7093  -3.6938  -3.6116  -3.4865  -3.4862
    -3.4811  -3.4658  -3.3891  -3.3838  -3.0693  -3.0693  -3.0042  -2.9728
    -2.7666  -2.7454  -2.7316  -2.7193  -2.3103  -2.2752  -2.2694  -2.2608
    -2.2324  -2.2225  -2.2161  -2.1988  -2.1469  -2.1463  -2.1105  -2.0936
    -2.0257  -2.0089  -1.9785  -1.9774  -1.9563  -1.9181  -1.9146  -1.8529
    -1.6490  -1.6489  -1.5615  -1.5591  -1.4671  -1.4298  -1.3978  -1.3948
    -1.3134  -1.2840  -1.2580  -1.2077  -1.0984  -1.0817  -1.0506  -1.0387
    -0.9624  -0.8945  -0.8749  -0.8713  -0.8395  -0.8145  -0.8135  -0.7625
    -0.6593  -0.6256  -0.6112  -0.5832  -0.1832  -0.1756  -0.1662  -0.1604
     0.3375   0.4098   0.5299   0.5486   0.9956   0.9966   1.0118   1.0122
     1.0465   1.0788   1.2440   1.2453   1.6143   1.6551   1.6621   1.6844
     4.2873   4.3338   4.4069   4.4331   4.5386   4.5828   4.6224   4.6336
     4.6591   4.6926   4.6977   4.7223   5.1236   5.1318   5.1559   5.1689
     5.1880   5.2658   5.2791   5.2800   5.5270   5.5344   5.5894   5.6167
     6.1516   6.1998   6.2060   6.3292   6.9460   6.9929   7.0182   7.0483
     7.1036   7.1373   7.4657   7.5404   7.6746   7.7218   7.8521   7.9509
     8.1039   8.1649   8.1920

          k = 0.0000 0.0000-0.2350 (157448 PWs)   bands (ev):

   -22.0882 -22.0882 -22.0859 -22.0859 -22.0220 -22.0220 -22.0220 -22.0220
   -18.2331 -18.2331 -18.2310 -18.2310 -18.1631 -18.1631 -18.1621 -18.1621
   -15.1233 -15.1233 -15.0679 -15.0679 -14.5718 -14.5718 -14.5522 -14.5522
   -13.6234 -13.6234 -13.5491 -13.5491 -12.4471 -12.4471 -12.4359 -12.4359
   -12.3324 -12.3324 -12.3003 -12.3003 -11.9858 -11.9858 -11.9739 -11.9739
   -11.9292 -11.9292 -11.8874 -11.8874 -10.4513 -10.4513 -10.4158 -10.4158
    -9.7899  -9.7899  -9.7165  -9.7165  -9.5040  -9.5040  -9.4728  -9.4728
    -9.4348  -9.4348  -9.4295  -9.4295  -8.1591  -8.1591  -8.0763  -8.0763
    -7.9460  -7.9460  -7.8313  -7.8313  -7.6235  -7.6235  -7.4580  -7.4580
    -6.8758  -6.8758  -6.8505  -6.8505  -6.3601  -6.3601  -6.3418  -6.3418
    -6.2235  -6.2235  -6.1456  -6.1456  -6.1376  -6.1376  -6.0749  -6.0749
    -5.8226  -5.8226  -5.8142  -5.8142  -5.7604  -5.7604  -5.6850  -5.6850
    -5.3838  -5.3838  -5.2712  -5.2712  -5.1657  -5.1657  -5.0710  -5.0710
    -4.7239  -4.7239  -4.6269  -4.6269  -4.5093  -4.5093  -4.4599  -4.4599
    -4.3877  -4.3877  -4.3715  -4.3715  -4.2919  -4.2919  -4.2537  -4.2537
    -4.1229  -4.1229  -4.0137  -4.0137  -4.0021  -4.0021  -3.9741  -3.9741
    -3.8153  -3.8153  -3.7654  -3.7654  -3.6604  -3.6604  -3.4979  -3.4979
    -3.4610  -3.4610  -3.3922  -3.3922  -3.0696  -3.0696  -2.9882  -2.9882
    -2.7533  -2.7533  -2.7297  -2.7297  -2.3039  -2.3039  -2.2487  -2.2487
    -2.2347  -2.2347  -2.1976  -2.1976  -2.1509  -2.1509  -2.1047  -2.1047
    -2.0070  -2.0070  -1.9738  -1.9738  -1.9314  -1.9314  -1.8988  -1.8988
    -1.6488  -1.6488  -1.5582  -1.5582  -1.4551  -1.4551  -1.4062  -1.4062
    -1.2898  -1.2898  -1.2280  -1.2280  -1.0912  -1.0912  -1.0455  -1.0455
    -0.9221  -0.9221  -0.8488  -0.8488  -0.8329  -0.8329  -0.7953  -0.7953
    -0.6616  -0.6616  -0.5891  -0.5891  -0.1825  -0.1825  -0.1615  -0.1615
     0.3705   0.3705   0.5395   0.5395   0.9956   0.9956   1.0135   1.0135
     1.0629   1.0629   1.2451   1.2451   1.6289   1.6289   1.6775   1.6775
     4.2957   4.2957   4.4551   4.4551   4.5692   4.5692   4.6202   4.6202
     4.6464   4.6464   4.7183   4.7183   5.1230   5.1230   5.1595   5.1595
     5.2411   5.2411   5.2760   5.2760   5.5313   5.5313   5.5988   5.5988
     6.1528   6.1528   6.2926   6.2926   6.9856   6.9856   7.0125   7.0125
     7.1215   7.1215   7.5184   7.5184   7.6627   7.6627   8.0012   8.0012
     8.0446   8.0446   8.2433

          k = 0.0000-0.3269 0.0000 (157366 PWs)   bands (ev):

   -22.0881 -22.0881 -22.0860 -22.0860 -22.0224 -22.0224 -22.0216 -22.0216
   -18.2329 -18.2329 -18.2313 -18.2313 -18.1633 -18.1633 -18.1619 -18.1619
   -15.0981 -15.0981 -15.0954 -15.0954 -14.5616 -14.5616 -14.5601 -14.5601
   -13.5902 -13.5902 -13.5839 -13.5839 -12.4395 -12.4395 -12.4344 -12.4344
   -12.3289 -12.3289 -12.3094 -12.3094 -11.9866 -11.9866 -11.9741 -11.9741
   -11.9135 -11.9135 -11.9051 -11.9051 -10.4409 -10.4409 -10.4248 -10.4248
    -9.7624  -9.7624  -9.7489  -9.7489  -9.4895  -9.4895  -9.4859  -9.4859
    -9.4363  -9.4363  -9.4265  -9.4265  -8.1337  -8.1337  -8.1004  -8.1004
    -7.9103  -7.9103  -7.8653  -7.8653  -7.5663  -7.5663  -7.5215  -7.5215
    -6.8949  -6.8949  -6.8307  -6.8307  -6.3740  -6.3740  -6.3202  -6.3202
    -6.2134  -6.2134  -6.1593  -6.1593  -6.1352  -6.1352  -6.0704  -6.0704
    -5.8313  -5.8313  -5.8021  -5.8021  -5.7835  -5.7835  -5.6754  -5.6754
    -5.3460  -5.3460  -5.3338  -5.3338  -5.1889  -5.1889  -5.0553  -5.0553
    -4.7178  -4.7178  -4.6319  -4.6319  -4.5587  -4.5587  -4.4350  -4.4350
    -4.4081  -4.4081  -4.3327  -4.3327  -4.2144  -4.2144  -4.1576  -4.1576
    -4.1453  -4.1453  -4.0848  -4.0848  -3.9925  -3.9925  -3.9450  -3.9450
    -3.8857  -3.8857  -3.7347  -3.7347  -3.5888  -3.5888  -3.5566  -3.5566
    -3.4692  -3.4692  -3.4564  -3.4564  -2.9726  -2.9726  -2.9253  -2.9253
    -2.7969  -2.7969  -2.7730  -2.7730  -2.3552  -2.3552  -2.3469  -2.3469
    -2.2353  -2.2353  -2.1921  -2.1921  -2.1510  -2.1510  -2.0907  -2.0907
    -2.0352  -2.0352  -1.9926  -1.9926  -1.9271  -1.9271  -1.8705  -1.8705
    -1.5957  -1.5957  -1.5732  -1.5732  -1.4088  -1.4088  -1.3812  -1.3812
    -1.2784  -1.2784  -1.2576  -1.2576  -1.0167  -1.0167  -0.9933  -0.9933
    -0.9577  -0.9577  -0.9411  -0.9411  -0.8638  -0.8638  -0.7931  -0.7931
    -0.6462  -0.6462  -0.5873  -0.5873  -0.1720  -0.1720  -0.1600  -0.1600
     0.4280   0.4280   0.4764   0.4764   0.9850   0.9850   0.9972   0.9972
     1.1344   1.1344   1.1945   1.1945   1.6577   1.6577   1.6740   1.6740
     4.3220   4.3220   4.4366   4.4366   4.5426   4.5426   4.6404   4.6404
     4.6763   4.6763   4.6960   4.6960   5.1023   5.1023   5.1580   5.1580
     5.2213   5.2213   5.2977   5.2977   5.5490   5.5490   5.5788   5.5788
     6.1609   6.1609   6.2983   6.2983   6.9835   6.9835   7.0514   7.0514
     7.1521   7.1521   7.2684   7.2684   7.7143   7.7143   8.0493   8.0493
     8.1243   8.1245   8.2563

          k = 0.0000-0.3269-0.2350 (157376 PWs)   bands (ev):

   -22.0881 -22.0881 -22.0860 -22.0860 -22.0224 -22.0224 -22.0216 -22.0216
   -18.2329 -18.2329 -18.2313 -18.2313 -18.1633 -18.1633 -18.1619 -18.1619
   -15.0977 -15.0977 -15.0957 -15.0957 -14.5615 -14.5615 -14.5602 -14.5602
   -13.5883 -13.5883 -13.5859 -13.5859 -12.4392 -12.4392 -12.4344 -12.4344
   -12.3262 -12.3262 -12.3120 -12.3120 -11.9854 -11.9854 -11.9753 -11.9753
   -11.9096 -11.9096 -11.9093 -11.9093 -10.4355 -10.4355 -10.4301 -10.4301
    -9.7587  -9.7587  -9.7529  -9.7529  -9.4894  -9.4894  -9.4854  -9.4854
    -9.4338  -9.4338  -9.4293  -9.4293  -8.1283  -8.1283  -8.1048  -8.1048
    -7.9040  -7.9040  -7.8723  -7.8723  -7.5649  -7.5649  -7.5226  -7.5226
    -6.8724  -6.8724  -6.8566  -6.8566  -6.3753  -6.3753  -6.3244  -6.3244
    -6.1879  -6.1879  -6.1693  -6.1693  -6.1401  -6.1401  -6.0892  -6.0892
    -5.8242  -5.8242  -5.8038  -5.8038  -5.7558  -5.7558  -5.6953  -5.6953
    -5.3620  -5.3620  -5.3118  -5.3118  -5.1225  -5.1225  -5.1199  -5.1199
    -4.7043  -4.7043  -4.6482  -4.6482  -4.5463  -4.5463  -4.4758  -4.4758
    -4.3948  -4.3948  -4.3423  -4.3423  -4.1757  -4.1757  -4.1629  -4.1629
    -4.1358  -4.1358  -4.1108  -4.1108  -3.9954  -3.9954  -3.9475  -3.9475
    -3.8199  -3.8199  -3.7848  -3.7848  -3.5932  -3.5932  -3.5537  -3.5537
    -3.4716  -3.4716  -3.4615  -3.4615  -2.9522  -2.9522  -2.9488  -2.9488
    -2.7857  -2.7857  -2.7825  -2.7825  -2.3755  -2.3755  -2.3374  -2.3374
    -2.2239  -2.2239  -2.1906  -2.1906  -2.1247  -2.1247  -2.1120  -2.1120
    -2.0171  -2.0171  -2.0011  -2.0011  -1.9401  -1.9401  -1.8672  -1.8672
    -1.5907  -1.5907  -1.5824  -1.5824  -1.4118  -1.4118  -1.3864  -1.3864
    -1.2855  -1.2855  -1.2433  -1.2433  -1.0133  -1.0133  -0.9836  -0.9836
    -0.9523  -0.9523  -0.9452  -0.9452  -0.8582  -0.8582  -0.7939  -0.7939
    -0.6543  -0.6543  -0.5917  -0.5917  -0.1784  -0.1784  -0.1543  -0.1543
     0.4423   0.4423   0.4589   0.4589   0.9848   0.9848   0.9974   0.9974
     1.1316   1.1316   1.1996   1.1996   1.6602   1.6602   1.6691   1.6691
     4.3429   4.3429   4.4128   4.4128   4.5558   4.5558   4.6276   4.6276
     4.6822   4.6822   4.6913   4.6913   5.1265   5.1265   5.1383   5.1383
     5.2269   5.2269   5.2919   5.2919   5.5587   5.5587   5.5636   5.5636
     6.1879   6.1879   6.2722   6.2722   6.9840   6.9840   7.0521   7.0521
     7.1508   7.1508   7.2652   7.2652   7.8060   7.8060   7.8852   7.8852
     8.1330   8.1331   8.2798

          k = 0.3333 0.0000 0.0000 (157289 PWs)   bands (ev):

   -22.0867 -22.0867 -22.0855 -22.0855 -22.0229 -22.0229 -22.0229 -22.0229
   -18.2355 -18.2352 -18.2346 -18.2342 -18.1601 -18.1599 -18.1597 -18.1595
   -15.0970 -15.0940 -15.0667 -15.0656 -14.5831 -14.5826 -14.5750 -14.5740
   -13.6166 -13.6117 -13.5755 -13.5721 -12.4469 -12.4457 -12.4422 -12.4419
   -12.3496 -12.3438 -12.3370 -12.3182 -12.0073 -11.9993 -11.9845 -11.9837
   -11.8687 -11.8625 -11.8519 -11.8456 -10.4607 -10.4548 -10.4297 -10.4177
    -9.7514  -9.7477  -9.7072  -9.6992  -9.5182  -9.5180  -9.4819  -9.4803
    -9.4371  -9.4330  -9.4152  -9.4097  -8.1417  -8.1051  -8.0772  -8.0694
    -7.9417  -7.9111  -7.8565  -7.8502  -7.6614  -7.6423  -7.5781  -7.5491
    -6.8613  -6.8458  -6.8204  -6.7993  -6.3609  -6.3422  -6.3376  -6.3164
    -6.2370  -6.2053  -6.1884  -6.1545  -6.1365  -6.1042  -6.0849  -6.0735
    -5.8626  -5.8609  -5.8341  -5.8305  -5.7885  -5.7427  -5.6908  -5.6627
    -5.3775  -5.3620  -5.3284  -5.3157  -5.2148  -5.1719  -5.0375  -5.0040
    -4.6894  -4.6476  -4.6426  -4.5949  -4.5757  -4.5095  -4.4693  -4.4265
    -4.4159  -4.3975  -4.3788  -4.3519  -4.3077  -4.2533  -4.2045  -4.1399
    -4.1074  -4.0877  -4.0802  -4.0447  -4.0186  -3.9987  -3.9367  -3.8815
    -3.8483  -3.8294  -3.7286  -3.7038  -3.6178  -3.5963  -3.5711  -3.5318
    -3.4321  -3.4203  -3.3760  -3.3689  -3.0561  -3.0449  -2.9744  -2.9506
    -2.8061  -2.7979  -2.7902  -2.7815  -2.4361  -2.4217  -2.3833  -2.3778
    -2.2527  -2.2287  -2.2064  -2.1838  -2.1574  -2.1402  -2.1368  -2.0956
    -2.0211  -2.0158  -2.0010  -1.9939  -1.9466  -1.9247  -1.9027  -1.8742
    -1.6227  -1.6218  -1.5579  -1.5568  -1.4547  -1.4462  -1.4318  -1.4043
    -1.2801  -1.2712  -1.2092  -1.1845  -1.1311  -1.1140  -1.0446  -1.0360
    -1.0159  -0.9899  -0.9007  -0.8568  -0.8209  -0.7972  -0.7920  -0.7389
    -0.6712  -0.6463  -0.6370  -0.6350  -0.1553  -0.1459  -0.1089  -0.0937
     0.3316   0.3676   0.4152   0.4243   1.0506   1.0516   1.1209   1.1504
     1.1704   1.1757   1.2199   1.2212   1.6174   1.6518   1.6564   1.6676
     4.4194   4.4393   4.4687   4.4896   4.5288   4.5688   4.5841   4.6158
     4.7219   4.7413   4.7553   4.8286   5.0949   5.1423   5.1939   5.2108
     5.2453   5.2641   5.2833   5.3052   5.5393   5.5699   5.5983   5.6031
     6.1975   6.2330   6.2751   6.3525   6.8909   6.9302   6.9502   6.9848
     7.2067   7.2098   7.4766   7.5982   7.6265   7.7847   7.7975   7.8172
     7.8934   7.9246   7.9700

          k = 0.3333 0.0000-0.2350 (157358 PWs)   bands (ev):

   -22.0867 -22.0867 -22.0855 -22.0855 -22.0229 -22.0229 -22.0229 -22.0229
   -18.2354 -18.2354 -18.2344 -18.2344 -18.1600 -18.1600 -18.1596 -18.1596
   -15.0955 -15.0955 -15.0661 -15.0661 -14.5829 -14.5829 -14.5745 -14.5745
   -13.6141 -13.6141 -13.5739 -13.5739 -12.4455 -12.4455 -12.4426 -12.4426
   -12.3462 -12.3462 -12.3280 -12.3280 -12.0016 -12.0016 -11.9863 -11.9863
   -11.8661 -11.8661 -11.8483 -11.8483 -10.4536 -10.4536 -10.4276 -10.4276
    -9.7494  -9.7494  -9.7034  -9.7034  -9.5178  -9.5178  -9.4811  -9.4811
    -9.4345  -9.4345  -9.4134  -9.4134  -8.1232  -8.1232  -8.0732  -8.0732
    -7.9255  -7.9255  -7.8540  -7.8540  -7.6527  -7.6527  -7.5622  -7.5622
    -6.8406  -6.8406  -6.8230  -6.8230  -6.3456  -6.3456  -6.3273  -6.3273
    -6.2320  -6.2320  -6.1707  -6.1707  -6.1314  -6.1314  -6.0944  -6.0944
    -5.8443  -5.8443  -5.8351  -5.8351  -5.7361  -5.7361  -5.6948  -5.6948
    -5.3654  -5.3654  -5.3117  -5.3117  -5.1410  -5.1410  -5.0873  -5.0873
    -4.6602  -4.6602  -4.6333  -4.6333  -4.5364  -4.5364  -4.4633  -4.4633
    -4.4054  -4.4054  -4.3494  -4.3494  -4.2512  -4.2512  -4.2119  -4.2119
    -4.1110  -4.1110  -4.0615  -4.0615  -3.9614  -3.9614  -3.9154  -3.9154
    -3.8196  -3.8196  -3.7632  -3.7632  -3.5960  -3.5960  -3.5532  -3.5532
    -3.4265  -3.4265  -3.3741  -3.3741  -3.0499  -3.0499  -2.9676  -2.9676
    -2.8014  -2.8014  -2.7862  -2.7862  -2.4359  -2.4359  -2.3805  -2.3805
    -2.2309  -2.2309  -2.1851  -2.1851  -2.1512  -2.1512  -2.1123  -2.1123
    -2.0301  -2.0301  -1.9916  -1.9916  -1.9178  -1.9178  -1.8992  -1.8992
    -1.6257  -1.6257  -1.5564  -1.5564  -1.4654  -1.4654  -1.4171  -1.4171
    -1.2757  -1.2757  -1.2002  -1.2002  -1.1154  -1.1154  -1.0534  -1.0534
    -0.9836  -0.9836  -0.8701  -0.8701  -0.8003  -0.8003  -0.7713  -0.7713
    -0.6698  -0.6698  -0.6353  -0.6353  -0.1484  -0.1484  -0.1034  -0.1034
     0.3473   0.3473   0.4197   0.4197   1.0533   1.0533   1.1326   1.1326
     1.1730   1.1730   1.2206   1.2206   1.6344   1.6344   1.6620   1.6620
     4.4266   4.4266   4.4948   4.4948   4.5443   4.5443   4.5949   4.5949
     4.7411   4.7411   4.7786   4.7786   5.1067   5.1067   5.1991   5.1991
     5.2755   5.2755   5.2902   5.2902   5.5587   5.5587   5.5979   5.5979
     6.2085   6.2085   6.3191   6.3191   6.9040   6.9040   6.9767   6.9767
     7.1968   7.1968   7.5319   7.5319   7.7107   7.7107   7.8154   7.8154
     7.9134   7.9134   8.0677

          k = 0.3333-0.3269 0.0000 (157364 PWs)   bands (ev):

   -22.0867 -22.0867 -22.0856 -22.0856 -22.0231 -22.0231 -22.0227 -22.0227
   -18.2353 -18.2353 -18.2345 -18.2345 -18.1601 -18.1601 -18.1595 -18.1595
   -15.0821 -15.0821 -15.0797 -15.0797 -14.5793 -14.5793 -14.5786 -14.5786
   -13.5958 -13.5958 -13.5907 -13.5907 -12.4496 -12.4496 -12.4469 -12.4469
   -12.3427 -12.3427 -12.3249 -12.3249 -11.9997 -11.9997 -11.9850 -11.9850
   -11.8598 -11.8598 -11.8562 -11.8562 -10.4544 -10.4544 -10.4296 -10.4296
    -9.7330  -9.7330  -9.7218  -9.7218  -9.5002  -9.5002  -9.4971  -9.4971
    -9.4279  -9.4279  -9.4180  -9.4180  -8.1081  -8.1081  -8.0835  -8.0835
    -7.9013  -7.9013  -7.8771  -7.8771  -7.6249  -7.6249  -7.6002  -7.6002
    -6.8547  -6.8547  -6.8127  -6.8127  -6.3535  -6.3535  -6.3195  -6.3195
    -6.2206  -6.2206  -6.1789  -6.1789  -6.1047  -6.1047  -6.0876  -6.0876
    -5.8585  -5.8585  -5.8320  -5.8320  -5.7834  -5.7834  -5.6701  -5.6701
    -5.3552  -5.3552  -5.3415  -5.3415  -5.1724  -5.1724  -5.0249  -5.0249
    -4.6827  -4.6827  -4.6079  -4.6079  -4.5264  -4.5264  -4.4574  -4.4574
    -4.3727  -4.3727  -4.3491  -4.3491  -4.2340  -4.2340  -4.1780  -4.1780
    -4.1672  -4.1672  -4.0905  -4.0905  -4.0013  -4.0013  -3.9274  -3.9274
    -3.8449  -3.8449  -3.7079  -3.7079  -3.5552  -3.5552  -3.5221  -3.5221
    -3.4619  -3.4619  -3.4372  -3.4372  -3.0505  -3.0505  -3.0155  -3.0155
    -2.7889  -2.7889  -2.7753  -2.7753  -2.3401  -2.3401  -2.3244  -2.3244
    -2.2787  -2.2787  -2.2164  -2.2164  -2.1577  -2.1577  -2.1022  -2.1022
    -2.0284  -2.0284  -2.0045  -2.0045  -1.9415  -1.9415  -1.8789  -1.8789
    -1.6066  -1.6066  -1.5878  -1.5878  -1.4601  -1.4601  -1.4218  -1.4218
    -1.2479  -1.2479  -1.2323  -1.2323  -1.0866  -1.0866  -1.0666  -1.0666
    -0.9603  -0.9603  -0.9158  -0.9158  -0.8013  -0.8013  -0.7635  -0.7635
    -0.6623  -0.6623  -0.6371  -0.6371  -0.1380  -0.1380  -0.1210  -0.1210
     0.3755   0.3755   0.4001   0.4001   1.0640   1.0640   1.1164   1.1164
     1.1928   1.1928   1.1990   1.1990   1.6357   1.6357   1.6629   1.6629
     4.4245   4.4245   4.4881   4.4881   4.5508   4.5508   4.5947   4.5947
     4.7407   4.7407   4.7834   4.7834   5.1081   5.1081   5.1783   5.1783
     5.2678   5.2678   5.3167   5.3167   5.5709   5.5709   5.5934   5.5934
     6.2198   6.2198   6.3157   6.3157   6.9289   6.9289   6.9634   6.9634
     7.2450   7.2450   7.4066   7.4066   7.6366   7.6366   7.8458   7.8458
     7.9754   7.9755   8.0858

          k = 0.3333-0.3269-0.2350 (157276 PWs)   bands (ev):

   -22.0867 -22.0867 -22.0856 -22.0856 -22.0231 -22.0231 -22.0227 -22.0227
   -18.2352 -18.2352 -18.2345 -18.2345 -18.1601 -18.1601 -18.1595 -18.1595
   -15.0815 -15.0815 -15.0804 -15.0804 -14.5792 -14.5792 -14.5786 -14.5786
   -13.5938 -13.5938 -13.5927 -13.5927 -12.4490 -12.4490 -12.4475 -12.4475
   -12.3364 -12.3364 -12.3308 -12.3308 -11.9953 -11.9953 -11.9901 -11.9901
   -11.8581 -11.8581 -11.8578 -11.8578 -10.4433 -10.4433 -10.4406 -10.4406
    -9.7291  -9.7291  -9.7257  -9.7257  -9.4987  -9.4987  -9.4983  -9.4983
    -9.4231  -9.4231  -9.4229  -9.4229  -8.1031  -8.1031  -8.0875  -8.0875
    -7.8947  -7.8947  -7.8841  -7.8841  -7.6235  -7.6235  -7.6013  -7.6013
    -6.8375  -6.8375  -6.8296  -6.8296  -6.3497  -6.3497  -6.3297  -6.3297
    -6.2047  -6.2047  -6.1835  -6.1835  -6.1228  -6.1228  -6.1050  -6.1050
    -5.8432  -5.8432  -5.8346  -5.8346  -5.7359  -5.7359  -5.7044  -5.7044
    -5.3562  -5.3562  -5.3272  -5.3272  -5.1043  -5.1043  -5.1022  -5.1022
    -4.6661  -4.6661  -4.6355  -4.6355  -4.4893  -4.4893  -4.4818  -4.4818
    -4.3936  -4.3936  -4.3499  -4.3499  -4.2064  -4.2064  -4.2031  -4.2031
    -4.1334  -4.1334  -4.1131  -4.1131  -3.9754  -3.9754  -3.9400  -3.9400
    -3.8037  -3.8037  -3.7622  -3.7622  -3.5548  -3.5548  -3.5170  -3.5170
    -3.4529  -3.4529  -3.4513  -3.4513  -3.0365  -3.0365  -3.0323  -3.0323
    -2.7816  -2.7816  -2.7809  -2.7809  -2.3426  -2.3426  -2.3348  -2.3348
    -2.2583  -2.2583  -2.2340  -2.2340  -2.1281  -2.1281  -2.1141  -2.1141
    -2.0242  -2.0242  -2.0188  -2.0188  -1.9083  -1.9083  -1.8937  -1.8937
    -1.6067  -1.6067  -1.5911  -1.5911  -1.4689  -1.4689  -1.4339  -1.4339
    -1.2588  -1.2588  -1.2124  -1.2124  -1.0869  -1.0869  -1.0645  -1.0645
    -0.9401  -0.9401  -0.9240  -0.9240  -0.7862  -0.7862  -0.7728  -0.7728
    -0.6695  -0.6695  -0.6421  -0.6421  -0.1363  -0.1363  -0.1221  -0.1221
     0.3826   0.3826   0.3904   0.3904   1.0674   1.0674   1.1126   1.1126
     1.1919   1.1919   1.1998   1.1998   1.6487   1.6487   1.6492   1.6492
     4.4379   4.4379   4.4886   4.4886   4.5639   4.5639   4.5702   4.5702
     4.7462   4.7462   4.7744   4.7744   5.1262   5.1262   5.1530   5.1530
     5.2790   5.2790   5.3101   5.3101   5.5790   5.5790   5.5895   5.5895
     6.2431   6.2431   6.2953   6.2953   6.9308   6.9308   6.9605   6.9605
     7.2444   7.2444   7.3904   7.3904   7.6539   7.6539   7.8655   7.8655
     8.0086   8.0090   8.0147

     highest occupied, lowest unoccupied level (ev):     1.6844    4.2873

!    total energy              =   -1922.53348767 Ry
     Harris-Foulkes estimate   =   -1922.53348767 Ry
     estimated scf accuracy    <          4.0E-09 Ry

     total all-electron energy =     -7570.606962 Ry

     The total energy is the sum of the following terms:

     one-electron contribution =    -956.69275467 Ry
     hartree contribution      =     639.72132049 Ry
     xc contribution           =    -433.38049600 Ry
     ewald contribution        =    -546.82876390 Ry
     Dispersion Correction     =      -0.77024468 Ry
     one-center paw contrib.   =    -624.58254892 Ry

     convergence has been achieved in  18 iterations

     Forces acting on atoms (cartesian axes, Ry/au):

     atom    1 type  2   force =    -0.00041289    0.00051806   -0.00011604
     atom    2 type  2   force =     0.00041289   -0.00051806   -0.00011604
     atom    3 type  2   force =     0.00041289    0.00051806    0.00011604
     atom    4 type  2   force =    -0.00041289   -0.00051806    0.00011604
     atom    5 type  2   force =    -0.00031829    0.00026584    0.00035643
     atom    6 type  2   force =     0.00031829   -0.00026584    0.00035643
     atom    7 type  2   force =     0.00031829    0.00026584   -0.00035643
     atom    8 type  2   force =    -0.00031829   -0.00026584   -0.00035643
     atom    9 type  2   force =     0.00088946   -0.00041209   -0.00047638
     atom   10 type  2   force =    -0.00088946    0.00041209   -0.00047638
     atom   11 type  2   force =    -0.00088946   -0.00041209    0.00047638
     atom   12 type  2   force =     0.00088946    0.00041209    0.00047638
     atom   13 type  2   force =    -0.00024017    0.00078357    0.00047464
     atom   14 type  2   force =     0.00024017   -0.00078357    0.00047464
     atom   15 type  2   force =     0.00024017    0.00078357   -0.00047464
     atom   16 type  2   force =    -0.00024017   -0.00078357   -0.00047464
     atom   17 type  2   force =     0.00246912    0.00063233    0.00037687
     atom   18 type  2   force =    -0.00246912   -0.00063233    0.00037687
     atom   19 type  2   force =    -0.00246912    0.00063233   -0.00037687
     atom   20 type  2   force =     0.00246912   -0.00063233   -0.00037687
     atom   21 type  2   force =    -0.00104114   -0.00162395   -0.00198628
     atom   22 type  2   force =     0.00104114    0.00162395   -0.00198628
     atom   23 type  2   force =     0.00104114   -0.00162395    0.00198628
     atom   24 type  2   force =    -0.00104114    0.00162395    0.00198628
     atom   25 type  1   force =    -0.00250148   -0.00182313    0.00036172
     atom   26 type  1   force =     0.00250148    0.00182313    0.00036172
     atom   27 type  1   force =     0.00250148   -0.00182313   -0.00036172
     atom   28 type  1   force =    -0.00250148    0.00182313   -0.00036172
     atom   29 type  3   force =    -0.00049496    0.00074990   -0.00066364
     atom   30 type  3   force =     0.00049496   -0.00074990   -0.00066364
     atom   31 type  3   force =     0.00049496    0.00074990    0.00066364
     atom   32 type  3   force =    -0.00049496   -0.00074990    0.00066364
     atom   33 type  3   force =     0.00006236    0.00029606    0.00036942
     atom   34 type  3   force =    -0.00006236   -0.00029606    0.00036942
     atom   35 type  3   force =    -0.00006236    0.00029606   -0.00036942
     atom   36 type  3   force =     0.00006236   -0.00029606   -0.00036942
     atom   37 type  1   force =     0.00031432    0.00103409    0.00036250
     atom   38 type  1   force =    -0.00031432   -0.00103409    0.00036250
     atom   39 type  1   force =    -0.00031432    0.00103409   -0.00036250
     atom   40 type  1   force =     0.00031432   -0.00103409   -0.00036250
     atom   41 type  3   force =    -0.00005072    0.00017251    0.00056612
     atom   42 type  3   force =     0.00005072   -0.00017251    0.00056612
     atom   43 type  3   force =     0.00005072    0.00017251   -0.00056612
     atom   44 type  3   force =    -0.00005072   -0.00017251   -0.00056612
     atom   45 type  3   force =    -0.00014750   -0.00009764   -0.00055780
     atom   46 type  3   force =     0.00014750    0.00009764   -0.00055780
     atom   47 type  3   force =     0.00014750   -0.00009764    0.00055780
     atom   48 type  3   force =    -0.00014750    0.00009764    0.00055780
     atom   49 type  1   force =     0.00061010    0.00112442   -0.00056746
     atom   50 type  1   force =    -0.00061010   -0.00112442   -0.00056746
     atom   51 type  1   force =    -0.00061010    0.00112442    0.00056746
     atom   52 type  1   force =     0.00061010   -0.00112442    0.00056746
     atom   53 type  1   force =    -0.00031356    0.00009438   -0.00084214
     atom   54 type  1   force =     0.00031356   -0.00009438   -0.00084214
     atom   55 type  1   force =     0.00031356    0.00009438    0.00084214
     atom   56 type  1   force =    -0.00031356   -0.00009438    0.00084214
     atom   57 type  1   force =     0.00081499    0.00169927    0.00044277
     atom   58 type  1   force =    -0.00081499   -0.00169927    0.00044277
     atom   59 type  1   force =    -0.00081499    0.00169927   -0.00044277
     atom   60 type  1   force =     0.00081499   -0.00169927   -0.00044277
     atom   61 type  3   force =     0.00067423   -0.00031497   -0.00002494
     atom   62 type  3   force =    -0.00067423    0.00031497   -0.00002494
     atom   63 type  3   force =    -0.00067423   -0.00031497    0.00002494
     atom   64 type  3   force =     0.00067423    0.00031497    0.00002494
     atom   65 type  1   force =    -0.00248787    0.00297187   -0.00025633
     atom   66 type  1   force =     0.00248787   -0.00297187   -0.00025633
     atom   67 type  1   force =     0.00248787    0.00297187    0.00025633
     atom   68 type  1   force =    -0.00248787   -0.00297187    0.00025633
     atom   69 type  1   force =     0.00080096   -0.00129717   -0.00036485
     atom   70 type  1   force =    -0.00080096    0.00129717   -0.00036485
     atom   71 type  1   force =    -0.00080096   -0.00129717    0.00036485
     atom   72 type  1   force =     0.00080096    0.00129717    0.00036485
     atom   73 type  3   force =    -0.00069237   -0.00009713    0.00005041
     atom   74 type  3   force =     0.00069237    0.00009713    0.00005041
     atom   75 type  3   force =     0.00069237   -0.00009713   -0.00005041
     atom   76 type  3   force =    -0.00069237    0.00009713   -0.00005041
     atom   77 type  1   force =    -0.00217509    0.00110426    0.00166847
     atom   78 type  1   force =     0.00217509   -0.00110426    0.00166847
     atom   79 type  1   force =     0.00217509    0.00110426   -0.00166847
     atom   80 type  1   force =    -0.00217509   -0.00110426   -0.00166847
     atom   81 type  3   force =     0.00103533   -0.00037337   -0.00070434
     atom   82 type  3   force =    -0.00103533    0.00037337   -0.00070434
     atom   83 type  3   force =    -0.00103533   -0.00037337    0.00070434
     atom   84 type  3   force =     0.00103533    0.00037337    0.00070434
     atom   85 type  1   force =     0.00177167    0.00210613    0.00036364
     atom   86 type  1   force =    -0.00177167   -0.00210613    0.00036364
     atom   87 type  1   force =    -0.00177167    0.00210613   -0.00036364
     atom   88 type  1   force =     0.00177167   -0.00210613   -0.00036364
     atom   89 type  3   force =    -0.00020815   -0.00025574   -0.00038423
     atom   90 type  3   force =     0.00020815    0.00025574   -0.00038423
     atom   91 type  3   force =     0.00020815   -0.00025574    0.00038423
     atom   92 type  3   force =    -0.00020815    0.00025574    0.00038423
     atom   93 type  3   force =    -0.00008998   -0.00026248   -0.00027854
     atom   94 type  3   force =     0.00008998    0.00026248   -0.00027854
     atom   95 type  3   force =     0.00008998   -0.00026248    0.00027854
     atom   96 type  3   force =    -0.00008998    0.00026248    0.00027854
     atom   97 type  1   force =    -0.00052716   -0.00130305   -0.00046165
     atom   98 type  1   force =     0.00052716    0.00130305   -0.00046165
     atom   99 type  1   force =     0.00052716   -0.00130305    0.00046165
     atom  100 type  1   force =    -0.00052716    0.00130305    0.00046165
     atom  101 type  3   force =    -0.00043755    0.00087187   -0.00057745
     atom  102 type  3   force =     0.00043755   -0.00087187   -0.00057745
     atom  103 type  3   force =     0.00043755    0.00087187    0.00057745
     atom  104 type  3   force =    -0.00043755   -0.00087187    0.00057745
     atom  105 type  3   force =     0.00005127   -0.00007767   -0.00029379
     atom  106 type  3   force =    -0.00005127    0.00007767   -0.00029379
     atom  107 type  3   force =    -0.00005127   -0.00007767    0.00029379
     atom  108 type  3   force =     0.00005127    0.00007767    0.00029379
     atom  109 type  1   force =    -0.00164239   -0.00064329    0.00117710
     atom  110 type  1   force =     0.00164239    0.00064329    0.00117710
     atom  111 type  1   force =     0.00164239   -0.00064329   -0.00117710
     atom  112 type  1   force =    -0.00164239    0.00064329   -0.00117710
     atom  113 type  1   force =     0.00115876   -0.00091348    0.00154324
     atom  114 type  1   force =    -0.00115876    0.00091348    0.00154324
     atom  115 type  1   force =    -0.00115876   -0.00091348   -0.00154324
     atom  116 type  1   force =     0.00115876    0.00091348   -0.00154324
     atom  117 type  3   force =    -0.00016499    0.00078688    0.00009619
     atom  118 type  3   force =     0.00016499   -0.00078688    0.00009619
     atom  119 type  3   force =     0.00016499    0.00078688   -0.00009619
     atom  120 type  3   force =    -0.00016499   -0.00078688   -0.00009619
     atom  121 type  1   force =    -0.00161786   -0.00259716   -0.00133722
     atom  122 type  1   force =     0.00161786    0.00259716   -0.00133722
     atom  123 type  1   force =     0.00161786   -0.00259716    0.00133722
     atom  124 type  1   force =    -0.00161786    0.00259716    0.00133722
     atom  125 type  3   force =    -0.00013479   -0.00045576    0.00015472
     atom  126 type  3   force =     0.00013479    0.00045576    0.00015472
     atom  127 type  3   force =     0.00013479   -0.00045576   -0.00015472
     atom  128 type  3   force =    -0.00013479    0.00045576   -0.00015472
     atom  129 type  1   force =     0.00320972   -0.00241205    0.00015242
     atom  130 type  1   force =    -0.00320972    0.00241205    0.00015242
     atom  131 type  1   force =    -0.00320972   -0.00241205   -0.00015242
     atom  132 type  1   force =     0.00320972    0.00241205   -0.00015242
     atom  133 type  1   force =    -0.00134887    0.00154771    0.00155332
     atom  134 type  1   force =     0.00134887   -0.00154771    0.00155332
     atom  135 type  1   force =     0.00134887    0.00154771   -0.00155332
     atom  136 type  1   force =    -0.00134887   -0.00154771   -0.00155332
     atom  137 type  1   force =     0.00318645   -0.00127916   -0.00240184
     atom  138 type  1   force =    -0.00318645    0.00127916   -0.00240184
     atom  139 type  1   force =    -0.00318645   -0.00127916    0.00240184
     atom  140 type  1   force =     0.00318645    0.00127916    0.00240184
     atom  141 type  3   force =    -0.00015801    0.00021324    0.00041595
     atom  142 type  3   force =     0.00015801   -0.00021324    0.00041595
     atom  143 type  3   force =     0.00015801    0.00021324   -0.00041595
     atom  144 type  3   force =    -0.00015801   -0.00021324   -0.00041595

     Total force =     0.023601     Total SCF correction =     0.000122


     Computing stress (Cartesian axis) and pressure

          total   stress  (Ry/bohr**3)                   (kbar)     P=   -4.82
  -0.00003525   0.00000000   0.00000000         -5.19      0.00      0.00
   0.00000000  -0.00003749   0.00000000          0.00     -5.52      0.00
   0.00000000   0.00000000  -0.00002562          0.00      0.00     -3.77


     Writing output data file scf.save
 
     init_run     :    115.18s CPU    119.57s WALL (       1 calls)
     electrons    :   4750.34s CPU   4903.47s WALL (       1 calls)
     forces       :     54.62s CPU     55.02s WALL (       1 calls)
     stress       :    277.35s CPU    278.03s WALL (       1 calls)

     Called by init_run:
     wfcinit      :    106.96s CPU    111.11s WALL (       1 calls)
     potinit      :      2.95s CPU      2.99s WALL (       1 calls)

     Called by electrons:
     c_bands      :   4338.02s CPU   4469.65s WALL (      18 calls)
     sum_band     :    389.53s CPU    408.27s WALL (      18 calls)
     v_of_rho     :      3.27s CPU      3.61s WALL (      19 calls)
     newd         :      8.42s CPU     10.79s WALL (      19 calls)
     PAW_pot      :     10.34s CPU     10.34s WALL (      19 calls)
     mix_rho      :      0.75s CPU      0.80s WALL (      18 calls)

     Called by c_bands:
     init_us_2    :     17.47s CPU     17.53s WALL (     312 calls)
     cegterg      :   4263.50s CPU   4395.06s WALL (     144 calls)

     Called by sum_band:
     sum_band:bec :      0.22s CPU      0.22s WALL (     144 calls)
     addusdens    :      8.65s CPU     10.93s WALL (      18 calls)

     Called by *egterg:
     h_psi        :   2119.51s CPU   2225.57s WALL (     729 calls)
     s_psi        :    604.57s CPU    604.68s WALL (     729 calls)
     g_psi        :      8.70s CPU      8.70s WALL (     577 calls)
     cdiaghg      :    243.15s CPU    243.24s WALL (     721 calls)

     Called by h_psi:
     h_psi:pot    :   2107.61s CPU   2213.47s WALL (     729 calls)
     h_psi:calbec :    586.02s CPU    586.79s WALL (     729 calls)
     vloc_psi     :    916.17s CPU   1021.14s WALL (     729 calls)
     add_vuspsi   :    605.41s CPU    605.53s WALL (     729 calls)

     General routines
     calbec       :    841.41s CPU    842.47s WALL (     913 calls)
     fft          :      2.21s CPU      2.79s WALL (     271 calls)
     fftw         :    970.54s CPU   1091.37s WALL (  254272 calls)
 
     Parallel routines
     fft_scatter  :    176.25s CPU    292.03s WALL (  254543 calls)
 
     PWSCF        :     1h26m CPU        1h30m WALL

 
   This run was terminated on:  13:55: 2  13Nov2017            

=------------------------------------------------------------------------------=
   JOB DONE.
=------------------------------------------------------------------------------=
