
     Program PWSCF v.6.1 (svn rev. 13369) starts on  4Nov2017 at  4:39:25 

     This program is part of the open-source Quantum ESPRESSO suite
     for quantum simulation of materials; please cite
         "P. Giannozzi et al., J. Phys.:Condens. Matter 21 395502 (2009);
          URL http://www.quantum-espresso.org", 
     in publications or presentations arising from this work. More details at
     http://www.quantum-espresso.org/quote

     Parallel version (MPI), running on     8 processors
     R & G space division:  proc/nbgrp/npool/nimage =       8
     Waiting for input...
     Reading input from standard input

     Current dimensions of program PWSCF are:
     Max number of different atomic species (ntypx) = 10
     Max number of k-points (npk) =  40000
     Max angular momentum in pseudopotentials (lmaxx) =  3
               file C.pbe-n-kjpaw_psl.0.1.UPF: wavefunction(s)  2P renormalized
               file N.pbe-n-kjpaw_psl.0.1.UPF: wavefunction(s)  2P renormalized
               file H.pbe-kjpaw_psl.0.1.UPF: wavefunction(s)  1S renormalized
               file O.pbe-n-kjpaw_psl.0.1.UPF: wavefunction(s)  2P renormalized

     -------------------------------------
     Parameters for Dispersion Correction:
     -------------------------------------
       atom      VdW radius       C_6     

        C          2.744         60.710
        N          2.640         42.670
        H          1.892          4.857
        O          2.536         24.284

     Subspace diagonalization in iterative solution of the eigenvalue problem:
     a serial algorithm will be used

 
     Parallelization info
     --------------------
     sticks:   dense  smooth     PW     G-vecs:    dense   smooth      PW
     Min        1494    1494    399               110380   110380   15196
     Max        1495    1495    400               110383   110383   15197
     Sum       11959   11959   3195               883057   883057  121571
 


     bravais-lattice index     =            0
     lattice parameter (alat)  =      17.4849  a.u.
     unit-cell volume          =    6535.6844 (a.u.)^3
     number of atoms/cell      =           96
     number of atomic types    =            4
     number of electrons       =       352.00
     number of Kohn-Sham states=          211
     kinetic-energy cutoff     =     100.0000  Ry
     charge density cutoff     =     400.0000  Ry
     convergence threshold     =      1.0E-08
     mixing beta               =       0.5000
     number of iterations used =            8  plain     mixing
     Exchange-correlation      =  SLA  PW   PBX  PBC ( 1  4  3  4 0 0)

     celldm(1)=  17.484880  celldm(2)=   0.000000  celldm(3)=   0.000000
     celldm(4)=   0.000000  celldm(5)=   0.000000  celldm(6)=   0.000000

     crystal axes: (cart. coord. in units of alat)
               a(1) = (   1.000000   0.000000   0.000000 )  
               a(2) = (   0.000000   1.227947   0.000000 )  
               a(3) = (  -0.288445   0.000000   0.995689 )  

     reciprocal axes: (cart. coord. in units 2 pi/alat)
               b(1) = (  1.000000  0.000000  0.289694 )  
               b(2) = (  0.000000  0.814368  0.000000 )  
               b(3) = (  0.000000  0.000000  1.004330 )  


     PseudoPot. # 1 for  C read from file:
     /scratch/ahofstet/pseudo/C.pbe-n-kjpaw_psl.0.1.UPF
     MD5 check sum: 430fe95172b1e11ef3f8ed03bac87931
     Pseudo is Projector augmented-wave + core cor, Zval =  4.0
     Generated using "atomic" code by A. Dal Corso  v.5.0.99 svn rev. 10869
     Shape of augmentation charge: BESSEL
     Using radial grid of 1073 points,  4 beta functions with: 
                l(1) =   0
                l(2) =   0
                l(3) =   1
                l(4) =   1
     Q(r) pseudized with 0 coefficients 


     PseudoPot. # 2 for  N read from file:
     /scratch/ahofstet/pseudo/N.pbe-n-kjpaw_psl.0.1.UPF
     MD5 check sum: f73187c8b701007e77325f868c9291d7
     Pseudo is Projector augmented-wave + core cor, Zval =  5.0
     Generated using "atomic" code by A. Dal Corso  v.5.0.99 svn rev. 10869
     Shape of augmentation charge: PSQ
     Using radial grid of 1085 points,  4 beta functions with: 
                l(1) =   0
                l(2) =   0
                l(3) =   1
                l(4) =   1
     Q(r) pseudized with 0 coefficients 


     PseudoPot. # 3 for  H read from file:
     /scratch/ahofstet/pseudo/H.pbe-kjpaw_psl.0.1.UPF
     MD5 check sum: 94e484f906d9e9773b2f6e52662335b2
     Pseudo is Projector augmented-wave, Zval =  1.0
     Generated using "atomic" code by A. Dal Corso  v.5.0.99 svn rev. 10869
     Shape of augmentation charge: PSQ
     Using radial grid of  929 points,  2 beta functions with: 
                l(1) =   0
                l(2) =   0
     Q(r) pseudized with 0 coefficients 


     PseudoPot. # 4 for  O read from file:
     /scratch/ahofstet/pseudo/O.pbe-n-kjpaw_psl.0.1.UPF
     MD5 check sum: 3f94a2996a3169367d6eb21d9b593f20
     Pseudo is Projector augmented-wave + core cor, Zval =  6.0
     Generated using "atomic" code by A. Dal Corso  v.5.0.99 svn rev. 10869
     Shape of augmentation charge: BESSEL
     Using radial grid of 1095 points,  4 beta functions with: 
                l(1) =   0
                l(2) =   0
                l(3) =   1
                l(4) =   1
     Q(r) pseudized with 0 coefficients 


     atomic species   valence    mass     pseudopotential
        C              4.00    12.01070      C( 1.00)
        N              5.00    14.00670      N( 1.00)
        H              1.00     1.00794      H( 1.00)
        O              6.00    15.99940      O( 1.00)

      4 Sym. Ops., with inversion, found ( 2 have fractional translation)



   Cartesian axes

     site n.     atom                  positions (alat units)
         1           O   tau(   1) = (  -0.0360193   0.5069248   0.4512318  )
         2           O   tau(   2) = (   0.8917966   1.1208982   0.0466125  )
         3           O   tau(   3) = (   0.7475740   0.7210219   0.5444569  )
         4           O   tau(   4) = (  -0.1802419   0.1070486   0.9490762  )
         5           N   tau(   5) = (   0.1432355   0.0984506   0.5566986  )
         6           N   tau(   6) = (   0.4240965   0.7124239   0.9368344  )
         7           N   tau(   7) = (   0.5683191   1.1294962   0.4389901  )
         8           N   tau(   8) = (   0.2874582   0.5155228   0.0588543  )
         9           C   tau(   9) = (   0.1581497   0.1815148   0.4225625  )
        10           C   tau(  10) = (   0.6976276   0.7954882   0.0752818  )
        11           C   tau(  11) = (   0.5534050   1.0464319   0.5731262  )
        12           C   tau(  12) = (   0.0139271   0.4324586   0.9204069  )
        13           O   tau(  13) = (  -0.0072061   1.1750710   0.4415951  )
        14           O   tau(  14) = (   0.8629834   0.5610977   0.0562492  )
        15           O   tau(  15) = (   0.7187608   0.0528757   0.5540936  )
        16           O   tau(  16) = (  -0.1514287   0.6668491   0.9394395  )
        17           O   tau(  17) = (   0.0923890   1.1049469   0.6454153  )
        18           O   tau(  18) = (   0.4749430   0.4909735   0.8481177  )
        19           O   tau(  19) = (   0.6191657   0.1229999   0.3502734  )
        20           O   tau(  20) = (   0.2366117   0.7369732   0.1475710  )
        21           N   tau(  21) = (   0.3520334   0.1449593   0.8581850  )
        22           N   tau(  22) = (   0.2152986   0.7589327   0.6353480  )
        23           N   tau(  23) = (   0.3595213   1.0829874   0.1375037  )
        24           N   tau(  24) = (   0.4962561   0.4690140   0.3603406  )
        25           N   tau(  25) = (   0.3913624   0.1162397   0.6346217  )
        26           N   tau(  26) = (   0.1759697   0.7302130   0.8589113  )
        27           N   tau(  27) = (   0.3201923   1.1117071   0.3610670  )
        28           N   tau(  28) = (   0.5355850   0.4977337   0.1367774  )
        29           N   tau(  29) = (   0.0439210   0.2858170   0.4010841  )
        30           N   tau(  30) = (   0.8118564   0.8997903   0.0967602  )
        31           N   tau(  31) = (   0.6676337   0.9421298   0.5946046  )
        32           N   tau(  32) = (  -0.1003017   0.3281564   0.8989285  )
        33           N   tau(  33) = (   0.0716836   1.1914422   0.5466942  )
        34           N   tau(  34) = (   0.4956484   0.5774688   0.9468388  )
        35           N   tau(  35) = (   0.6398711   0.0365046   0.4489945  )
        36           N   tau(  36) = (   0.2159062   0.6504779   0.0488498  )
        37           C   tau(  37) = (   0.6715253   0.1682502   0.0145751  )
        38           C   tau(  38) = (   0.1842520   0.7822236   0.4832692  )
        39           C   tau(  39) = (   0.0400293   1.0596965   0.9811136  )
        40           C   tau(  40) = (   0.5273027   0.4457231   0.5124195  )
        41           O   tau(  41) = (   0.1380899   0.4118817   0.5840325  )
        42           O   tau(  42) = (   0.4292421   1.0258550   0.9095005  )
        43           O   tau(  43) = (   0.5734648   0.8160651   0.4116562  )
        44           O   tau(  44) = (   0.2823126   0.2020917   0.0861882  )
        45           N   tau(  45) = (   0.2194968   0.1316952   0.8044416  )
        46           N   tau(  46) = (   0.3478352   0.7456685   0.6890914  )
        47           N   tau(  47) = (   0.4920578   1.0962516   0.1912471  )
        48           N   tau(  48) = (   0.3637195   0.4822782   0.3065972  )
        49           N   tau(  49) = (   0.4563342   0.1379809   0.7597352  )
        50           N   tau(  50) = (   0.1109978   0.7519542   0.7337978  )
        51           N   tau(  51) = (   0.2552205   1.0899659   0.2359535  )
        52           N   tau(  52) = (   0.6005569   0.4759925   0.2618909  )
        53           N   tau(  53) = (   0.0495186   0.4091661   0.4824243  )
        54           N   tau(  54) = (   0.8062588   1.0231395   0.0154200  )
        55           N   tau(  55) = (   0.6620361   0.8187806   0.5132644  )
        56           N   tau(  56) = (  -0.0947041   0.2048072   0.9802687  )
        57           C   tau(  57) = (   0.2484261   0.1127415   0.6641358  )
        58           C   tau(  58) = (   0.3189060   0.7267149   0.8293972  )
        59           C   tau(  59) = (   0.4631286   1.1152053   0.3315529  )
        60           C   tau(  60) = (   0.3926487   0.5012319   0.1662915  )
        61           C   tau(  61) = (  -0.0517670   0.2839546   0.2758166  )
        62           C   tau(  62) = (   0.9075444   0.8979280   0.2220277  )
        63           C   tau(  63) = (   0.7633217   0.9439921   0.7198720  )
        64           C   tau(  64) = (  -0.1959897   0.3300188   0.7736610  )
        65           H   tau(  65) = (   0.1562402   0.1081352   0.3298845  )
        66           H   tau(  66) = (   0.6995371   0.7221085   0.1679599  )
        67           H   tau(  67) = (   0.5553144   1.1198116   0.6658042  )
        68           H   tau(  68) = (   0.0120176   0.5058382   0.8277288  )
        69           H   tau(  69) = (   0.2632204   0.2359059   0.4278443  )
        70           H   tau(  70) = (   0.5925569   0.8498792   0.0700000  )
        71           H   tau(  71) = (   0.4483342   0.9920409   0.5678443  )
        72           H   tau(  72) = (   0.1189978   0.3780675   0.9256887  )
        73           H   tau(  73) = (   0.5974463   0.1025180   0.0790971  )
        74           H   tau(  74) = (   0.2583310   0.7164913   0.4187473  )
        75           H   tau(  75) = (   0.1141084   1.1254288   0.9165916  )
        76           H   tau(  76) = (   0.4532237   0.5114554   0.5769414  )
        77           H   tau(  77) = (  -0.0458839   0.1746432   0.2306188  )
        78           H   tau(  78) = (   0.9016613   0.7886165   0.2672255  )
        79           H   tau(  79) = (   0.7574386   1.0533036   0.7650699  )
        80           H   tau(  80) = (  -0.1901066   0.4393302   0.7284632  )
        81           H   tau(  81) = (   0.8369036   0.3080850   0.3085108  )
        82           H   tau(  82) = (   0.0188738   0.9220584   0.1893335  )
        83           H   tau(  83) = (  -0.1253489   0.9198617   0.6871779  )
        84           H   tau(  84) = (   0.6926809   0.3058883   0.8063551  )
        85           H   tau(  85) = (  -0.0181130   0.3643625   0.1950036  )
        86           H   tau(  86) = (   0.8738903   0.9783359   0.3028407  )
        87           H   tau(  87) = (   0.7296677   0.8635843   0.8006851  )
        88           H   tau(  88) = (  -0.1623356   0.2496109   0.6928480  )
        89           H   tau(  89) = (   0.6584967   0.2832576   0.0401425  )
        90           H   tau(  90) = (   0.1972807   0.8972309   0.4577018  )
        91           H   tau(  91) = (   0.0530580   0.9446892   0.9555462  )
        92           H   tau(  92) = (   0.5142740   0.3307158   0.5379868  )
        93           H   tau(  93) = (   0.7830595   0.1334743   0.0321581  )
        94           H   tau(  94) = (   0.0727178   0.7474476   0.4656862  )
        95           H   tau(  95) = (  -0.0715048   1.0944725   0.9635306  )
        96           H   tau(  96) = (   0.6388369   0.4804991   0.5300025  )

     number of k points=     8
                       cart. coord. in units 2pi/alat
        k(    1) = (   0.0000000   0.0000000   0.0000000), wk =   0.2500000
        k(    2) = (   0.0000000   0.0000000  -0.5021650), wk =   0.2500000
        k(    3) = (   0.0000000  -0.4071838   0.0000000), wk =   0.2500000
        k(    4) = (   0.0000000  -0.4071838  -0.5021650), wk =   0.2500000
        k(    5) = (  -0.5000000   0.0000000  -0.1448471), wk =   0.2500000
        k(    6) = (  -0.5000000   0.0000000  -0.6470121), wk =   0.2500000
        k(    7) = (  -0.5000000  -0.4071838  -0.1448471), wk =   0.2500000
        k(    8) = (  -0.5000000  -0.4071838  -0.6470121), wk =   0.2500000

     Dense  grid:   883057 G-vectors     FFT dimensions: ( 120, 144, 120)

     Estimated max dynamical RAM per process >     966.95MB

     Estimated total allocated dynamical RAM >    7735.58MB

     Check: negative/imaginary core charge=   -0.000002    0.000000

     Initial potential from superposition of free atoms

     starting charge  351.99877, renormalised to  352.00000
     Starting wfc are  288 randomized atomic wfcs
     Checking if some PAW data can be deallocated... 

     total cpu time spent up to now is       61.6 secs

     per-process dynamical memory:   663.5 Mb

     Self-consistent Calculation

     iteration #  1     ecut=   100.00 Ry     beta=0.50
     Davidson diagonalization with overlap
     ethr =  1.00E-02,  avg # of iterations =  3.9

     total cpu time spent up to now is      231.4 secs

     total energy              =   -1898.33719649 Ry
     Harris-Foulkes estimate   =   -1903.32136664 Ry
     estimated scf accuracy    <       9.30987782 Ry

     iteration #  2     ecut=   100.00 Ry     beta=0.50
     Davidson diagonalization with overlap
     ethr =  2.64E-03,  avg # of iterations =  3.4

     total cpu time spent up to now is      352.4 secs

     total energy              =   -1899.79881376 Ry
     Harris-Foulkes estimate   =   -1900.97642809 Ry
     estimated scf accuracy    <       2.54373223 Ry

     iteration #  3     ecut=   100.00 Ry     beta=0.50
     Davidson diagonalization with overlap
     ethr =  7.23E-04,  avg # of iterations =  6.2

     total cpu time spent up to now is      496.7 secs

     total energy              =   -1900.39068431 Ry
     Harris-Foulkes estimate   =   -1900.58895572 Ry
     estimated scf accuracy    <       0.48712746 Ry

     iteration #  4     ecut=   100.00 Ry     beta=0.50
     Davidson diagonalization with overlap
     ethr =  1.38E-04,  avg # of iterations =  7.1

     total cpu time spent up to now is      615.9 secs

     total energy              =   -1900.44852257 Ry
     Harris-Foulkes estimate   =   -1900.49342853 Ry
     estimated scf accuracy    <       0.11182660 Ry

     iteration #  5     ecut=   100.00 Ry     beta=0.50
     Davidson diagonalization with overlap
     ethr =  3.18E-05,  avg # of iterations =  9.1

     total cpu time spent up to now is      760.6 secs

     total energy              =   -1900.47436058 Ry
     Harris-Foulkes estimate   =   -1900.48645838 Ry
     estimated scf accuracy    <       0.03221139 Ry

     iteration #  6     ecut=   100.00 Ry     beta=0.50
     Davidson diagonalization with overlap
     ethr =  9.15E-06,  avg # of iterations =  5.2

     total cpu time spent up to now is      869.3 secs

     total energy              =   -1900.47968990 Ry
     Harris-Foulkes estimate   =   -1900.48218207 Ry
     estimated scf accuracy    <       0.00650586 Ry

     iteration #  7     ecut=   100.00 Ry     beta=0.50
     Davidson diagonalization with overlap
     ethr =  1.85E-06,  avg # of iterations = 10.8

     total cpu time spent up to now is     1007.8 secs

     total energy              =   -1900.48102235 Ry
     Harris-Foulkes estimate   =   -1900.48130279 Ry
     estimated scf accuracy    <       0.00078019 Ry

     iteration #  8     ecut=   100.00 Ry     beta=0.50
     Davidson diagonalization with overlap
     ethr =  2.22E-07,  avg # of iterations =  3.2

     total cpu time spent up to now is     1144.4 secs

     total energy              =   -1900.48128088 Ry
     Harris-Foulkes estimate   =   -1900.48133879 Ry
     estimated scf accuracy    <       0.00017506 Ry

     iteration #  9     ecut=   100.00 Ry     beta=0.50
     Davidson diagonalization with overlap
     ethr =  4.97E-08,  avg # of iterations =  2.1

     total cpu time spent up to now is     1241.9 secs

     total energy              =   -1900.48129677 Ry
     Harris-Foulkes estimate   =   -1900.48131816 Ry
     estimated scf accuracy    <       0.00005468 Ry

     iteration # 10     ecut=   100.00 Ry     beta=0.50
     Davidson diagonalization with overlap
     ethr =  1.55E-08,  avg # of iterations =  3.0

     total cpu time spent up to now is     1364.9 secs

     total energy              =   -1900.48131336 Ry
     Harris-Foulkes estimate   =   -1900.48131749 Ry
     estimated scf accuracy    <       0.00001405 Ry

     iteration # 11     ecut=   100.00 Ry     beta=0.50
     Davidson diagonalization with overlap
     ethr =  3.99E-09,  avg # of iterations =  2.1

     total cpu time spent up to now is     1460.2 secs

     total energy              =   -1900.48131507 Ry
     Harris-Foulkes estimate   =   -1900.48131603 Ry
     estimated scf accuracy    <       0.00000249 Ry

     iteration # 12     ecut=   100.00 Ry     beta=0.50
     Davidson diagonalization with overlap
     ethr =  7.07E-10,  avg # of iterations =  3.1

     total cpu time spent up to now is     1580.4 secs

     total energy              =   -1900.48131561 Ry
     Harris-Foulkes estimate   =   -1900.48131571 Ry
     estimated scf accuracy    <       0.00000031 Ry

     iteration # 13     ecut=   100.00 Ry     beta=0.50
     Davidson diagonalization with overlap
     ethr =  8.81E-11,  avg # of iterations =  4.0

     total cpu time spent up to now is     1701.6 secs

     total energy              =   -1900.48131568 Ry
     Harris-Foulkes estimate   =   -1900.48131570 Ry
     estimated scf accuracy    <       0.00000007 Ry

     iteration # 14     ecut=   100.00 Ry     beta=0.50
     Davidson diagonalization with overlap
     ethr =  1.88E-11,  avg # of iterations =  3.8

     total cpu time spent up to now is     1825.4 secs

     total energy              =   -1900.48131570 Ry
     Harris-Foulkes estimate   =   -1900.48131570 Ry
     estimated scf accuracy    <       0.00000001 Ry

     iteration # 15     ecut=   100.00 Ry     beta=0.50
     Davidson diagonalization with overlap
     ethr =  3.77E-12,  avg # of iterations =  2.9

     total cpu time spent up to now is     1921.9 secs

     End of self-consistent calculation

          k = 0.0000 0.0000 0.0000 (110319 PWs)   bands (ev):

   -24.8111 -24.8106 -24.7926 -24.7925 -24.2608 -24.2575 -24.2571 -24.2538
   -22.4706 -22.4684 -22.4679 -22.4644 -20.2232 -20.2223 -20.1956 -20.1946
   -19.5398 -19.5374 -19.5261 -19.5234 -18.5578 -18.5574 -18.5532 -18.5407
   -17.5924 -17.5703 -17.5650 -17.5562 -17.3755 -17.3702 -17.3607 -17.3532
   -15.5827 -15.5806 -15.5660 -15.5611 -12.5077 -12.4722 -12.4472 -12.4445
   -12.1892 -12.1803 -12.1759 -12.1425 -11.7745 -11.7625 -11.7575 -11.7443
   -11.0265 -10.9786 -10.9551 -10.9480  -9.3284  -9.3096  -9.2821  -9.2616
    -8.8827  -8.8326  -8.7628  -8.7545  -7.9309  -7.8913  -7.8823  -7.7261
    -7.6142  -7.5787  -7.5160  -7.5018  -7.4188  -7.2705  -7.2684  -7.0890
    -7.0745  -7.0549  -6.9875  -6.9776  -6.8642  -6.8081  -6.7916  -6.7692
    -6.3825  -6.3285  -6.3209  -6.3057  -6.2907  -6.1633  -6.1614  -6.1339
    -6.0422  -6.0159  -5.9757  -5.9547  -5.8697  -5.8648  -5.7334  -5.7312
    -5.3424  -5.2712  -5.2106  -5.1824  -4.9472  -4.8082  -4.7876  -4.7253
    -4.1110  -3.9533  -3.8985  -3.8904  -3.8745  -3.7398  -3.7198  -3.6790
    -3.6162  -3.5696  -3.4995  -3.4967  -3.4730  -3.3646  -3.3435  -3.3405
    -3.0183  -3.0027  -2.9970  -2.9431  -2.9042  -2.9024  -2.7126  -2.7053
    -1.6569  -1.6543  -1.5939  -1.5628  -1.5576  -1.4665  -1.4361  -1.3395
    -1.3355  -1.3132  -1.3079  -1.2839  -1.2467  -1.0880  -1.0823  -1.0273
    -0.9757  -0.9549  -0.8653  -0.8249  -0.8142  -0.7970  -0.7936  -0.7662
    -0.7595  -0.7103  -0.6452  -0.6295  -0.6249  -0.6086  -0.5415  -0.5314
    -0.2728  -0.2496  -0.2438  -0.1766  -0.0223  -0.0074  -0.0031   0.0038
     0.1129   0.1387   0.1434   0.1821   0.3026   0.3249   0.3350   0.4112
     3.9108   3.9221   4.0910   4.1004   4.4145   4.4469   4.4692   4.5013
     4.6660   4.6921   4.7997   4.8431   5.4573   5.5813   5.6793   5.7217
     6.9807   7.4850   7.5621   7.6736   7.7876   7.9654   8.1324   8.1782
     8.1817   8.2639   8.3334   8.4791   8.5041   8.5213   8.5633   8.8160
     8.8740   8.8741   8.9743

          k = 0.0000 0.0000-0.5022 (110382 PWs)   bands (ev):

   -24.8108 -24.8108 -24.7926 -24.7926 -24.2592 -24.2592 -24.2555 -24.2555
   -22.4683 -22.4683 -22.4673 -22.4673 -20.2229 -20.2229 -20.1949 -20.1949
   -19.5386 -19.5386 -19.5247 -19.5247 -18.5592 -18.5592 -18.5454 -18.5454
   -17.5800 -17.5800 -17.5604 -17.5604 -17.3707 -17.3707 -17.3600 -17.3600
   -15.5760 -15.5760 -15.5708 -15.5708 -12.4775 -12.4775 -12.4576 -12.4576
   -12.1957 -12.1957 -12.1707 -12.1707 -11.7431 -11.7431 -11.7273 -11.7273
   -11.0163 -11.0163 -10.9532 -10.9532  -9.3533  -9.3533  -9.3312  -9.3312
    -8.8053  -8.8053  -8.7768  -8.7768  -7.8245  -7.8245  -7.7815  -7.7815
    -7.5594  -7.5594  -7.5446  -7.5446  -7.3297  -7.3297  -7.2091  -7.2091
    -7.0797  -7.0797  -6.9711  -6.9711  -6.8287  -6.8287  -6.7841  -6.7841
    -6.3653  -6.3653  -6.2896  -6.2896  -6.2596  -6.2596  -6.1467  -6.1467
    -6.0684  -6.0684  -5.9565  -5.9565  -5.8967  -5.8967  -5.7029  -5.7029
    -5.3420  -5.3420  -5.2065  -5.2065  -4.8849  -4.8849  -4.7500  -4.7500
    -4.0135  -4.0135  -3.9326  -3.9326  -3.7021  -3.7021  -3.6321  -3.6321
    -3.6058  -3.6058  -3.5940  -3.5940  -3.4005  -3.4005  -3.3049  -3.3049
    -3.0475  -3.0475  -3.0168  -3.0168  -2.8502  -2.8502  -2.7464  -2.7464
    -1.6635  -1.6635  -1.5980  -1.5980  -1.4861  -1.4861  -1.3677  -1.3677
    -1.2909  -1.2909  -1.2713  -1.2713  -1.2000  -1.2000  -1.0851  -1.0851
    -0.9809  -0.9809  -0.8500  -0.8500  -0.8137  -0.8137  -0.7870  -0.7870
    -0.7089  -0.7089  -0.6402  -0.6402  -0.6016  -0.6016  -0.5256  -0.5256
    -0.2631  -0.2631  -0.1883  -0.1883  -0.0496  -0.0496   0.0074   0.0074
     0.1262   0.1262   0.1781   0.1781   0.2985   0.2985   0.3753   0.3753
     3.9328   3.9328   4.0706   4.0706   4.4420   4.4420   4.4845   4.4845
     4.7199   4.7199   4.7712   4.7712   5.6026   5.6026   5.6165   5.6165
     7.1591   7.1591   7.6429   7.6429   7.8734   7.8734   8.0387   8.0387
     8.1952   8.1952   8.3260   8.3260   8.6323   8.6323   8.7190   8.7190
     8.9146   8.9154   8.9591

          k = 0.0000-0.4072 0.0000 (110368 PWs)   bands (ev):

   -24.8108 -24.8108 -24.7926 -24.7926 -24.2599 -24.2599 -24.2548 -24.2548
   -22.4700 -22.4700 -22.4656 -22.4656 -20.2227 -20.2227 -20.1951 -20.1951
   -19.5386 -19.5386 -19.5248 -19.5248 -18.5583 -18.5583 -18.5462 -18.5462
   -17.5817 -17.5817 -17.5604 -17.5604 -17.3736 -17.3736 -17.3562 -17.3562
   -15.5819 -15.5819 -15.5631 -15.5631 -12.4878 -12.4878 -12.4471 -12.4471
   -12.1860 -12.1860 -12.1599 -12.1599 -11.7729 -11.7729 -11.7460 -11.7460
   -11.0061 -11.0061 -10.9478 -10.9478  -9.3164  -9.3164  -9.2768  -9.2768
    -8.8536  -8.8536  -8.7584  -8.7584  -7.9357  -7.9357  -7.7742  -7.7742
    -7.5766  -7.5766  -7.5316  -7.5316  -7.3646  -7.3646  -7.1806  -7.1806
    -7.0394  -7.0394  -6.9963  -6.9963  -6.8561  -6.8561  -6.7648  -6.7648
    -6.3969  -6.3969  -6.3295  -6.3295  -6.1890  -6.1890  -6.0815  -6.0815
    -6.0339  -6.0339  -5.9629  -5.9629  -5.8948  -5.8948  -5.7279  -5.7279
    -5.3324  -5.3324  -5.1947  -5.1947  -4.8914  -4.8914  -4.7283  -4.7283
    -4.0482  -4.0482  -3.8826  -3.8826  -3.7993  -3.7993  -3.6939  -3.6939
    -3.6076  -3.6076  -3.5147  -3.5147  -3.4016  -3.4016  -3.3390  -3.3390
    -3.0108  -3.0108  -2.9682  -2.9682  -2.9011  -2.9011  -2.7093  -2.7093
    -1.6286  -1.6286  -1.5793  -1.5793  -1.5616  -1.5616  -1.3903  -1.3903
    -1.2968  -1.2968  -1.2805  -1.2805  -1.2076  -1.2076  -1.0695  -1.0695
    -0.9486  -0.9486  -0.8527  -0.8527  -0.8104  -0.8104  -0.7816  -0.7816
    -0.7021  -0.7021  -0.6403  -0.6403  -0.6201  -0.6201  -0.5367  -0.5367
    -0.2548  -0.2548  -0.2082  -0.2082  -0.0257  -0.0257   0.0235   0.0235
     0.1039   0.1039   0.1546   0.1546   0.3214   0.3214   0.3834   0.3834
     3.9142   3.9142   4.0925   4.0925   4.4267   4.4267   4.4930   4.4930
     4.6676   4.6676   4.8318   4.8318   5.5238   5.5238   5.6881   5.6881
     7.1744   7.1744   7.7443   7.7443   7.9297   7.9297   8.1100   8.1100
     8.2453   8.2453   8.3541   8.3541   8.4084   8.4084   8.6157   8.6157
     8.9648   8.9648   9.1078

          k = 0.0000-0.4072-0.5022 (110404 PWs)   bands (ev):

   -24.8108 -24.8108 -24.7926 -24.7926 -24.2592 -24.2592 -24.2554 -24.2554
   -22.4682 -22.4682 -22.4674 -22.4674 -20.2229 -20.2229 -20.1949 -20.1949
   -19.5385 -19.5385 -19.5249 -19.5249 -18.5570 -18.5570 -18.5478 -18.5478
   -17.5761 -17.5761 -17.5645 -17.5645 -17.3709 -17.3709 -17.3598 -17.3598
   -15.5753 -15.5753 -15.5714 -15.5714 -12.4757 -12.4757 -12.4567 -12.4567
   -12.1862 -12.1862 -12.1841 -12.1841 -11.7414 -11.7414 -11.7285 -11.7285
   -11.0150 -11.0150 -10.9544 -10.9544  -9.3486  -9.3486  -9.3365  -9.3365
    -8.7999  -8.7999  -8.7780  -8.7780  -7.8520  -7.8520  -7.7432  -7.7432
    -7.5721  -7.5721  -7.5351  -7.5351  -7.3155  -7.3155  -7.2490  -7.2490
    -7.0422  -7.0422  -7.0069  -7.0069  -6.8435  -6.8435  -6.7634  -6.7634
    -6.3873  -6.3873  -6.2781  -6.2781  -6.2182  -6.2182  -6.1970  -6.1970
    -6.0060  -6.0060  -6.0026  -6.0026  -5.8700  -5.8700  -5.7089  -5.7089
    -5.3628  -5.3628  -5.2043  -5.2043  -4.8657  -4.8657  -4.7618  -4.7618
    -4.0094  -4.0094  -3.9294  -3.9294  -3.6931  -3.6931  -3.6496  -3.6496
    -3.6230  -3.6230  -3.5760  -3.5760  -3.3970  -3.3970  -3.3048  -3.3048
    -3.0416  -3.0416  -3.0190  -3.0190  -2.8566  -2.8566  -2.7411  -2.7411
    -1.6493  -1.6493  -1.6131  -1.6131  -1.4886  -1.4886  -1.3793  -1.3793
    -1.2856  -1.2856  -1.2462  -1.2462  -1.2434  -1.2434  -1.0837  -1.0837
    -0.9790  -0.9790  -0.8614  -0.8614  -0.7895  -0.7895  -0.7846  -0.7846
    -0.6945  -0.6945  -0.6552  -0.6552  -0.5898  -0.5898  -0.5380  -0.5380
    -0.2561  -0.2561  -0.1973  -0.1973  -0.0268  -0.0268   0.0091   0.0091
     0.1208   0.1208   0.1487   0.1487   0.3191   0.3191   0.3750   0.3750
     3.9315   3.9315   4.0673   4.0673   4.4509   4.4509   4.4745   4.4745
     4.7156   4.7156   4.7766   4.7766   5.6030   5.6030   5.6138   5.6138
     7.2894   7.2894   7.5104   7.5104   7.8449   7.8449   8.0750   8.0750
     8.2209   8.2209   8.2855   8.2855   8.6185   8.6185   8.6911   8.6911
     8.9550   8.9551   9.0360

          k =-0.5000 0.0000-0.1448 (110442 PWs)   bands (ev):

   -24.8092 -24.8092 -24.7944 -24.7940 -24.2607 -24.2575 -24.2572 -24.2538
   -22.4705 -22.4683 -22.4680 -22.4645 -20.2225 -20.2213 -20.1964 -20.1954
   -19.5399 -19.5372 -19.5256 -19.5239 -18.5616 -18.5575 -18.5528 -18.5378
   -17.5848 -17.5712 -17.5643 -17.5616 -17.3760 -17.3716 -17.3590 -17.3536
   -15.5847 -15.5839 -15.5649 -15.5600 -12.5041 -12.4765 -12.4551 -12.4402
   -12.2000 -12.1869 -12.1857 -12.1527 -11.7547 -11.7324 -11.7302 -11.7238
   -10.9934 -10.9927 -10.9923 -10.9571  -9.3774  -9.3365  -9.3331  -9.3224
    -8.8298  -8.7904  -8.7860  -8.7828  -7.9177  -7.8479  -7.7566  -7.6767
    -7.5791  -7.5728  -7.5412  -7.4921  -7.3998  -7.3168  -7.2369  -7.1338
    -7.0542  -7.0436  -7.0015  -6.9478  -6.8578  -6.8276  -6.8246  -6.7656
    -6.3768  -6.3350  -6.3341  -6.2752  -6.2182  -6.1681  -6.1664  -6.1494
    -6.0576  -6.0282  -6.0069  -5.9743  -5.9350  -5.9055  -5.7900  -5.7519
    -5.3396  -5.2689  -5.1872  -5.1860  -4.9207  -4.8149  -4.7925  -4.7591
    -4.1365  -4.0010  -3.9371  -3.8527  -3.8106  -3.6776  -3.6712  -3.6405
    -3.6264  -3.5767  -3.5483  -3.4452  -3.3834  -3.3130  -3.2842  -3.2546
    -3.1443  -3.1275  -3.0825  -3.0274  -2.8838  -2.8684  -2.7225  -2.6427
    -1.6959  -1.6517  -1.6223  -1.6028  -1.5830  -1.4696  -1.4216  -1.3582
    -1.3544  -1.3409  -1.3238  -1.1996  -1.1932  -1.0310  -1.0213  -1.0118
    -0.9354  -0.9114  -0.9086  -0.9063  -0.8151  -0.8103  -0.7776  -0.7662
    -0.7338  -0.7114  -0.6456  -0.6371  -0.6198  -0.5846  -0.5822  -0.5642
    -0.2292  -0.2203  -0.2124  -0.1910  -0.1363  -0.0396  -0.0349   0.0770
     0.1342   0.1420   0.1519   0.1700   0.3044   0.3323   0.3502   0.3682
     3.9228   3.9406   4.0639   4.0993   4.4082   4.4267   4.4444   4.4793
     4.6866   4.7068   4.8022   4.8555   5.4644   5.5562   5.6545   5.7561
     7.2540   7.4812   7.5969   7.6127   7.7114   8.0130   8.0187   8.1396
     8.2299   8.2404   8.4206   8.4530   8.4584   8.4947   8.6467   8.7358
     8.8693   8.9036   8.9577

          k =-0.5000 0.0000-0.6470 (110386 PWs)   bands (ev):

   -24.8092 -24.8092 -24.7942 -24.7942 -24.2591 -24.2591 -24.2555 -24.2555
   -22.4684 -22.4684 -22.4672 -22.4672 -20.2217 -20.2217 -20.1960 -20.1960
   -19.5386 -19.5386 -19.5248 -19.5248 -18.5596 -18.5596 -18.5447 -18.5447
   -17.5749 -17.5749 -17.5673 -17.5673 -17.3712 -17.3712 -17.3589 -17.3589
   -15.5733 -15.5733 -15.5719 -15.5719 -12.4764 -12.4764 -12.4573 -12.4573
   -12.1860 -12.1860 -12.1604 -12.1604 -11.7683 -11.7683 -11.7528 -11.7528
   -10.9948 -10.9948 -10.9567 -10.9567  -9.3052  -9.3052  -9.2855  -9.2855
    -8.8502  -8.8502  -8.7717  -8.7717  -7.9485  -7.9485  -7.7660  -7.7660
    -7.6136  -7.6136  -7.4937  -7.4937  -7.2891  -7.2891  -7.2356  -7.2356
    -7.0488  -7.0488  -6.9680  -6.9680  -6.8410  -6.8410  -6.8024  -6.8024
    -6.3811  -6.3811  -6.3175  -6.3175  -6.2139  -6.2139  -6.1528  -6.1528
    -6.0170  -6.0170  -5.9592  -5.9592  -5.8563  -5.8563  -5.7083  -5.7083
    -5.3443  -5.3443  -5.1955  -5.1955  -4.8799  -4.8799  -4.7642  -4.7642
    -3.9724  -3.9724  -3.8987  -3.8987  -3.7344  -3.7344  -3.6668  -3.6668
    -3.6459  -3.6459  -3.5715  -3.5715  -3.4234  -3.4234  -3.4169  -3.4169
    -3.0140  -3.0140  -2.9843  -2.9843  -2.8219  -2.8219  -2.7245  -2.7245
    -1.6667  -1.6667  -1.6018  -1.6018  -1.5049  -1.5049  -1.3461  -1.3461
    -1.3231  -1.3231  -1.2522  -1.2522  -1.2148  -1.2148  -1.0359  -1.0359
    -0.9472  -0.9472  -0.8929  -0.8929  -0.8262  -0.8262  -0.7522  -0.7522
    -0.6809  -0.6809  -0.6323  -0.6323  -0.6310  -0.6310  -0.5524  -0.5524
    -0.2315  -0.2315  -0.2009  -0.2009  -0.0628  -0.0628  -0.0418  -0.0418
     0.1558   0.1558   0.1674   0.1674   0.3246   0.3246   0.3625   0.3625
     3.9029   3.9029   4.0976   4.0976   4.4407   4.4407   4.4628   4.4628
     4.7325   4.7325   4.7887   4.7887   5.5801   5.5801   5.6293   5.6293
     7.3501   7.3501   7.6278   7.6278   7.7737   7.7737   7.9712   7.9712
     8.2658   8.2658   8.3271   8.3271   8.6820   8.6820   8.7237   8.7237
     8.8114   8.8114   8.9157

          k =-0.5000-0.4072-0.1448 (110348 PWs)   bands (ev):

   -24.8092 -24.8092 -24.7942 -24.7942 -24.2598 -24.2598 -24.2548 -24.2548
   -22.4699 -22.4699 -22.4657 -22.4657 -20.2219 -20.2219 -20.1959 -20.1959
   -19.5386 -19.5386 -19.5247 -19.5247 -18.5602 -18.5602 -18.5446 -18.5446
   -17.5799 -17.5799 -17.5610 -17.5610 -17.3744 -17.3744 -17.3557 -17.3557
   -15.5841 -15.5841 -15.5625 -15.5625 -12.4891 -12.4891 -12.4458 -12.4458
   -12.2010 -12.2010 -12.1662 -12.1662 -11.7452 -11.7452 -11.7246 -11.7246
   -10.9962 -10.9962 -10.9712 -10.9712  -9.3664  -9.3664  -9.3183  -9.3183
    -8.8109  -8.8109  -8.7825  -8.7825  -7.8621  -7.8621  -7.7423  -7.7423
    -7.5650  -7.5650  -7.5246  -7.5246  -7.3788  -7.3788  -7.1379  -7.1379
    -7.0450  -7.0450  -7.0218  -7.0218  -6.8342  -6.8342  -6.7858  -6.7858
    -6.3628  -6.3628  -6.3384  -6.3384  -6.1677  -6.1677  -6.1258  -6.1258
    -6.0685  -6.0685  -5.9987  -5.9987  -5.9134  -5.9134  -5.7545  -5.7545
    -5.3347  -5.3347  -5.1747  -5.1747  -4.8820  -4.8820  -4.7400  -4.7400
    -4.0859  -4.0859  -3.9056  -3.9056  -3.7332  -3.7332  -3.6425  -3.6425
    -3.5989  -3.5989  -3.5057  -3.5057  -3.3542  -3.3542  -3.2636  -3.2636
    -3.1439  -3.1439  -3.0369  -3.0369  -2.8943  -2.8943  -2.6707  -2.6707
    -1.6562  -1.6562  -1.6184  -1.6184  -1.5835  -1.5835  -1.3629  -1.3629
    -1.3157  -1.3157  -1.2656  -1.2656  -1.1475  -1.1475  -1.0259  -1.0259
    -0.9134  -0.9134  -0.9006  -0.9006  -0.8317  -0.8317  -0.7539  -0.7539
    -0.7295  -0.7295  -0.6305  -0.6305  -0.6033  -0.6033  -0.5610  -0.5610
    -0.2255  -0.2255  -0.2181  -0.2181  -0.0846  -0.0846   0.0422   0.0422
     0.1306   0.1306   0.1529   0.1529   0.3374   0.3374   0.3512   0.3512
     3.9303   3.9303   4.0781   4.0781   4.4201   4.4201   4.4574   4.4574
     4.6855   4.6855   4.8408   4.8408   5.5201   5.5201   5.6939   5.6939
     7.3694   7.3694   7.7014   7.7014   7.8986   7.8986   7.9604   7.9604
     8.2765   8.2765   8.3494   8.3494   8.5400   8.5400   8.6270   8.6270
     8.8904   8.8905   8.9180

          k =-0.5000-0.4072-0.6470 (110408 PWs)   bands (ev):

   -24.8092 -24.8092 -24.7942 -24.7942 -24.2592 -24.2592 -24.2555 -24.2555
   -22.4683 -22.4683 -22.4673 -22.4673 -20.2217 -20.2217 -20.1960 -20.1960
   -19.5385 -19.5385 -19.5248 -19.5248 -18.5589 -18.5589 -18.5454 -18.5454
   -17.5753 -17.5753 -17.5669 -17.5669 -17.3710 -17.3710 -17.3591 -17.3591
   -15.5730 -15.5730 -15.5720 -15.5720 -12.4671 -12.4671 -12.4649 -12.4649
   -12.1780 -12.1780 -12.1715 -12.1715 -11.7711 -11.7711 -11.7494 -11.7494
   -10.9914 -10.9914 -10.9597 -10.9597  -9.2968  -9.2968  -9.2954  -9.2954
    -8.8445  -8.8445  -8.7771  -8.7771  -7.9009  -7.9009  -7.8092  -7.8092
    -7.5749  -7.5749  -7.5478  -7.5478  -7.3038  -7.3038  -7.1862  -7.1862
    -7.0414  -7.0414  -7.0165  -7.0165  -6.8350  -6.8350  -6.7975  -6.7975
    -6.3935  -6.3935  -6.3634  -6.3634  -6.1188  -6.1188  -6.0888  -6.0888
    -6.0672  -6.0672  -6.0089  -6.0089  -5.8503  -5.8503  -5.7015  -5.7015
    -5.3580  -5.3580  -5.2000  -5.2000  -4.8694  -4.8694  -4.7581  -4.7581
    -3.9645  -3.9645  -3.9114  -3.9114  -3.7077  -3.7077  -3.6975  -3.6975
    -3.6177  -3.6177  -3.5946  -3.5946  -3.4224  -3.4224  -3.4156  -3.4156
    -3.0378  -3.0378  -2.9609  -2.9609  -2.8165  -2.8165  -2.7279  -2.7279
    -1.6392  -1.6392  -1.6333  -1.6333  -1.4423  -1.4423  -1.4397  -1.4397
    -1.3294  -1.3294  -1.2453  -1.2453  -1.1923  -1.1923  -1.0456  -1.0456
    -0.9526  -0.9526  -0.8992  -0.8992  -0.7819  -0.7819  -0.7626  -0.7626
    -0.6765  -0.6765  -0.6506  -0.6506  -0.6232  -0.6232  -0.5624  -0.5624
    -0.2285  -0.2285  -0.1965  -0.1965  -0.0771  -0.0771  -0.0152  -0.0152
     0.1451   0.1451   0.1641   0.1641   0.3450   0.3450   0.3503   0.3503
     3.9019   3.9019   4.0953   4.0953   4.4399   4.4399   4.4604   4.4604
     4.7300   4.7300   4.7931   4.7931   5.6030   5.6030   5.6040   5.6040
     7.4072   7.4072   7.6146   7.6146   7.8790   7.8790   7.9151   7.9151
     8.2213   8.2213   8.3869   8.3869   8.4921   8.4921   8.6860   8.6860
     8.7894   8.7894   8.7950

     highest occupied, lowest unoccupied level (ev):     0.4112    3.9019

!    total energy              =   -1900.48131570 Ry
     Harris-Foulkes estimate   =   -1900.48131570 Ry
     estimated scf accuracy    <          2.6E-09 Ry

     total all-electron energy =     -7167.818714 Ry

     The total energy is the sum of the following terms:

     one-electron contribution =   -1126.82731321 Ry
     hartree contribution      =     699.85412883 Ry
     xc contribution           =    -380.14423909 Ry
     ewald contribution        =    -569.25269809 Ry
     Dispersion Correction     =      -0.42076516 Ry
     one-center paw contrib.   =    -523.69042898 Ry

     convergence has been achieved in  15 iterations

     Forces acting on atoms (cartesian axes, Ry/au):

     atom    1 type  4   force =     0.00048398   -0.00112174   -0.00011323
     atom    2 type  4   force =    -0.00048398   -0.00112174    0.00011323
     atom    3 type  4   force =    -0.00048398    0.00112174    0.00011323
     atom    4 type  4   force =     0.00048398    0.00112174   -0.00011323
     atom    5 type  2   force =     0.00084246   -0.00081287   -0.00068331
     atom    6 type  2   force =    -0.00084246   -0.00081287    0.00068331
     atom    7 type  2   force =    -0.00084246    0.00081287    0.00068331
     atom    8 type  2   force =     0.00084246    0.00081287   -0.00068331
     atom    9 type  1   force =    -0.00013399    0.00008381   -0.00039399
     atom   10 type  1   force =     0.00013399    0.00008381    0.00039399
     atom   11 type  1   force =     0.00013399   -0.00008381    0.00039399
     atom   12 type  1   force =    -0.00013399   -0.00008381   -0.00039399
     atom   13 type  4   force =     0.00022984    0.00067035    0.00034376
     atom   14 type  4   force =    -0.00022984    0.00067035   -0.00034376
     atom   15 type  4   force =    -0.00022984   -0.00067035   -0.00034376
     atom   16 type  4   force =     0.00022984   -0.00067035    0.00034376
     atom   17 type  4   force =    -0.00024032    0.00078611   -0.00047072
     atom   18 type  4   force =     0.00024032    0.00078611    0.00047072
     atom   19 type  4   force =     0.00024032   -0.00078611    0.00047072
     atom   20 type  4   force =    -0.00024032   -0.00078611   -0.00047072
     atom   21 type  2   force =     0.00008386   -0.00025864    0.00013401
     atom   22 type  2   force =    -0.00008386   -0.00025864   -0.00013401
     atom   23 type  2   force =    -0.00008386    0.00025864   -0.00013401
     atom   24 type  2   force =     0.00008386    0.00025864    0.00013401
     atom   25 type  2   force =    -0.00022152    0.00092795   -0.00015574
     atom   26 type  2   force =     0.00022152    0.00092795    0.00015574
     atom   27 type  2   force =     0.00022152   -0.00092795    0.00015574
     atom   28 type  2   force =    -0.00022152   -0.00092795   -0.00015574
     atom   29 type  2   force =     0.00054081   -0.00013483   -0.00024518
     atom   30 type  2   force =    -0.00054081   -0.00013483    0.00024518
     atom   31 type  2   force =    -0.00054081    0.00013483    0.00024518
     atom   32 type  2   force =     0.00054081    0.00013483   -0.00024518
     atom   33 type  2   force =    -0.00054888    0.00033041   -0.00044086
     atom   34 type  2   force =     0.00054888    0.00033041    0.00044086
     atom   35 type  2   force =     0.00054888   -0.00033041    0.00044086
     atom   36 type  2   force =    -0.00054888   -0.00033041   -0.00044086
     atom   37 type  1   force =     0.00007114    0.00012241    0.00070338
     atom   38 type  1   force =    -0.00007114    0.00012241   -0.00070338
     atom   39 type  1   force =    -0.00007114   -0.00012241   -0.00070338
     atom   40 type  1   force =     0.00007114   -0.00012241    0.00070338
     atom   41 type  4   force =    -0.00095678   -0.00015912   -0.00077533
     atom   42 type  4   force =     0.00095678   -0.00015912    0.00077533
     atom   43 type  4   force =     0.00095678    0.00015912    0.00077533
     atom   44 type  4   force =    -0.00095678    0.00015912   -0.00077533
     atom   45 type  2   force =     0.00050694   -0.00016493    0.00033307
     atom   46 type  2   force =    -0.00050694   -0.00016493   -0.00033307
     atom   47 type  2   force =    -0.00050694    0.00016493   -0.00033307
     atom   48 type  2   force =     0.00050694    0.00016493    0.00033307
     atom   49 type  2   force =    -0.00056627   -0.00017138    0.00033647
     atom   50 type  2   force =     0.00056627   -0.00017138   -0.00033647
     atom   51 type  2   force =     0.00056627    0.00017138   -0.00033647
     atom   52 type  2   force =    -0.00056627    0.00017138    0.00033647
     atom   53 type  2   force =    -0.00001716   -0.00074758    0.00001391
     atom   54 type  2   force =     0.00001716   -0.00074758   -0.00001391
     atom   55 type  2   force =     0.00001716    0.00074758   -0.00001391
     atom   56 type  2   force =    -0.00001716    0.00074758    0.00001391
     atom   57 type  1   force =    -0.00014254    0.00015335   -0.00022909
     atom   58 type  1   force =     0.00014254    0.00015335    0.00022909
     atom   59 type  1   force =     0.00014254   -0.00015335    0.00022909
     atom   60 type  1   force =    -0.00014254   -0.00015335   -0.00022909
     atom   61 type  1   force =     0.00043528   -0.00025198    0.00032923
     atom   62 type  1   force =    -0.00043528   -0.00025198   -0.00032923
     atom   63 type  1   force =    -0.00043528    0.00025198   -0.00032923
     atom   64 type  1   force =     0.00043528    0.00025198    0.00032923
     atom   65 type  3   force =     0.00040756    0.00053676    0.00038248
     atom   66 type  3   force =    -0.00040756    0.00053676   -0.00038248
     atom   67 type  3   force =    -0.00040756   -0.00053676   -0.00038248
     atom   68 type  3   force =     0.00040756   -0.00053676    0.00038248
     atom   69 type  3   force =    -0.00036531    0.00078122   -0.00044315
     atom   70 type  3   force =     0.00036531    0.00078122    0.00044315
     atom   71 type  3   force =     0.00036531   -0.00078122    0.00044315
     atom   72 type  3   force =    -0.00036531   -0.00078122   -0.00044315
     atom   73 type  3   force =    -0.00036725    0.00016762   -0.00007872
     atom   74 type  3   force =     0.00036725    0.00016762    0.00007872
     atom   75 type  3   force =     0.00036725   -0.00016762    0.00007872
     atom   76 type  3   force =    -0.00036725   -0.00016762   -0.00007872
     atom   77 type  3   force =    -0.00044448    0.00020751   -0.00014114
     atom   78 type  3   force =     0.00044448    0.00020751    0.00014114
     atom   79 type  3   force =     0.00044448   -0.00020751    0.00014114
     atom   80 type  3   force =    -0.00044448   -0.00020751   -0.00014114
     atom   81 type  3   force =     0.00065966   -0.00017791    0.00017030
     atom   82 type  3   force =    -0.00065966   -0.00017791   -0.00017030
     atom   83 type  3   force =    -0.00065966    0.00017791   -0.00017030
     atom   84 type  3   force =     0.00065966    0.00017791    0.00017030
     atom   85 type  3   force =     0.00017131   -0.00074828    0.00064563
     atom   86 type  3   force =    -0.00017131   -0.00074828   -0.00064563
     atom   87 type  3   force =    -0.00017131    0.00074828   -0.00064563
     atom   88 type  3   force =     0.00017131    0.00074828    0.00064563
     atom   89 type  3   force =    -0.00082403   -0.00019711   -0.00003832
     atom   90 type  3   force =     0.00082403   -0.00019711    0.00003832
     atom   91 type  3   force =     0.00082403    0.00019711    0.00003832
     atom   92 type  3   force =    -0.00082403    0.00019711   -0.00003832
     atom   93 type  3   force =     0.00078878   -0.00056110    0.00046963
     atom   94 type  3   force =    -0.00078878   -0.00056110   -0.00046963
     atom   95 type  3   force =    -0.00078878    0.00056110   -0.00046963
     atom   96 type  3   force =     0.00078878    0.00056110    0.00046963

     Total force =     0.008081     Total SCF correction =     0.000091


     Computing stress (Cartesian axis) and pressure

          total   stress  (Ry/bohr**3)                   (kbar)     P=   -2.38
  -0.00001415   0.00000000   0.00000088         -2.08      0.00      0.13
   0.00000000  -0.00002523   0.00000000          0.00     -3.71      0.00
   0.00000088   0.00000000  -0.00000921          0.13      0.00     -1.36


     Writing output data file scf.save
 
     init_run     :     54.95s CPU     57.13s WALL (       1 calls)
     electrons    :   1790.52s CPU   1860.53s WALL (       1 calls)
     forces       :     28.23s CPU     28.44s WALL (       1 calls)
     stress       :    123.71s CPU    124.14s WALL (       1 calls)

     Called by init_run:
     wfcinit      :     44.48s CPU     46.49s WALL (       1 calls)
     potinit      :      3.71s CPU      3.77s WALL (       1 calls)

     Called by electrons:
     c_bands      :   1610.75s CPU   1670.33s WALL (      15 calls)
     sum_band     :    166.69s CPU    175.83s WALL (      15 calls)
     v_of_rho     :      2.05s CPU      2.27s WALL (      16 calls)
     newd         :      4.81s CPU      5.80s WALL (      16 calls)
     PAW_pot      :      5.84s CPU      5.85s WALL (      16 calls)
     mix_rho      :      0.41s CPU      0.44s WALL (      15 calls)

     Called by c_bands:
     init_us_2    :      8.02s CPU      8.05s WALL (     264 calls)
     cegterg      :   1578.68s CPU   1638.21s WALL (     120 calls)

     Called by sum_band:
     sum_band:bec :      0.11s CPU      0.11s WALL (     120 calls)
     addusdens    :      4.75s CPU      5.67s WALL (      15 calls)

     Called by *egterg:
     h_psi        :    847.61s CPU    894.98s WALL (     688 calls)
     s_psi        :    198.79s CPU    198.85s WALL (     688 calls)
     g_psi        :      3.69s CPU      3.69s WALL (     560 calls)
     cdiaghg      :    107.16s CPU    107.18s WALL (     680 calls)

     Called by h_psi:
     h_psi:pot    :    842.32s CPU    889.59s WALL (     688 calls)
     h_psi:calbec :    189.20s CPU    189.54s WALL (     688 calls)
     vloc_psi     :    454.38s CPU    501.28s WALL (     688 calls)
     add_vuspsi   :    198.73s CPU    198.77s WALL (     688 calls)

     General routines
     calbec       :    279.95s CPU    280.45s WALL (     848 calls)
     fft          :      1.25s CPU      1.63s WALL (     232 calls)
     fftw         :    491.56s CPU    545.34s WALL (  162106 calls)
 
     Parallel routines
     fft_scatter  :     97.94s CPU    147.64s WALL (  162338 calls)
 
     PWSCF        : 33m34.16s CPU    35m37.08s WALL

 
   This run was terminated on:   5:15: 2   4Nov2017            

=------------------------------------------------------------------------------=
   JOB DONE.
=------------------------------------------------------------------------------=
