
     Program PWSCF v.6.1 (svn rev. 13369) starts on  4Nov2017 at 18:47:11 

     This program is part of the open-source Quantum ESPRESSO suite
     for quantum simulation of materials; please cite
         "P. Giannozzi et al., J. Phys.:Condens. Matter 21 395502 (2009);
          URL http://www.quantum-espresso.org", 
     in publications or presentations arising from this work. More details at
     http://www.quantum-espresso.org/quote

     Parallel version (MPI), running on     8 processors
     R & G space division:  proc/nbgrp/npool/nimage =       8
     Waiting for input...
     Reading input from standard input

     Current dimensions of program PWSCF are:
     Max number of different atomic species (ntypx) = 10
     Max number of k-points (npk) =  40000
     Max angular momentum in pseudopotentials (lmaxx) =  3
               file C.pbe-n-kjpaw_psl.0.1.UPF: wavefunction(s)  2P renormalized
               file N.pbe-n-kjpaw_psl.0.1.UPF: wavefunction(s)  2P renormalized
               file H.pbe-kjpaw_psl.0.1.UPF: wavefunction(s)  1S renormalized
               file O.pbe-n-kjpaw_psl.0.1.UPF: wavefunction(s)  2P renormalized

     -------------------------------------
     Parameters for Dispersion Correction:
     -------------------------------------
       atom      VdW radius       C_6     

        C          2.744         60.710
        N          2.640         42.670
        H          1.892          4.857
        O          2.536         24.284

     Subspace diagonalization in iterative solution of the eigenvalue problem:
     a serial algorithm will be used

 
     Parallelization info
     --------------------
     sticks:   dense  smooth     PW     G-vecs:    dense   smooth      PW
     Min         754     754    198                68241    68241    9218
     Max         755     755    199                68243    68243    9221
     Sum        6033    6033   1585               545931   545931   73759
 


     bravais-lattice index     =            0
     lattice parameter (alat)  =      13.9883  a.u.
     unit-cell volume          =    4041.4964 (a.u.)^3
     number of atoms/cell      =           64
     number of atomic types    =            4
     number of electrons       =       204.00
     number of Kohn-Sham states=          122
     kinetic-energy cutoff     =     100.0000  Ry
     charge density cutoff     =     400.0000  Ry
     convergence threshold     =      1.0E-08
     mixing beta               =       0.5000
     number of iterations used =            8  plain     mixing
     Exchange-correlation      =  SLA  PW   PBX  PBC ( 1  4  3  4 0 0)

     celldm(1)=  13.988320  celldm(2)=   0.000000  celldm(3)=   0.000000
     celldm(4)=   0.000000  celldm(5)=   0.000000  celldm(6)=   0.000000

     crystal axes: (cart. coord. in units of alat)
               a(1) = (   1.000000   0.000000   0.000000 )  
               a(2) = (  -0.270143   0.969175   0.000000 )  
               a(3) = (  -0.012678  -0.499994   1.523503 )  

     reciprocal axes: (cart. coord. in units 2 pi/alat)
               b(1) = (  1.000000  0.278735  0.099799 )  
               b(2) = (  0.000000  1.031806  0.338625 )  
               b(3) = (  0.000000  0.000000  0.656382 )  


     PseudoPot. # 1 for  C read from file:
     /scratch/ahofstet/pseudo/C.pbe-n-kjpaw_psl.0.1.UPF
     MD5 check sum: 430fe95172b1e11ef3f8ed03bac87931
     Pseudo is Projector augmented-wave + core cor, Zval =  4.0
     Generated using "atomic" code by A. Dal Corso  v.5.0.99 svn rev. 10869
     Shape of augmentation charge: BESSEL
     Using radial grid of 1073 points,  4 beta functions with: 
                l(1) =   0
                l(2) =   0
                l(3) =   1
                l(4) =   1
     Q(r) pseudized with 0 coefficients 


     PseudoPot. # 2 for  N read from file:
     /scratch/ahofstet/pseudo/N.pbe-n-kjpaw_psl.0.1.UPF
     MD5 check sum: f73187c8b701007e77325f868c9291d7
     Pseudo is Projector augmented-wave + core cor, Zval =  5.0
     Generated using "atomic" code by A. Dal Corso  v.5.0.99 svn rev. 10869
     Shape of augmentation charge: PSQ
     Using radial grid of 1085 points,  4 beta functions with: 
                l(1) =   0
                l(2) =   0
                l(3) =   1
                l(4) =   1
     Q(r) pseudized with 0 coefficients 


     PseudoPot. # 3 for  H read from file:
     /scratch/ahofstet/pseudo/H.pbe-kjpaw_psl.0.1.UPF
     MD5 check sum: 94e484f906d9e9773b2f6e52662335b2
     Pseudo is Projector augmented-wave, Zval =  1.0
     Generated using "atomic" code by A. Dal Corso  v.5.0.99 svn rev. 10869
     Shape of augmentation charge: PSQ
     Using radial grid of  929 points,  2 beta functions with: 
                l(1) =   0
                l(2) =   0
     Q(r) pseudized with 0 coefficients 


     PseudoPot. # 4 for  O read from file:
     /scratch/ahofstet/pseudo/O.pbe-n-kjpaw_psl.0.1.UPF
     MD5 check sum: 3f94a2996a3169367d6eb21d9b593f20
     Pseudo is Projector augmented-wave + core cor, Zval =  6.0
     Generated using "atomic" code by A. Dal Corso  v.5.0.99 svn rev. 10869
     Shape of augmentation charge: BESSEL
     Using radial grid of 1095 points,  4 beta functions with: 
                l(1) =   0
                l(2) =   0
                l(3) =   1
                l(4) =   1
     Q(r) pseudized with 0 coefficients 


     atomic species   valence    mass     pseudopotential
        C              4.00    12.01070      C( 1.00)
        N              5.00    14.00670      N( 1.00)
        H              1.00     1.00794      H( 1.00)
        O              6.00    15.99940      O( 1.00)

      2 Sym. Ops., with inversion, found



   Cartesian axes

     site n.     atom                  positions (alat units)
         1           H   tau(   1) = (   0.1691642  -0.0387159   0.8952400  )
         2           H   tau(   2) = (   0.5480154   0.5078965   0.6282634  )
         3           H   tau(   3) = (  -0.0368990   0.0494563   0.8209489  )
         4           H   tau(   4) = (   0.7540786   0.4197243   0.7025544  )
         5           H   tau(   5) = (   0.1608539   0.0665772   0.6934533  )
         6           H   tau(   6) = (   0.5563258   0.4026034   0.8300501  )
         7           C   tau(   7) = (   0.0404964  -0.1878317   0.6942835  )
         8           C   tau(   8) = (   0.6766832   0.6570123   0.8292199  )
         9           H   tau(   9) = (  -0.1034555   0.7202516   0.6457404  )
        10           H   tau(  10) = (   0.8206351  -0.2510710   0.8777630  )
        11           H   tau(  11) = (   0.9517178  -0.1601185   0.5785772  )
        12           H   tau(  12) = (  -0.2345381   0.6292991   0.9449262  )
        13           N   tau(  13) = (   0.0848637  -0.0134351   0.7829564  )
        14           N   tau(  14) = (   0.6323159   0.4826157   0.7405470  )
        15           H   tau(  15) = (  -0.0154244  -0.2997390   1.3399309  )
        16           H   tau(  16) = (   0.7326040   0.7689197   0.1835724  )
        17           H   tau(  17) = (   0.9046329   0.1796546   0.0233639  )
        18           H   tau(  18) = (  -0.1874533   0.2895260   1.5001395  )
        19           H   tau(  19) = (   0.7588251  -0.2572733   1.3627178  )
        20           H   tau(  20) = (  -0.0416454   0.7264539   0.1607856  )
        21           C   tau(  21) = (  -0.0757761  -0.0529756   1.4605097  )
        22           C   tau(  22) = (   0.7929557   0.5221562   0.0629936  )
        23           H   tau(  23) = (  -0.0736896   0.0200285   1.3316515  )
        24           H   tau(  24) = (   0.7908692   0.4491521   0.1918519  )
        25           H   tau(  25) = (   0.0586854  -0.0442467   1.5210797  )
        26           H   tau(  26) = (   0.6584942   0.5134273   0.0024237  )
        27           N   tau(  27) = (   0.8864622  -0.2463741   1.4238599  )
        28           N   tau(  28) = (  -0.1692826   0.7155547   0.0996435  )
        29           C   tau(  29) = (   0.3758308  -0.2200457   1.3341769  )
        30           C   tau(  30) = (   0.3413488   0.6892263   0.1893264  )
        31           C   tau(  31) = (   0.4545669   0.1652172   0.2641152  )
        32           C   tau(  32) = (   0.2626127   0.3039634   1.2593882  )
        33           N   tau(  33) = (   0.5391445  -0.1985325   1.2541293  )
        34           N   tau(  34) = (   0.1780352   0.6677132   0.2693740  )
        35           N   tau(  35) = (   0.5027795  -0.1385760   1.0895338  )
        36           N   tau(  36) = (   0.2144001   0.6077567   0.4339696  )
        37           N   tau(  37) = (   0.3228039  -0.1252566   1.0692724  )
        38           N   tau(  38) = (   0.3943757   0.5944372   0.4542309  )
        39           N   tau(  39) = (   0.2406673  -0.1758886   1.2201724  )
        40           N   tau(  40) = (   0.4765124   0.6450692   0.3033309  )
        41           N   tau(  41) = (   0.3369790  -0.2665958   1.5114413  )
        42           N   tau(  42) = (   0.3802007   0.7357764   0.0120621  )
        43           N   tau(  43) = (   0.4890766   0.2007358   0.0835501  )
        44           N   tau(  44) = (   0.2281030   0.2684448   1.4399532  )
        45           N   tau(  45) = (   0.2949110   0.1506192   0.3524236  )
        46           N   tau(  46) = (   0.4222686   0.3185614   1.1710798  )
        47           N   tau(  47) = (   0.3394120   0.1210762   0.5229173  )
        48           N   tau(  48) = (   0.3777676   0.3481044   1.0005861  )
        49           N   tau(  49) = (   0.5200363   0.1178316   0.5397678  )
        50           N   tau(  50) = (   0.1971434   0.3513491   0.9837356  )
        51           N   tau(  51) = (   0.5948776   0.1446772   0.3796106  )
        52           N   tau(  52) = (   0.1223020   0.3245034   1.1438928  )
        53           O   tau(  53) = (   0.9395642   0.0871421   0.2252571  )
        54           O   tau(  54) = (  -0.2223846   0.3820385   1.2982463  )
        55           H   tau(  55) = (   0.0536018   0.1305847   0.2812007  )
        56           H   tau(  56) = (   0.6635778   0.3385959   1.2423027  )
        57           H   tau(  57) = (   0.8344518   0.1163158   0.3032246  )
        58           H   tau(  58) = (  -0.1172721   0.3528649   1.2202788  )
        59           O   tau(  59) = (   0.7286984   0.0858114   0.8599666  )
        60           O   tau(  60) = (  -0.0115188   0.3833693   0.6635368  )
        61           H   tau(  61) = (   0.6558743   0.0089926   0.9418075  )
        62           H   tau(  62) = (   0.0613054   0.4601880   0.5816959  )
        63           H   tau(  63) = (   0.6557429   0.0921800   0.7473035  )
        64           H   tau(  64) = (   0.0614367   0.3770007   0.7761999  )

     number of k points=    10
                       cart. coord. in units 2pi/alat
        k(    1) = (   0.0000000   0.0000000   0.0000000), wk =   0.1111111
        k(    2) = (   0.0000000   0.0000000  -0.3281909), wk =   0.1111111
        k(    3) = (   0.0000000   0.3439352   0.1128751), wk =   0.2222222
        k(    4) = (   0.0000000   0.3439352  -0.2153158), wk =   0.2222222
        k(    5) = (   0.3333333   0.0929116   0.0332662), wk =   0.2222222
        k(    6) = (   0.3333333   0.0929116  -0.2949248), wk =   0.2222222
        k(    7) = (   0.3333333   0.4368468   0.1461413), wk =   0.2222222
        k(    8) = (   0.3333333   0.4368468  -0.1820496), wk =   0.2222222
        k(    9) = (   0.3333333  -0.2510236  -0.0796089), wk =   0.2222222
        k(   10) = (   0.3333333  -0.2510236  -0.4077999), wk =   0.2222222

     Dense  grid:   545931 G-vectors     FFT dimensions: (  90,  90, 144)

     Estimated max dynamical RAM per process >     394.90MB

     Estimated total allocated dynamical RAM >    3159.17MB

     Check: negative/imaginary core charge=   -0.000002    0.000000

     Initial potential from superposition of free atoms

     starting charge  203.99922, renormalised to  204.00000
     Starting wfc are  172 randomized atomic wfcs
     Checking if some PAW data can be deallocated... 

     total cpu time spent up to now is       24.0 secs

     per-process dynamical memory:   333.3 Mb

     Self-consistent Calculation

     iteration #  1     ecut=   100.00 Ry     beta=0.50
     Davidson diagonalization with overlap
     ethr =  1.00E-02,  avg # of iterations =  3.9

     total cpu time spent up to now is       76.8 secs

     total energy              =   -1023.62509451 Ry
     Harris-Foulkes estimate   =   -1026.32304430 Ry
     estimated scf accuracy    <       5.26427909 Ry

     iteration #  2     ecut=   100.00 Ry     beta=0.50
     Davidson diagonalization with overlap
     ethr =  2.58E-03,  avg # of iterations =  3.4

     total cpu time spent up to now is      115.2 secs

     total energy              =   -1024.46982879 Ry
     Harris-Foulkes estimate   =   -1024.73510696 Ry
     estimated scf accuracy    <       0.63646791 Ry

     iteration #  3     ecut=   100.00 Ry     beta=0.50
     Davidson diagonalization with overlap
     ethr =  3.12E-04,  avg # of iterations =  8.0

     total cpu time spent up to now is      164.2 secs

     total energy              =   -1024.58324283 Ry
     Harris-Foulkes estimate   =   -1024.63318672 Ry
     estimated scf accuracy    <       0.14129459 Ry

     iteration #  4     ecut=   100.00 Ry     beta=0.50
     Davidson diagonalization with overlap
     ethr =  6.93E-05,  avg # of iterations =  7.5

     total cpu time spent up to now is      203.9 secs

     total energy              =   -1024.59581695 Ry
     Harris-Foulkes estimate   =   -1024.61316950 Ry
     estimated scf accuracy    <       0.04396841 Ry

     iteration #  5     ecut=   100.00 Ry     beta=0.50
     Davidson diagonalization with overlap
     ethr =  2.16E-05,  avg # of iterations =  8.2

     total cpu time spent up to now is      245.1 secs

     total energy              =   -1024.60524106 Ry
     Harris-Foulkes estimate   =   -1024.60921219 Ry
     estimated scf accuracy    <       0.01155869 Ry

     iteration #  6     ecut=   100.00 Ry     beta=0.50
     Davidson diagonalization with overlap
     ethr =  5.67E-06,  avg # of iterations =  6.9

     total cpu time spent up to now is      282.6 secs

     total energy              =   -1024.60728713 Ry
     Harris-Foulkes estimate   =   -1024.60741613 Ry
     estimated scf accuracy    <       0.00039272 Ry

     iteration #  7     ecut=   100.00 Ry     beta=0.50
     Davidson diagonalization with overlap
     ethr =  1.93E-07,  avg # of iterations =  5.2

     total cpu time spent up to now is      343.0 secs

     total energy              =   -1024.60755631 Ry
     Harris-Foulkes estimate   =   -1024.60761488 Ry
     estimated scf accuracy    <       0.00017235 Ry

     iteration #  8     ecut=   100.00 Ry     beta=0.50
     Davidson diagonalization with overlap
     ethr =  8.45E-08,  avg # of iterations =  2.0

     total cpu time spent up to now is      374.6 secs

     total energy              =   -1024.60757613 Ry
     Harris-Foulkes estimate   =   -1024.60758043 Ry
     estimated scf accuracy    <       0.00002024 Ry

     iteration #  9     ecut=   100.00 Ry     beta=0.50
     Davidson diagonalization with overlap
     ethr =  9.92E-09,  avg # of iterations =  3.0

     total cpu time spent up to now is      422.8 secs

     total energy              =   -1024.60758304 Ry
     Harris-Foulkes estimate   =   -1024.60758599 Ry
     estimated scf accuracy    <       0.00000946 Ry

     iteration # 10     ecut=   100.00 Ry     beta=0.50
     Davidson diagonalization with overlap
     ethr =  4.64E-09,  avg # of iterations =  2.0

     total cpu time spent up to now is      453.6 secs

     total energy              =   -1024.60758376 Ry
     Harris-Foulkes estimate   =   -1024.60758421 Ry
     estimated scf accuracy    <       0.00000134 Ry

     iteration # 11     ecut=   100.00 Ry     beta=0.50
     Davidson diagonalization with overlap
     ethr =  6.59E-10,  avg # of iterations =  4.0

     total cpu time spent up to now is      503.7 secs

     total energy              =   -1024.60758430 Ry
     Harris-Foulkes estimate   =   -1024.60758441 Ry
     estimated scf accuracy    <       0.00000040 Ry

     iteration # 12     ecut=   100.00 Ry     beta=0.50
     Davidson diagonalization with overlap
     ethr =  1.94E-10,  avg # of iterations =  2.0

     total cpu time spent up to now is      533.7 secs

     total energy              =   -1024.60758430 Ry
     Harris-Foulkes estimate   =   -1024.60758433 Ry
     estimated scf accuracy    <       0.00000008 Ry

     iteration # 13     ecut=   100.00 Ry     beta=0.50
     Davidson diagonalization with overlap
     ethr =  3.98E-11,  avg # of iterations =  4.0

     total cpu time spent up to now is      583.4 secs

     total energy              =   -1024.60758434 Ry
     Harris-Foulkes estimate   =   -1024.60758435 Ry
     estimated scf accuracy    <       0.00000003 Ry

     iteration # 14     ecut=   100.00 Ry     beta=0.50
     Davidson diagonalization with overlap
     ethr =  1.49E-11,  avg # of iterations =  1.0

     total cpu time spent up to now is      611.9 secs

     total energy              =   -1024.60758433 Ry
     Harris-Foulkes estimate   =   -1024.60758434 Ry
     estimated scf accuracy    <       0.00000001 Ry

     iteration # 15     ecut=   100.00 Ry     beta=0.50
     Davidson diagonalization with overlap
     ethr =  5.39E-12,  avg # of iterations =  4.0

     total cpu time spent up to now is      661.0 secs

     End of self-consistent calculation

          k = 0.0000 0.0000 0.0000 ( 68199 PWs)   bands (ev):

   -21.7224 -21.6875 -21.6247 -21.5983 -19.8398 -19.7858 -18.2961 -18.2022
   -18.1367 -18.0108 -17.6215 -17.4889 -17.2570 -17.1191 -16.7003 -16.6866
   -16.6278 -16.6266 -15.4942 -15.4607 -14.3610 -14.3271 -12.2258 -12.2041
   -12.1685 -12.0493  -9.7631  -9.7433  -9.5585  -9.4516  -9.3708  -9.1350
    -8.9138  -8.8890  -8.0457  -8.0387  -7.5449  -7.3136  -7.1170  -6.9194
    -6.8641  -6.8593  -6.7892  -6.7684  -6.5095  -6.4794  -6.3443  -6.3331
    -6.0578  -5.9363  -5.8702  -5.6449  -5.2490  -5.2013  -5.0215  -5.0148
    -4.6533  -4.5742  -4.4150  -4.3120  -4.2731  -4.1268  -4.0400  -3.9143
    -3.7610  -3.6306  -3.5847  -3.4564  -3.0737  -2.9492  -2.7293  -2.5934
    -2.5707  -2.4380  -2.2300  -2.0890  -1.5141  -1.4186  -1.2486  -1.2335
    -1.2263  -1.0665  -1.0194  -0.9340  -0.8483  -0.7793  -0.7503  -0.7288
    -0.7154  -0.7007  -0.6999  -0.5940  -0.5658  -0.4359  -0.4336  -0.4264
    -0.3343  -0.3182   0.1161   0.3337   0.7607   0.8040   2.8509   2.8767
     5.1006   5.1513   5.2478   5.2693   6.4525   6.5987   6.6314   6.8928
     7.1892   7.2435   7.4616   7.6452   8.1018   8.1995   8.4188   8.4555
     8.6108   8.8546

          k = 0.0000 0.0000-0.3282 ( 68274 PWs)   bands (ev):

   -21.7190 -21.6905 -21.6249 -21.5988 -19.8388 -19.7856 -18.2960 -18.2023
   -18.1379 -18.0116 -17.6217 -17.4889 -17.2570 -17.1195 -16.7021 -16.6869
   -16.6263 -16.6260 -15.4928 -15.4535 -14.3586 -14.3377 -12.2611 -12.1961
   -12.1423 -12.0496  -9.7457  -9.7396  -9.5442  -9.4755  -9.3849  -9.1527
    -8.9011  -8.8672  -8.0309  -8.0255  -7.5241  -7.3241  -7.0960  -7.0420
    -6.9706  -6.8697  -6.7955  -6.7519  -6.5086  -6.3956  -6.3319  -6.3079
    -6.0525  -5.8827  -5.8021  -5.6633  -5.2501  -5.1971  -5.0424  -4.9865
    -4.7715  -4.6765  -4.4029  -4.3017  -4.1998  -4.0995  -4.0973  -3.7368
    -3.7339  -3.6669  -3.5969  -3.5512  -3.0816  -2.8863  -2.6953  -2.6042
    -2.5516  -2.5234  -2.1958  -2.1478  -1.5092  -1.4359  -1.2759  -1.2400
    -1.2287  -1.0047  -0.9839  -0.9577  -0.8229  -0.7780  -0.7616  -0.7550
    -0.7291  -0.7198  -0.6454  -0.5902  -0.5593  -0.4958  -0.4457  -0.4264
    -0.3090  -0.2838   0.1154   0.3105   0.7799   0.8080   2.8608   2.8625
     5.1056   5.1382   5.2567   5.2615   6.5532   6.5620   6.6486   6.6895
     7.2460   7.3946   7.4232   7.6170   8.1402   8.2614   8.4710   8.5331
     8.6557   8.6944

          k = 0.0000 0.3439 0.1129 ( 68269 PWs)   bands (ev):

   -21.7104 -21.6915 -21.6233 -21.6081 -19.8319 -19.7938 -18.2745 -18.2089
   -18.1023 -18.0258 -17.6746 -17.5451 -17.2206 -17.0780 -16.6982 -16.6911
   -16.6292 -16.6252 -15.5005 -15.4540 -14.3609 -14.3261 -12.2210 -12.1962
   -12.1806 -12.0429  -9.7623  -9.7493  -9.5212  -9.4568  -9.3748  -9.1517
    -8.9048  -8.8928  -8.0517  -8.0476  -7.5519  -7.3569  -7.0839  -6.9209
    -6.8865  -6.8591  -6.8278  -6.7334  -6.4878  -6.4491  -6.3485  -6.3194
    -5.9901  -5.9148  -5.8446  -5.5275  -5.4607  -5.2477  -5.1155  -5.0257
    -4.6414  -4.5619  -4.3800  -4.3404  -4.2496  -4.1455  -4.0420  -3.8464
    -3.7978  -3.7214  -3.5650  -3.5166  -3.0001  -2.9074  -2.7412  -2.6498
    -2.5067  -2.4347  -2.1918  -2.0950  -1.4270  -1.3757  -1.3474  -1.2695
    -1.2453  -1.0332  -0.9627  -0.9557  -0.8346  -0.7794  -0.7666  -0.7515
    -0.7044  -0.7000  -0.6587  -0.5992  -0.5512  -0.5374  -0.4269  -0.4197
    -0.3430  -0.2614   0.0577   0.4033   0.7250   0.8325   2.7752   2.9519
     5.1196   5.1538   5.2316   5.2786   6.4825   6.5610   6.7447   7.1049
     7.1643   7.3121   7.3354   7.4908   7.7101   8.1567   8.1872   8.6256
     8.7334   8.8789

          k = 0.0000 0.3439-0.2153 ( 68229 PWs)   bands (ev):

   -21.7085 -21.6920 -21.6240 -21.6091 -19.8315 -19.7932 -18.2744 -18.2089
   -18.1036 -18.0265 -17.6747 -17.5450 -17.2214 -17.0778 -16.6997 -16.6917
   -16.6274 -16.6249 -15.4951 -15.4503 -14.3678 -14.3282 -12.2481 -12.1959
   -12.1542 -12.0429  -9.7638  -9.7134  -9.5478  -9.4535  -9.4035  -9.1561
    -8.8900  -8.8730  -8.0290  -8.0200  -7.5436  -7.3630  -7.0974  -7.0381
    -7.0069  -6.8625  -6.8350  -6.6935  -6.4473  -6.3963  -6.3282  -6.3126
    -5.9447  -5.8714  -5.8031  -5.5640  -5.4657  -5.2318  -5.1361  -5.0260
    -4.7161  -4.5870  -4.4414  -4.3199  -4.2372  -4.1168  -4.0313  -3.7561
    -3.7362  -3.7012  -3.6727  -3.4989  -3.0270  -2.9136  -2.7529  -2.6678
    -2.4852  -2.4111  -2.2052  -2.1184  -1.4251  -1.3840  -1.3566  -1.2771
    -1.2402  -1.0310  -0.9724  -0.9181  -0.8175  -0.7883  -0.7668  -0.7400
    -0.7112  -0.7058  -0.6359  -0.5734  -0.5666  -0.5261  -0.5026  -0.3985
    -0.3709  -0.2211   0.0435   0.4039   0.7272   0.8504   2.7813   2.9403
     5.1267   5.1469   5.2334   5.2694   6.5085   6.6083   6.6516   6.9586
     7.1854   7.3477   7.4176   7.5044   7.8735   8.0656   8.3073   8.3661
     8.6683   8.8679

          k = 0.3333 0.0929 0.0333 ( 68267 PWs)   bands (ev):

   -21.7215 -21.6869 -21.6245 -21.5980 -19.8392 -19.7857 -18.3070 -18.2112
   -18.1405 -18.0100 -17.6191 -17.4987 -17.2484 -17.1369 -16.6835 -16.6774
   -16.6176 -16.6071 -15.4992 -15.4636 -14.3626 -14.3309 -12.2131 -12.2032
   -12.1833 -12.0482  -9.7519  -9.7274  -9.4820  -9.4405  -9.3375  -9.2247
    -8.9067  -8.8991  -8.0765  -8.0642  -7.5345  -7.3495  -7.1129  -7.0187
    -6.8975  -6.8657  -6.8045  -6.7523  -6.6335  -6.5550  -6.2762  -6.2453
    -6.0630  -5.9688  -5.8857  -5.6306  -5.2686  -5.2138  -5.0364  -4.9436
    -4.6066  -4.5338  -4.3327  -4.2925  -4.2398  -4.0976  -4.0306  -3.8543
    -3.7021  -3.6296  -3.4892  -3.4097  -3.0651  -2.9085  -2.7501  -2.7326
    -2.4266  -2.4011  -2.2989  -2.2090  -1.5166  -1.4750  -1.2641  -1.2338
    -1.2069  -1.0710  -1.0022  -0.9775  -0.9002  -0.8846  -0.8476  -0.8262
    -0.8194  -0.6867  -0.6396  -0.5060  -0.4976  -0.4703  -0.3800  -0.3440
    -0.3218  -0.3128   0.0999   0.3357   0.7159   0.8110   2.8490   2.8704
     5.1056   5.1633   5.2425   5.2565   6.6014   6.6367   6.7654   7.0934
     7.2701   7.3622   7.4381   7.6556   7.7404   7.9096   8.2779   8.4923
     8.6189   8.6730

          k = 0.3333 0.0929-0.2949 ( 68279 PWs)   bands (ev):

   -21.7183 -21.6898 -21.6246 -21.5985 -19.8384 -19.7855 -18.3059 -18.2137
   -18.1397 -18.0106 -17.6202 -17.4985 -17.2501 -17.1360 -16.6872 -16.6774
   -16.6137 -16.6078 -15.4953 -15.4563 -14.3634 -14.3411 -12.2477 -12.2050
   -12.1459 -12.0484  -9.7350  -9.7077  -9.5435  -9.3925  -9.3791  -9.2220
    -8.9004  -8.8808  -8.0506  -8.0404  -7.5345  -7.3621  -7.1311  -7.0704
    -6.9769  -6.8889  -6.8166  -6.7444  -6.6002  -6.5181  -6.3092  -6.2581
    -6.0516  -5.8574  -5.8061  -5.6726  -5.2649  -5.1602  -5.0616  -4.9657
    -4.7124  -4.5035  -4.4239  -4.3157  -4.1858  -4.1036  -4.0305  -3.6973
    -3.6667  -3.5955  -3.5699  -3.4730  -3.0375  -2.8813  -2.8139  -2.6652
    -2.5347  -2.3973  -2.3028  -2.1669  -1.5218  -1.4876  -1.2827  -1.2359
    -1.2002  -1.0831  -1.0484  -0.9854  -0.9431  -0.8794  -0.8195  -0.7511
    -0.7437  -0.7058  -0.6406  -0.5009  -0.4832  -0.4389  -0.4250  -0.3817
    -0.3244  -0.2832   0.1054   0.3144   0.7296   0.8108   2.8480   2.8637
     5.1099   5.1546   5.2443   5.2545   6.5974   6.6415   6.8009   7.0018
     7.2624   7.3742   7.4541   7.6719   7.7614   8.0191   8.2577   8.4036
     8.6233   8.7221

          k = 0.3333 0.4368 0.1461 ( 68275 PWs)   bands (ev):

   -21.7096 -21.6909 -21.6230 -21.6079 -19.8315 -19.7936 -18.2850 -18.2183
   -18.1055 -18.0262 -17.6698 -17.5545 -17.2166 -17.0967 -16.6818 -16.6780
   -16.6185 -16.6059 -15.5049 -15.4576 -14.3632 -14.3303 -12.2192 -12.1914
   -12.1871 -12.0418  -9.7505  -9.7283  -9.4897  -9.3947  -9.3628  -9.2321
    -8.9078  -8.8984  -8.0758  -8.0636  -7.5531  -7.3840  -7.1015  -7.0128
    -6.9203  -6.8757  -6.8215  -6.6828  -6.6303  -6.5322  -6.2738  -6.2253
    -6.0127  -5.9433  -5.8669  -5.5269  -5.4678  -5.1909  -5.1406  -5.0157
    -4.6380  -4.4846  -4.3185  -4.2905  -4.2515  -4.1355  -4.0082  -3.7964
    -3.7366  -3.6805  -3.5206  -3.3897  -2.9986  -2.9719  -2.7481  -2.6252
    -2.5033  -2.3834  -2.2736  -2.1950  -1.4479  -1.4264  -1.3576  -1.2587
    -1.2353  -1.0209  -0.9732  -0.9566  -0.9012  -0.8828  -0.8551  -0.8246
    -0.8067  -0.7225  -0.5976  -0.5522  -0.5188  -0.4801  -0.3845  -0.3596
    -0.3375  -0.2339   0.0490   0.4005   0.7145   0.8097   2.7779   2.9514
     5.1231   5.1440   5.2493   5.2666   6.5724   6.6350   6.8673   7.2315
     7.3022   7.4007   7.4272   7.6225   7.6588   7.8604   8.0931   8.3042
     8.6437   8.7732

          k = 0.3333 0.4368-0.1820 ( 68254 PWs)   bands (ev):

   -21.7078 -21.6914 -21.6236 -21.6088 -19.8311 -19.7930 -18.2846 -18.2186
   -18.1061 -18.0267 -17.6709 -17.5545 -17.2174 -17.0964 -16.6847 -16.6792
   -16.6148 -16.6061 -15.4978 -15.4537 -14.3722 -14.3322 -12.2466 -12.2076
   -12.1427 -12.0418  -9.7365  -9.7048  -9.5223  -9.4380  -9.3405  -9.2331
    -8.8958  -8.8843  -8.0568  -8.0355  -7.5376  -7.4024  -7.1198  -7.0722
    -6.9782  -6.9126  -6.8372  -6.6886  -6.5630  -6.5282  -6.3100  -6.2460
    -5.9107  -5.8544  -5.8376  -5.5499  -5.4620  -5.2582  -5.0897  -5.0226
    -4.6458  -4.5752  -4.3400  -4.3135  -4.2374  -4.1198  -4.0268  -3.7283
    -3.6261  -3.6073  -3.5712  -3.5058  -2.9934  -2.9678  -2.7778  -2.5823
    -2.4961  -2.4223  -2.2435  -2.2277  -1.4511  -1.4348  -1.3494  -1.2621
    -1.2356  -1.0819  -1.0213  -0.9894  -0.8903  -0.8684  -0.8188  -0.7717
    -0.7483  -0.7074  -0.5924  -0.5723  -0.4742  -0.4657  -0.4145  -0.3810
    -0.3670  -0.2237   0.0389   0.4058   0.7213   0.8142   2.7802   2.9402
     5.1301   5.1441   5.2386   5.2659   6.5610   6.6887   6.8238   7.1575
     7.2994   7.4084   7.4507   7.5172   7.8443   7.8908   8.0816   8.2921
     8.6347   8.6707

          k = 0.3333-0.2510-0.0796 ( 68192 PWs)   bands (ev):

   -21.7098 -21.6908 -21.6230 -21.6078 -19.8317 -19.7935 -18.2840 -18.2188
   -18.1050 -18.0261 -17.6694 -17.5554 -17.2196 -17.0959 -16.6834 -16.6740
   -16.6170 -16.6078 -15.5050 -15.4574 -14.3636 -14.3311 -12.2291 -12.1941
   -12.1730 -12.0423  -9.7480  -9.7229  -9.5133  -9.4162  -9.3427  -9.2193
    -8.9058  -8.9024  -8.0706  -8.0534  -7.5608  -7.3822  -7.0612  -7.0066
    -6.9598  -6.8808  -6.8288  -6.6938  -6.5879  -6.5639  -6.2590  -6.2371
    -5.9908  -5.9406  -5.8656  -5.5199  -5.4863  -5.2236  -5.1298  -5.0009
    -4.6118  -4.5424  -4.3384  -4.2625  -4.2395  -4.1448  -4.0093  -3.8016
    -3.7196  -3.6848  -3.5065  -3.4084  -3.0349  -2.9587  -2.7062  -2.6829
    -2.4053  -2.3853  -2.3084  -2.2050  -1.4426  -1.4240  -1.3342  -1.2870
    -1.2564  -1.0159  -0.9884  -0.9562  -0.9095  -0.8820  -0.8620  -0.8185
    -0.7822  -0.7391  -0.6413  -0.5198  -0.4817  -0.4313  -0.4105  -0.3710
    -0.3498  -0.2361   0.0442   0.4026   0.7094   0.8213   2.7877   2.9510
     5.1165   5.1603   5.2329   5.2762   6.5812   6.6868   6.7208   7.2039
     7.2918   7.4239   7.4863   7.5254   7.8006   7.9375   8.2657   8.4501
     8.5793   8.6967

          k = 0.3333-0.2510-0.4078 ( 68197 PWs)   bands (ev):

   -21.7079 -21.6914 -21.6237 -21.6087 -19.8312 -19.7929 -18.2843 -18.2181
   -18.1061 -18.0266 -17.6711 -17.5547 -17.2213 -17.0946 -16.6860 -16.6755
   -16.6157 -16.6055 -15.4981 -15.4540 -14.3724 -14.3322 -12.2585 -12.2079
   -12.1294 -12.0423  -9.7309  -9.7171  -9.5089  -9.4361  -9.3524  -9.2336
    -8.8950  -8.8861  -8.0650  -8.0352  -7.5241  -7.3892  -7.1572  -7.0312
    -6.9828  -6.8689  -6.8517  -6.7000  -6.6038  -6.5105  -6.3171  -6.2414
    -5.8900  -5.8848  -5.8081  -5.5291  -5.4854  -5.2254  -5.1395  -5.0117
    -4.7359  -4.5388  -4.3529  -4.3133  -4.2012  -4.1249  -4.0111  -3.7090
    -3.6498  -3.6104  -3.5895  -3.4917  -3.0267  -2.9455  -2.7336  -2.5698
    -2.5419  -2.4036  -2.2786  -2.1903  -1.4495  -1.4041  -1.3519  -1.2855
    -1.2574  -1.0951  -1.0222  -0.9871  -0.9140  -0.8483  -0.8145  -0.7850
    -0.7694  -0.6894  -0.6473  -0.5005  -0.4631  -0.4463  -0.4100  -0.3950
    -0.3600  -0.2419   0.0390   0.4096   0.7150   0.8256   2.7890   2.9411
     5.1134   5.1605   5.2416   5.2666   6.5880   6.6647   6.8544   6.9333
     7.3434   7.4092   7.4585   7.6094   7.8641   8.0137   8.2391   8.4915
     8.5443   8.7487

     highest occupied, lowest unoccupied level (ev):     0.8504    2.7752

!    total energy              =   -1024.60758434 Ry
     Harris-Foulkes estimate   =   -1024.60758434 Ry
     estimated scf accuracy    <          3.2E-09 Ry

     total all-electron energy =     -3873.279071 Ry

     The total energy is the sum of the following terms:

     one-electron contribution =    -550.09534044 Ry
     hartree contribution      =     353.84041777 Ry
     xc contribution           =    -212.70892554 Ry
     ewald contribution        =    -325.38951312 Ry
     Dispersion Correction     =      -0.27611622 Ry
     one-center paw contrib.   =    -289.97810679 Ry

     convergence has been achieved in  15 iterations

     Forces acting on atoms (cartesian axes, Ry/au):

     atom    1 type  3   force =     0.00064746   -0.00010046   -0.00006777
     atom    2 type  3   force =    -0.00064746    0.00010046    0.00006777
     atom    3 type  3   force =     0.00009786   -0.00015559    0.00009626
     atom    4 type  3   force =    -0.00009786    0.00015559   -0.00009626
     atom    5 type  3   force =    -0.00067797    0.00004614   -0.00053111
     atom    6 type  3   force =     0.00067797   -0.00004614    0.00053111
     atom    7 type  1   force =     0.00031624    0.00021602    0.00063018
     atom    8 type  1   force =    -0.00031624   -0.00021602   -0.00063018
     atom    9 type  3   force =    -0.00076834    0.00042815   -0.00002250
     atom   10 type  3   force =     0.00076834   -0.00042815    0.00002250
     atom   11 type  3   force =     0.00069174   -0.00036304   -0.00011023
     atom   12 type  3   force =    -0.00069174    0.00036304    0.00011023
     atom   13 type  2   force =    -0.00106099   -0.00095614    0.00148665
     atom   14 type  2   force =     0.00106099    0.00095614   -0.00148665
     atom   15 type  3   force =    -0.00024489   -0.00004130    0.00010254
     atom   16 type  3   force =     0.00024489    0.00004130   -0.00010254
     atom   17 type  3   force =     0.00013537    0.00004560    0.00039295
     atom   18 type  3   force =    -0.00013537   -0.00004560   -0.00039295
     atom   19 type  3   force =     0.00040894    0.00091442   -0.00014775
     atom   20 type  3   force =    -0.00040894   -0.00091442    0.00014775
     atom   21 type  1   force =    -0.00294464   -0.00186154   -0.00026130
     atom   22 type  1   force =     0.00294464    0.00186154    0.00026130
     atom   23 type  3   force =     0.00019295    0.00049855    0.00028300
     atom   24 type  3   force =    -0.00019295   -0.00049855   -0.00028300
     atom   25 type  3   force =     0.00128178    0.00068115    0.00092979
     atom   26 type  3   force =    -0.00128178   -0.00068115   -0.00092979
     atom   27 type  2   force =     0.00012774    0.00179913   -0.00086283
     atom   28 type  2   force =    -0.00012774   -0.00179913    0.00086283
     atom   29 type  1   force =     0.00055824    0.00060856    0.00078641
     atom   30 type  1   force =    -0.00055824   -0.00060856   -0.00078641
     atom   31 type  1   force =    -0.00066493    0.00048435   -0.00063847
     atom   32 type  1   force =     0.00066493   -0.00048435    0.00063847
     atom   33 type  2   force =     0.00045134    0.00029882    0.00239950
     atom   34 type  2   force =    -0.00045134   -0.00029882   -0.00239950
     atom   35 type  2   force =    -0.00263540    0.00107005   -0.00353457
     atom   36 type  2   force =     0.00263540   -0.00107005    0.00353457
     atom   37 type  2   force =     0.00112557   -0.00061652   -0.00163796
     atom   38 type  2   force =    -0.00112557    0.00061652    0.00163796
     atom   39 type  2   force =     0.00067668   -0.00064825    0.00006177
     atom   40 type  2   force =    -0.00067668    0.00064825   -0.00006177
     atom   41 type  2   force =    -0.00006533   -0.00034945    0.00075871
     atom   42 type  2   force =     0.00006533    0.00034945   -0.00075871
     atom   43 type  2   force =    -0.00020875    0.00145180    0.00043726
     atom   44 type  2   force =     0.00020875   -0.00145180   -0.00043726
     atom   45 type  2   force =     0.00036696    0.00081481   -0.00516713
     atom   46 type  2   force =    -0.00036696   -0.00081481    0.00516713
     atom   47 type  2   force =     0.00338481   -0.00075549    0.00408921
     atom   48 type  2   force =    -0.00338481    0.00075549   -0.00408921
     atom   49 type  2   force =    -0.00317206   -0.00036140    0.00305199
     atom   50 type  2   force =     0.00317206    0.00036140   -0.00305199
     atom   51 type  2   force =    -0.00115143    0.00153749   -0.00469506
     atom   52 type  2   force =     0.00115143   -0.00153749    0.00469506
     atom   53 type  4   force =    -0.00075803   -0.00087385    0.00319539
     atom   54 type  4   force =     0.00075803    0.00087385   -0.00319539
     atom   55 type  3   force =     0.00033209   -0.00102132    0.00075167
     atom   56 type  3   force =    -0.00033209    0.00102132   -0.00075167
     atom   57 type  3   force =     0.00078416   -0.00040711   -0.00013942
     atom   58 type  3   force =    -0.00078416    0.00040711    0.00013942
     atom   59 type  4   force =    -0.00102018   -0.00058759    0.00021004
     atom   60 type  4   force =     0.00102018    0.00058759   -0.00021004
     atom   61 type  3   force =     0.00083671    0.00043341   -0.00040059
     atom   62 type  3   force =    -0.00083671   -0.00043341    0.00040059
     atom   63 type  3   force =    -0.00012826   -0.00055479    0.00020368
     atom   64 type  3   force =     0.00012826    0.00055479   -0.00020368

     Total force =     0.019178     Total SCF correction =     0.000113


     Computing stress (Cartesian axis) and pressure

          total   stress  (Ry/bohr**3)                   (kbar)     P=   -7.36
  -0.00009588  -0.00000214  -0.00000590        -14.10     -0.32     -0.87
  -0.00000214  -0.00003246   0.00000428         -0.32     -4.77      0.63
  -0.00000590   0.00000428  -0.00002183         -0.87      0.63     -3.21


     Writing output data file scf.save
 
     init_run     :     22.01s CPU     23.01s WALL (       1 calls)
     electrons    :    610.56s CPU    637.20s WALL (       1 calls)
     forces       :     11.43s CPU     11.50s WALL (       1 calls)
     stress       :     36.89s CPU     36.92s WALL (       1 calls)

     Called by init_run:
     wfcinit      :     14.98s CPU     15.59s WALL (       1 calls)
     potinit      :      2.55s CPU      2.61s WALL (       1 calls)

     Called by electrons:
     c_bands      :    543.63s CPU    566.45s WALL (      15 calls)
     sum_band     :     59.17s CPU     62.33s WALL (      15 calls)
     v_of_rho     :      1.12s CPU      1.25s WALL (      16 calls)
     newd         :      2.44s CPU      2.86s WALL (      16 calls)
     PAW_pot      :      3.88s CPU      3.88s WALL (      16 calls)
     mix_rho      :      0.24s CPU      0.26s WALL (      15 calls)

     Called by c_bands:
     init_us_2    :      3.87s CPU      3.88s WALL (     330 calls)
     cegterg      :    529.61s CPU    552.39s WALL (     150 calls)

     Called by sum_band:
     sum_band:bec :      0.04s CPU      0.04s WALL (     150 calls)
     addusdens    :      2.46s CPU      2.85s WALL (      15 calls)

     Called by *egterg:
     h_psi        :    304.06s CPU    321.11s WALL (     811 calls)
     s_psi        :     56.39s CPU     56.41s WALL (     811 calls)
     g_psi        :      1.80s CPU      1.80s WALL (     651 calls)
     cdiaghg      :     35.54s CPU     35.62s WALL (     801 calls)

     Called by h_psi:
     h_psi:pot    :    301.97s CPU    318.99s WALL (     811 calls)
     h_psi:calbec :     56.42s CPU     56.58s WALL (     811 calls)
     vloc_psi     :    189.23s CPU    206.07s WALL (     811 calls)
     add_vuspsi   :     56.31s CPU     56.32s WALL (     811 calls)

     General routines
     calbec       :     81.76s CPU     81.98s WALL (    1011 calls)
     fft          :      0.93s CPU      1.41s WALL (     232 calls)
     fftw         :    203.87s CPU    222.33s WALL (  122806 calls)
 
     Parallel routines
     fft_scatter  :     47.23s CPU     58.69s WALL (  123038 calls)
 
     PWSCF        : 11m27.14s CPU    12m32.95s WALL

 
   This run was terminated on:  18:59:44   4Nov2017            

=------------------------------------------------------------------------------=
   JOB DONE.
=------------------------------------------------------------------------------=
