
     Program PWSCF v.6.1 (svn rev. 13369) starts on  8Dec2017 at  3: 1:45 

     This program is part of the open-source Quantum ESPRESSO suite
     for quantum simulation of materials; please cite
         "P. Giannozzi et al., J. Phys.:Condens. Matter 21 395502 (2009);
          URL http://www.quantum-espresso.org", 
     in publications or presentations arising from this work. More details at
     http://www.quantum-espresso.org/quote

     Parallel version (MPI), running on     8 processors
     R & G space division:  proc/nbgrp/npool/nimage =       8
     Waiting for input...
     Reading input from standard input

     Current dimensions of program PWSCF are:
     Max number of different atomic species (ntypx) = 10
     Max number of k-points (npk) =  40000
     Max angular momentum in pseudopotentials (lmaxx) =  3
               file C.pbe-n-kjpaw_psl.0.1.UPF: wavefunction(s)  2P renormalized
               file N.pbe-n-kjpaw_psl.0.1.UPF: wavefunction(s)  2P renormalized
               file H.pbe-kjpaw_psl.0.1.UPF: wavefunction(s)  1S renormalized
               file O.pbe-n-kjpaw_psl.0.1.UPF: wavefunction(s)  2P renormalized

     -------------------------------------
     Parameters for Dispersion Correction:
     -------------------------------------
       atom      VdW radius       C_6     

        C          2.744         60.710
        N          2.640         42.670
        H          1.892          4.857
        O          2.536         24.284

     Subspace diagonalization in iterative solution of the eigenvalue problem:
     a serial algorithm will be used

 
     Parallelization info
     --------------------
     sticks:   dense  smooth     PW     G-vecs:    dense   smooth      PW
     Min        1771    1771    461               156679   156679   20835
     Max        1772    1772    462               156681   156681   20836
     Sum       14169   14169   3689              1253441  1253441  166687
 


     bravais-lattice index     =            0
     lattice parameter (alat)  =      14.1862  a.u.
     unit-cell volume          =    9278.4185 (a.u.)^3
     number of atoms/cell      =          140
     number of atomic types    =            4
     number of electrons       =       408.00
     number of Kohn-Sham states=          244
     kinetic-energy cutoff     =     100.0000  Ry
     charge density cutoff     =     400.0000  Ry
     convergence threshold     =      1.0E-08
     mixing beta               =       0.5000
     number of iterations used =            8  plain     mixing
     Exchange-correlation      =  SLA  PW   PBX  PBC ( 1  4  3  4 0 0)

     celldm(1)=  14.186174  celldm(2)=   0.000000  celldm(3)=   0.000000
     celldm(4)=   0.000000  celldm(5)=   0.000000  celldm(6)=   0.000000

     crystal axes: (cart. coord. in units of alat)
               a(1) = (   1.000000   0.000000   0.000000 )  
               a(2) = (  -0.254978   2.210466   0.000000 )  
               a(3) = (  -0.007708  -0.073019   1.470260 )  

     reciprocal axes: (cart. coord. in units 2 pi/alat)
               b(1) = (  1.000000  0.115350  0.010971 )  
               b(2) = (  0.000000  0.452393  0.022468 )  
               b(3) = (  0.000000  0.000000  0.680152 )  


     PseudoPot. # 1 for  C read from file:
     /scratch/ahofstet/pseudo/C.pbe-n-kjpaw_psl.0.1.UPF
     MD5 check sum: 430fe95172b1e11ef3f8ed03bac87931
     Pseudo is Projector augmented-wave + core cor, Zval =  4.0
     Generated using "atomic" code by A. Dal Corso  v.5.0.99 svn rev. 10869
     Shape of augmentation charge: BESSEL
     Using radial grid of 1073 points,  4 beta functions with: 
                l(1) =   0
                l(2) =   0
                l(3) =   1
                l(4) =   1
     Q(r) pseudized with 0 coefficients 


     PseudoPot. # 2 for  N read from file:
     /scratch/ahofstet/pseudo/N.pbe-n-kjpaw_psl.0.1.UPF
     MD5 check sum: f73187c8b701007e77325f868c9291d7
     Pseudo is Projector augmented-wave + core cor, Zval =  5.0
     Generated using "atomic" code by A. Dal Corso  v.5.0.99 svn rev. 10869
     Shape of augmentation charge: PSQ
     Using radial grid of 1085 points,  4 beta functions with: 
                l(1) =   0
                l(2) =   0
                l(3) =   1
                l(4) =   1
     Q(r) pseudized with 0 coefficients 


     PseudoPot. # 3 for  H read from file:
     /scratch/ahofstet/pseudo/H.pbe-kjpaw_psl.0.1.UPF
     MD5 check sum: 94e484f906d9e9773b2f6e52662335b2
     Pseudo is Projector augmented-wave, Zval =  1.0
     Generated using "atomic" code by A. Dal Corso  v.5.0.99 svn rev. 10869
     Shape of augmentation charge: PSQ
     Using radial grid of  929 points,  2 beta functions with: 
                l(1) =   0
                l(2) =   0
     Q(r) pseudized with 0 coefficients 


     PseudoPot. # 4 for  O read from file:
     /scratch/ahofstet/pseudo/O.pbe-n-kjpaw_psl.0.1.UPF
     MD5 check sum: 3f94a2996a3169367d6eb21d9b593f20
     Pseudo is Projector augmented-wave + core cor, Zval =  6.0
     Generated using "atomic" code by A. Dal Corso  v.5.0.99 svn rev. 10869
     Shape of augmentation charge: BESSEL
     Using radial grid of 1095 points,  4 beta functions with: 
                l(1) =   0
                l(2) =   0
                l(3) =   1
                l(4) =   1
     Q(r) pseudized with 0 coefficients 


     atomic species   valence    mass     pseudopotential
        C              4.00    12.01070      C( 1.00)
        N              5.00    14.00670      N( 1.00)
        H              1.00     1.00794      H( 1.00)
        O              6.00    15.99940      O( 1.00)

      2 Sym. Ops., with inversion, found



   Cartesian axes

     site n.     atom                  positions (alat units)
         1           O   tau(   1) = (   0.5900869   1.8842105   0.0339815  )
         2           O   tau(   2) = (   0.1472275   0.2532364   1.4362790  )
         3           O   tau(   3) = (   0.4147892   1.8517673   0.2651551  )
         4           O   tau(   4) = (   0.3225252   0.2856797   1.2051053  )
         5           N   tau(   5) = (   0.6116046   1.0491906   0.1017619  )
         6           N   tau(   6) = (   0.1257099   1.0882564   1.3684986  )
         7           N   tau(   7) = (   0.5133985   1.7895155   0.1468364  )
         8           N   tau(   8) = (   0.2239160   0.3479315   1.3234240  )
         9           N   tau(   9) = (   0.7815122   0.2130576   0.1905259  )
        10           N   tau(  10) = (  -0.0441978   1.9243894   1.2797346  )
        11           C   tau(  11) = (   0.5387653   1.5985827   0.1382363  )
        12           C   tau(  12) = (   0.1985491   0.5388642   1.3320241  )
        13           C   tau(  13) = (   0.4665926   1.4899056   0.2717333  )
        14           C   tau(  14) = (   0.2707218   0.6475413   1.1985272  )
        15           C   tau(  15) = (   0.4901149   1.3071770   0.2617161  )
        16           C   tau(  16) = (   0.2471996   0.8302700   1.2085443  )
        17           C   tau(  17) = (   0.5844802   1.2299789   0.1178824  )
        18           C   tau(  18) = (   0.1528343   0.9074680   1.3523781  )
        19           C   tau(  19) = (   0.6415224   1.2693507   1.4515033  )
        20           C   tau(  20) = (   0.0957920   0.8680962   0.0187571  )
        21           C   tau(  21) = (   0.6225543   1.4521564   1.4628318  )
        22           C   tau(  22) = (   0.1147602   0.6852906   0.0074286  )
        23           C   tau(  23) = (   0.6591822   0.9532393   0.2373447  )
        24           C   tau(  24) = (   0.0781322   1.1842076   1.2329157  )
        25           C   tau(  25) = (   0.6799313   0.7629140   0.2289158  )
        26           C   tau(  26) = (   0.0573831   1.3745329   1.2413447  )
        27           C   tau(  27) = (   0.7665852   0.6707720   0.3675837  )
        28           C   tau(  28) = (  -0.0292707   1.4666750   1.1026767  )
        29           C   tau(  29) = (   0.8011012   0.4901200   0.3571195  )
        30           C   tau(  30) = (  -0.0637868   1.6473270   1.1131409  )
        31           C   tau(  31) = (   0.7465673   0.3903079   0.2054065  )
        32           C   tau(  32) = (  -0.0092528   1.7471391   1.2648539  )
        33           C   tau(  33) = (   0.6534709   0.4828621   0.0676429  )
        34           C   tau(  34) = (   0.0838435   1.6545849   1.4026176  )
        35           C   tau(  35) = (   0.6231289   0.6635125   0.0795761  )
        36           C   tau(  36) = (   0.1141856   1.4739344   1.3906843  )
        37           C   tau(  37) = (   0.8906452   0.1232893   0.3234150  )
        38           C   tau(  38) = (  -0.1533308   2.0141576   1.1468454  )
        39           C   tau(  39) = (   0.7357246   0.1191133   0.0267405  )
        40           C   tau(  40) = (   0.0015898   2.0183337   1.4435200  )
        41           O   tau(  41) = (  -0.1143112   1.8858002   0.4116961  )
        42           O   tau(  42) = (   0.8516257   0.2516467   1.0585643  )
        43           O   tau(  43) = (   0.0578242   1.9013216   0.6471374  )
        44           O   tau(  44) = (   0.6794902   0.2361254   0.8231231  )
        45           N   tau(  45) = (   0.1189676   1.0813450   0.4745950  )
        46           N   tau(  46) = (   0.6183468   1.0561020   0.9956655  )
        47           N   tau(  47) = (  -0.0131733   1.8161791   0.5233570  )
        48           N   tau(  48) = (   0.7504877   0.3212678   0.9469035  )
        49           N   tau(  49) = (   0.2813519   0.2453059   0.5999148  )
        50           N   tau(  50) = (   0.4559625   1.8921410   0.8703456  )
        51           C   tau(  51) = (   0.0218607   1.6269880   0.5110479  )
        52           C   tau(  52) = (   0.7154537   0.5104589   0.9592125  )
        53           C   tau(  53) = (   0.1088142   1.5417357   0.6522498  )
        54           C   tau(  54) = (   0.6285002   0.5957112   0.8180107  )
        55           C   tau(  55) = (   0.1384334   1.3600196   0.6430619  )
        56           C   tau(  56) = (   0.5988810   0.7774273   0.8271985  )
        57           C   tau(  57) = (   0.0844533   1.2609178   0.4918451  )
        58           C   tau(  58) = (   0.6528611   0.8765291   0.9784153  )
        59           C   tau(  59) = (   0.0020776   1.3517178   0.3486231  )
        60           C   tau(  60) = (   0.7352368   0.7857292   1.1216373  )
        61           C   tau(  61) = (  -0.0322528   1.5324819   0.3591947  )
        62           C   tau(  62) = (   0.7695672   0.6049651   1.1110657  )
        63           C   tau(  63) = (   0.1018379   0.9743391   0.6097009  )
        64           C   tau(  64) = (   0.6354765   1.1631078   0.8605596  )
        65           C   tau(  65) = (   0.1545446   0.7906612   0.6071344  )
        66           C   tau(  66) = (   0.5827698   1.3467857   0.8631260  )
        67           C   tau(  67) = (   0.1055915   0.6775462   0.7490692  )
        68           C   tau(  68) = (   0.6317230   1.4599007   0.7211913  )
        69           C   tau(  69) = (   0.1475079   0.4985479   0.7486358  )
        70           C   tau(  70) = (   0.5898066   1.6388990   0.7216246  )
        71           C   tau(  71) = (   0.2436858   0.4224235   0.6037786  )
        72           C   tau(  72) = (   0.4936286   1.7150235   0.8664818  )
        73           C   tau(  73) = (   0.2993902   0.5385581   0.4637072  )
        74           C   tau(  74) = (   0.4379242   1.5988888   1.0065532  )
        75           C   tau(  75) = (   0.2539355   0.7162190   0.4653863  )
        76           C   tau(  76) = (   0.4833789   1.4212279   1.0048741  )
        77           C   tau(  77) = (   0.2342258   0.1326038   0.7511038  )
        78           C   tau(  78) = (   0.5030886   2.0048432   0.7191566  )
        79           C   tau(  79) = (   0.3927652   0.1710857   0.4593694  )
        80           C   tau(  80) = (   0.3445492   1.9663613   1.0108910  )
        81           H   tau(  81) = (   0.3932356   1.5499106   0.3815098  )
        82           H   tau(  82) = (   0.3440789   0.5875364   1.0887506  )
        83           H   tau(  83) = (   0.4309045   1.2203804   0.3618331  )
        84           H   tau(  84) = (   0.3064100   0.9170666   1.1084274  )
        85           H   tau(  85) = (   0.7078366   1.2091285   1.3373754  )
        86           H   tau(  86) = (   0.0294779   0.9283185   0.1328850  )
        87           H   tau(  87) = (   0.6762147   1.5389691   1.3598384  )
        88           H   tau(  88) = (   0.0610998   0.5984779   0.1104220  )
        89           H   tau(  89) = (   0.6951792   1.0168928   0.3653420  )
        90           H   tau(  90) = (   0.0421352   1.1205541   1.1049185  )
        91           H   tau(  91) = (   0.8112198   0.7441625   0.4848017  )
        92           H   tau(  92) = (  -0.0739054   1.3932845   0.9854587  )
        93           H   tau(  93) = (   0.8735131   0.4259034   0.4650138  )
        94           H   tau(  94) = (  -0.1361987   1.7115436   1.0052467  )
        95           H   tau(  95) = (   0.6012178   0.3383458   1.4198923  )
        96           H   tau(  96) = (   0.1360966   1.7991011   0.0503681  )
        97           H   tau(  97) = (   0.5473801   0.6602213   1.4421516  )
        98           H   tau(  98) = (   0.1899344   1.4772257   0.0281089  )
        99           H   tau(  99) = (   0.8329684   0.1390966   0.4574615  )
       100           H   tau( 100) = (  -0.0956539   1.9983503   1.0127989  )
       101           H   tau( 101) = (   0.8968658  -0.0191821   0.2925265  )
       102           H   tau( 102) = (  -0.1595513   2.1566290   1.1777340  )
       103           H   tau( 103) = (   0.0269073   0.1779241   0.3260128  )
       104           H   tau( 104) = (   0.7104072   1.9595228   1.1442476  )
       105           H   tau( 105) = (   0.7712473  -0.0216755   0.0410167  )
       106           H   tau( 106) = (  -0.0339328   2.1591224   1.4292438  )
       107           H   tau( 107) = (   0.5915527   0.1285724   0.0007672  )
       108           H   tau( 108) = (   0.1457617   2.0088745   1.4694932  )
       109           H   tau( 109) = (   0.7990257   0.1033055   1.3816292  )
       110           H   tau( 110) = (  -0.0617113   2.0341415   0.0886312  )
       111           H   tau( 111) = (   0.1511490   1.6179630   0.7679019  )
       112           H   tau( 112) = (   0.5861654   0.5194839   0.7023586  )
       113           H   tau( 113) = (   0.2097178   1.2933421   0.7506047  )
       114           H   tau( 114) = (   0.5275966   0.8441049   0.7196557  )
       115           H   tau( 115) = (  -0.0322141   1.2771396   0.2287782  )
       116           H   tau( 116) = (   0.7695285   0.8603073   1.2414822  )
       117           H   tau( 117) = (  -0.0977387   1.6021513   0.2503079  )
       118           H   tau( 118) = (   0.8350531   0.5352956   1.2199525  )
       119           H   tau( 119) = (   0.0387363   1.0213316   0.7345311  )
       120           H   tau( 120) = (   0.6985781   1.1161153   0.7357293  )
       121           H   tau( 121) = (   0.0316449   0.7326783   0.8616154  )
       122           H   tau( 122) = (   0.7056695   1.4047686   0.6086451  )
       123           H   tau( 123) = (   0.1089941   0.4162007   0.8615452  )
       124           H   tau( 124) = (   0.6283203   1.7212462   0.6087153  )
       125           H   tau( 125) = (   0.3797671   0.4878659   0.3541708  )
       126           H   tau( 126) = (   0.3575473   1.6495810   1.1160897  )
       127           H   tau( 127) = (   0.2945108   0.8023679   0.3557724  )
       128           H   tau( 128) = (   0.4428037   1.3350790   1.1144881  )
       129           H   tau( 129) = (   0.3052497   0.1743995   0.8726723  )
       130           H   tau( 130) = (   0.4320648   1.9630475   0.5975882  )
       131           H   tau( 131) = (   0.0900763   0.1396059   0.7780123  )
       132           H   tau( 132) = (   0.6472382   1.9978410   0.6922481  )
       133           H   tau( 133) = (   0.2684862  -0.0055582   0.7196643  )
       134           H   tau( 134) = (   0.4688283   2.1430051   0.7505961  )
       135           H   tau( 135) = (   0.3924958   0.0255889   0.4707421  )
       136           H   tau( 136) = (   0.3448186   2.1118581   0.9995184  )
       137           H   tau( 137) = (   0.3408854   0.2073024   0.3271354  )
       138           H   tau( 138) = (   0.3964290   1.9301445   1.1431251  )
       139           H   tau( 139) = (   0.5306739   0.2200740   0.4690952  )
       140           H   tau( 140) = (   0.2066406   1.9173730   1.0011652  )

     number of k points=     4
                       cart. coord. in units 2pi/alat
        k(    1) = (   0.0000000   0.0000000   0.0000000), wk =   0.3333333
        k(    2) = (   0.0000000   0.0000000  -0.3400758), wk =   0.3333333
        k(    3) = (   0.3333333   0.0384501   0.0036571), wk =   0.6666667
        k(    4) = (   0.3333333   0.0384501  -0.3364187), wk =   0.6666667

     Dense  grid:  1253441 G-vectors     FFT dimensions: (  96, 216, 135)

     Estimated max dynamical RAM per process >    1301.09MB

     Estimated total allocated dynamical RAM >   10408.70MB

     Check: negative/imaginary core charge=   -0.000002    0.000000

     Initial potential from superposition of free atoms

     starting charge  407.99683, renormalised to  408.00000
     Starting wfc are  380 randomized atomic wfcs
     Checking if some PAW data can be deallocated... 

     total cpu time spent up to now is       62.0 secs

     per-process dynamical memory:   760.7 Mb

     Self-consistent Calculation

     iteration #  1     ecut=   100.00 Ry     beta=0.50
     Davidson diagonalization with overlap
     ethr =  1.00E-02,  avg # of iterations =  4.0

     total cpu time spent up to now is      200.5 secs

     total energy              =   -1846.21605923 Ry
     Harris-Foulkes estimate   =   -1853.99525342 Ry
     estimated scf accuracy    <      14.78149916 Ry

     iteration #  2     ecut=   100.00 Ry     beta=0.50
     Davidson diagonalization with overlap
     ethr =  3.62E-03,  avg # of iterations =  2.0

     total cpu time spent up to now is      274.8 secs

     total energy              =   -1845.93101992 Ry
     Harris-Foulkes estimate   =   -1847.92249895 Ry
     estimated scf accuracy    <       3.60598954 Ry

     iteration #  3     ecut=   100.00 Ry     beta=0.50
     Davidson diagonalization with overlap
     ethr =  8.84E-04,  avg # of iterations =  6.8

     total cpu time spent up to now is      429.3 secs

     total energy              =   -1846.55587268 Ry
     Harris-Foulkes estimate   =   -1850.67132139 Ry
     estimated scf accuracy    <      18.16264214 Ry

     iteration #  4     ecut=   100.00 Ry     beta=0.50
     Davidson diagonalization with overlap
     ethr =  8.84E-04,  avg # of iterations = 11.0

     total cpu time spent up to now is      546.1 secs

     total energy              =   -1848.46811385 Ry
     Harris-Foulkes estimate   =   -1848.99581607 Ry
     estimated scf accuracy    <       1.53864621 Ry

     iteration #  5     ecut=   100.00 Ry     beta=0.50
     Davidson diagonalization with overlap
     ethr =  3.77E-04,  avg # of iterations =  2.0

     total cpu time spent up to now is      618.6 secs

     total energy              =   -1848.45286491 Ry
     Harris-Foulkes estimate   =   -1848.61507289 Ry
     estimated scf accuracy    <       0.33363457 Ry

     iteration #  6     ecut=   100.00 Ry     beta=0.50
     Davidson diagonalization with overlap
     ethr =  8.18E-05,  avg # of iterations =  6.8

     total cpu time spent up to now is      780.7 secs

     total energy              =   -1848.65262449 Ry
     Harris-Foulkes estimate   =   -1848.69617811 Ry
     estimated scf accuracy    <       0.12400614 Ry

     iteration #  7     ecut=   100.00 Ry     beta=0.50
     Davidson diagonalization with overlap
     ethr =  3.04E-05,  avg # of iterations =  2.0

     total cpu time spent up to now is      853.8 secs

     total energy              =   -1848.64938896 Ry
     Harris-Foulkes estimate   =   -1848.66850211 Ry
     estimated scf accuracy    <       0.04519574 Ry

     iteration #  8     ecut=   100.00 Ry     beta=0.50
     Davidson diagonalization with overlap
     ethr =  1.11E-05,  avg # of iterations =  8.0

     total cpu time spent up to now is      973.0 secs

     total energy              =   -1848.66218677 Ry
     Harris-Foulkes estimate   =   -1848.66450243 Ry
     estimated scf accuracy    <       0.00735644 Ry

     iteration #  9     ecut=   100.00 Ry     beta=0.50
     Davidson diagonalization with overlap
     ethr =  1.80E-06,  avg # of iterations = 10.5

     total cpu time spent up to now is     1080.1 secs

     total energy              =   -1848.66321222 Ry
     Harris-Foulkes estimate   =   -1848.66367320 Ry
     estimated scf accuracy    <       0.00183994 Ry

     iteration # 10     ecut=   100.00 Ry     beta=0.50
     Davidson diagonalization with overlap
     ethr =  4.51E-07,  avg # of iterations =  4.0

     total cpu time spent up to now is     1172.5 secs

     total energy              =   -1848.66356670 Ry
     Harris-Foulkes estimate   =   -1848.66375886 Ry
     estimated scf accuracy    <       0.00068213 Ry

     iteration # 11     ecut=   100.00 Ry     beta=0.50
     Davidson diagonalization with overlap
     ethr =  1.67E-07,  avg # of iterations =  3.0

     total cpu time spent up to now is     1255.1 secs

     total energy              =   -1848.66358541 Ry
     Harris-Foulkes estimate   =   -1848.66370835 Ry
     estimated scf accuracy    <       0.00027823 Ry

     iteration # 12     ecut=   100.00 Ry     beta=0.50
     Davidson diagonalization with overlap
     ethr =  6.82E-08,  avg # of iterations =  3.2

     total cpu time spent up to now is     1346.7 secs

     total energy              =   -1848.66363807 Ry
     Harris-Foulkes estimate   =   -1848.66365393 Ry
     estimated scf accuracy    <       0.00003633 Ry

     iteration # 13     ecut=   100.00 Ry     beta=0.50
     Davidson diagonalization with overlap
     ethr =  8.90E-09,  avg # of iterations =  4.0

     total cpu time spent up to now is     1474.5 secs

     total energy              =   -1848.66365956 Ry
     Harris-Foulkes estimate   =   -1848.66366765 Ry
     estimated scf accuracy    <       0.00003004 Ry

     iteration # 14     ecut=   100.00 Ry     beta=0.50
     Davidson diagonalization with overlap
     ethr =  7.36E-09,  avg # of iterations =  2.0

     total cpu time spent up to now is     1545.9 secs

     total energy              =   -1848.66366327 Ry
     Harris-Foulkes estimate   =   -1848.66366385 Ry
     estimated scf accuracy    <       0.00000172 Ry

     iteration # 15     ecut=   100.00 Ry     beta=0.50
     Davidson diagonalization with overlap
     ethr =  4.22E-10,  avg # of iterations =  5.0

     total cpu time spent up to now is     1678.6 secs

     total energy              =   -1848.66366412 Ry
     Harris-Foulkes estimate   =   -1848.66366443 Ry
     estimated scf accuracy    <       0.00000093 Ry

     iteration # 16     ecut=   100.00 Ry     beta=0.50
     Davidson diagonalization with overlap
     ethr =  2.28E-10,  avg # of iterations =  2.0

     total cpu time spent up to now is     1750.8 secs

     total energy              =   -1848.66366409 Ry
     Harris-Foulkes estimate   =   -1848.66366421 Ry
     estimated scf accuracy    <       0.00000029 Ry

     iteration # 17     ecut=   100.00 Ry     beta=0.50
     Davidson diagonalization with overlap
     ethr =  7.02E-11,  avg # of iterations =  4.0

     total cpu time spent up to now is     1875.0 secs

     total energy              =   -1848.66366423 Ry
     Harris-Foulkes estimate   =   -1848.66366430 Ry
     estimated scf accuracy    <       0.00000021 Ry

     iteration # 18     ecut=   100.00 Ry     beta=0.50
     Davidson diagonalization with overlap
     ethr =  5.09E-11,  avg # of iterations =  2.0

     total cpu time spent up to now is     1946.7 secs

     total energy              =   -1848.66366422 Ry
     Harris-Foulkes estimate   =   -1848.66366425 Ry
     estimated scf accuracy    <       0.00000008 Ry

     iteration # 19     ecut=   100.00 Ry     beta=0.50
     Davidson diagonalization with overlap
     ethr =  1.84E-11,  avg # of iterations =  3.8

     total cpu time spent up to now is     2041.1 secs

     End of self-consistent calculation

          k = 0.0000 0.0000 0.0000 (156685 PWs)   bands (ev):

   -24.3336 -24.3336 -24.1903 -24.1902 -19.8731 -19.8730 -19.7241 -19.7240
   -17.8721 -17.8698 -17.7503 -17.7464 -17.3869 -17.3725 -17.2250 -17.1957
   -15.6681 -15.6345 -15.4969 -15.4639 -15.0449 -15.0089 -14.9110 -14.8858
   -13.6571 -13.6386 -13.5080 -13.4838 -12.7648 -12.7578 -12.7402 -12.7187
   -12.6247 -12.6226 -12.5983 -12.5689 -12.5045 -12.5022 -12.4315 -12.4249
   -11.6681 -11.6526 -11.5764 -11.5510 -11.3246 -11.3056 -11.1787 -11.1719
   -10.4762 -10.3912 -10.3054 -10.2479  -9.3544  -9.3281  -9.1746  -9.1737
    -8.9789  -8.9587  -8.8605  -8.8495  -8.8368  -8.8277  -8.7159  -8.7157
    -8.2259  -8.2248  -8.0321  -8.0125  -7.7795  -7.7085  -7.5500  -7.5479
    -7.4734  -7.4370  -7.3131  -7.2998  -6.9730  -6.9109  -6.8337  -6.7857
    -6.7610  -6.7426  -6.6591  -6.6408  -6.6181  -6.5599  -6.4443  -6.4413
    -6.4115  -6.3991  -6.3026  -6.2782  -5.7949  -5.7288  -5.6169  -5.6058
    -5.5510  -5.5120  -5.4605  -5.4391  -5.3621  -5.2562  -5.1679  -5.1464
    -5.0661  -5.0400  -5.0272  -4.9484  -4.8541  -4.8493  -4.7768  -4.7620
    -4.6747  -4.6653  -4.6106  -4.6078  -4.5386  -4.4484  -4.3608  -4.3408
    -4.2376  -4.2265  -4.1261  -4.1015  -4.0749  -4.0717  -4.0016  -3.9993
    -3.7988  -3.7902  -3.7436  -3.7080  -3.6982  -3.6044  -3.5675  -3.5066
    -3.5021  -3.4342  -3.4315  -3.3576  -3.3395  -3.2839  -3.2728  -3.2290
    -3.2231  -3.2069  -3.1268  -2.9504  -2.9212  -2.8911  -2.8496  -2.8445
    -2.8085  -2.7534  -2.7110  -2.6534  -2.6441  -2.5481  -2.4723  -2.3855
    -2.1967  -2.0893  -2.0808  -1.9800  -1.8493  -1.7479  -1.7429  -1.7150
    -1.3982  -1.3978  -1.2596  -1.2552  -1.2405  -1.2381  -1.1616  -1.0560
    -1.0446  -1.0196  -0.9272  -0.9051  -0.8507  -0.8198  -0.5356  -0.5028
    -0.4315  -0.4201  -0.3716  -0.3457  -0.3313  -0.3237  -0.2906  -0.2462
    -0.1605  -0.1518  -0.0416  -0.0406   0.3028   0.3595   0.4476   0.6259
     1.2840   1.3281   1.4040   1.4422   2.7545   2.7769   2.9048   2.9055
     3.7240   3.8138   3.9539   4.0544   4.4596   4.5235   4.8522   4.8652
     4.8787   4.9141   5.0790   5.0865   5.4308   5.4786   5.6500   5.7455
     5.8727   6.1440   6.1820   6.4136   6.4361   6.4751   6.5685   6.7452
     6.9444   7.0078   7.1064   7.2069   7.3148   7.5388   7.6063   7.6096
     7.7864   7.8445   7.9110   7.9242

          k = 0.0000 0.0000-0.3401 (156776 PWs)   bands (ev):

   -24.3336 -24.3336 -24.1903 -24.1902 -19.8731 -19.8730 -19.7241 -19.7240
   -17.8720 -17.8699 -17.7504 -17.7463 -17.3857 -17.3736 -17.2252 -17.1956
   -15.6637 -15.6379 -15.4986 -15.4628 -15.0408 -15.0162 -14.9116 -14.8838
   -13.6563 -13.6395 -13.5082 -13.4838 -12.7624 -12.7513 -12.7331 -12.7133
   -12.6287 -12.6098 -12.5632 -12.5479 -12.5408 -12.5344 -12.4426 -12.4327
   -11.6646 -11.6560 -11.5703 -11.5637 -11.3223 -11.3032 -11.1797 -11.1716
   -10.4651 -10.3916 -10.3167 -10.2461  -9.3509  -9.3291  -9.1754  -9.1738
    -8.9866  -8.9511  -8.8675  -8.8482  -8.8432  -8.8257  -8.7180  -8.7109
    -8.1968  -8.1845  -8.0662  -8.0409  -7.7282  -7.6879  -7.5837  -7.5815
    -7.4669  -7.4286  -7.3226  -7.2937  -6.9900  -6.9366  -6.8002  -6.7931
    -6.7552  -6.7409  -6.6769  -6.6588  -6.6160  -6.5514  -6.4564  -6.4434
    -6.3987  -6.3899  -6.2894  -6.2779  -5.7873  -5.7425  -5.6230  -5.6118
    -5.5442  -5.5026  -5.4809  -5.4018  -5.3233  -5.3172  -5.1957  -5.1671
    -5.0841  -5.0402  -4.9984  -4.9567  -4.8586  -4.8435  -4.7399  -4.7364
    -4.6789  -4.6535  -4.6400  -4.6247  -4.4648  -4.4440  -4.3533  -4.3255
    -4.2132  -4.2107  -4.1442  -4.1413  -4.0995  -4.0907  -4.0168  -4.0025
    -3.7945  -3.7410  -3.7110  -3.7059  -3.6985  -3.6675  -3.5805  -3.5141
    -3.4811  -3.4622  -3.4167  -3.3537  -3.3094  -3.2931  -3.2635  -3.2519
    -3.2270  -3.2216  -3.0459  -3.0160  -2.9222  -2.8767  -2.8762  -2.8433
    -2.7901  -2.7580  -2.7131  -2.6900  -2.5995  -2.5870  -2.4759  -2.2946
    -2.2835  -2.2064  -2.0168  -1.9365  -1.8644  -1.7856  -1.7564  -1.7286
    -1.4027  -1.3976  -1.3023  -1.2736  -1.2202  -1.1940  -1.1604  -1.0682
    -1.0449  -1.0127  -0.9254  -0.8978  -0.7046  -0.6152  -0.5209  -0.5183
    -0.4450  -0.4441  -0.4175  -0.4001  -0.3437  -0.3291  -0.2847  -0.2464
    -0.2139  -0.2033  -0.0434  -0.0383   0.2632   0.3748   0.4812   0.6181
     1.2941   1.3241   1.4123   1.4482   2.7475   2.7738   2.9014   2.9015
     3.7034   3.8651   3.9719   4.0066   4.4975   4.5712   4.7528   4.7863
     4.8981   4.9028   5.0724   5.0747   5.4988   5.5215   5.6560   5.7147
     6.1282   6.1739   6.2514   6.3028   6.4156   6.4844   6.5351   6.7877
     6.9103   6.9638   7.0744   7.2105   7.3486   7.4256   7.6023   7.6250
     7.7222   7.7838   7.9056   7.9132

          k = 0.3333 0.0385 0.0037 (156699 PWs)   bands (ev):

   -24.3336 -24.3335 -24.1903 -24.1903 -19.8732 -19.8730 -19.7241 -19.7240
   -17.8705 -17.8691 -17.7504 -17.7484 -17.3829 -17.3750 -17.2185 -17.2035
   -15.6556 -15.6383 -15.4915 -15.4748 -15.0326 -15.0132 -14.9116 -14.8992
   -13.6529 -13.6413 -13.5052 -13.4881 -12.7718 -12.7505 -12.7400 -12.7212
   -12.6229 -12.6190 -12.6010 -12.5782 -12.5022 -12.4987 -12.4324 -12.4242
   -11.6692 -11.6481 -11.5858 -11.5467 -11.3202 -11.3102 -11.1813 -11.1689
   -10.4564 -10.4123 -10.2921 -10.2626  -9.3586  -9.3269  -9.1757  -9.1750
    -8.9692  -8.9587  -8.8606  -8.8486  -8.8428  -8.8257  -8.7251  -8.7078
    -8.2343  -8.2245  -8.0248  -8.0146  -7.7741  -7.7363  -7.5404  -7.5348
    -7.4752  -7.4450  -7.3177  -7.2885  -6.9613  -6.9100  -6.8378  -6.7762
    -6.7702  -6.7396  -6.6580  -6.6360  -6.6206  -6.5559  -6.4471  -6.4457
    -6.4132  -6.3896  -6.3041  -6.2796  -5.7708  -5.7404  -5.6277  -5.5900
    -5.5570  -5.5279  -5.4156  -5.3787  -5.3183  -5.2545  -5.1836  -5.1154
    -5.1068  -5.0773  -5.0206  -5.0039  -4.8965  -4.8174  -4.7779  -4.7245
    -4.6658  -4.6512  -4.6199  -4.6150  -4.5175  -4.4690  -4.4064  -4.3786
    -4.2016  -4.1607  -4.1064  -4.0925  -4.0687  -4.0565  -4.0022  -3.9734
    -3.7668  -3.7307  -3.6954  -3.6802  -3.6694  -3.5980  -3.5770  -3.5370
    -3.5280  -3.5063  -3.4509  -3.4169  -3.3569  -3.3244  -3.2997  -3.2376
    -3.2102  -3.1895  -3.0708  -3.0370  -2.9288  -2.8776  -2.8380  -2.8323
    -2.7985  -2.7630  -2.7322  -2.6609  -2.6472  -2.5764  -2.4876  -2.3142
    -2.2471  -2.1570  -2.0246  -1.9147  -1.8649  -1.8105  -1.7427  -1.7109
    -1.3933  -1.3900  -1.2737  -1.2485  -1.2444  -1.2254  -1.1792  -1.0692
    -1.0376  -0.9879  -0.9166  -0.9038  -0.7547  -0.7112  -0.5559  -0.4989
    -0.4511  -0.4377  -0.4132  -0.4054  -0.3787  -0.3221  -0.2902  -0.2438
    -0.2018  -0.1937  -0.1341  -0.1278   0.3095   0.3571   0.4536   0.6067
     1.2893   1.3219   1.4143   1.4329   2.7472   2.7761   2.8887   2.9079
     3.7321   3.8178   3.9572   4.0311   4.5212   4.5702   4.7338   4.7897
     4.8854   4.9299   5.0320   5.0456   5.4413   5.4865   5.6630   5.7442
     6.1237   6.1667   6.2751   6.4311   6.5371   6.6470   6.8044   6.8467
     6.9765   6.9941   7.1904   7.2832   7.3185   7.4386   7.5457   7.5941
     7.6533   7.6599   7.7735   7.8407

          k = 0.3333 0.0385-0.3364 (156685 PWs)   bands (ev):

   -24.3336 -24.3335 -24.1903 -24.1903 -19.8732 -19.8730 -19.7241 -19.7240
   -17.8704 -17.8691 -17.7505 -17.7483 -17.3824 -17.3755 -17.2186 -17.2035
   -15.6533 -15.6394 -15.4928 -15.4740 -15.0311 -15.0157 -14.9139 -14.8983
   -13.6527 -13.6416 -13.5054 -13.4882 -12.7657 -12.7440 -12.7341 -12.7164
   -12.6244 -12.6140 -12.5636 -12.5484 -12.5408 -12.5352 -12.4427 -12.4341
   -11.6677 -11.6479 -11.5886 -11.5521 -11.3175 -11.3079 -11.1823 -11.1687
   -10.4488 -10.4067 -10.3039 -10.2630  -9.3556  -9.3263  -9.1784  -9.1740
    -8.9741  -8.9544  -8.8652  -8.8512  -8.8476  -8.8252  -8.7239  -8.7054
    -8.1995  -8.1814  -8.0633  -8.0463  -7.7186  -7.6982  -7.5878  -7.5730
    -7.4682  -7.4263  -7.3212  -7.2985  -6.9852  -6.9354  -6.8644  -6.8166
    -6.7594  -6.7089  -6.6453  -6.6368  -6.6104  -6.5492  -6.4547  -6.4454
    -6.4048  -6.3913  -6.2834  -6.2741  -5.7732  -5.7409  -5.6326  -5.5850
    -5.5431  -5.5081  -5.4362  -5.3992  -5.2833  -5.2702  -5.2358  -5.1157
    -5.1041  -5.0780  -5.0140  -4.9968  -4.8681  -4.8405  -4.7462  -4.7399
    -4.6829  -4.6468  -4.6386  -4.6242  -4.4588  -4.4129  -4.3474  -4.3112
    -4.2039  -4.1845  -4.1489  -4.1374  -4.0918  -4.0694  -3.9966  -3.9822
    -3.7749  -3.7425  -3.6856  -3.6770  -3.6699  -3.6490  -3.5628  -3.5478
    -3.5261  -3.4925  -3.4618  -3.3885  -3.3570  -3.3293  -3.3092  -3.2207
    -3.2141  -3.1974  -3.0977  -3.0008  -2.9199  -2.8790  -2.8553  -2.8337
    -2.8038  -2.7703  -2.7422  -2.6654  -2.6104  -2.5677  -2.5208  -2.3634
    -2.2040  -2.1585  -2.0505  -1.9539  -1.8394  -1.8040  -1.7710  -1.7414
    -1.3987  -1.3951  -1.2897  -1.2653  -1.2255  -1.2058  -1.1759  -1.0604
    -1.0383  -0.9973  -0.9196  -0.9054  -0.6458  -0.5870  -0.5234  -0.4961
    -0.4337  -0.4239  -0.4206  -0.3875  -0.3667  -0.3386  -0.3082  -0.2862
    -0.2489  -0.2241  -0.1557  -0.1431   0.2959   0.3584   0.4550   0.6166
     1.2915   1.3303   1.4160   1.4371   2.7410   2.7689   2.8833   2.9045
     3.7386   3.8251   3.9698   4.0010   4.5446   4.5815   4.7263   4.7863
     4.8452   4.8821   5.0378   5.0433   5.4836   5.5144   5.6691   5.7033
     6.1609   6.2219   6.3912   6.4657   6.5463   6.5615   6.6556   6.9325
     7.0171   7.0471   7.1287   7.2110   7.3761   7.4263   7.5482   7.6547
     7.6631   7.7123   7.8161   7.8392

     highest occupied, lowest unoccupied level (ev):     1.4482    2.7410

!    total energy              =   -1848.66366424 Ry
     Harris-Foulkes estimate   =   -1848.66366424 Ry
     estimated scf accuracy    <          4.6E-09 Ry

     total all-electron energy =     -7160.870242 Ry

     The total energy is the sum of the following terms:

     one-electron contribution =   -1006.33621976 Ry
     hartree contribution      =     650.99242529 Ry
     xc contribution           =    -414.58252560 Ry
     ewald contribution        =    -503.38722428 Ry
     Dispersion Correction     =      -0.62442886 Ry
     one-center paw contrib.   =    -574.72569102 Ry

     convergence has been achieved in  19 iterations

     Forces acting on atoms (cartesian axes, Ry/au):

     atom    1 type  4   force =    -0.00045164   -0.00040846    0.00046921
     atom    2 type  4   force =     0.00045164    0.00040846   -0.00046921
     atom    3 type  4   force =     0.00107451    0.00030687    0.00007901
     atom    4 type  4   force =    -0.00107451   -0.00030687   -0.00007901
     atom    5 type  2   force =    -0.00040884    0.00095104   -0.00062112
     atom    6 type  2   force =     0.00040884   -0.00095104    0.00062112
     atom    7 type  2   force =    -0.00045453    0.00070103   -0.00060503
     atom    8 type  2   force =     0.00045453   -0.00070103    0.00060503
     atom    9 type  2   force =    -0.00070506    0.00032898   -0.00011377
     atom   10 type  2   force =     0.00070506   -0.00032898    0.00011377
     atom   11 type  1   force =    -0.00007212   -0.00042359   -0.00106111
     atom   12 type  1   force =     0.00007212    0.00042359    0.00106111
     atom   13 type  1   force =    -0.00115755    0.00069303    0.00127528
     atom   14 type  1   force =     0.00115755   -0.00069303   -0.00127528
     atom   15 type  1   force =     0.00023795   -0.00041296    0.00143695
     atom   16 type  1   force =    -0.00023795    0.00041296   -0.00143695
     atom   17 type  1   force =     0.00025466   -0.00055397   -0.00005319
     atom   18 type  1   force =    -0.00025466    0.00055397    0.00005319
     atom   19 type  1   force =     0.00055493   -0.00033916   -0.00080578
     atom   20 type  1   force =    -0.00055493    0.00033916    0.00080578
     atom   21 type  1   force =     0.00067756    0.00108751   -0.00051562
     atom   22 type  1   force =    -0.00067756   -0.00108751    0.00051562
     atom   23 type  1   force =     0.00027583    0.00026816   -0.00035976
     atom   24 type  1   force =    -0.00027583   -0.00026816    0.00035976
     atom   25 type  1   force =    -0.00038978   -0.00051790   -0.00066789
     atom   26 type  1   force =     0.00038978    0.00051790    0.00066789
     atom   27 type  1   force =    -0.00034754    0.00111813    0.00115425
     atom   28 type  1   force =     0.00034754   -0.00111813   -0.00115425
     atom   29 type  1   force =     0.00046895   -0.00108182    0.00058900
     atom   30 type  1   force =    -0.00046895    0.00108182   -0.00058900
     atom   31 type  1   force =     0.00001355   -0.00076188   -0.00073413
     atom   32 type  1   force =    -0.00001355    0.00076188    0.00073413
     atom   33 type  1   force =     0.00052414   -0.00041146   -0.00005188
     atom   34 type  1   force =    -0.00052414    0.00041146    0.00005188
     atom   35 type  1   force =    -0.00100035    0.00124031   -0.00029880
     atom   36 type  1   force =     0.00100035   -0.00124031    0.00029880
     atom   37 type  1   force =    -0.00131564   -0.00052451   -0.00061851
     atom   38 type  1   force =     0.00131564    0.00052451    0.00061851
     atom   39 type  1   force =     0.00043031   -0.00065794    0.00028780
     atom   40 type  1   force =    -0.00043031    0.00065794   -0.00028780
     atom   41 type  4   force =     0.00155033   -0.00034837    0.00037536
     atom   42 type  4   force =    -0.00155033    0.00034837   -0.00037536
     atom   43 type  4   force =    -0.00079739    0.00020105    0.00010092
     atom   44 type  4   force =     0.00079739   -0.00020105   -0.00010092
     atom   45 type  2   force =    -0.00006607    0.00085295   -0.00057357
     atom   46 type  2   force =     0.00006607   -0.00085295    0.00057357
     atom   47 type  2   force =    -0.00079123    0.00095627   -0.00056010
     atom   48 type  2   force =     0.00079123   -0.00095627    0.00056010
     atom   49 type  2   force =     0.00060211    0.00020219    0.00066957
     atom   50 type  2   force =    -0.00060211   -0.00020219   -0.00066957
     atom   51 type  1   force =    -0.00061670   -0.00043713    0.00014309
     atom   52 type  1   force =     0.00061670    0.00043713   -0.00014309
     atom   53 type  1   force =     0.00031056    0.00080787    0.00105209
     atom   54 type  1   force =    -0.00031056   -0.00080787   -0.00105209
     atom   55 type  1   force =     0.00075921   -0.00049148    0.00086728
     atom   56 type  1   force =    -0.00075921    0.00049148   -0.00086728
     atom   57 type  1   force =     0.00058405   -0.00101584   -0.00016420
     atom   58 type  1   force =    -0.00058405    0.00101584    0.00016420
     atom   59 type  1   force =    -0.00016463   -0.00041464   -0.00133184
     atom   60 type  1   force =     0.00016463    0.00041464    0.00133184
     atom   61 type  1   force =    -0.00096637    0.00081157   -0.00030388
     atom   62 type  1   force =     0.00096637   -0.00081157    0.00030388
     atom   63 type  1   force =     0.00025684   -0.00049373    0.00042476
     atom   64 type  1   force =    -0.00025684    0.00049373   -0.00042476
     atom   65 type  1   force =    -0.00008156    0.00073560    0.00022703
     atom   66 type  1   force =     0.00008156   -0.00073560   -0.00022703
     atom   67 type  1   force =    -0.00156725    0.00102146    0.00091961
     atom   68 type  1   force =     0.00156725   -0.00102146   -0.00091961
     atom   69 type  1   force =     0.00035013   -0.00075910    0.00082915
     atom   70 type  1   force =    -0.00035013    0.00075910   -0.00082915
     atom   71 type  1   force =     0.00012228   -0.00090777    0.00022938
     atom   72 type  1   force =    -0.00012228    0.00090777   -0.00022938
     atom   73 type  1   force =     0.00108681   -0.00093655   -0.00109529
     atom   74 type  1   force =    -0.00108681    0.00093655    0.00109529
     atom   75 type  1   force =    -0.00100430    0.00101324   -0.00097108
     atom   76 type  1   force =     0.00100430   -0.00101324    0.00097108
     atom   77 type  1   force =    -0.00042191   -0.00029533    0.00016226
     atom   78 type  1   force =     0.00042191    0.00029533   -0.00016226
     atom   79 type  1   force =    -0.00128361   -0.00138851    0.00029683
     atom   80 type  1   force =     0.00128361    0.00138851   -0.00029683
     atom   81 type  3   force =    -0.00004913   -0.00040206   -0.00016622
     atom   82 type  3   force =     0.00004913    0.00040206    0.00016622
     atom   83 type  3   force =     0.00007335   -0.00027364    0.00042805
     atom   84 type  3   force =    -0.00007335    0.00027364   -0.00042805
     atom   85 type  3   force =    -0.00006366    0.00017097   -0.00021220
     atom   86 type  3   force =     0.00006366   -0.00017097    0.00021220
     atom   87 type  3   force =    -0.00039078   -0.00023030   -0.00024427
     atom   88 type  3   force =     0.00039078    0.00023030    0.00024427
     atom   89 type  3   force =     0.00036558    0.00053012    0.00032297
     atom   90 type  3   force =    -0.00036558   -0.00053012   -0.00032297
     atom   91 type  3   force =     0.00048373   -0.00014695   -0.00027795
     atom   92 type  3   force =    -0.00048373    0.00014695    0.00027795
     atom   93 type  3   force =    -0.00039238    0.00058371   -0.00002176
     atom   94 type  3   force =     0.00039238   -0.00058371    0.00002176
     atom   95 type  3   force =    -0.00003615    0.00071498    0.00040843
     atom   96 type  3   force =     0.00003615   -0.00071498   -0.00040843
     atom   97 type  3   force =     0.00037024   -0.00020651   -0.00011401
     atom   98 type  3   force =    -0.00037024    0.00020651    0.00011401
     atom   99 type  3   force =    -0.00039569   -0.00023879    0.00049684
     atom  100 type  3   force =     0.00039569    0.00023879   -0.00049684
     atom  101 type  3   force =    -0.00019003    0.00038099   -0.00013041
     atom  102 type  3   force =     0.00019003   -0.00038099    0.00013041
     atom  103 type  3   force =     0.00086511   -0.00006671    0.00004067
     atom  104 type  3   force =    -0.00086511    0.00006671   -0.00004067
     atom  105 type  3   force =    -0.00016138    0.00097741   -0.00041952
     atom  106 type  3   force =     0.00016138   -0.00097741    0.00041952
     atom  107 type  3   force =     0.00064017   -0.00045126   -0.00045009
     atom  108 type  3   force =    -0.00064017    0.00045126    0.00045009
     atom  109 type  3   force =    -0.00002986   -0.00087081    0.00046494
     atom  110 type  3   force =     0.00002986    0.00087081   -0.00046494
     atom  111 type  3   force =    -0.00013105   -0.00018991    0.00008389
     atom  112 type  3   force =     0.00013105    0.00018991   -0.00008389
     atom  113 type  3   force =    -0.00035782    0.00038324    0.00036986
     atom  114 type  3   force =     0.00035782   -0.00038324   -0.00036986
     atom  115 type  3   force =     0.00031090    0.00036721    0.00001700
     atom  116 type  3   force =    -0.00031090   -0.00036721   -0.00001700
     atom  117 type  3   force =     0.00036487   -0.00003669   -0.00010798
     atom  118 type  3   force =    -0.00036487    0.00003669    0.00010798
     atom  119 type  3   force =    -0.00038747   -0.00005374   -0.00002865
     atom  120 type  3   force =     0.00038747    0.00005374    0.00002865
     atom  121 type  3   force =     0.00002284   -0.00006132    0.00028724
     atom  122 type  3   force =    -0.00002284    0.00006132   -0.00028724
     atom  123 type  3   force =    -0.00013521    0.00049913   -0.00031421
     atom  124 type  3   force =     0.00013521   -0.00049913    0.00031421
     atom  125 type  3   force =    -0.00050530    0.00036519   -0.00017443
     atom  126 type  3   force =     0.00050530   -0.00036519    0.00017443
     atom  127 type  3   force =     0.00048993   -0.00040899   -0.00017643
     atom  128 type  3   force =    -0.00048993    0.00040899    0.00017643
     atom  129 type  3   force =    -0.00014986   -0.00035910    0.00019800
     atom  130 type  3   force =     0.00014986    0.00035910   -0.00019800
     atom  131 type  3   force =     0.00034524    0.00002452    0.00004814
     atom  132 type  3   force =    -0.00034524   -0.00002452   -0.00004814
     atom  133 type  3   force =    -0.00012799    0.00045549    0.00002942
     atom  134 type  3   force =     0.00012799   -0.00045549   -0.00002942
     atom  135 type  3   force =     0.00015469    0.00014056    0.00017318
     atom  136 type  3   force =    -0.00015469   -0.00014056   -0.00017318
     atom  137 type  3   force =    -0.00080251   -0.00013105   -0.00077032
     atom  138 type  3   force =     0.00080251    0.00013105    0.00077032
     atom  139 type  3   force =     0.00143001   -0.00005024    0.00018822
     atom  140 type  3   force =    -0.00143001    0.00005024   -0.00018822

     Total force =     0.012329     Total SCF correction =     0.000104


     Computing stress (Cartesian axis) and pressure

          total   stress  (Ry/bohr**3)                   (kbar)     P=   -5.32
  -0.00004646  -0.00000612   0.00000072         -6.83     -0.90      0.11
  -0.00000612  -0.00001821   0.00000221         -0.90     -2.68      0.33
   0.00000072   0.00000221  -0.00004388          0.11      0.33     -6.45


     Writing output data file scf.save
 
     init_run     :     59.70s CPU     61.38s WALL (       1 calls)
     electrons    :   1905.73s CPU   1979.21s WALL (       1 calls)
     forces       :     32.41s CPU     32.83s WALL (       1 calls)
     stress       :    207.44s CPU    207.89s WALL (       1 calls)

     Called by init_run:
     wfcinit      :     40.46s CPU     41.90s WALL (       1 calls)
     potinit      :      6.76s CPU      6.78s WALL (       1 calls)

     Called by electrons:
     c_bands      :   1692.10s CPU   1753.40s WALL (      19 calls)
     sum_band     :    185.43s CPU    194.54s WALL (      19 calls)
     v_of_rho     :      4.29s CPU      4.49s WALL (      20 calls)
     newd         :     10.29s CPU     13.22s WALL (      20 calls)
     PAW_pot      :     12.48s CPU     12.48s WALL (      20 calls)
     mix_rho      :      1.12s CPU      1.15s WALL (      19 calls)

     Called by c_bands:
     init_us_2    :     12.65s CPU     12.72s WALL (     164 calls)
     cegterg      :   1648.26s CPU   1709.51s WALL (      76 calls)

     Called by sum_band:
     sum_band:bec :      0.09s CPU      0.09s WALL (      76 calls)
     addusdens    :     11.06s CPU     13.84s WALL (      19 calls)

     Called by *egterg:
     h_psi        :    935.78s CPU    979.84s WALL (     424 calls)
     s_psi        :    190.69s CPU    190.66s WALL (     424 calls)
     g_psi        :      5.49s CPU      5.49s WALL (     344 calls)
     cdiaghg      :    100.27s CPU    100.33s WALL (     420 calls)

     Called by h_psi:
     h_psi:pot    :    928.63s CPU    972.56s WALL (     424 calls)
     h_psi:calbec :    180.37s CPU    180.76s WALL (     424 calls)
     vloc_psi     :    557.65s CPU    601.20s WALL (     424 calls)
     add_vuspsi   :    190.61s CPU    190.60s WALL (     424 calls)

     General routines
     calbec       :    265.12s CPU    265.69s WALL (     520 calls)
     fft          :      5.39s CPU      5.74s WALL (     284 calls)
     fftw         :    597.82s CPU    647.27s WALL (  124584 calls)
 
     Parallel routines
     fft_scatter  :    114.42s CPU    163.60s WALL (  124868 calls)
 
     PWSCF        : 36m56.53s CPU    38m40.03s WALL

 
   This run was terminated on:   3:40:25   8Dec2017            

=------------------------------------------------------------------------------=
   JOB DONE.
=------------------------------------------------------------------------------=
