
     Program PWSCF v.6.1 (svn rev. 13369) starts on  4Nov2017 at  1:17:33 

     This program is part of the open-source Quantum ESPRESSO suite
     for quantum simulation of materials; please cite
         "P. Giannozzi et al., J. Phys.:Condens. Matter 21 395502 (2009);
          URL http://www.quantum-espresso.org", 
     in publications or presentations arising from this work. More details at
     http://www.quantum-espresso.org/quote

     Parallel version (MPI), running on     8 processors
     R & G space division:  proc/nbgrp/npool/nimage =       8
     Waiting for input...
     Reading input from standard input

     Current dimensions of program PWSCF are:
     Max number of different atomic species (ntypx) = 10
     Max number of k-points (npk) =  40000
     Max angular momentum in pseudopotentials (lmaxx) =  3
               file C.pbe-n-kjpaw_psl.0.1.UPF: wavefunction(s)  2P renormalized
               file N.pbe-n-kjpaw_psl.0.1.UPF: wavefunction(s)  2P renormalized
               file H.pbe-kjpaw_psl.0.1.UPF: wavefunction(s)  1S renormalized
               file O.pbe-n-kjpaw_psl.0.1.UPF: wavefunction(s)  2P renormalized

     -------------------------------------
     Parameters for Dispersion Correction:
     -------------------------------------
       atom      VdW radius       C_6     

        C          2.744         60.710
        N          2.640         42.670
        H          1.892          4.857
        O          2.536         24.284

     Subspace diagonalization in iterative solution of the eigenvalue problem:
     a serial algorithm will be used

 
     Parallelization info
     --------------------
     sticks:   dense  smooth     PW     G-vecs:    dense   smooth      PW
     Min         389     389    107                24282    24282    3485
     Max         390     390    108                24284    24284    3488
     Sum        3117    3117    859               194265   194265   27889
 


     bravais-lattice index     =            0
     lattice parameter (alat)  =       9.7434  a.u.
     unit-cell volume          =    1438.0906 (a.u.)^3
     number of atoms/cell      =           22
     number of atomic types    =            4
     number of electrons       =        80.00
     number of Kohn-Sham states=           48
     kinetic-energy cutoff     =     100.0000  Ry
     charge density cutoff     =     400.0000  Ry
     convergence threshold     =      1.0E-08
     mixing beta               =       0.5000
     number of iterations used =            8  plain     mixing
     Exchange-correlation      =  SLA  PW   PBX  PBC ( 1  4  3  4 0 0)

     celldm(1)=   9.743428  celldm(2)=   0.000000  celldm(3)=   0.000000
     celldm(4)=   0.000000  celldm(5)=   0.000000  celldm(6)=   0.000000

     crystal axes: (cart. coord. in units of alat)
               a(1) = (   1.000000   0.000000   0.000000 )  
               a(2) = (   0.088662   1.032079   0.000000 )  
               a(3) = (   0.391146   0.486219   1.506392 )  

     reciprocal axes: (cart. coord. in units 2 pi/alat)
               b(1) = (  1.000000 -0.085906 -0.231930 )  
               b(2) = (  0.000000  0.968918 -0.312739 )  
               b(3) = (  0.000000  0.000000  0.663838 )  


     PseudoPot. # 1 for  C read from file:
     /scratch/ahofstet/pseudo/C.pbe-n-kjpaw_psl.0.1.UPF
     MD5 check sum: 430fe95172b1e11ef3f8ed03bac87931
     Pseudo is Projector augmented-wave + core cor, Zval =  4.0
     Generated using "atomic" code by A. Dal Corso  v.5.0.99 svn rev. 10869
     Shape of augmentation charge: BESSEL
     Using radial grid of 1073 points,  4 beta functions with: 
                l(1) =   0
                l(2) =   0
                l(3) =   1
                l(4) =   1
     Q(r) pseudized with 0 coefficients 


     PseudoPot. # 2 for  N read from file:
     /scratch/ahofstet/pseudo/N.pbe-n-kjpaw_psl.0.1.UPF
     MD5 check sum: f73187c8b701007e77325f868c9291d7
     Pseudo is Projector augmented-wave + core cor, Zval =  5.0
     Generated using "atomic" code by A. Dal Corso  v.5.0.99 svn rev. 10869
     Shape of augmentation charge: PSQ
     Using radial grid of 1085 points,  4 beta functions with: 
                l(1) =   0
                l(2) =   0
                l(3) =   1
                l(4) =   1
     Q(r) pseudized with 0 coefficients 


     PseudoPot. # 3 for  H read from file:
     /scratch/ahofstet/pseudo/H.pbe-kjpaw_psl.0.1.UPF
     MD5 check sum: 94e484f906d9e9773b2f6e52662335b2
     Pseudo is Projector augmented-wave, Zval =  1.0
     Generated using "atomic" code by A. Dal Corso  v.5.0.99 svn rev. 10869
     Shape of augmentation charge: PSQ
     Using radial grid of  929 points,  2 beta functions with: 
                l(1) =   0
                l(2) =   0
     Q(r) pseudized with 0 coefficients 


     PseudoPot. # 4 for  O read from file:
     /scratch/ahofstet/pseudo/O.pbe-n-kjpaw_psl.0.1.UPF
     MD5 check sum: 3f94a2996a3169367d6eb21d9b593f20
     Pseudo is Projector augmented-wave + core cor, Zval =  6.0
     Generated using "atomic" code by A. Dal Corso  v.5.0.99 svn rev. 10869
     Shape of augmentation charge: BESSEL
     Using radial grid of 1095 points,  4 beta functions with: 
                l(1) =   0
                l(2) =   0
                l(3) =   1
                l(4) =   1
     Q(r) pseudized with 0 coefficients 


     atomic species   valence    mass     pseudopotential
        C              4.00    12.01070      C( 1.00)
        N              5.00    14.00670      N( 1.00)
        H              1.00     1.00794      H( 1.00)
        O              6.00    15.99940      O( 1.00)

      2 Sym. Ops., with inversion, found



   Cartesian axes

     site n.     atom                  positions (alat units)
         1           C   tau(   1) = (   0.3818367   0.2905884   0.2008560  )
         2           C   tau(   2) = (   1.0979710   1.2277103   1.3055356  )
         3           O   tau(   3) = (   0.6092993   0.2215072   0.2249422  )
         4           O   tau(   4) = (   0.8705085   1.2967915   1.2814493  )
         5           O   tau(   5) = (   0.2160748   0.1915572   0.0324520  )
         6           O   tau(   6) = (   1.2637330   1.3267414   1.4739396  )
         7           C   tau(   7) = (   0.4627609   0.6126254   0.5503742  )
         8           C   tau(   8) = (   1.0170469   0.9056732   0.9560174  )
         9           O   tau(   9) = (   0.6076605   0.7896395   0.4800043  )
        10           O   tau(  10) = (   0.8721473   0.7286592   1.0263872  )
        11           O   tau(  11) = (   0.4726568   0.5044639   0.7831757  )
        12           O   tau(  12) = (   1.0071509   1.0138348   0.7232158  )
        13           C   tau(  13) = (   0.2620288   0.5006407   0.3696690  )
        14           C   tau(  14) = (   1.2177790   1.0176580   1.1367226  )
        15           H   tau(  15) = (   0.1874447   0.6550528   0.2424957  )
        16           H   tau(  16) = (   1.2923631   0.8632459   1.2638959  )
        17           H   tau(  17) = (   0.0961408   0.4136554   0.4722119  )
        18           H   tau(  18) = (   1.3836670   1.1046433   1.0341796  )
        19           H   tau(  19) = (   0.6866401   0.5267112   1.4381091  )
        20           H   tau(  20) = (   0.7931677   0.9915874   0.0682825  )
        21           H   tau(  21) = (   0.6251147   0.5837918   0.8798187  )
        22           H   tau(  22) = (   0.8546931   0.9345069   0.6265729  )

     number of k points=    20
                       cart. coord. in units 2pi/alat
        k(    1) = (   0.0000000   0.0000000   0.0000000), wk =   0.0625000
        k(    2) = (   0.0000000   0.0000000  -0.3319190), wk =   0.0625000
        k(    3) = (   0.0000000   0.2422295  -0.0781846), wk =   0.1250000
        k(    4) = (   0.0000000   0.2422295  -0.4101036), wk =   0.1250000
        k(    5) = (   0.0000000  -0.4844589   0.1563693), wk =   0.0625000
        k(    6) = (   0.0000000  -0.4844589  -0.1755497), wk =   0.0625000
        k(    7) = (   0.2500000  -0.0214765  -0.0579824), wk =   0.1250000
        k(    8) = (   0.2500000  -0.0214765  -0.3899014), wk =   0.1250000
        k(    9) = (   0.2500000   0.2207529  -0.1361670), wk =   0.1250000
        k(   10) = (   0.2500000   0.2207529  -0.4680860), wk =   0.1250000
        k(   11) = (   0.2500000  -0.5059354   0.0983869), wk =   0.1250000
        k(   12) = (   0.2500000  -0.5059354  -0.2335321), wk =   0.1250000
        k(   13) = (   0.2500000  -0.2637060   0.0202022), wk =   0.1250000
        k(   14) = (   0.2500000  -0.2637060  -0.3117168), wk =   0.1250000
        k(   15) = (  -0.5000000   0.0429530   0.1159648), wk =   0.0625000
        k(   16) = (  -0.5000000   0.0429530  -0.2159542), wk =   0.0625000
        k(   17) = (  -0.5000000   0.2851825   0.0377801), wk =   0.1250000
        k(   18) = (  -0.5000000   0.2851825  -0.2941389), wk =   0.1250000
        k(   19) = (  -0.5000000  -0.4415059   0.2723340), wk =   0.0625000
        k(   20) = (  -0.5000000  -0.4415059  -0.0595850), wk =   0.0625000

     Dense  grid:   194265 G-vectors     FFT dimensions: (  64,  72, 108)

     Estimated max dynamical RAM per process >      86.88MB

     Estimated total allocated dynamical RAM >     695.03MB

     Check: negative/imaginary core charge=   -0.000003    0.000000

     Initial potential from superposition of free atoms

     starting charge   79.99966, renormalised to   80.00000
     Starting wfc are   64 randomized atomic wfcs
     Checking if some PAW data can be deallocated... 

     total cpu time spent up to now is        6.6 secs

     per-process dynamical memory:   126.7 Mb

     Self-consistent Calculation

     iteration #  1     ecut=   100.00 Ry     beta=0.50
     Davidson diagonalization with overlap
     ethr =  1.00E-02,  avg # of iterations =  4.2

     total cpu time spent up to now is       17.8 secs

     total energy              =    -453.06079232 Ry
     Harris-Foulkes estimate   =    -454.33678181 Ry
     estimated scf accuracy    <       2.28167563 Ry

     iteration #  2     ecut=   100.00 Ry     beta=0.50
     Davidson diagonalization with overlap
     ethr =  2.85E-03,  avg # of iterations =  3.0

     total cpu time spent up to now is       25.5 secs

     total energy              =    -453.50704529 Ry
     Harris-Foulkes estimate   =    -453.68772551 Ry
     estimated scf accuracy    <       0.38341478 Ry

     iteration #  3     ecut=   100.00 Ry     beta=0.50
     Davidson diagonalization with overlap
     ethr =  4.79E-04,  avg # of iterations =  5.3

     total cpu time spent up to now is       34.3 secs

     total energy              =    -453.60503929 Ry
     Harris-Foulkes estimate   =    -453.63381519 Ry
     estimated scf accuracy    <       0.07742456 Ry

     iteration #  4     ecut=   100.00 Ry     beta=0.50
     Davidson diagonalization with overlap
     ethr =  9.68E-05,  avg # of iterations =  3.2

     total cpu time spent up to now is       41.2 secs

     total energy              =    -453.61216248 Ry
     Harris-Foulkes estimate   =    -453.61712472 Ry
     estimated scf accuracy    <       0.01467421 Ry

     iteration #  5     ecut=   100.00 Ry     beta=0.50
     Davidson diagonalization with overlap
     ethr =  1.83E-05,  avg # of iterations =  5.6

     total cpu time spent up to now is       51.7 secs

     total energy              =    -453.61674411 Ry
     Harris-Foulkes estimate   =    -453.61902376 Ry
     estimated scf accuracy    <       0.00645477 Ry

     iteration #  6     ecut=   100.00 Ry     beta=0.50
     Davidson diagonalization with overlap
     ethr =  8.07E-06,  avg # of iterations =  1.1

     total cpu time spent up to now is       57.6 secs

     total energy              =    -453.61580917 Ry
     Harris-Foulkes estimate   =    -453.61717948 Ry
     estimated scf accuracy    <       0.00192881 Ry

     iteration #  7     ecut=   100.00 Ry     beta=0.50
     Davidson diagonalization with overlap
     ethr =  2.41E-06,  avg # of iterations =  5.3

     total cpu time spent up to now is       68.8 secs

     total energy              =    -453.61727802 Ry
     Harris-Foulkes estimate   =    -453.61823522 Ry
     estimated scf accuracy    <       0.00297907 Ry

     iteration #  8     ecut=   100.00 Ry     beta=0.50
     Davidson diagonalization with overlap
     ethr =  2.41E-06,  avg # of iterations =  2.0

     total cpu time spent up to now is       75.1 secs

     total energy              =    -453.61681704 Ry
     Harris-Foulkes estimate   =    -453.61735132 Ry
     estimated scf accuracy    <       0.00126431 Ry

     iteration #  9     ecut=   100.00 Ry     beta=0.50
     Davidson diagonalization with overlap
     ethr =  1.58E-06,  avg # of iterations =  3.6

     total cpu time spent up to now is       84.0 secs

     total energy              =    -453.61727348 Ry
     Harris-Foulkes estimate   =    -453.61726922 Ry
     estimated scf accuracy    <       0.00001436 Ry

     iteration # 10     ecut=   100.00 Ry     beta=0.50
     Davidson diagonalization with overlap
     ethr =  1.80E-08,  avg # of iterations =  3.9

     total cpu time spent up to now is       92.1 secs

     total energy              =    -453.61726128 Ry
     Harris-Foulkes estimate   =    -453.61727727 Ry
     estimated scf accuracy    <       0.00002811 Ry

     iteration # 11     ecut=   100.00 Ry     beta=0.50
     Davidson diagonalization with overlap
     ethr =  1.80E-08,  avg # of iterations =  4.0

     total cpu time spent up to now is      100.8 secs

     total energy              =    -453.61726774 Ry
     Harris-Foulkes estimate   =    -453.61726793 Ry
     estimated scf accuracy    <       0.00000044 Ry

     iteration # 12     ecut=   100.00 Ry     beta=0.50
     Davidson diagonalization with overlap
     ethr =  5.52E-10,  avg # of iterations =  3.1

     total cpu time spent up to now is      107.8 secs

     total energy              =    -453.61726777 Ry
     Harris-Foulkes estimate   =    -453.61726781 Ry
     estimated scf accuracy    <       0.00000007 Ry

     iteration # 13     ecut=   100.00 Ry     beta=0.50
     Davidson diagonalization with overlap
     ethr =  8.90E-11,  avg # of iterations =  4.0

     total cpu time spent up to now is      117.5 secs

     total energy              =    -453.61726782 Ry
     Harris-Foulkes estimate   =    -453.61726783 Ry
     estimated scf accuracy    <       0.00000003 Ry

     iteration # 14     ecut=   100.00 Ry     beta=0.50
     Davidson diagonalization with overlap
     ethr =  3.45E-11,  avg # of iterations =  1.0

     total cpu time spent up to now is      123.5 secs

     total energy              =    -453.61726781 Ry
     Harris-Foulkes estimate   =    -453.61726782 Ry
     estimated scf accuracy    <       0.00000001 Ry

     iteration # 15     ecut=   100.00 Ry     beta=0.50
     Davidson diagonalization with overlap
     ethr =  1.46E-11,  avg # of iterations =  3.0

     total cpu time spent up to now is      132.3 secs

     End of self-consistent calculation

          k = 0.0000 0.0000 0.0000 ( 24271 PWs)   bands (ev):

   -21.4335 -21.1851 -21.0652 -20.8724 -19.0746 -18.9058 -18.7211 -18.6628
   -12.8938 -12.6830  -9.7429  -9.1385  -8.3945  -7.9705  -6.3343  -6.2982
    -5.8191  -5.7181  -5.4962  -5.3908  -4.9913  -4.7933  -4.6355  -4.5127
    -4.2002  -3.8599  -3.3337  -3.2003  -2.9935  -2.7338  -2.2084  -1.9417
    -1.3606  -1.2939  -1.2250  -0.9104  -0.4454  -0.2139  -0.1144   0.0089
     5.1349   5.3438   5.5567   5.5708   6.4009   8.6935   9.1103   9.7578

          k = 0.0000 0.0000-0.3319 ( 24308 PWs)   bands (ev):

   -21.3655 -21.3126 -20.9799 -20.9002 -18.9977 -18.9966 -18.6874 -18.6802
   -12.8015 -12.7764  -9.5588  -9.5456  -8.0415  -7.8986  -6.5226  -6.4958
    -5.6505  -5.5988  -5.5189  -5.4115  -5.1189  -5.0816  -4.5112  -4.2075
    -4.0351  -4.0037  -3.4217  -3.0945  -3.0857  -2.7679  -2.2105  -1.9139
    -1.5234  -1.2501  -1.0962  -0.8756  -0.3858  -0.3158  -0.1351   0.0017
     5.0578   5.4501   5.4512   5.5611   7.1462   7.4636   9.5381   9.6879

          k = 0.0000 0.2422-0.0782 ( 24291 PWs)   bands (ev):

   -21.3991 -21.2132 -21.0443 -20.8981 -19.0547 -18.9354 -18.7115 -18.6703
   -12.8673 -12.7119  -9.6721  -9.2627  -8.2654  -7.9857  -6.4416  -6.3314
    -5.7827  -5.7194  -5.4999  -5.3175  -5.0166  -4.9388  -4.7282  -4.5012
    -4.1438  -3.8742  -3.2837  -3.0265  -2.9029  -2.6586  -2.2585  -1.9932
    -1.4587  -1.2342  -1.1301  -0.9358  -0.4921  -0.2145  -0.1584   0.0236
     5.1164   5.3151   5.3742   5.6615   6.9815   8.6353   9.0854   9.4716

          k = 0.0000 0.2422-0.4101 ( 24293 PWs)   bands (ev):

   -21.3562 -21.2795 -21.0280 -20.8920 -19.0156 -18.9796 -18.7052 -18.6704
   -12.8688 -12.6995  -9.8057  -9.2617  -8.0400  -7.9106  -6.5732  -6.4072
    -5.8212  -5.7067  -5.4592  -5.3879  -5.1416  -4.9341  -4.6149  -4.3997
    -4.1410  -3.8561  -3.3279  -3.0321  -2.8610  -2.6957  -2.2631  -1.9607
    -1.4224  -1.2754  -1.1559  -0.8919  -0.4339  -0.2975  -0.1435  -0.0018
     5.0753   5.3020   5.4497   5.6221   7.2384   8.0951   9.3614   9.6614

          k = 0.0000-0.4845 0.1564 ( 24312 PWs)   bands (ev):

   -21.3458 -21.2596 -21.0128 -20.9352 -19.0055 -18.9938 -18.6940 -18.6861
   -12.8233 -12.7584  -9.5093  -9.4650  -8.0820  -8.0645  -6.5441  -6.3617
    -5.7752  -5.7417  -5.3928  -5.3602  -5.1006  -4.8453  -4.7577  -4.6726
    -4.0549  -3.9364  -3.1132  -3.0064  -2.8197  -2.5596  -2.2867  -2.0640
    -1.4361  -1.2520  -1.1013  -0.9152  -0.4461  -0.4024  -0.1159   0.0391
     5.1224   5.1866   5.3935   5.6582   8.1805   8.3919   8.8269   8.8543

          k = 0.0000-0.4845-0.1755 ( 24312 PWs)   bands (ev):

   -21.3468 -21.2291 -21.0890 -20.8881 -19.0248 -18.9713 -18.7154 -18.6681
   -12.8988 -12.6601  -9.9018  -9.1289  -8.0240  -7.9320  -6.6183  -6.3254
    -5.9448  -5.7995  -5.3932  -5.2753  -5.2019  -4.8942  -4.8347  -4.4616
    -4.1547  -3.8117  -3.2571  -2.7838  -2.6974  -2.6561  -2.3844  -2.0122
    -1.4008  -1.2075  -1.2039  -0.9460  -0.4599  -0.2597  -0.2196   0.0156
     5.0898   5.2354   5.4115   5.6419   7.9559   8.2333   8.7208   9.5518

          k = 0.2500-0.0215-0.0580 ( 24276 PWs)   bands (ev):

   -21.4092 -21.1660 -21.0860 -20.8836 -19.0862 -18.9148 -18.7209 -18.6625
   -12.9261 -12.6694  -9.7240  -9.1686  -8.2973  -8.0044  -6.3731  -6.3576
    -5.8483  -5.7077  -5.4502  -5.2901  -5.0310  -4.8244  -4.6432  -4.5056
    -4.1121  -3.7995  -3.3326  -3.1765  -3.0109  -2.7663  -2.2509  -2.0666
    -1.4013  -1.2957  -1.1386  -0.8509  -0.5136  -0.1956  -0.0865   0.0172
     5.1165   5.3269   5.4504   5.6079   6.9477   8.5742   9.3241   9.4128

          k = 0.2500-0.0215-0.3899 ( 24272 PWs)   bands (ev):

   -21.3440 -21.2966 -20.9972 -20.9092 -19.0247 -18.9890 -18.6915 -18.6771
   -12.8135 -12.7866  -9.5703  -9.4902  -8.0371  -7.9412  -6.5094  -6.4423
    -5.8191  -5.6468  -5.4209  -5.3116  -5.1210  -5.0030  -4.5174  -4.2713
    -4.1952  -3.8414  -3.3487  -3.2148  -2.9074  -2.7697  -2.2833  -2.0552
    -1.5685  -1.1696  -1.0519  -0.8898  -0.4255  -0.3075  -0.1344   0.0543
     5.0930   5.3383   5.4384   5.6045   7.2934   8.0680   8.9958   9.7385

          k = 0.2500 0.2208-0.1362 ( 24293 PWs)   bands (ev):

   -21.3776 -21.1977 -21.0652 -20.9017 -19.0649 -18.9411 -18.7127 -18.6742
   -12.8752 -12.7259  -9.6366  -9.3119  -8.2349  -7.9963  -6.4018  -6.3138
    -5.8451  -5.7078  -5.3802  -5.3215  -5.0249  -4.8524  -4.7362  -4.6255
    -4.1606  -3.7520  -3.2200  -3.0910  -3.0219  -2.6845  -2.2824  -2.0860
    -1.3942  -1.2821  -1.0660  -0.8925  -0.5210  -0.1794  -0.1232   0.0306
     5.1190   5.2943   5.4598   5.5478   7.4310   8.2254   9.2697   9.3885

          k = 0.2500 0.2208-0.4681 ( 24288 PWs)   bands (ev):

   -21.3334 -21.2701 -21.0399 -20.8998 -19.0289 -18.9823 -18.7025 -18.6782
   -12.8908 -12.6975  -9.8095  -9.2458  -8.0377  -7.9362  -6.6110  -6.3480
    -5.7206  -5.5940  -5.5267  -5.3280  -5.1914  -5.0061  -4.6143  -4.4296
    -4.0417  -3.9181  -3.1744  -3.1155  -2.9289  -2.7959  -2.2186  -2.0634
    -1.4583  -1.2280  -1.0641  -0.9244  -0.4083  -0.3264  -0.1230   0.0540
     5.0788   5.3691   5.4397   5.5149   7.2842   8.7074   9.1696   9.4495

          k = 0.2500-0.5059 0.0984 ( 24306 PWs)   bands (ev):

   -21.3262 -21.2472 -21.0307 -20.9356 -19.0184 -18.9955 -18.6964 -18.6917
   -12.8252 -12.7777  -9.5260  -9.4507  -8.1228  -8.0516  -6.4436  -6.2800
    -5.8394  -5.6280  -5.4021  -5.3221  -5.0852  -4.9000  -4.8355  -4.7074
    -4.0514  -3.8425  -3.2432  -3.0095  -2.8574  -2.6349  -2.3010  -2.0909
    -1.3610  -1.2619  -1.0290  -0.9411  -0.4216  -0.3145  -0.1058   0.0183
     5.1042   5.2185   5.3753   5.6121   8.3149   8.5250   8.5888   9.2398

          k = 0.2500-0.5059-0.2335 ( 24293 PWs)   bands (ev):

   -21.3284 -21.2126 -21.1009 -20.8979 -19.0322 -18.9784 -18.7182 -18.6729
   -12.9140 -12.6664  -9.8918  -9.1563  -8.0070  -7.9467  -6.6532  -6.2043
    -5.8375  -5.7112  -5.4018  -5.3409  -5.1742  -4.9360  -4.8126  -4.5447
    -4.1648  -3.7393  -3.3115  -2.9522  -2.8295  -2.6572  -2.2414  -2.0750
    -1.3559  -1.2526  -1.1012  -0.9586  -0.3895  -0.2683  -0.1443  -0.0099
     5.0588   5.2377   5.3917   5.6135   8.0486   8.5248   8.9164   9.3298

          k = 0.2500-0.2637 0.0202 ( 24281 PWs)   bands (ev):

   -21.3763 -21.2006 -21.0559 -20.9096 -19.0644 -18.9447 -18.7142 -18.6703
   -12.9047 -12.6926  -9.6815  -9.2477  -8.1931  -8.0407  -6.4815  -6.2598
    -5.7988  -5.6952  -5.4986  -5.2091  -5.0323  -4.9461  -4.8132  -4.5447
    -4.0144  -3.8886  -3.3608  -3.0478  -2.8898  -2.6319  -2.3185  -2.0785
    -1.4657  -1.1703  -1.1058  -0.9208  -0.4524  -0.2231  -0.1284   0.0064
     5.0947   5.2418   5.3934   5.6499   7.4011   8.8674   8.9089   9.3151

          k = 0.2500-0.2637-0.3117 ( 24282 PWs)   bands (ev):

   -21.3387 -21.2583 -21.0427 -20.9040 -19.0284 -18.9849 -18.7101 -18.6686
   -12.8733 -12.7190  -9.7685  -9.2816  -8.0212  -7.9440  -6.5580  -6.2897
    -5.9799  -5.5542  -5.5151  -5.3249  -5.0542  -4.9805  -4.6079  -4.4552
    -4.2764  -3.7232  -3.4159  -3.0470  -2.8650  -2.6363  -2.2547  -2.1080
    -1.4608  -1.2042  -1.1053  -0.8998  -0.4024  -0.2362  -0.1393  -0.0362
     5.0675   5.2252   5.4226   5.6578   7.8335   8.2515   8.9691   9.2715

          k =-0.5000 0.0430 0.1160 ( 24250 PWs)   bands (ev):

   -21.3810 -21.1436 -21.1122 -20.8967 -19.1004 -18.9186 -18.7238 -18.6618
   -12.9546 -12.6595  -9.7025  -9.2012  -8.1343  -8.1006  -6.4327  -6.4080
    -5.8442  -5.7025  -5.4207  -5.1794  -5.0544  -4.8813  -4.6270  -4.5085
    -3.9540  -3.8557  -3.2482  -3.1976  -3.0617  -2.6248  -2.5821  -2.0173
    -1.4497  -1.2694  -1.1072  -0.8109  -0.5536  -0.1567  -0.0852   0.0238
     5.1313   5.3305   5.3506   5.6088   8.1338   8.2161   8.6782   8.9546

          k =-0.5000 0.0430-0.2160 ( 24256 PWs)   bands (ev):

   -21.3162 -21.2840 -21.0155 -20.9201 -19.0497 -18.9816 -18.6970 -18.6743
   -12.8249 -12.7972  -9.5647  -9.4520  -8.0131  -8.0045  -6.5089  -6.3475
    -5.9917  -5.6317  -5.3295  -5.2199  -5.1527  -4.9731  -4.5063  -4.3011
    -4.2974  -3.7972  -3.2155  -3.1984  -3.0584  -2.6175  -2.2756  -2.2463
    -1.6285  -1.0975  -1.0033  -0.9311  -0.4017  -0.3553  -0.0934   0.0665
     5.1327   5.2926   5.3813   5.6277   7.7412   8.4638   8.7876   9.4196

          k =-0.5000 0.2852 0.0378 ( 24261 PWs)   bands (ev):

   -21.3513 -21.1861 -21.0782 -20.9141 -19.0784 -18.9446 -18.7182 -18.6734
   -12.9131 -12.7058  -9.6473  -9.2975  -8.1433  -8.0691  -6.3876  -6.3252
    -5.8352  -5.6621  -5.3899  -5.2063  -5.0169  -4.9120  -4.8374  -4.6259
    -4.0533  -3.7637  -3.3183  -3.1274  -2.8700  -2.7849  -2.3286  -2.1311
    -1.4316  -1.2097  -1.0580  -0.8757  -0.4742  -0.1979  -0.0780   0.0157
     5.1041   5.3064   5.3673   5.5644   8.1913   8.4078   8.4971   9.2827

          k =-0.5000 0.2852-0.2941 ( 24263 PWs)   bands (ev):

   -21.3124 -21.2496 -21.0563 -20.9127 -19.0490 -18.9786 -18.7108 -18.6749
   -12.8953 -12.7168  -9.7726  -9.2667  -8.0033  -7.9825  -6.5920  -6.2808
    -5.8020  -5.5894  -5.4097  -5.2755  -5.1778  -5.0118  -4.5924  -4.4981
    -4.2029  -3.8228  -3.2881  -3.0733  -2.9205  -2.7452  -2.2155  -2.1596
    -1.4979  -1.1881  -1.0088  -0.9466  -0.3527  -0.2731  -0.1306   0.0236
     5.0590   5.3195   5.3607   5.5932   7.9614   8.6313   8.9387   9.3584

          k =-0.5000-0.4415 0.2723 ( 24268 PWs)   bands (ev):

   -21.3031 -21.2356 -21.0506 -20.9367 -19.0417 -18.9852 -18.7061 -18.6918
   -12.8198 -12.8038  -9.5323  -9.4489  -8.1432  -8.0567  -6.3211  -6.1960
    -5.8749  -5.5630  -5.3421  -5.3358  -5.0794  -4.9651  -4.8946  -4.7515
    -4.0510  -3.7589  -3.3254  -3.1450  -2.7630  -2.6980  -2.2882  -2.1861
    -1.3343  -1.2314  -0.9836  -0.9718  -0.3432  -0.2563  -0.1103   0.0119
     5.0797   5.2928   5.3685   5.5276   8.3187   8.3898   8.8452   9.3265

          k =-0.5000-0.4415-0.0596 ( 24288 PWs)   bands (ev):

   -21.3071 -21.1940 -21.1170 -20.9082 -19.0480 -18.9754 -18.7232 -18.6773
   -12.9279 -12.6739  -9.8809  -9.1846  -7.9792  -7.9693  -6.6840  -6.1275
    -5.5979  -5.5142  -5.4665  -5.3979  -5.3905  -4.8157  -4.7652  -4.6962
    -4.0281  -3.9345  -3.3425  -3.0661  -2.8609  -2.6581  -2.1975  -2.1013
    -1.3629  -1.2301  -1.0635  -0.9661  -0.2698  -0.1942  -0.1683  -0.0507
     4.9966   5.3239   5.3459   5.5654   8.1413   9.0095   9.1429   9.1452

     highest occupied, lowest unoccupied level (ev):     0.0665    4.9966

!    total energy              =    -453.61726782 Ry
     Harris-Foulkes estimate   =    -453.61726782 Ry
     estimated scf accuracy    <          5.6E-10 Ry

     total all-electron energy =     -1670.976981 Ry

     The total energy is the sum of the following terms:

     one-electron contribution =    -222.83274686 Ry
     hartree contribution      =     144.49227870 Ry
     xc contribution           =     -89.83163908 Ry
     ewald contribution        =    -169.33494257 Ry
     Dispersion Correction     =      -0.09123494 Ry
     one-center paw contrib.   =    -116.01898307 Ry

     convergence has been achieved in  15 iterations

     Forces acting on atoms (cartesian axes, Ry/au):

     atom    1 type  1   force =    -0.00684887    0.00057502   -0.00020668
     atom    2 type  1   force =     0.00684887   -0.00057502    0.00020668
     atom    3 type  4   force =     0.00670377   -0.00121716   -0.00838346
     atom    4 type  4   force =    -0.00670377    0.00121716    0.00838346
     atom    5 type  4   force =     0.00178222   -0.00197062    0.00683123
     atom    6 type  4   force =    -0.00178222    0.00197062   -0.00683123
     atom    7 type  1   force =     0.00489025    0.00489803   -0.00094619
     atom    8 type  1   force =    -0.00489025   -0.00489803    0.00094619
     atom    9 type  4   force =    -0.00280449   -0.00385492   -0.00098210
     atom   10 type  4   force =     0.00280449    0.00385492    0.00098210
     atom   11 type  4   force =     0.00164161   -0.00006659    0.00063315
     atom   12 type  4   force =    -0.00164161    0.00006659   -0.00063315
     atom   13 type  1   force =    -0.00308517   -0.00267073   -0.00407410
     atom   14 type  1   force =     0.00308517    0.00267073    0.00407410
     atom   15 type  3   force =     0.00050923   -0.00359077    0.00072327
     atom   16 type  3   force =    -0.00050923    0.00359077   -0.00072327
     atom   17 type  3   force =     0.00288237    0.00080339    0.00191886
     atom   18 type  3   force =    -0.00288237   -0.00080339   -0.00191886
     atom   19 type  3   force =    -0.00084452    0.00123529    0.00093306
     atom   20 type  3   force =     0.00084452   -0.00123529   -0.00093306
     atom   21 type  3   force =     0.00030194    0.00096447    0.00059635
     atom   22 type  3   force =    -0.00030194   -0.00096447   -0.00059635

     Total force =     0.026734     Total SCF correction =     0.000045


     Computing stress (Cartesian axis) and pressure

          total   stress  (Ry/bohr**3)                   (kbar)     P=   -5.96
  -0.00003809  -0.00002230  -0.00003042         -5.60     -3.28     -4.47
  -0.00002230  -0.00004872  -0.00005834         -3.28     -7.17     -8.58
  -0.00003042  -0.00005834  -0.00003469         -4.47     -8.58     -5.10


     Writing output data file scf.save
 
     init_run     :      5.82s CPU      5.95s WALL (       1 calls)
     electrons    :    121.97s CPU    125.87s WALL (       1 calls)
     forces       :      2.89s CPU      2.90s WALL (       1 calls)
     stress       :      6.34s CPU      6.35s WALL (       1 calls)

     Called by init_run:
     wfcinit      :      2.89s CPU      2.98s WALL (       1 calls)
     potinit      :      1.03s CPU      1.05s WALL (       1 calls)

     Called by electrons:
     c_bands      :    103.72s CPU    107.10s WALL (      15 calls)
     sum_band     :     15.16s CPU     15.51s WALL (      15 calls)
     v_of_rho     :      0.51s CPU      0.55s WALL (      16 calls)
     newd         :      0.76s CPU      0.77s WALL (      16 calls)
     PAW_pot      :      1.65s CPU      1.65s WALL (      16 calls)
     mix_rho      :      0.09s CPU      0.10s WALL (      15 calls)

     Called by c_bands:
     init_us_2    :      1.63s CPU      1.64s WALL (     660 calls)
     cegterg      :     99.14s CPU    102.46s WALL (     300 calls)

     Called by sum_band:
     sum_band:bec :      0.01s CPU      0.01s WALL (     300 calls)
     addusdens    :      0.80s CPU      0.83s WALL (      15 calls)

     Called by *egterg:
     h_psi        :     74.54s CPU     76.78s WALL (    1365 calls)
     s_psi        :      4.19s CPU      4.19s WALL (    1365 calls)
     g_psi        :      0.67s CPU      0.67s WALL (    1045 calls)
     cdiaghg      :      7.27s CPU      7.27s WALL (    1345 calls)

     Called by h_psi:
     h_psi:pot    :     74.01s CPU     76.23s WALL (    1365 calls)
     h_psi:calbec :      4.50s CPU      4.54s WALL (    1365 calls)
     vloc_psi     :     65.29s CPU     67.46s WALL (    1365 calls)
     add_vuspsi   :      4.22s CPU      4.22s WALL (    1365 calls)

     General routines
     calbec       :      6.40s CPU      6.45s WALL (    1765 calls)
     fft          :      0.27s CPU      0.34s WALL (     232 calls)
     fftw         :     69.58s CPU     71.86s WALL (   97188 calls)
 
     Parallel routines
     fft_scatter  :     18.10s CPU     18.98s WALL (   97420 calls)
 
     PWSCF        :  2m19.42s CPU     2m24.78s WALL

 
   This run was terminated on:   1:19:58   4Nov2017            

=------------------------------------------------------------------------------=
   JOB DONE.
=------------------------------------------------------------------------------=
