
     Program PWSCF v.6.1 (svn rev. 13369) starts on  4Nov2017 at  5:58:41 

     This program is part of the open-source Quantum ESPRESSO suite
     for quantum simulation of materials; please cite
         "P. Giannozzi et al., J. Phys.:Condens. Matter 21 395502 (2009);
          URL http://www.quantum-espresso.org", 
     in publications or presentations arising from this work. More details at
     http://www.quantum-espresso.org/quote

     Parallel version (MPI), running on     8 processors
     R & G space division:  proc/nbgrp/npool/nimage =       8
     Waiting for input...
     Reading input from standard input

     Current dimensions of program PWSCF are:
     Max number of different atomic species (ntypx) = 10
     Max number of k-points (npk) =  40000
     Max angular momentum in pseudopotentials (lmaxx) =  3
               file C.pbe-n-kjpaw_psl.0.1.UPF: wavefunction(s)  2P renormalized
               file N.pbe-n-kjpaw_psl.0.1.UPF: wavefunction(s)  2P renormalized
               file H.pbe-kjpaw_psl.0.1.UPF: wavefunction(s)  1S renormalized
               file O.pbe-n-kjpaw_psl.0.1.UPF: wavefunction(s)  2P renormalized

     -------------------------------------
     Parameters for Dispersion Correction:
     -------------------------------------
       atom      VdW radius       C_6     

        C          2.744         60.710
        N          2.640         42.670
        H          1.892          4.857
        O          2.536         24.284

     Subspace diagonalization in iterative solution of the eigenvalue problem:
     a serial algorithm will be used

 
     Parallelization info
     --------------------
     sticks:   dense  smooth     PW     G-vecs:    dense   smooth      PW
     Min        1070    1070    281                64474    64474    8706
     Max        1071    1071    282                64477    64477    8708
     Sum        8563    8563   2255               515801   515801   69657
 


     bravais-lattice index     =            0
     lattice parameter (alat)  =      17.2778  a.u.
     unit-cell volume          =    3817.9936 (a.u.)^3
     number of atoms/cell      =           60
     number of atomic types    =            4
     number of electrons       =       192.00
     number of Kohn-Sham states=          115
     kinetic-energy cutoff     =     100.0000  Ry
     charge density cutoff     =     400.0000  Ry
     convergence threshold     =      1.0E-08
     mixing beta               =       0.5000
     number of iterations used =            8  plain     mixing
     Exchange-correlation      =  SLA  PW   PBX  PBC ( 1  4  3  4 0 0)

     celldm(1)=  17.277766  celldm(2)=   0.000000  celldm(3)=   0.000000
     celldm(4)=   0.000000  celldm(5)=   0.000000  celldm(6)=   0.000000

     crystal axes: (cart. coord. in units of alat)
               a(1) = (   1.000000   0.000000   0.000000 )  
               a(2) = (   0.000000   0.902111   0.000000 )  
               a(3) = (  -0.090591   0.000000   0.820564 )  

     reciprocal axes: (cart. coord. in units 2 pi/alat)
               b(1) = (  1.000000  0.000000  0.110401 )  
               b(2) = (  0.000000  1.108511  0.000000 )  
               b(3) = (  0.000000  0.000000  1.218674 )  


     PseudoPot. # 1 for  C read from file:
     /scratch/ahofstet/pseudo/C.pbe-n-kjpaw_psl.0.1.UPF
     MD5 check sum: 430fe95172b1e11ef3f8ed03bac87931
     Pseudo is Projector augmented-wave + core cor, Zval =  4.0
     Generated using "atomic" code by A. Dal Corso  v.5.0.99 svn rev. 10869
     Shape of augmentation charge: BESSEL
     Using radial grid of 1073 points,  4 beta functions with: 
                l(1) =   0
                l(2) =   0
                l(3) =   1
                l(4) =   1
     Q(r) pseudized with 0 coefficients 


     PseudoPot. # 2 for  N read from file:
     /scratch/ahofstet/pseudo/N.pbe-n-kjpaw_psl.0.1.UPF
     MD5 check sum: f73187c8b701007e77325f868c9291d7
     Pseudo is Projector augmented-wave + core cor, Zval =  5.0
     Generated using "atomic" code by A. Dal Corso  v.5.0.99 svn rev. 10869
     Shape of augmentation charge: PSQ
     Using radial grid of 1085 points,  4 beta functions with: 
                l(1) =   0
                l(2) =   0
                l(3) =   1
                l(4) =   1
     Q(r) pseudized with 0 coefficients 


     PseudoPot. # 3 for  H read from file:
     /scratch/ahofstet/pseudo/H.pbe-kjpaw_psl.0.1.UPF
     MD5 check sum: 94e484f906d9e9773b2f6e52662335b2
     Pseudo is Projector augmented-wave, Zval =  1.0
     Generated using "atomic" code by A. Dal Corso  v.5.0.99 svn rev. 10869
     Shape of augmentation charge: PSQ
     Using radial grid of  929 points,  2 beta functions with: 
                l(1) =   0
                l(2) =   0
     Q(r) pseudized with 0 coefficients 


     PseudoPot. # 4 for  O read from file:
     /scratch/ahofstet/pseudo/O.pbe-n-kjpaw_psl.0.1.UPF
     MD5 check sum: 3f94a2996a3169367d6eb21d9b593f20
     Pseudo is Projector augmented-wave + core cor, Zval =  6.0
     Generated using "atomic" code by A. Dal Corso  v.5.0.99 svn rev. 10869
     Shape of augmentation charge: BESSEL
     Using radial grid of 1095 points,  4 beta functions with: 
                l(1) =   0
                l(2) =   0
                l(3) =   1
                l(4) =   1
     Q(r) pseudized with 0 coefficients 


     atomic species   valence    mass     pseudopotential
        C              4.00    12.01070      C( 1.00)
        N              5.00    14.00670      N( 1.00)
        H              1.00     1.00794      H( 1.00)
        O              6.00    15.99940      O( 1.00)

      4 Sym. Ops., with inversion, found ( 2 have fractional translation)



   Cartesian axes

     site n.     atom                  positions (alat units)
         1           C   tau(   1) = (   0.1557423   0.2308485   0.2017593  )
         2           C   tau(   2) = (   0.2989622   0.6819039   0.2085228  )
         3           C   tau(   3) = (   0.7536666   0.6712624   0.6188048  )
         4           C   tau(   4) = (   0.6104467   0.2202070   0.6120413  )
         5           C   tau(   5) = (   0.3173038   0.2203565   0.2553229  )
         6           C   tau(   6) = (   0.1374007   0.6714119   0.1549591  )
         7           C   tau(   7) = (   0.5921051   0.6817544   0.5652411  )
         8           C   tau(   8) = (   0.7720082   0.2306990   0.6656050  )
         9           C   tau(   9) = (   0.1581681  -0.0024557   0.5760824  )
        10           C   tau(  10) = (   0.2059452   0.4485998   0.6547637  )
        11           C   tau(  11) = (   0.7512408   0.9045666   0.2444816  )
        12           C   tau(  12) = (   0.7034637   0.4535111   0.1658004  )
        13           H   tau(  13) = (   0.4410875   0.2539455   0.4276529  )
        14           H   tau(  14) = (  -0.0769742   0.7050010   0.8031932  )
        15           H   tau(  15) = (   0.4683213   0.6481654   0.3929112  )
        16           H   tau(  16) = (   0.9863831   0.1971099   0.0173709  )
        17           H   tau(  17) = (   0.3367944   0.0867331   0.6920308  )
        18           H   tau(  18) = (   0.0273189   0.5377886   0.5388153  )
        19           H   tau(  19) = (   0.5726144   0.8153778   0.1285332  )
        20           H   tau(  20) = (   0.8820900   0.3643223   0.2817488  )
        21           H   tau(  21) = (   0.1761740   0.1005489   0.7820665  )
        22           H   tau(  22) = (   0.1879394   0.5516044   0.4487796  )
        23           H   tau(  23) = (   0.7332349   0.8015620   0.0384976  )
        24           H   tau(  24) = (   0.7214695   0.3505065   0.3717844  )
        25           H   tau(  25) = (   0.2606737   0.8419918   0.7740384  )
        26           H   tau(  26) = (   0.1034397   0.3909364   0.4568077  )
        27           H   tau(  27) = (   0.6487352   0.0601191   0.0465256  )
        28           H   tau(  28) = (   0.8059692   0.5111745   0.3637564  )
        29           H   tau(  29) = (   0.1283784   0.0988312   0.5196058  )
        30           H   tau(  30) = (   0.2357349   0.5498867   0.7112403  )
        31           H   tau(  31) = (   0.7810305   0.8032797   0.3009583  )
        32           H   tau(  32) = (   0.6736739   0.3522242   0.1093238  )
        33           H   tau(  33) = (   0.0591849   0.8384653   0.6039645  )
        34           H   tau(  34) = (   0.3049284   0.3874099   0.6268816  )
        35           H   tau(  35) = (   0.8502240   0.0636456   0.2165996  )
        36           H   tau(  36) = (   0.6044805   0.5147010   0.1936825  )
        37           H   tau(  37) = (   0.2290065   0.8321255   0.5069758  )
        38           H   tau(  38) = (   0.1351068   0.3810700   0.7238703  )
        39           H   tau(  39) = (   0.6804024   0.0699854   0.3135883  )
        40           H   tau(  40) = (   0.7743021   0.5210409   0.0966938  )
        41           N   tau(  41) = (   0.2382497   0.0332765   0.7129876  )
        42           N   tau(  42) = (   0.1258637   0.4843319   0.5178585  )
        43           N   tau(  43) = (   0.6711592   0.8688344   0.1075765  )
        44           N   tau(  44) = (   0.7835452   0.4177790   0.3027056  )
        45           O   tau(  45) = (   0.0600910   0.2758752   0.2883215  )
        46           O   tau(  46) = (   0.3946134   0.7269306   0.1219606  )
        47           O   tau(  47) = (   0.8493179   0.6262357   0.5322426  )
        48           O   tau(  48) = (   0.5147954   0.1751803   0.6986035  )
        49           O   tau(  49) = (   0.1360073   0.1911567   0.0695336  )
        50           O   tau(  50) = (   0.3186971   0.6422121   0.3407484  )
        51           O   tau(  51) = (   0.7734016   0.7109543   0.7510305  )
        52           O   tau(  52) = (   0.5907117   0.2598988   0.4798156  )
        53           O   tau(  53) = (   0.4164522   0.1817759   0.1740030  )
        54           O   tau(  54) = (   0.0382523   0.6328313   0.2362790  )
        55           O   tau(  55) = (   0.4929567   0.7203350   0.6465611  )
        56           O   tau(  56) = (   0.8711566   0.2692796   0.5842850  )
        57           O   tau(  57) = (   0.3306287   0.2577087   0.3938734  )
        58           O   tau(  58) = (   0.1240757   0.7087642   0.0164087  )
        59           O   tau(  59) = (   0.5787801   0.6444022   0.4266907  )
        60           O   tau(  60) = (   0.7853332   0.1933467   0.8041554  )

     number of k points=     8
                       cart. coord. in units 2pi/alat
        k(    1) = (   0.0000000   0.0000000   0.0000000), wk =   0.1111111
        k(    2) = (   0.0000000   0.0000000   0.4062246), wk =   0.2222222
        k(    3) = (   0.0000000   0.3695037   0.0000000), wk =   0.2222222
        k(    4) = (   0.0000000   0.3695037   0.4062246), wk =   0.4444444
        k(    5) = (  -0.5000000   0.0000000  -0.0552005), wk =   0.1111111
        k(    6) = (  -0.5000000   0.0000000   0.3510241), wk =   0.2222222
        k(    7) = (  -0.5000000   0.3695037  -0.0552005), wk =   0.2222222
        k(    8) = (  -0.5000000   0.3695037   0.3510241), wk =   0.4444444

     Dense  grid:   515801 G-vectors     FFT dimensions: ( 120, 100,  96)

     Estimated max dynamical RAM per process >     324.44MB

     Estimated total allocated dynamical RAM >    2595.55MB

     Check: negative/imaginary core charge=   -0.000002    0.000000

     Initial potential from superposition of free atoms

     starting charge  191.99918, renormalised to  192.00000
     Starting wfc are  156 randomized atomic wfcs
     Checking if some PAW data can be deallocated... 

     total cpu time spent up to now is       17.4 secs

     per-process dynamical memory:   277.3 Mb

     Self-consistent Calculation

     iteration #  1     ecut=   100.00 Ry     beta=0.50
     Davidson diagonalization with overlap
     ethr =  1.00E-02,  avg # of iterations =  4.2

     total cpu time spent up to now is       57.7 secs

     total energy              =   -1033.15173569 Ry
     Harris-Foulkes estimate   =   -1036.56967615 Ry
     estimated scf accuracy    <       6.17738534 Ry

     iteration #  2     ecut=   100.00 Ry     beta=0.50
     Davidson diagonalization with overlap
     ethr =  3.22E-03,  avg # of iterations =  3.6

     total cpu time spent up to now is       86.3 secs

     total energy              =   -1034.30219623 Ry
     Harris-Foulkes estimate   =   -1034.89917391 Ry
     estimated scf accuracy    <       1.25691723 Ry

     iteration #  3     ecut=   100.00 Ry     beta=0.50
     Davidson diagonalization with overlap
     ethr =  6.55E-04,  avg # of iterations =  6.0

     total cpu time spent up to now is      115.7 secs

     total energy              =   -1034.57460959 Ry
     Harris-Foulkes estimate   =   -1034.65975274 Ry
     estimated scf accuracy    <       0.22583928 Ry

     iteration #  4     ecut=   100.00 Ry     beta=0.50
     Davidson diagonalization with overlap
     ethr =  1.18E-04,  avg # of iterations =  6.5

     total cpu time spent up to now is      147.3 secs

     total energy              =   -1034.61235337 Ry
     Harris-Foulkes estimate   =   -1034.63617356 Ry
     estimated scf accuracy    <       0.06251584 Ry

     iteration #  5     ecut=   100.00 Ry     beta=0.50
     Davidson diagonalization with overlap
     ethr =  3.26E-05,  avg # of iterations =  3.0

     total cpu time spent up to now is      171.9 secs

     total energy              =   -1034.62348838 Ry
     Harris-Foulkes estimate   =   -1034.62521860 Ry
     estimated scf accuracy    <       0.00659009 Ry

     iteration #  6     ecut=   100.00 Ry     beta=0.50
     Davidson diagonalization with overlap
     ethr =  3.43E-06,  avg # of iterations =  9.0

     total cpu time spent up to now is      210.9 secs

     total energy              =   -1034.62510411 Ry
     Harris-Foulkes estimate   =   -1034.62536577 Ry
     estimated scf accuracy    <       0.00062630 Ry

     iteration #  7     ecut=   100.00 Ry     beta=0.50
     Davidson diagonalization with overlap
     ethr =  3.26E-07,  avg # of iterations =  3.2

     total cpu time spent up to now is      237.1 secs

     total energy              =   -1034.62521453 Ry
     Harris-Foulkes estimate   =   -1034.62526922 Ry
     estimated scf accuracy    <       0.00016107 Ry

     iteration #  8     ecut=   100.00 Ry     beta=0.50
     Davidson diagonalization with overlap
     ethr =  8.39E-08,  avg # of iterations =  3.0

     total cpu time spent up to now is      265.4 secs

     total energy              =   -1034.62525506 Ry
     Harris-Foulkes estimate   =   -1034.62527409 Ry
     estimated scf accuracy    <       0.00005656 Ry

     iteration #  9     ecut=   100.00 Ry     beta=0.50
     Davidson diagonalization with overlap
     ethr =  2.95E-08,  avg # of iterations =  2.4

     total cpu time spent up to now is      287.6 secs

     total energy              =   -1034.62525865 Ry
     Harris-Foulkes estimate   =   -1034.62526219 Ry
     estimated scf accuracy    <       0.00000681 Ry

     iteration # 10     ecut=   100.00 Ry     beta=0.50
     Davidson diagonalization with overlap
     ethr =  3.55E-09,  avg # of iterations =  4.0

     total cpu time spent up to now is      326.8 secs

     total energy              =   -1034.62526380 Ry
     Harris-Foulkes estimate   =   -1034.62526738 Ry
     estimated scf accuracy    <       0.00000978 Ry

     iteration # 11     ecut=   100.00 Ry     beta=0.50
     Davidson diagonalization with overlap
     ethr =  3.55E-09,  avg # of iterations =  2.0

     total cpu time spent up to now is      348.3 secs

     total energy              =   -1034.62526280 Ry
     Harris-Foulkes estimate   =   -1034.62526428 Ry
     estimated scf accuracy    <       0.00000252 Ry

     iteration # 12     ecut=   100.00 Ry     beta=0.50
     Davidson diagonalization with overlap
     ethr =  1.31E-09,  avg # of iterations =  4.0

     total cpu time spent up to now is      384.4 secs

     total energy              =   -1034.62526454 Ry
     Harris-Foulkes estimate   =   -1034.62526503 Ry
     estimated scf accuracy    <       0.00000165 Ry

     iteration # 13     ecut=   100.00 Ry     beta=0.50
     Davidson diagonalization with overlap
     ethr =  8.59E-10,  avg # of iterations =  2.0

     total cpu time spent up to now is      405.9 secs

     total energy              =   -1034.62526414 Ry
     Harris-Foulkes estimate   =   -1034.62526458 Ry
     estimated scf accuracy    <       0.00000072 Ry

     iteration # 14     ecut=   100.00 Ry     beta=0.50
     Davidson diagonalization with overlap
     ethr =  3.75E-10,  avg # of iterations =  4.0

     total cpu time spent up to now is      438.1 secs

     total energy              =   -1034.62526449 Ry
     Harris-Foulkes estimate   =   -1034.62526461 Ry
     estimated scf accuracy    <       0.00000029 Ry

     iteration # 15     ecut=   100.00 Ry     beta=0.50
     Davidson diagonalization with overlap
     ethr =  1.51E-10,  avg # of iterations =  2.0

     total cpu time spent up to now is      459.6 secs

     total energy              =   -1034.62526446 Ry
     Harris-Foulkes estimate   =   -1034.62526450 Ry
     estimated scf accuracy    <       0.00000007 Ry

     iteration # 16     ecut=   100.00 Ry     beta=0.50
     Davidson diagonalization with overlap
     ethr =  3.88E-11,  avg # of iterations =  4.0

     total cpu time spent up to now is      493.5 secs

     total energy              =   -1034.62526451 Ry
     Harris-Foulkes estimate   =   -1034.62526453 Ry
     estimated scf accuracy    <       0.00000004 Ry

     iteration # 17     ecut=   100.00 Ry     beta=0.50
     Davidson diagonalization with overlap
     ethr =  2.12E-11,  avg # of iterations =  2.0

     total cpu time spent up to now is      515.1 secs

     End of self-consistent calculation

          k = 0.0000 0.0000 0.0000 ( 64509 PWs)   bands (ev):

   -21.6279 -21.6000 -21.4120 -21.3967 -20.8059 -20.7964 -20.5060 -20.4933
   -19.3178 -19.2693 -19.1549 -19.1396 -18.6280 -18.6222 -18.4305 -18.4298
   -17.6460 -17.5983 -17.5804 -17.5660 -11.1153 -11.0883 -11.0765 -10.9975
   -10.9944 -10.8867 -10.1799 -10.1502  -8.5858  -8.5329  -7.6670  -7.5807
    -7.5111  -7.4397  -7.3838  -7.3021  -7.1151  -7.0745  -6.9375  -6.8954
    -6.3894  -6.0408  -5.9961  -5.9160  -5.7658  -5.7488  -5.6916  -5.6226
    -5.5747  -5.3602  -5.2551  -5.2408  -5.1334  -5.1269  -5.0928  -5.0318
    -5.0210  -4.8850  -4.6762  -4.5687  -4.1923  -3.9381  -3.9139  -3.8910
    -3.8167  -3.6762  -3.4929  -3.4139  -3.3489  -3.3136  -3.3134  -3.2390
    -3.0948  -3.0769  -2.9980  -2.7891  -1.8100  -1.7525  -1.6266  -1.5874
    -1.5593  -1.4796  -1.3843  -1.3113  -1.2234  -1.1685  -1.1251  -1.1117
    -0.9998  -0.8911  -0.3621  -0.3346  -0.0197   0.0073   0.1275   0.1940
     3.3469   3.6804   3.7889   4.0051   5.8087   6.7619   6.7756   6.9195
     7.1699   7.1912   7.3418   7.3689   7.3918   7.5540   7.9219   8.0583
     8.2116   8.4925   8.5352

          k = 0.0000 0.0000 0.4062 ( 64478 PWs)   bands (ev):

   -21.5846 -21.5590 -21.4805 -21.4602 -20.7214 -20.7063 -20.5742 -20.5589
   -19.2840 -19.2417 -19.2046 -19.1776 -18.5848 -18.5539 -18.4887 -18.4576
   -17.6215 -17.5978 -17.5842 -17.5772 -11.0893 -11.0883 -11.0481 -11.0130
   -10.8504 -10.7900 -10.4661 -10.4308  -8.2099  -8.1402  -7.7131  -7.6018
    -7.5278  -7.4258  -7.3936  -7.3572  -7.2468  -7.1301  -7.0706  -7.0272
    -6.2660  -6.1599  -5.8470  -5.8181  -5.7436  -5.7203  -5.6126  -5.5396
    -5.5198  -5.4821  -5.3561  -5.3126  -5.2636  -5.1838  -5.1588  -5.1540
    -4.9897  -4.7739  -4.7303  -4.6892  -4.1580  -4.0675  -3.8840  -3.8132
    -3.7179  -3.5969  -3.5644  -3.4831  -3.3456  -3.3370  -3.2153  -3.1863
    -3.0922  -3.0026  -2.9838  -2.9075  -1.7412  -1.6476  -1.5272  -1.5088
    -1.5007  -1.4134  -1.4114  -1.3014  -1.1840  -1.1785  -1.0860  -1.0460
    -0.9864  -0.9229  -0.5880  -0.5671  -0.0005   0.0713   0.0762   0.1545
     3.4348   3.5997   3.8455   3.9531   5.9219   6.4229   6.8595   6.9069
     7.0065   7.2038   7.2794   7.3138   7.3791   7.6944   7.8525   8.1598
     8.5138   8.5433   8.7017

          k = 0.0000 0.3695 0.0000 ( 64530 PWs)   bands (ev):

   -21.6210 -21.6071 -21.4081 -21.4005 -20.8037 -20.7990 -20.5029 -20.4966
   -19.3056 -19.2813 -19.1507 -19.1431 -18.6271 -18.6242 -18.4305 -18.4301
   -17.6306 -17.5985 -17.5890 -17.5721 -11.1014 -11.0824 -11.0814 -11.0486
   -10.9437 -10.9028 -10.1725 -10.1576  -8.5731  -8.5467  -7.6176  -7.5421
    -7.5001  -7.4127  -7.3864  -7.2807  -7.2782  -7.1798  -6.9034  -6.8489
    -6.2968  -6.1229  -5.9327  -5.8685  -5.7789  -5.7760  -5.6709  -5.5956
    -5.4725  -5.3503  -5.3212  -5.2578  -5.2141  -5.1476  -5.1056  -5.0974
    -4.9463  -4.9027  -4.6457  -4.5934  -4.1326  -3.9965  -3.8983  -3.8890
    -3.8295  -3.7440  -3.4836  -3.4370  -3.3707  -3.3508  -3.2622  -3.2066
    -3.1176  -3.1047  -2.9281  -2.8313  -1.7279  -1.7242  -1.6445  -1.5458
    -1.5408  -1.5291  -1.3818  -1.3366  -1.2315  -1.2118  -1.0944  -1.0471
    -1.0258  -0.9360  -0.3547  -0.3409  -0.0157  -0.0015   0.1496   0.1821
     3.4512   3.6713   3.7551   3.9160   6.1387   6.8356   6.8511   7.0156
     7.1002   7.2037   7.3055   7.4573   7.5215   7.7036   7.9095   7.9642
     8.3398   8.4328   8.5065

          k = 0.0000 0.3695 0.4062 ( 64475 PWs)   bands (ev):

   -21.5783 -21.5655 -21.4754 -21.4652 -20.7178 -20.7102 -20.5704 -20.5628
   -19.2733 -19.2521 -19.1975 -19.1840 -18.5778 -18.5624 -18.4808 -18.4654
   -17.6129 -17.5969 -17.5893 -17.5808 -11.0847 -11.0821 -11.0493 -11.0303
   -10.8330 -10.8034 -10.4572 -10.4396  -8.1936  -8.1589  -7.6802  -7.6251
    -7.5017  -7.4550  -7.3349  -7.3115  -7.2719  -7.1903  -7.0620  -7.0391
    -6.2200  -6.1504  -5.9415  -5.9194  -5.6703  -5.6666  -5.5886  -5.5169
    -5.4576  -5.4381  -5.4121  -5.3456  -5.2720  -5.2078  -5.2022  -5.1739
    -4.9365  -4.8358  -4.7144  -4.7005  -4.1038  -4.0124  -3.9596  -3.8642
    -3.6775  -3.6390  -3.5207  -3.4932  -3.3687  -3.3213  -3.2444  -3.2068
    -3.0662  -3.0179  -2.9685  -2.9190  -1.6714  -1.5980  -1.5544  -1.5267
    -1.4783  -1.4304  -1.3711  -1.3218  -1.1884  -1.1564  -1.1194  -1.0583
    -0.9980  -0.9525  -0.5838  -0.5733   0.0167   0.0505   0.1021   0.1389
     3.5321   3.6827   3.7366   3.8582   6.2556   6.7026   6.9281   6.9791
     7.0486   7.2013   7.2365   7.3538   7.3986   7.6827   7.7961   7.9461
     8.2343   8.4932   8.6162

          k =-0.5000 0.0000-0.0552 ( 64482 PWs)   bands (ev):

   -21.5381 -21.5381 -21.5141 -21.5141 -20.6402 -20.6402 -20.6273 -20.6273
   -19.2542 -19.2542 -19.2166 -19.2166 -18.5120 -18.5120 -18.5086 -18.5086
   -17.6257 -17.6257 -17.5737 -17.5737 -11.0896 -11.0896 -11.0358 -11.0358
   -10.6621 -10.6621 -10.6306 -10.6306  -7.9044  -7.9044  -7.7463  -7.7463
    -7.5316  -7.5316  -7.3903  -7.3903  -7.3460  -7.3460  -6.9727  -6.9727
    -6.3300  -6.3300  -5.8592  -5.8592  -5.7918  -5.7918  -5.6246  -5.6246
    -5.4647  -5.4647  -5.2056  -5.2056  -5.1409  -5.1409  -5.0300  -5.0300
    -4.8646  -4.8646  -4.7843  -4.7843  -4.0836  -4.0836  -3.8205  -3.8205
    -3.7125  -3.7125  -3.5751  -3.5751  -3.3261  -3.3261  -3.1900  -3.1900
    -3.1235  -3.1235  -2.9501  -2.9501  -1.7175  -1.7175  -1.5246  -1.5246
    -1.4472  -1.4472  -1.3342  -1.3342  -1.1584  -1.1584  -1.0389  -1.0389
    -0.8352  -0.8352  -0.7128  -0.7128   0.0429   0.0429   0.1146   0.1146
     3.5100   3.5100   3.8960   3.8960   6.0794   6.0794   6.8912   6.8912
     7.2823   7.2823   7.3787   7.3787   7.7302   7.7302   7.9844   7.9844
     8.3392   8.3393   8.5447

          k =-0.5000 0.0000 0.3510 ( 64484 PWs)   bands (ev):

   -21.6095 -21.5856 -21.4390 -21.4193 -20.7810 -20.7720 -20.5275 -20.5116
   -19.2820 -19.2507 -19.1958 -19.1587 -18.6284 -18.6069 -18.4390 -18.4226
   -17.6279 -17.5952 -17.5947 -17.5719 -11.1059 -11.0973 -11.0694 -11.0126
   -10.9261 -10.8974 -10.2616 -10.2423  -8.4215  -8.3522  -7.7254  -7.6551
    -7.5005  -7.4530  -7.3583  -7.3485  -7.1431  -7.1388  -6.9981  -6.8366
    -6.3074  -6.0827  -5.9236  -5.8018  -5.7797  -5.6684  -5.6293  -5.5878
    -5.5183  -5.4631  -5.3505  -5.3005  -5.2255  -5.2084  -5.1326  -5.1010
    -5.0297  -4.8962  -4.8285  -4.5612  -4.1432  -4.1189  -3.9053  -3.7744
    -3.7403  -3.6217  -3.4934  -3.4078  -3.3611  -3.3465  -3.3009  -3.1785
    -3.0376  -2.9817  -2.9173  -2.8326  -1.7346  -1.6898  -1.6617  -1.6141
    -1.5171  -1.4722  -1.4720  -1.2994  -1.1783  -1.1690  -1.1063  -1.0907
    -1.0128  -0.9879  -0.4529  -0.4135  -0.0378   0.0713   0.1705   0.1906
     3.4837   3.5484   3.8727   3.9270   6.0369   6.3313   6.6732   6.8415
     7.0177   7.0551   7.2099   7.2951   7.5661   7.7283   8.0071   8.3420
     8.4269   8.4884   8.8096

          k =-0.5000 0.3695-0.0552 ( 64410 PWs)   bands (ev):

   -21.5321 -21.5321 -21.5201 -21.5201 -20.6373 -20.6373 -20.6305 -20.6305
   -19.2467 -19.2467 -19.2237 -19.2237 -18.5151 -18.5151 -18.5061 -18.5061
   -17.6134 -17.6134 -17.5857 -17.5857 -11.0815 -11.0815 -11.0460 -11.0460
   -10.6535 -10.6535 -10.6377 -10.6377  -7.8669  -7.8669  -7.7860  -7.7860
    -7.5026  -7.5026  -7.3985  -7.3985  -7.2899  -7.2899  -7.1131  -7.1131
    -6.2004  -6.2004  -5.9083  -5.9083  -5.7241  -5.7241  -5.6507  -5.6507
    -5.4547  -5.4547  -5.2938  -5.2938  -5.1054  -5.1054  -5.0162  -5.0162
    -4.8615  -4.8615  -4.8191  -4.8191  -4.0383  -4.0383  -3.8741  -3.8741
    -3.6772  -3.6772  -3.5980  -3.5980  -3.4323  -3.4323  -3.2080  -3.2080
    -3.0266  -3.0266  -2.9543  -2.9543  -1.6514  -1.6514  -1.5469  -1.5469
    -1.4371  -1.4371  -1.3525  -1.3525  -1.1443  -1.1443  -1.0805  -1.0805
    -0.7985  -0.7985  -0.7369  -0.7369   0.0485   0.0485   0.1103   0.1103
     3.6008   3.6008   3.7931   3.7931   6.3944   6.3944   6.9311   6.9311
     7.2175   7.2175   7.3103   7.3103   7.7161   7.7161   7.9960   7.9960
     8.3362   8.3362   8.6925

          k =-0.5000 0.3695 0.3510 ( 64438 PWs)   bands (ev):

   -21.6035 -21.5916 -21.4340 -21.4242 -20.7789 -20.7745 -20.5236 -20.5156
   -19.2742 -19.2586 -19.1857 -19.1672 -18.6242 -18.6136 -18.4345 -18.4263
   -17.6182 -17.6019 -17.5899 -17.5790 -11.0984 -11.0853 -11.0746 -11.0392
   -10.9139 -10.9012 -10.2563 -10.2466  -8.4032  -8.3685  -7.7144  -7.6813
    -7.4625  -7.4235  -7.3846  -7.3006  -7.1992  -7.1336  -6.9595  -6.8767
    -6.2689  -6.1706  -5.9022  -5.8300  -5.7088  -5.6552  -5.6528  -5.5785
    -5.5015  -5.4292  -5.3667  -5.3365  -5.2523  -5.1896  -5.1636  -5.1133
    -5.0084  -4.9478  -4.7456  -4.6225  -4.0887  -4.0463  -3.9551  -3.8532
    -3.7515  -3.6825  -3.4537  -3.4176  -3.3622  -3.3289  -3.2662  -3.1985
    -3.0519  -3.0165  -2.8797  -2.8425  -1.7074  -1.6557  -1.6384  -1.5844
    -1.5314  -1.4982  -1.4140  -1.3331  -1.2026  -1.1449  -1.1169  -1.0803
    -1.0354  -1.0291  -0.4447  -0.4254  -0.0122   0.0410   0.1797   0.1893
     3.5763   3.6383   3.7699   3.8267   6.3433   6.6729   6.8360   6.9090
     7.0800   7.1506   7.2179   7.3179   7.4139   7.5735   7.6151   8.0593
     8.1888   8.6904   8.8794

     highest occupied, lowest unoccupied level (ev):     0.1940    3.3469

!    total energy              =   -1034.62526451 Ry
     Harris-Foulkes estimate   =   -1034.62526452 Ry
     estimated scf accuracy    <          7.7E-09 Ry

     total all-electron energy =     -3794.539843 Ry

     The total energy is the sum of the following terms:

     one-electron contribution =    -567.34579332 Ry
     hartree contribution      =     359.09719290 Ry
     xc contribution           =    -210.31467442 Ry
     ewald contribution        =    -350.69546928 Ry
     Dispersion Correction     =      -0.23192850 Ry
     one-center paw contrib.   =    -265.13459190 Ry

     convergence has been achieved in  17 iterations

     Forces acting on atoms (cartesian axes, Ry/au):

     atom    1 type  1   force =     0.00110239    0.00014528   -0.00012417
     atom    2 type  1   force =    -0.00110239    0.00014528    0.00012417
     atom    3 type  1   force =    -0.00110239   -0.00014528    0.00012417
     atom    4 type  1   force =     0.00110239   -0.00014528   -0.00012417
     atom    5 type  1   force =    -0.00021998    0.00012791    0.00035516
     atom    6 type  1   force =     0.00021998    0.00012791   -0.00035516
     atom    7 type  1   force =     0.00021998   -0.00012791   -0.00035516
     atom    8 type  1   force =    -0.00021998   -0.00012791    0.00035516
     atom    9 type  1   force =     0.00028771   -0.00092374    0.00073562
     atom   10 type  1   force =    -0.00028771   -0.00092374   -0.00073562
     atom   11 type  1   force =    -0.00028771    0.00092374   -0.00073562
     atom   12 type  1   force =     0.00028771    0.00092374    0.00073562
     atom   13 type  3   force =     0.00006408    0.00032384    0.00066468
     atom   14 type  3   force =    -0.00006408    0.00032384   -0.00066468
     atom   15 type  3   force =    -0.00006408   -0.00032384   -0.00066468
     atom   16 type  3   force =     0.00006408   -0.00032384    0.00066468
     atom   17 type  3   force =    -0.00027231   -0.00091668   -0.00009636
     atom   18 type  3   force =     0.00027231   -0.00091668    0.00009636
     atom   19 type  3   force =     0.00027231    0.00091668    0.00009636
     atom   20 type  3   force =    -0.00027231    0.00091668   -0.00009636
     atom   21 type  3   force =    -0.00022388   -0.00072207   -0.00039191
     atom   22 type  3   force =     0.00022388   -0.00072207    0.00039191
     atom   23 type  3   force =     0.00022388    0.00072207    0.00039191
     atom   24 type  3   force =    -0.00022388    0.00072207   -0.00039191
     atom   25 type  3   force =     0.00039683    0.00007815    0.00042233
     atom   26 type  3   force =    -0.00039683    0.00007815   -0.00042233
     atom   27 type  3   force =    -0.00039683   -0.00007815   -0.00042233
     atom   28 type  3   force =     0.00039683   -0.00007815    0.00042233
     atom   29 type  3   force =     0.00107177    0.00019041    0.00010732
     atom   30 type  3   force =    -0.00107177    0.00019041   -0.00010732
     atom   31 type  3   force =    -0.00107177   -0.00019041   -0.00010732
     atom   32 type  3   force =     0.00107177   -0.00019041    0.00010732
     atom   33 type  3   force =     0.00039821    0.00034408   -0.00037267
     atom   34 type  3   force =    -0.00039821    0.00034408    0.00037267
     atom   35 type  3   force =    -0.00039821   -0.00034408    0.00037267
     atom   36 type  3   force =     0.00039821   -0.00034408   -0.00037267
     atom   37 type  3   force =    -0.00040446    0.00074428   -0.00058556
     atom   38 type  3   force =     0.00040446    0.00074428    0.00058556
     atom   39 type  3   force =     0.00040446   -0.00074428    0.00058556
     atom   40 type  3   force =    -0.00040446   -0.00074428   -0.00058556
     atom   41 type  2   force =    -0.00017308    0.00105684   -0.00029518
     atom   42 type  2   force =     0.00017308    0.00105684    0.00029518
     atom   43 type  2   force =     0.00017308   -0.00105684    0.00029518
     atom   44 type  2   force =    -0.00017308   -0.00105684   -0.00029518
     atom   45 type  4   force =    -0.00067939   -0.00050428    0.00065847
     atom   46 type  4   force =     0.00067939   -0.00050428   -0.00065847
     atom   47 type  4   force =     0.00067939    0.00050428   -0.00065847
     atom   48 type  4   force =    -0.00067939    0.00050428    0.00065847
     atom   49 type  4   force =    -0.00108674    0.00068292    0.00021777
     atom   50 type  4   force =     0.00108674    0.00068292   -0.00021777
     atom   51 type  4   force =     0.00108674   -0.00068292   -0.00021777
     atom   52 type  4   force =    -0.00108674   -0.00068292    0.00021777
     atom   53 type  4   force =     0.00016520   -0.00060263    0.00028803
     atom   54 type  4   force =    -0.00016520   -0.00060263   -0.00028803
     atom   55 type  4   force =    -0.00016520    0.00060263   -0.00028803
     atom   56 type  4   force =     0.00016520    0.00060263    0.00028803
     atom   57 type  4   force =     0.00053583   -0.00037874   -0.00187161
     atom   58 type  4   force =    -0.00053583   -0.00037874    0.00187161
     atom   59 type  4   force =    -0.00053583    0.00037874    0.00187161
     atom   60 type  4   force =     0.00053583    0.00037874   -0.00187161

     Total force =     0.008153     Total SCF correction =     0.000125


     Computing stress (Cartesian axis) and pressure

          total   stress  (Ry/bohr**3)                   (kbar)     P=   -0.64
   0.00001520   0.00000000   0.00001532          2.24      0.00      2.25
   0.00000000  -0.00003114   0.00000000          0.00     -4.58      0.00
   0.00001532   0.00000000   0.00000293          2.25      0.00      0.43


     Writing output data file scf.save
 
     init_run     :     16.17s CPU     16.75s WALL (       1 calls)
     electrons    :    477.04s CPU    497.86s WALL (       1 calls)
     forces       :      8.73s CPU      8.80s WALL (       1 calls)
     stress       :     26.52s CPU     26.56s WALL (       1 calls)

     Called by init_run:
     wfcinit      :     10.18s CPU     10.56s WALL (       1 calls)
     potinit      :      2.18s CPU      2.23s WALL (       1 calls)

     Called by electrons:
     c_bands      :    418.77s CPU    436.16s WALL (      17 calls)
     sum_band     :     49.70s CPU     52.40s WALL (      17 calls)
     v_of_rho     :      1.27s CPU      1.44s WALL (      18 calls)
     newd         :      2.61s CPU      3.12s WALL (      18 calls)
     PAW_pot      :      4.32s CPU      4.34s WALL (      18 calls)
     mix_rho      :      0.27s CPU      0.30s WALL (      17 calls)

     Called by c_bands:
     init_us_2    :      3.22s CPU      3.23s WALL (     296 calls)
     cegterg      :    407.56s CPU    424.92s WALL (     136 calls)

     Called by sum_band:
     sum_band:bec :      0.04s CPU      0.04s WALL (     136 calls)
     addusdens    :      2.60s CPU      3.04s WALL (      17 calls)

     Called by *egterg:
     h_psi        :    243.87s CPU    256.41s WALL (     664 calls)
     s_psi        :     40.55s CPU     40.56s WALL (     664 calls)
     g_psi        :      1.39s CPU      1.39s WALL (     520 calls)
     cdiaghg      :     24.39s CPU     24.40s WALL (     656 calls)

     Called by h_psi:
     h_psi:pot    :    242.29s CPU    254.81s WALL (     664 calls)
     h_psi:calbec :     40.51s CPU     40.61s WALL (     664 calls)
     vloc_psi     :    161.16s CPU    173.56s WALL (     664 calls)
     add_vuspsi   :     40.63s CPU     40.64s WALL (     664 calls)

     General routines
     calbec       :     59.38s CPU     59.55s WALL (     840 calls)
     fft          :      0.86s CPU      1.19s WALL (     258 calls)
     fftw         :    174.71s CPU    188.56s WALL (  102008 calls)
 
     Parallel routines
     fft_scatter  :     44.49s CPU     54.07s WALL (  102266 calls)
 
     PWSCF        :  8m53.29s CPU     9m15.98s WALL

 
   This run was terminated on:   6: 7:57   4Nov2017            

=------------------------------------------------------------------------------=
   JOB DONE.
=------------------------------------------------------------------------------=
