
     Program PWSCF v.6.1 (svn rev. 13369) starts on 14Dec2017 at 22:50: 4 

     This program is part of the open-source Quantum ESPRESSO suite
     for quantum simulation of materials; please cite
         "P. Giannozzi et al., J. Phys.:Condens. Matter 21 395502 (2009);
          URL http://www.quantum-espresso.org", 
     in publications or presentations arising from this work. More details at
     http://www.quantum-espresso.org/quote

     Parallel version (MPI), running on     8 processors
     R & G space division:  proc/nbgrp/npool/nimage =       8
     Waiting for input...
     Reading input from standard input

     Current dimensions of program PWSCF are:
     Max number of different atomic species (ntypx) = 10
     Max number of k-points (npk) =  40000
     Max angular momentum in pseudopotentials (lmaxx) =  3
               file C.pbe-n-kjpaw_psl.0.1.UPF: wavefunction(s)  2P renormalized
               file N.pbe-n-kjpaw_psl.0.1.UPF: wavefunction(s)  2P renormalized
               file H.pbe-kjpaw_psl.0.1.UPF: wavefunction(s)  1S renormalized
               file O.pbe-n-kjpaw_psl.0.1.UPF: wavefunction(s)  2P renormalized

     -------------------------------------
     Parameters for Dispersion Correction:
     -------------------------------------
       atom      VdW radius       C_6     

        C          2.744         60.710
        N          2.640         42.670
        H          1.892          4.857
        O          2.536         24.284

     Subspace diagonalization in iterative solution of the eigenvalue problem:
     a serial algorithm will be used

 
     Parallelization info
     --------------------
     sticks:   dense  smooth     PW     G-vecs:    dense   smooth      PW
     Min        1244    1244    326               126607   126607   16950
     Max        1245    1245    327               126611   126611   16952
     Sum        9957    9957   2609              1012871  1012871  135603
 


     bravais-lattice index     =            0
     lattice parameter (alat)  =      15.3673  a.u.
     unit-cell volume          =    7497.5625 (a.u.)^3
     number of atoms/cell      =          104
     number of atomic types    =            4
     number of electrons       =       368.00
     number of Kohn-Sham states=          220
     kinetic-energy cutoff     =     100.0000  Ry
     charge density cutoff     =     400.0000  Ry
     convergence threshold     =      1.0E-08
     mixing beta               =       0.5000
     number of iterations used =            8  plain     mixing
     Exchange-correlation      =  SLA  PW   PBX  PBC ( 1  4  3  4 0 0)

     celldm(1)=  15.367253  celldm(2)=   0.000000  celldm(3)=   0.000000
     celldm(4)=   0.000000  celldm(5)=   0.000000  celldm(6)=   0.000000

     crystal axes: (cart. coord. in units of alat)
               a(1) = (   1.000000   0.000000   0.000000 )  
               a(2) = (   0.000000   1.325873   0.000000 )  
               a(3) = (  -0.245683   0.000000   1.558222 )  

     reciprocal axes: (cart. coord. in units 2 pi/alat)
               b(1) = (  1.000000  0.000000  0.157669 )  
               b(2) = (  0.000000  0.754220  0.000000 )  
               b(3) = (  0.000000  0.000000  0.641757 )  


     PseudoPot. # 1 for  C read from file:
     /scratch/ahofstet/pseudo/C.pbe-n-kjpaw_psl.0.1.UPF
     MD5 check sum: 430fe95172b1e11ef3f8ed03bac87931
     Pseudo is Projector augmented-wave + core cor, Zval =  4.0
     Generated using "atomic" code by A. Dal Corso  v.5.0.99 svn rev. 10869
     Shape of augmentation charge: BESSEL
     Using radial grid of 1073 points,  4 beta functions with: 
                l(1) =   0
                l(2) =   0
                l(3) =   1
                l(4) =   1
     Q(r) pseudized with 0 coefficients 


     PseudoPot. # 2 for  N read from file:
     /scratch/ahofstet/pseudo/N.pbe-n-kjpaw_psl.0.1.UPF
     MD5 check sum: f73187c8b701007e77325f868c9291d7
     Pseudo is Projector augmented-wave + core cor, Zval =  5.0
     Generated using "atomic" code by A. Dal Corso  v.5.0.99 svn rev. 10869
     Shape of augmentation charge: PSQ
     Using radial grid of 1085 points,  4 beta functions with: 
                l(1) =   0
                l(2) =   0
                l(3) =   1
                l(4) =   1
     Q(r) pseudized with 0 coefficients 


     PseudoPot. # 3 for  H read from file:
     /scratch/ahofstet/pseudo/H.pbe-kjpaw_psl.0.1.UPF
     MD5 check sum: 94e484f906d9e9773b2f6e52662335b2
     Pseudo is Projector augmented-wave, Zval =  1.0
     Generated using "atomic" code by A. Dal Corso  v.5.0.99 svn rev. 10869
     Shape of augmentation charge: PSQ
     Using radial grid of  929 points,  2 beta functions with: 
                l(1) =   0
                l(2) =   0
     Q(r) pseudized with 0 coefficients 


     PseudoPot. # 4 for  O read from file:
     /scratch/ahofstet/pseudo/O.pbe-n-kjpaw_psl.0.1.UPF
     MD5 check sum: 3f94a2996a3169367d6eb21d9b593f20
     Pseudo is Projector augmented-wave + core cor, Zval =  6.0
     Generated using "atomic" code by A. Dal Corso  v.5.0.99 svn rev. 10869
     Shape of augmentation charge: BESSEL
     Using radial grid of 1095 points,  4 beta functions with: 
                l(1) =   0
                l(2) =   0
                l(3) =   1
                l(4) =   1
     Q(r) pseudized with 0 coefficients 


     atomic species   valence    mass     pseudopotential
        C              4.00    12.01070      C( 1.00)
        N              5.00    14.00670      N( 1.00)
        H              1.00     1.00794      H( 1.00)
        O              6.00    15.99940      O( 1.00)

      2 Sym. Ops., with inversion, found



   Cartesian axes

     site n.     atom                  positions (alat units)
         1           O   tau(   1) = (   0.3929195   0.9353336   0.2504663  )
         2           O   tau(   2) = (  -0.0156361   0.2725256   0.5284005  )
         3           O   tau(   3) = (   0.3613973   0.3905394   1.3077560  )
         4           O   tau(   4) = (   0.7699530   1.0533475   1.0298219  )
         5           O   tau(   5) = (   0.4466766   0.8893879   1.4924432  )
         6           O   tau(   6) = (   0.6851874   0.2267098   0.8449414  )
         7           O   tau(   7) = (   0.3076402   0.4364852   0.0657791  )
         8           O   tau(   8) = (   0.0691294   1.0991633   0.7132810  )
         9           O   tau(   9) = (   0.2676603   1.0983980   1.5468792  )
        10           O   tau(  10) = (   0.8643968   0.4355571   0.7904858  )
        11           O   tau(  11) = (   0.4866565   0.2274751   0.0113431  )
        12           O   tau(  12) = (  -0.1100800   0.8903160   0.7677365  )
        13           O   tau(  13) = (   0.7046610   0.4953949   0.1333615  )
        14           O   tau(  14) = (   0.6726513   1.1586863   0.6463020  )
        15           O   tau(  15) = (   0.0496559   0.8304782   1.4248608  )
        16           O   tau(  16) = (   0.0816656   0.1671868   0.9119204  )
        17           O   tau(  17) = (   0.8657442   0.6924954   0.2479985  )
        18           O   tau(  18) = (   0.5115510   0.0296356   0.5312456  )
        19           O   tau(  19) = (  -0.1114274   0.6333776   1.3102239  )
        20           O   tau(  20) = (   0.2427659   1.2962375   1.0269767  )
        21           O   tau(  21) = (   0.5933440   0.4936331   0.5206996  )
        22           O   tau(  22) = (   0.7835494   1.1564393   0.2589223  )
        23           O   tau(  23) = (   0.1609728   0.8322400   1.0375227  )
        24           O   tau(  24) = (  -0.0292326   0.1694338   1.2993001  )
        25           O   tau(  25) = (   0.3311443   0.5676185   0.5864585  )
        26           O   tau(  26) = (   0.0455721   1.2303987   0.1924475  )
        27           O   tau(  27) = (   0.4231725   0.7582546   0.9717638  )
        28           O   tau(  28) = (   0.7087447   0.0954744   1.3657748  )
        29           N   tau(  29) = (   0.3555422   0.8333833   0.3818836  )
        30           N   tau(  30) = (   0.0215768   0.1704554   0.3970123  )
        31           N   tau(  31) = (   0.3987746   0.4924898   1.1763388  )
        32           N   tau(  32) = (   0.7327400   1.1554177   1.1612100  )
        33           C   tau(  33) = (   0.5274521   0.8761595   0.1714038  )
        34           C   tau(  34) = (   0.8499258   0.2133886   0.6076372  )
        35           C   tau(  35) = (   0.2268648   0.4497136   1.3868185  )
        36           C   tau(  36) = (  -0.0956090   1.1124844   0.9505851  )
        37           C   tau(  37) = (   0.5820989   0.7368798   0.2484225  )
        38           C   tau(  38) = (   0.7951568   0.0741145   0.5307665  )
        39           C   tau(  39) = (   0.1722179   0.5889933   1.3097999  )
        40           C   tau(  40) = (  -0.0408399   1.2517586   1.0274558  )
        41           C   tau(  41) = (   0.4680932   0.7154588   0.3793476  )
        42           C   tau(  42) = (   0.9090565   0.0526010   0.3997219  )
        43           C   tau(  43) = (   0.2862236   0.6104143   1.1788748  )
        44           C   tau(  44) = (  -0.1547397   1.2732721   1.1585005  )
        45           C   tau(  45) = (   0.5874816   0.9550587   0.0188980  )
        46           C   tau(  46) = (   0.7900601   0.2923195   0.7602425  )
        47           C   tau(  47) = (   0.1668352   0.3708144   1.5393243  )
        48           C   tau(  48) = (  -0.0357433   1.0335536   0.7979798  )
        49           C   tau(  49) = (   0.3075915   1.1727475   1.3892715  )
        50           C   tau(  50) = (   0.8247961   0.5097852   0.9482349  )
        51           C   tau(  51) = (   0.4467253   0.1531256   0.1689508  )
        52           C   tau(  52) = (  -0.0704793   0.8160879   0.6099874  )
        53           C   tau(  53) = (   0.7218657   0.6272547   0.2019338  )
        54           C   tau(  54) = (   0.6554402   1.2903914   0.5774377  )
        55           C   tau(  55) = (   0.0324511   0.6986184   1.3562886  )
        56           C   tau(  56) = (   0.0988766   0.0354817   0.9807846  )
        57           C   tau(  57) = (   0.0095612   0.5908704   0.2160656  )
        58           C   tau(  58) = (   0.3678199   1.2537864   0.5631956  )
        59           C   tau(  59) = (   0.7447557   0.7350027   1.3421567  )
        60           C   tau(  60) = (   0.3864969   0.0720867   0.9950267  )
        61           C   tau(  61) = (   0.4723192   0.5804331   0.5030251  )
        62           C   tau(  62) = (   0.9046106   1.2433080   0.2762210  )
        63           C   tau(  63) = (   0.2819977   0.7454400   1.0551972  )
        64           C   tau(  64) = (  -0.1502938   0.0825651   1.2820014  )
        65           C   tau(  65) = (   0.3237220   0.4342010   0.7056849  )
        66           C   tau(  66) = (   0.0525895   1.0968775   0.0733008  )
        67           C   tau(  67) = (   0.4305949   0.8916721   0.8525375  )
        68           C   tau(  68) = (   0.7017273   0.2289956   1.4849215  )
        69           H   tau(  69) = (   0.4413403   1.1812031   1.3728213  )
        70           H   tau(  70) = (   0.6910847   0.5183888   0.9648785  )
        71           H   tau(  71) = (   0.3129766   0.1446699   0.1854011  )
        72           H   tau(  72) = (   0.0632321   0.8074843   0.5933438  )
        73           H   tau(  73) = (   0.2510335   1.2947792   1.3919426  )
        74           H   tau(  74) = (  -0.1185355   0.6317694   0.9456051  )
        75           H   tau(  75) = (   0.5032833   0.0310939   0.1662797  )
        76           H   tau(  76) = (   0.8728524   0.6941037   0.6126172  )
        77           H   tau(  77) = (   0.2544597   1.0974784   1.2906943  )
        78           H   tau(  78) = (   0.8779735   0.4343443   1.0466516  )
        79           H   tau(  79) = (   0.4998571   0.2283947   0.2675281  )
        80           H   tau(  80) = (  -0.1236567   0.8915288   0.5115707  )
        81           H   tau(  81) = (   0.0029089   0.4776013   0.2888217  )
        82           H   tau(  82) = (   0.3745146   1.1405697   0.4903648  )
        83           H   tau(  83) = (   0.7514080   0.8482718   1.2694006  )
        84           H   tau(  84) = (   0.3798022   0.1853034   1.0678576  )
        85           H   tau(  85) = (   0.1146460   0.6659884   0.2532048  )
        86           H   tau(  86) = (   0.2626511   0.0029666   0.5261334  )
        87           H   tau(  87) = (   0.6396708   0.6598847   1.3050175  )
        88           H   tau(  88) = (   0.4916657   1.3229065   1.0320889  )
        89           H   tau(  89) = (   0.0165485   0.5596440   0.0853787  )
        90           H   tau(  90) = (   0.3608736   1.2224909   0.6938609  )
        91           H   tau(  91) = (   0.7377683   0.7662291   1.4728436  )
        92           H   tau(  92) = (   0.3934433   0.1033822   0.8643615  )
        93           H   tau(  93) = (   0.3557665   0.3178912   0.6452999  )
        94           H   tau(  94) = (   0.0203495   0.9806599   0.1337747  )
        95           H   tau(  95) = (   0.3985503   1.0079819   0.9129224  )
        96           H   tau(  96) = (   0.7339674   0.3452132   1.4244476  )
        97           H   tau(  97) = (   0.1964493   0.4318230   0.7489125  )
        98           H   tau(  98) = (  -0.0658853   1.0942215   1.5881217  )
        99           H   tau(  99) = (   0.5578675   0.8940501   0.8093098  )
       100           H   tau( 100) = (   0.8202022   0.2316516  -0.0298994  )
       101           H   tau( 101) = (   0.4104177   0.4574535   0.8065638  )
       102           H   tau( 102) = (   0.9658353   1.1202892  -0.0274866  )
       103           H   tau( 103) = (   0.3438992   0.8684196   0.7516585  )
       104           H   tau( 104) = (  -0.2115185   0.2055839   1.5857089  )

     number of k points=     8
                       cart. coord. in units 2pi/alat
        k(    1) = (   0.0000000   0.0000000   0.0000000), wk =   0.1666667
        k(    2) = (   0.0000000   0.0000000  -0.3208785), wk =   0.1666667
        k(    3) = (   0.0000000  -0.3771100   0.0000000), wk =   0.1666667
        k(    4) = (   0.0000000  -0.3771100  -0.3208785), wk =   0.1666667
        k(    5) = (   0.3333333   0.0000000   0.0525563), wk =   0.3333333
        k(    6) = (   0.3333333   0.0000000  -0.2683222), wk =   0.3333333
        k(    7) = (   0.3333333  -0.3771100   0.0525563), wk =   0.3333333
        k(    8) = (   0.3333333  -0.3771100  -0.2683222), wk =   0.3333333

     Dense  grid:  1012871 G-vectors     FFT dimensions: ( 100, 135, 160)

     Estimated max dynamical RAM per process >    1152.66MB

     Estimated total allocated dynamical RAM >    9221.28MB

     Check: negative/imaginary core charge=   -0.000002    0.000000

     Initial potential from superposition of free atoms

     starting charge  367.99809, renormalised to  368.00000
     Starting wfc are  308 randomized atomic wfcs
     Checking if some PAW data can be deallocated... 

     total cpu time spent up to now is       63.8 secs

     per-process dynamical memory:   777.8 Mb

     Self-consistent Calculation

     iteration #  1     ecut=   100.00 Ry     beta=0.50
     Davidson diagonalization with overlap
     ethr =  1.00E-02,  avg # of iterations =  3.0

     total cpu time spent up to now is      242.3 secs

     total energy              =   -1983.47335403 Ry
     Harris-Foulkes estimate   =   -1988.66050125 Ry
     estimated scf accuracy    <       9.90810703 Ry

     iteration #  2     ecut=   100.00 Ry     beta=0.50
     Davidson diagonalization with overlap
     ethr =  2.69E-03,  avg # of iterations =  3.0

     total cpu time spent up to now is      345.5 secs

     total energy              =   -1984.44480004 Ry
     Harris-Foulkes estimate   =   -1985.42427673 Ry
     estimated scf accuracy    <       2.00172214 Ry

     iteration #  3     ecut=   100.00 Ry     beta=0.50
     Davidson diagonalization with overlap
     ethr =  5.44E-04,  avg # of iterations =  5.5

     total cpu time spent up to now is      519.1 secs

     total energy              =   -1985.19902877 Ry
     Harris-Foulkes estimate   =   -1985.54323973 Ry
     estimated scf accuracy    <       0.83635834 Ry

     iteration #  4     ecut=   100.00 Ry     beta=0.50
     Davidson diagonalization with overlap
     ethr =  2.27E-04,  avg # of iterations =  2.0

     total cpu time spent up to now is      613.7 secs

     total energy              =   -1985.25549991 Ry
     Harris-Foulkes estimate   =   -1985.31166732 Ry
     estimated scf accuracy    <       0.12350876 Ry

     iteration #  5     ecut=   100.00 Ry     beta=0.50
     Davidson diagonalization with overlap
     ethr =  3.36E-05,  avg # of iterations =  5.5

     total cpu time spent up to now is      806.4 secs

     total energy              =   -1985.32135577 Ry
     Harris-Foulkes estimate   =   -1985.34908052 Ry
     estimated scf accuracy    <       0.07551740 Ry

     iteration #  6     ecut=   100.00 Ry     beta=0.50
     Davidson diagonalization with overlap
     ethr =  2.05E-05,  avg # of iterations =  1.0

     total cpu time spent up to now is      895.5 secs

     total energy              =   -1985.31575970 Ry
     Harris-Foulkes estimate   =   -1985.32601528 Ry
     estimated scf accuracy    <       0.02379612 Ry

     iteration #  7     ecut=   100.00 Ry     beta=0.50
     Davidson diagonalization with overlap
     ethr =  6.47E-06,  avg # of iterations =  4.1

     total cpu time spent up to now is     1050.2 secs

     total energy              =   -1985.32760922 Ry
     Harris-Foulkes estimate   =   -1985.32831947 Ry
     estimated scf accuracy    <       0.00384879 Ry

     iteration #  8     ecut=   100.00 Ry     beta=0.50
     Davidson diagonalization with overlap
     ethr =  1.05E-06,  avg # of iterations =  2.0

     total cpu time spent up to now is     1145.5 secs

     total energy              =   -1985.32667528 Ry
     Harris-Foulkes estimate   =   -1985.32800235 Ry
     estimated scf accuracy    <       0.00233877 Ry

     iteration #  9     ecut=   100.00 Ry     beta=0.50
     Davidson diagonalization with overlap
     ethr =  6.36E-07,  avg # of iterations =  3.8

     total cpu time spent up to now is     1276.6 secs

     total energy              =   -1985.32735502 Ry
     Harris-Foulkes estimate   =   -1985.32741891 Ry
     estimated scf accuracy    <       0.00021322 Ry

     iteration # 10     ecut=   100.00 Ry     beta=0.50
     Davidson diagonalization with overlap
     ethr =  5.79E-08,  avg # of iterations =  2.2

     total cpu time spent up to now is     1375.1 secs

     total energy              =   -1985.32733735 Ry
     Harris-Foulkes estimate   =   -1985.32738012 Ry
     estimated scf accuracy    <       0.00008167 Ry

     iteration # 11     ecut=   100.00 Ry     beta=0.50
     Davidson diagonalization with overlap
     ethr =  2.22E-08,  avg # of iterations =  3.0

     total cpu time spent up to now is     1517.7 secs

     total energy              =   -1985.32737006 Ry
     Harris-Foulkes estimate   =   -1985.32737626 Ry
     estimated scf accuracy    <       0.00001673 Ry

     iteration # 12     ecut=   100.00 Ry     beta=0.50
     Davidson diagonalization with overlap
     ethr =  4.55E-09,  avg # of iterations =  3.0

     total cpu time spent up to now is     1613.6 secs

     total energy              =   -1985.32736933 Ry
     Harris-Foulkes estimate   =   -1985.32737143 Ry
     estimated scf accuracy    <       0.00000368 Ry

     iteration # 13     ecut=   100.00 Ry     beta=0.50
     Davidson diagonalization with overlap
     ethr =  9.99E-10,  avg # of iterations =  4.0

     total cpu time spent up to now is     1793.8 secs

     total energy              =   -1985.32737213 Ry
     Harris-Foulkes estimate   =   -1985.32737321 Ry
     estimated scf accuracy    <       0.00000402 Ry

     iteration # 14     ecut=   100.00 Ry     beta=0.50
     Davidson diagonalization with overlap
     ethr =  9.99E-10,  avg # of iterations =  1.0

     total cpu time spent up to now is     1882.9 secs

     total energy              =   -1985.32737147 Ry
     Harris-Foulkes estimate   =   -1985.32737223 Ry
     estimated scf accuracy    <       0.00000184 Ry

     iteration # 15     ecut=   100.00 Ry     beta=0.50
     Davidson diagonalization with overlap
     ethr =  4.99E-10,  avg # of iterations =  3.0

     total cpu time spent up to now is     2018.6 secs

     total energy              =   -1985.32737207 Ry
     Harris-Foulkes estimate   =   -1985.32737208 Ry
     estimated scf accuracy    <       0.00000005 Ry

     iteration # 16     ecut=   100.00 Ry     beta=0.50
     Davidson diagonalization with overlap
     ethr =  1.30E-11,  avg # of iterations =  3.1

     total cpu time spent up to now is     2135.4 secs

     total energy              =   -1985.32737207 Ry
     Harris-Foulkes estimate   =   -1985.32737208 Ry
     estimated scf accuracy    <       0.00000005 Ry

     iteration # 17     ecut=   100.00 Ry     beta=0.50
     Davidson diagonalization with overlap
     ethr =  1.30E-11,  avg # of iterations =  2.0

     total cpu time spent up to now is     2227.9 secs

     total energy              =   -1985.32737206 Ry
     Harris-Foulkes estimate   =   -1985.32737207 Ry
     estimated scf accuracy    <       0.00000002 Ry

     iteration # 18     ecut=   100.00 Ry     beta=0.50
     Davidson diagonalization with overlap
     ethr =  4.55E-12,  avg # of iterations =  4.0

     total cpu time spent up to now is     2374.1 secs

     End of self-consistent calculation

          k = 0.0000 0.0000 0.0000 (126733 PWs)   bands (ev):

   -23.3594 -23.3579 -23.3578 -23.3567 -21.8748 -21.8717 -21.8608 -21.8556
   -21.7630 -21.7611 -21.7408 -21.7395 -21.6701 -21.6655 -21.6622 -21.6601
   -19.6494 -19.6474 -19.6413 -19.6392 -19.4978 -19.4946 -19.4939 -19.4926
   -19.4731 -19.4715 -19.4629 -19.4620 -16.2589 -16.2568 -16.2504 -16.2499
   -14.7226 -14.7212 -14.7201 -14.7191 -12.5474 -12.5160 -12.5077 -12.4940
   -12.1459 -12.1378 -12.1373 -12.1205 -11.9229 -11.9212 -11.8665 -11.8176
   -10.2394 -10.2321 -10.2233 -10.1818 -10.1649 -10.1445 -10.1377 -10.0864
    -9.1583  -9.1453  -9.1263  -9.0682  -8.0658  -8.0199  -7.9719  -7.9618
    -7.8579  -7.8353  -7.7298  -7.6859  -7.3838  -7.3707  -7.3096  -7.2773
    -6.9489  -6.9441  -6.9426  -6.9108  -6.4698  -6.4451  -6.4282  -6.4134
    -6.1579  -6.0852  -6.0624  -5.9543  -5.9355  -5.9131  -5.8583  -5.8252
    -5.8222  -5.8166  -5.6589  -5.6448  -5.6344  -5.6250  -5.6185  -5.5028
    -5.4785  -5.4770  -5.3603  -5.3393  -5.3126  -5.2358  -5.2275  -5.1585
    -5.1420  -5.1002  -5.0947  -5.0720  -4.5902  -4.5821  -4.5587  -4.5529
    -4.2966  -4.1083  -4.0997  -4.0256  -4.0036  -3.9967  -3.9404  -3.8762
    -3.8732  -3.7965  -3.7752  -3.7481  -3.7227  -3.7060  -3.6956  -3.6515
    -3.5892  -3.4732  -3.4731  -3.4561  -3.3639  -3.3230  -3.3096  -3.2698
    -2.7465  -2.7389  -2.7072  -2.6475  -2.4907  -2.4748  -2.4535  -2.4016
    -2.3944  -2.3557  -2.3520  -2.2819  -1.8780  -1.8656  -1.8280  -1.8017
    -1.7760  -1.7687  -1.7566  -1.6619  -1.5582  -1.5207  -1.3975  -1.3486
    -1.2979  -1.2945  -1.2632  -1.2577  -1.1535  -1.1245  -1.1095  -1.0753
    -1.0473  -1.0044  -0.9821  -0.9617  -0.7698  -0.7695  -0.7677  -0.7506
    -0.6413  -0.6387  -0.5942  -0.5899  -0.4775  -0.4767  -0.3490  -0.3334
     3.1235   3.1646   3.2199   3.2457   3.8801   3.9067   3.9274   3.9603
     4.8074   4.8133   4.8295   4.8583   5.9514   6.4405   6.4991   6.5208
     6.5269   6.5896   6.6055   6.7636   6.8620   6.9028   7.0597   7.1193
     7.1327   7.1770   7.2472   7.2769   7.3453   7.4126   7.4346   7.5874
     7.6874   7.7077   7.7388   7.7474

          k = 0.0000 0.0000-0.3209 (126622 PWs)   bands (ev):

   -23.3590 -23.3588 -23.3572 -23.3570 -21.8748 -21.8746 -21.8566 -21.8565
   -21.7620 -21.7615 -21.7409 -21.7402 -21.6696 -21.6690 -21.6600 -21.6595
   -19.6492 -19.6474 -19.6413 -19.6394 -19.4961 -19.4961 -19.4934 -19.4933
   -19.4722 -19.4722 -19.4625 -19.4624 -16.2594 -16.2576 -16.2504 -16.2486
   -14.7220 -14.7210 -14.7205 -14.7196 -12.5373 -12.5368 -12.4958 -12.4949
   -12.1474 -12.1473 -12.1242 -12.1241 -11.9246 -11.9241 -11.8391 -11.8388
   -10.2362 -10.2360 -10.2017 -10.2017 -10.1599 -10.1593 -10.1085 -10.1079
    -9.1658  -9.1651  -9.0856  -9.0849  -8.0519  -8.0515  -7.9440  -7.9433
    -7.8079  -7.8078  -7.7594  -7.7591  -7.3587  -7.3586  -7.3248  -7.3247
    -6.9457  -6.9452  -6.9138  -6.9135  -6.4973  -6.4969  -6.3799  -6.3797
    -6.0745  -6.0737  -6.0397  -6.0397  -5.9884  -5.9878  -5.8347  -5.8346
    -5.7911  -5.7896  -5.7091  -5.7088  -5.5713  -5.5702  -5.5101  -5.5098
    -5.4816  -5.4809  -5.3524  -5.3522  -5.2999  -5.2995  -5.2182  -5.2179
    -5.1372  -5.1366  -5.0585  -5.0584  -4.5886  -4.5878  -4.5621  -4.5613
    -4.2418  -4.2402  -4.0128  -4.0112  -3.9543  -3.9543  -3.9046  -3.9040
    -3.8899  -3.8890  -3.7506  -3.7502  -3.7098  -3.7089  -3.6859  -3.6848
    -3.5247  -3.5247  -3.4795  -3.4783  -3.3443  -3.3439  -3.2823  -3.2818
    -2.7470  -2.7465  -2.6805  -2.6793  -2.4708  -2.4707  -2.4243  -2.4241
    -2.3856  -2.3837  -2.3197  -2.3192  -1.8418  -1.8414  -1.8210  -1.8207
    -1.7798  -1.7796  -1.7326  -1.7321  -1.5328  -1.5327  -1.3715  -1.3710
    -1.3003  -1.2998  -1.2539  -1.2535  -1.1401  -1.1396  -1.1003  -1.1001
    -1.0019  -1.0016  -0.9897  -0.9897  -0.7729  -0.7724  -0.7573  -0.7572
    -0.6399  -0.6388  -0.5893  -0.5882  -0.4779  -0.4777  -0.3418  -0.3409
     3.1216   3.1231   3.2548   3.2569   3.8932   3.8933   3.9421   3.9431
     4.8063   4.8064   4.8456   4.8458   6.1126   6.1133   6.5005   6.5008
     6.5825   6.5835   6.7405   6.7414   6.9037   6.9038   7.1037   7.1041
     7.2166   7.2171   7.3173   7.3190   7.3472   7.3474   7.4722   7.4725
     7.6070   7.6095   7.7141   7.7164

          k = 0.0000-0.3771 0.0000 (126668 PWs)   bands (ev):

   -23.3587 -23.3585 -23.3575 -23.3572 -21.8731 -21.8730 -21.8585 -21.8584
   -21.7614 -21.7608 -21.7403 -21.7396 -21.6772 -21.6764 -21.6536 -21.6529
   -19.6493 -19.6475 -19.6412 -19.6393 -19.4958 -19.4958 -19.4935 -19.4934
   -19.4714 -19.4714 -19.4636 -19.4635 -16.2559 -16.2555 -16.2525 -16.2522
   -14.7219 -14.7217 -14.7200 -14.7197 -12.5312 -12.5305 -12.5020 -12.5019
   -12.1613 -12.1612 -12.1096 -12.1093 -11.9014 -11.9009 -11.8637 -11.8634
   -10.2334 -10.2333 -10.2071 -10.2071 -10.1465 -10.1458 -10.1173 -10.1168
    -9.1432  -9.1420  -9.1110  -9.1101  -8.0440  -8.0435  -7.9601  -7.9590
    -7.8084  -7.8079  -7.7366  -7.7363  -7.4290  -7.4290  -7.2573  -7.2569
    -6.9763  -6.9762  -6.8927  -6.8925  -6.4561  -6.4552  -6.4238  -6.4235
    -6.1060  -6.1049  -6.0470  -6.0469  -5.9044  -5.9036  -5.8844  -5.8843
    -5.8062  -5.8059  -5.6897  -5.6894  -5.5806  -5.5804  -5.4785  -5.4782
    -5.4736  -5.4729  -5.3877  -5.3869  -5.3258  -5.3254  -5.1924  -5.1924
    -5.1149  -5.1141  -5.0633  -5.0632  -4.6601  -4.6597  -4.5371  -4.5363
    -4.1227  -4.1225  -4.0614  -4.0607  -3.9548  -3.9537  -3.8909  -3.8908
    -3.8736  -3.8724  -3.7812  -3.7801  -3.7271  -3.7262  -3.6830  -3.6830
    -3.5634  -3.5629  -3.4922  -3.4920  -3.3208  -3.3205  -3.2785  -3.2781
    -2.7270  -2.7266  -2.6530  -2.6529  -2.5268  -2.5262  -2.4595  -2.4580
    -2.3661  -2.3658  -2.2749  -2.2746  -1.8788  -1.8787  -1.8057  -1.8057
    -1.7718  -1.7715  -1.7291  -1.7289  -1.5235  -1.5235  -1.3841  -1.3830
    -1.3092  -1.3087  -1.2484  -1.2483  -1.1505  -1.1495  -1.1110  -1.1103
    -1.0053  -1.0049  -0.9704  -0.9704  -0.7670  -0.7665  -0.7543  -0.7542
    -0.6496  -0.6484  -0.5794  -0.5783  -0.4770  -0.4769  -0.3441  -0.3431
     3.1427   3.1445   3.2344   3.2363   3.9073   3.9077   3.9271   3.9277
     4.8103   4.8104   4.8477   4.8480   6.2313   6.2322   6.4711   6.4731
     6.5704   6.5731   6.6913   6.6924   6.8325   6.8338   7.0281   7.0283
     7.1375   7.1383   7.3172   7.3172   7.4236   7.4236   7.4847   7.4847
     7.5740   7.5751   7.8280   7.8318

          k = 0.0000-0.3771-0.3209 (126544 PWs)   bands (ev):

   -23.3587 -23.3584 -23.3575 -23.3573 -21.8745 -21.8743 -21.8570 -21.8569
   -21.7609 -21.7603 -21.7409 -21.7403 -21.6773 -21.6765 -21.6534 -21.6527
   -19.6492 -19.6473 -19.6413 -19.6394 -19.4956 -19.4955 -19.4938 -19.4936
   -19.4714 -19.4713 -19.4636 -19.4636 -16.2579 -16.2547 -16.2533 -16.2501
   -14.7218 -14.7212 -14.7205 -14.7197 -12.5237 -12.5232 -12.5117 -12.5107
   -12.1395 -12.1393 -12.1299 -12.1296 -11.9014 -11.9008 -11.8635 -11.8632
   -10.2210 -10.2209 -10.2196 -10.2192 -10.1459 -10.1452 -10.1189 -10.1182
    -9.1542  -9.1530  -9.0963  -9.0953  -8.0505  -8.0500  -7.9549  -7.9538
    -7.8209  -7.8206  -7.7504  -7.7494  -7.3326  -7.3323  -7.3278  -7.3274
    -6.9407  -6.9401  -6.9300  -6.9297  -6.4794  -6.4787  -6.3902  -6.3898
    -6.1335  -6.1333  -6.0176  -6.0167  -5.9713  -5.9703  -5.8626  -5.8623
    -5.7450  -5.7441  -5.6888  -5.6880  -5.5745  -5.5736  -5.5427  -5.5420
    -5.4600  -5.4595  -5.4314  -5.4304  -5.2377  -5.2371  -5.2170  -5.2167
    -5.0932  -5.0925  -5.0895  -5.0890  -4.6253  -4.6248  -4.5789  -4.5776
    -4.0781  -4.0778  -4.0719  -4.0711  -3.9889  -3.9879  -3.9175  -3.9165
    -3.8294  -3.8285  -3.8161  -3.8149  -3.7032  -3.7016  -3.6682  -3.6673
    -3.5795  -3.5785  -3.5070  -3.5066  -3.3175  -3.3171  -3.2745  -3.2740
    -2.7222  -2.7217  -2.6492  -2.6491  -2.5340  -2.5333  -2.4401  -2.4385
    -2.3742  -2.3727  -2.2861  -2.2860  -1.8387  -1.8382  -1.8025  -1.8021
    -1.7983  -1.7981  -1.7544  -1.7539  -1.5132  -1.5130  -1.3845  -1.3834
    -1.3023  -1.3020  -1.2584  -1.2580  -1.1355  -1.1348  -1.1096  -1.1089
    -1.0110  -1.0103  -0.9766  -0.9765  -0.7639  -0.7636  -0.7585  -0.7578
    -0.6500  -0.6488  -0.5793  -0.5782  -0.4749  -0.4746  -0.3452  -0.3442
     3.1234   3.1250   3.2543   3.2565   3.9110   3.9121   3.9218   3.9238
     4.8089   4.8089   4.8479   4.8482   6.3210   6.3223   6.3848   6.3867
     6.5388   6.5423   6.5981   6.5996   6.8872   6.8874   7.0107   7.0119
     7.2346   7.2356   7.3212   7.3229   7.4002   7.4020   7.5141   7.5147
     7.6549   7.6558   7.8714   7.8747

          k = 0.3333 0.0000 0.0526 (126630 PWs)   bands (ev):

   -23.3590 -23.3582 -23.3575 -23.3569 -21.8735 -21.8718 -21.8595 -21.8569
   -21.7594 -21.7581 -21.7443 -21.7431 -21.6702 -21.6675 -21.6614 -21.6602
   -19.6491 -19.6472 -19.6410 -19.6391 -19.4987 -19.4970 -19.4935 -19.4934
   -19.4705 -19.4701 -19.4630 -19.4625 -16.2578 -16.2564 -16.2524 -16.2521
   -14.7223 -14.7209 -14.7156 -14.7136 -12.5360 -12.5149 -12.5074 -12.4971
   -12.1531 -12.1513 -12.1178 -12.1055 -11.9240 -11.9214 -11.8798 -11.8525
   -10.2296 -10.2254 -10.2187 -10.1959 -10.1637 -10.1626 -10.1323 -10.1101
    -9.1400  -9.1172  -9.0889  -9.0877  -8.0552  -8.0368  -7.9545  -7.9355
    -7.8451  -7.7884  -7.7604  -7.7184  -7.3639  -7.3599  -7.3367  -7.2966
    -6.9445  -6.9442  -6.9167  -6.8936  -6.5186  -6.5112  -6.4543  -6.4502
    -6.1435  -6.1145  -6.0428  -6.0324  -5.9476  -5.8991  -5.8225  -5.8145
    -5.7435  -5.7354  -5.7074  -5.6812  -5.6059  -5.5589  -5.5555  -5.4800
    -5.4528  -5.4211  -5.4052  -5.3562  -5.3364  -5.2824  -5.2151  -5.2025
    -5.1395  -5.1170  -5.0835  -5.0724  -4.7070  -4.6916  -4.5824  -4.5703
    -4.1966  -4.1626  -4.0709  -4.0621  -3.9621  -3.9080  -3.9026  -3.8814
    -3.8404  -3.8326  -3.7674  -3.7601  -3.7567  -3.7145  -3.6979  -3.6715
    -3.5494  -3.4851  -3.4425  -3.4270  -3.3763  -3.3316  -3.2846  -3.2809
    -2.7492  -2.7240  -2.6480  -2.6219  -2.5586  -2.5014  -2.4249  -2.3990
    -2.3904  -2.3784  -2.3377  -2.3055  -1.8728  -1.8715  -1.8166  -1.8094
    -1.7459  -1.7345  -1.7218  -1.6784  -1.5742  -1.5494  -1.3650  -1.3275
    -1.2909  -1.2800  -1.2602  -1.2575  -1.1414  -1.1396  -1.1059  -1.0788
    -1.0553  -1.0258  -1.0037  -0.9979  -0.7713  -0.7694  -0.7638  -0.7537
    -0.6309  -0.6272  -0.6016  -0.6003  -0.4911  -0.4895  -0.3400  -0.3342
     3.1211   3.1388   3.2197   3.2309   3.8903   3.8949   3.9250   3.9508
     4.8056   4.8063   4.8453   4.8562   6.2035   6.4404   6.5027   6.5264
     6.5281   6.5802   6.7171   6.7441   6.8223   6.8684   7.0172   7.0190
     7.0807   7.1702   7.2394   7.2496   7.3524   7.3884   7.4066   7.4815
     7.5799   7.6924   7.7978   7.8087

          k = 0.3333 0.0000-0.2683 (126594 PWs)   bands (ev):

   -23.3588 -23.3585 -23.3574 -23.3570 -21.8749 -21.8732 -21.8572 -21.8561
   -21.7587 -21.7581 -21.7452 -21.7435 -21.6699 -21.6671 -21.6616 -21.6605
   -19.6491 -19.6472 -19.6411 -19.6391 -19.4991 -19.4961 -19.4938 -19.4934
   -19.4717 -19.4690 -19.4628 -19.4627 -16.2594 -16.2565 -16.2527 -16.2501
   -14.7231 -14.7203 -14.7163 -14.7127 -12.5329 -12.5319 -12.5122 -12.4750
   -12.1536 -12.1516 -12.1392 -12.0888 -11.9403 -11.9040 -11.8692 -11.8611
   -10.2358 -10.2175 -10.2165 -10.2019 -10.1837 -10.1383 -10.1311 -10.1146
    -9.1269  -9.1263  -9.1141  -9.0709  -8.0713  -7.9918  -7.9556  -7.9315
    -7.8074  -7.7989  -7.7832  -7.7469  -7.3875  -7.3446  -7.3209  -7.3158
    -6.9713  -6.9271  -6.9077  -6.8834  -6.5523  -6.5354  -6.4478  -6.3825
    -6.0875  -6.0618  -6.0568  -6.0499  -5.9970  -5.9665  -5.8952  -5.8732
    -5.7533  -5.7123  -5.6599  -5.5940  -5.5571  -5.5391  -5.5136  -5.5025
    -5.4779  -5.4593  -5.3953  -5.3647  -5.2919  -5.2875  -5.2234  -5.2225
    -5.1923  -5.1363  -5.0770  -5.0356  -4.7467  -4.6366  -4.6086  -4.5561
    -4.2250  -4.1224  -4.1167  -4.0506  -3.9712  -3.9206  -3.8880  -3.8506
    -3.8436  -3.8229  -3.8122  -3.7583  -3.7367  -3.7191  -3.6654  -3.6543
    -3.5432  -3.5013  -3.4459  -3.4454  -3.3743  -3.3582  -3.2883  -3.2580
    -2.7468  -2.7318  -2.6466  -2.6190  -2.5524  -2.5112  -2.4309  -2.3978
    -2.3934  -2.3652  -2.3528  -2.2892  -1.8731  -1.8303  -1.8210  -1.8143
    -1.7486  -1.7422  -1.7314  -1.7048  -1.5638  -1.5385  -1.3718  -1.3697
    -1.2847  -1.2783  -1.2517  -1.2415  -1.1284  -1.1280  -1.1072  -1.0765
    -1.0453  -1.0223  -1.0222  -1.0113  -0.7741  -0.7665  -0.7587  -0.7579
    -0.6434  -0.6147  -0.6107  -0.5885  -0.5012  -0.4786  -0.3511  -0.3239
     3.1088   3.1159   3.2230   3.2657   3.8903   3.8966   3.9107   3.9586
     4.8052   4.8083   4.8348   4.8626   6.2286   6.3906   6.5189   6.5263
     6.5509   6.5637   6.7031   6.7465   6.7856   6.9157   6.9855   7.1130
     7.1629   7.1855   7.2546   7.2871   7.3249   7.3532   7.3988   7.4381
     7.5684   7.6925   7.6945   7.7680

          k = 0.3333-0.3771 0.0526 (126588 PWs)   bands (ev):

   -23.3586 -23.3584 -23.3574 -23.3572 -21.8727 -21.8725 -21.8584 -21.8583
   -21.7579 -21.7573 -21.7439 -21.7433 -21.6774 -21.6766 -21.6541 -21.6534
   -19.6491 -19.6472 -19.6410 -19.6391 -19.4967 -19.4967 -19.4937 -19.4936
   -19.4718 -19.4717 -19.4623 -19.4622 -16.2565 -16.2561 -16.2533 -16.2528
   -14.7231 -14.7218 -14.7146 -14.7132 -12.5232 -12.5225 -12.5037 -12.5032
   -12.1471 -12.1466 -12.1178 -12.1176 -11.9338 -11.9333 -11.8567 -11.8562
   -10.2282 -10.2279 -10.2039 -10.2036 -10.1578 -10.1569 -10.1275 -10.1269
    -9.1301  -9.1288  -9.0947  -9.0939  -8.0365  -8.0359  -7.9365  -7.9351
    -7.8020  -7.8015  -7.7644  -7.7641  -7.3879  -7.3878  -7.3016  -7.3013
    -6.9439  -6.9439  -6.8995  -6.8991  -6.5108  -6.5099  -6.4513  -6.4510
    -6.1181  -6.1171  -6.0389  -6.0385  -5.9446  -5.9441  -5.8546  -5.8536
    -5.7681  -5.7680  -5.6588  -5.6584  -5.5579  -5.5575  -5.4898  -5.4890
    -5.4551  -5.4547  -5.3941  -5.3939  -5.2808  -5.2802  -5.2286  -5.2282
    -5.1403  -5.1401  -5.0704  -5.0702  -4.6554  -4.6547  -4.6162  -4.6155
    -4.1665  -4.1646  -4.0571  -4.0564  -3.9685  -3.9676  -3.8893  -3.8881
    -3.8354  -3.8344  -3.7545  -3.7537  -3.7174  -3.7172  -3.6786  -3.6776
    -3.5172  -3.5170  -3.4852  -3.4845  -3.3352  -3.3348  -3.2801  -3.2798
    -2.7068  -2.7065  -2.6448  -2.6440  -2.5583  -2.5573  -2.4238  -2.4228
    -2.3810  -2.3809  -2.3044  -2.3039  -1.8718  -1.8713  -1.8150  -1.8146
    -1.7327  -1.7326  -1.7195  -1.7191  -1.5393  -1.5391  -1.3714  -1.3704
    -1.3093  -1.3089  -1.2630  -1.2628  -1.1201  -1.1193  -1.0915  -1.0910
    -1.0281  -1.0278  -1.0005  -1.0003  -0.7686  -0.7684  -0.7597  -0.7595
    -0.6375  -0.6363  -0.5900  -0.5888  -0.4860  -0.4858  -0.3422  -0.3415
     3.1305   3.1324   3.2249   3.2268   3.8975   3.8989   3.9307   3.9322
     4.8071   4.8074   4.8525   4.8530   6.4099   6.4109   6.4800   6.4824
     6.5531   6.5561   6.7470   6.7480   6.8748   6.8761   6.9781   6.9787
     7.0980   7.0996   7.1413   7.1418   7.3152   7.3164   7.4813   7.4821
     7.5694   7.5714   7.6849   7.6852

          k = 0.3333-0.3771-0.2683 (126592 PWs)   bands (ev):

   -23.3586 -23.3583 -23.3575 -23.3572 -21.8741 -21.8740 -21.8567 -21.8566
   -21.7576 -21.7570 -21.7446 -21.7439 -21.6775 -21.6768 -21.6540 -21.6533
   -19.6490 -19.6472 -19.6411 -19.6392 -19.4967 -19.4967 -19.4937 -19.4936
   -19.4719 -19.4718 -19.4622 -19.4622 -16.2586 -16.2554 -16.2539 -16.2507
   -14.7233 -14.7220 -14.7143 -14.7129 -12.5309 -12.5306 -12.4955 -12.4951
   -12.1442 -12.1439 -12.1197 -12.1194 -11.9374 -11.9369 -11.8541 -11.8536
   -10.2259 -10.2257 -10.2078 -10.2076 -10.1635 -10.1628 -10.1208 -10.1204
    -9.1258  -9.1247  -9.0957  -9.0948  -8.0370  -8.0365  -7.9489  -7.9476
    -7.8207  -7.8205  -7.7431  -7.7424  -7.3633  -7.3632  -7.3120  -7.3120
    -6.9332  -6.9329  -6.9158  -6.9151  -6.5302  -6.5293  -6.4165  -6.4162
    -6.1393  -6.1392  -6.0206  -6.0200  -5.9770  -5.9758  -5.8815  -5.8809
    -5.7406  -5.7396  -5.5922  -5.5921  -5.5799  -5.5796  -5.5133  -5.5127
    -5.4341  -5.4340  -5.4093  -5.4090  -5.3053  -5.3046  -5.2300  -5.2293
    -5.1202  -5.1194  -5.0714  -5.0707  -4.6758  -4.6754  -4.5904  -4.5899
    -4.1423  -4.1407  -4.0948  -4.0937  -3.9662  -3.9654  -3.8846  -3.8836
    -3.8398  -3.8397  -3.7571  -3.7568  -3.7066  -3.7058  -3.6763  -3.6757
    -3.5357  -3.5354  -3.4834  -3.4825  -3.3386  -3.3382  -3.2713  -3.2711
    -2.7073  -2.7072  -2.6424  -2.6416  -2.5468  -2.5459  -2.4340  -2.4333
    -2.3786  -2.3777  -2.3043  -2.3037  -1.8573  -1.8567  -1.8087  -1.8085
    -1.7585  -1.7583  -1.7215  -1.7213  -1.5322  -1.5321  -1.3758  -1.3748
    -1.3369  -1.3368  -1.2159  -1.2155  -1.1184  -1.1179  -1.0963  -1.0961
    -1.0370  -1.0368  -1.0038  -1.0036  -0.7691  -0.7688  -0.7586  -0.7584
    -0.6405  -0.6394  -0.5869  -0.5858  -0.4867  -0.4865  -0.3419  -0.3412
     3.1108   3.1124   3.2454   3.2475   3.8952   3.8964   3.9314   3.9331
     4.8057   4.8060   4.8537   4.8541   6.4332   6.4346   6.4668   6.4690
     6.5461   6.5491   6.6972   6.6979   6.8554   6.8561   6.9826   6.9835
     7.0997   7.1008   7.2207   7.2209   7.2992   7.3009   7.4716   7.4730
     7.6436   7.6438   7.7660   7.7669

     highest occupied, lowest unoccupied level (ev):    -0.3239    3.1088

!    total energy              =   -1985.32737207 Ry
     Harris-Foulkes estimate   =   -1985.32737207 Ry
     estimated scf accuracy    <          2.1E-09 Ry

     total all-electron energy =     -7437.743059 Ry

     The total energy is the sum of the following terms:

     one-electron contribution =   -1187.69514412 Ry
     hartree contribution      =     733.64319587 Ry
     xc contribution           =    -402.69765402 Ry
     ewald contribution        =    -589.02607489 Ry
     Dispersion Correction     =      -0.40758526 Ry
     one-center paw contrib.   =    -539.14410965 Ry

     convergence has been achieved in  18 iterations

     Forces acting on atoms (cartesian axes, Ry/au):

     atom    1 type  4   force =     0.00041345    0.00005137   -0.00112667
     atom    2 type  4   force =    -0.00035394   -0.00008769    0.00107727
     atom    3 type  4   force =    -0.00041345   -0.00005137    0.00112667
     atom    4 type  4   force =     0.00035394    0.00008769   -0.00107727
     atom    5 type  4   force =    -0.00086634    0.00029602   -0.00003061
     atom    6 type  4   force =     0.00060007    0.00023176    0.00023700
     atom    7 type  4   force =     0.00086634   -0.00029602    0.00003061
     atom    8 type  4   force =    -0.00060007   -0.00023176   -0.00023700
     atom    9 type  4   force =     0.00067270    0.00010623   -0.00019167
     atom   10 type  4   force =    -0.00069567    0.00012438    0.00023054
     atom   11 type  4   force =    -0.00067270   -0.00010623    0.00019167
     atom   12 type  4   force =     0.00069567   -0.00012438   -0.00023054
     atom   13 type  4   force =     0.00019041    0.00117167    0.00063654
     atom   14 type  4   force =    -0.00022448    0.00114504   -0.00072855
     atom   15 type  4   force =    -0.00019041   -0.00117167   -0.00063654
     atom   16 type  4   force =     0.00022448   -0.00114504    0.00072855
     atom   17 type  4   force =    -0.00011189   -0.00046116    0.00073678
     atom   18 type  4   force =     0.00003131   -0.00051773   -0.00080563
     atom   19 type  4   force =     0.00011189    0.00046116   -0.00073678
     atom   20 type  4   force =    -0.00003131    0.00051773    0.00080563
     atom   21 type  4   force =    -0.00039004   -0.00005679    0.00000588
     atom   22 type  4   force =     0.00077184    0.00026940    0.00011442
     atom   23 type  4   force =     0.00039004    0.00005679   -0.00000588
     atom   24 type  4   force =    -0.00077184   -0.00026940   -0.00011442
     atom   25 type  4   force =    -0.00003255   -0.00023425    0.00012756
     atom   26 type  4   force =     0.00000669   -0.00026078   -0.00009162
     atom   27 type  4   force =     0.00003255    0.00023425   -0.00012756
     atom   28 type  4   force =    -0.00000669    0.00026078    0.00009162
     atom   29 type  2   force =    -0.00027598   -0.00103412   -0.00037538
     atom   30 type  2   force =     0.00099859   -0.00040277    0.00020338
     atom   31 type  2   force =     0.00027598    0.00103412    0.00037538
     atom   32 type  2   force =    -0.00099859    0.00040277   -0.00020338
     atom   33 type  1   force =     0.00002211    0.00011443    0.00062607
     atom   34 type  1   force =    -0.00027510    0.00052398   -0.00012172
     atom   35 type  1   force =    -0.00002211   -0.00011443   -0.00062607
     atom   36 type  1   force =     0.00027510   -0.00052398    0.00012172
     atom   37 type  1   force =    -0.00015338   -0.00016698   -0.00084202
     atom   38 type  1   force =     0.00033990   -0.00046743    0.00053363
     atom   39 type  1   force =     0.00015338    0.00016698    0.00084202
     atom   40 type  1   force =    -0.00033990    0.00046743   -0.00053363
     atom   41 type  1   force =     0.00028605    0.00026163    0.00008713
     atom   42 type  1   force =    -0.00111439   -0.00032651    0.00022127
     atom   43 type  1   force =    -0.00028605   -0.00026163   -0.00008713
     atom   44 type  1   force =     0.00111439    0.00032651   -0.00022127
     atom   45 type  1   force =     0.00105188    0.00023962   -0.00138245
     atom   46 type  1   force =    -0.00080493    0.00008908    0.00090822
     atom   47 type  1   force =    -0.00105188   -0.00023962    0.00138245
     atom   48 type  1   force =     0.00080493   -0.00008908   -0.00090822
     atom   49 type  1   force =    -0.00051058   -0.00010320   -0.00073109
     atom   50 type  1   force =     0.00046697    0.00000242    0.00069622
     atom   51 type  1   force =     0.00051058    0.00010320    0.00073109
     atom   52 type  1   force =    -0.00046697   -0.00000242   -0.00069622
     atom   53 type  1   force =    -0.00039144   -0.00002324    0.00074052
     atom   54 type  1   force =     0.00039054    0.00008998   -0.00057291
     atom   55 type  1   force =     0.00039144    0.00002324   -0.00074052
     atom   56 type  1   force =    -0.00039054   -0.00008998    0.00057291
     atom   57 type  1   force =    -0.00011537    0.00070093   -0.00054871
     atom   58 type  1   force =    -0.00013886    0.00077157    0.00044765
     atom   59 type  1   force =     0.00011537   -0.00070093    0.00054871
     atom   60 type  1   force =     0.00013886   -0.00077157   -0.00044765
     atom   61 type  1   force =     0.00014570   -0.00002357   -0.00048390
     atom   62 type  1   force =    -0.00048762   -0.00035051    0.00026856
     atom   63 type  1   force =    -0.00014570    0.00002357    0.00048390
     atom   64 type  1   force =     0.00048762    0.00035051   -0.00026856
     atom   65 type  1   force =     0.00071545   -0.00088852    0.00036029
     atom   66 type  1   force =    -0.00066008   -0.00087029   -0.00032675
     atom   67 type  1   force =    -0.00071545    0.00088852   -0.00036029
     atom   68 type  1   force =     0.00066008    0.00087029    0.00032675
     atom   69 type  3   force =    -0.00046748    0.00018127    0.00071801
     atom   70 type  3   force =     0.00041155    0.00016253   -0.00071046
     atom   71 type  3   force =     0.00046748   -0.00018127   -0.00071801
     atom   72 type  3   force =    -0.00041155   -0.00016253    0.00071046
     atom   73 type  3   force =     0.00020051   -0.00048913    0.00024554
     atom   74 type  3   force =    -0.00017328   -0.00054006   -0.00024030
     atom   75 type  3   force =    -0.00020051    0.00048913   -0.00024554
     atom   76 type  3   force =     0.00017328    0.00054006    0.00024030
     atom   77 type  3   force =     0.00001103   -0.00061667    0.00024157
     atom   78 type  3   force =     0.00001194   -0.00063366   -0.00023699
     atom   79 type  3   force =    -0.00001103    0.00061667   -0.00024157
     atom   80 type  3   force =    -0.00001194    0.00063366    0.00023699
     atom   81 type  3   force =     0.00019766    0.00086356   -0.00025948
     atom   82 type  3   force =    -0.00019305    0.00079963    0.00025119
     atom   83 type  3   force =    -0.00019766   -0.00086356    0.00025948
     atom   84 type  3   force =     0.00019305   -0.00079963   -0.00025119
     atom   85 type  3   force =     0.00025430   -0.00070763    0.00005513
     atom   86 type  3   force =    -0.00019629   -0.00071884   -0.00005909
     atom   87 type  3   force =    -0.00025430    0.00070763   -0.00005513
     atom   88 type  3   force =     0.00019629    0.00071884    0.00005909
     atom   89 type  3   force =     0.00061032    0.00008505   -0.00002657
     atom   90 type  3   force =    -0.00060767    0.00003098    0.00010497
     atom   91 type  3   force =    -0.00061032   -0.00008505    0.00002657
     atom   92 type  3   force =     0.00060767   -0.00003098   -0.00010497
     atom   93 type  3   force =     0.00010381   -0.00004375    0.00004238
     atom   94 type  3   force =    -0.00007286    0.00002837   -0.00005987
     atom   95 type  3   force =    -0.00010381    0.00004375   -0.00004238
     atom   96 type  3   force =     0.00007286   -0.00002837    0.00005987
     atom   97 type  3   force =     0.00091267   -0.00004159    0.00016429
     atom   98 type  3   force =    -0.00088358   -0.00005021   -0.00014684
     atom   99 type  3   force =    -0.00091267    0.00004159   -0.00016429
     atom  100 type  3   force =     0.00088358    0.00005021    0.00014684
     atom  101 type  3   force =    -0.00075919    0.00042617   -0.00047655
     atom  102 type  3   force =     0.00076997    0.00038218    0.00044665
     atom  103 type  3   force =     0.00075919   -0.00042617    0.00047655
     atom  104 type  3   force =    -0.00076997   -0.00038218   -0.00044665

     Total force =     0.008960     Total SCF correction =     0.000078


     Computing stress (Cartesian axis) and pressure

          total   stress  (Ry/bohr**3)                   (kbar)     P=   -4.74
  -0.00003305   0.00000017   0.00000389         -4.86      0.02      0.57
   0.00000017  -0.00003145  -0.00000002          0.02     -4.63     -0.00
   0.00000389  -0.00000002  -0.00003218          0.57     -0.00     -4.73


     Writing output data file scf.save
 
     init_run     :     60.57s CPU     63.13s WALL (       1 calls)
     electrons    :   2208.74s CPU   2310.46s WALL (       1 calls)
     forces       :     29.56s CPU     29.83s WALL (       1 calls)
     stress       :    205.99s CPU    206.47s WALL (       1 calls)

     Called by init_run:
     wfcinit      :     46.33s CPU     48.73s WALL (       1 calls)
     potinit      :      4.94s CPU      4.97s WALL (       1 calls)

     Called by electrons:
     c_bands      :   1970.37s CPU   2056.36s WALL (      18 calls)
     sum_band     :    219.31s CPU    232.93s WALL (      18 calls)
     v_of_rho     :      2.93s CPU      3.18s WALL (      19 calls)
     newd         :      6.82s CPU      8.58s WALL (      19 calls)
     PAW_pot      :      8.51s CPU      8.51s WALL (      19 calls)
     mix_rho      :      0.81s CPU      0.87s WALL (      18 calls)

     Called by c_bands:
     init_us_2    :     14.10s CPU     14.17s WALL (     312 calls)
     cegterg      :   1915.62s CPU   2001.52s WALL (     144 calls)

     Called by sum_band:
     sum_band:bec :      0.12s CPU      0.12s WALL (     144 calls)
     addusdens    :      7.34s CPU      9.00s WALL (      18 calls)

     Called by *egterg:
     h_psi        :   1126.55s CPU   1193.29s WALL (     594 calls)
     s_psi        :    207.75s CPU    207.78s WALL (     594 calls)
     g_psi        :      7.41s CPU      7.41s WALL (     442 calls)
     cdiaghg      :     96.68s CPU     96.75s WALL (     586 calls)

     Called by h_psi:
     h_psi:pot    :   1117.30s CPU   1183.87s WALL (     594 calls)
     h_psi:calbec :    196.49s CPU    196.84s WALL (     594 calls)
     vloc_psi     :    713.18s CPU    779.35s WALL (     594 calls)
     add_vuspsi   :    207.63s CPU    207.68s WALL (     594 calls)

     General routines
     calbec       :    283.99s CPU    284.48s WALL (     778 calls)
     fft          :      1.60s CPU      2.03s WALL (     271 calls)
     fftw         :    769.55s CPU    847.24s WALL (  210210 calls)
 
     Parallel routines
     fft_scatter  :    134.26s CPU    207.35s WALL (  210481 calls)
 
     PWSCF        : 42m 0.16s CPU    45m 9.99s WALL

 
   This run was terminated on:  23:35:14  14Dec2017            

=------------------------------------------------------------------------------=
   JOB DONE.
=------------------------------------------------------------------------------=
