
     Program PWSCF v.6.1 (svn rev. 13369) starts on 10Dec2017 at  3: 4:12 

     This program is part of the open-source Quantum ESPRESSO suite
     for quantum simulation of materials; please cite
         "P. Giannozzi et al., J. Phys.:Condens. Matter 21 395502 (2009);
          URL http://www.quantum-espresso.org", 
     in publications or presentations arising from this work. More details at
     http://www.quantum-espresso.org/quote

     Parallel version (MPI), running on     8 processors
     R & G space division:  proc/nbgrp/npool/nimage =       8
     Waiting for input...
     Reading input from standard input

     Current dimensions of program PWSCF are:
     Max number of different atomic species (ntypx) = 10
     Max number of k-points (npk) =  40000
     Max angular momentum in pseudopotentials (lmaxx) =  3
               file C.pbe-n-kjpaw_psl.0.1.UPF: wavefunction(s)  2P renormalized
               file N.pbe-n-kjpaw_psl.0.1.UPF: wavefunction(s)  2P renormalized
               file H.pbe-kjpaw_psl.0.1.UPF: wavefunction(s)  1S renormalized
               file O.pbe-n-kjpaw_psl.0.1.UPF: wavefunction(s)  2P renormalized

     -------------------------------------
     Parameters for Dispersion Correction:
     -------------------------------------
       atom      VdW radius       C_6     

        C          2.744         60.710
        N          2.640         42.670
        H          1.892          4.857
        O          2.536         24.284

     Subspace diagonalization in iterative solution of the eigenvalue problem:
     a serial algorithm will be used

 
     Parallelization info
     --------------------
     sticks:   dense  smooth     PW     G-vecs:    dense   smooth      PW
     Min         704     704    185                79323    79323   10682
     Max         705     705    186                79326    79326   10686
     Sum        5633    5633   1483               634593   634593   85473
 


     bravais-lattice index     =            0
     lattice parameter (alat)  =      12.4593  a.u.
     unit-cell volume          =    4697.3037 (a.u.)^3
     number of atoms/cell      =           80
     number of atomic types    =            4
     number of electrons       =       224.00
     number of Kohn-Sham states=          134
     kinetic-energy cutoff     =     100.0000  Ry
     charge density cutoff     =     400.0000  Ry
     convergence threshold     =      1.0E-08
     mixing beta               =       0.5000
     number of iterations used =            8  plain     mixing
     Exchange-correlation      =  SLA  PW   PBX  PBC ( 1  4  3  4 0 0)

     celldm(1)=  12.459342  celldm(2)=   0.000000  celldm(3)=   0.000000
     celldm(4)=   0.000000  celldm(5)=   0.000000  celldm(6)=   0.000000

     crystal axes: (cart. coord. in units of alat)
               a(1) = (   1.000000   0.000000   0.000000 )  
               a(2) = (   0.000000   1.139113   0.000000 )  
               a(3) = (  -0.073708   0.000000   2.132045 )  

     reciprocal axes: (cart. coord. in units 2 pi/alat)
               b(1) = (  1.000000  0.000000  0.034571 )  
               b(2) = (  0.000000  0.877876  0.000000 )  
               b(3) = (  0.000000  0.000000  0.469033 )  


     PseudoPot. # 1 for  C read from file:
     /scratch/ahofstet/pseudo/C.pbe-n-kjpaw_psl.0.1.UPF
     MD5 check sum: 430fe95172b1e11ef3f8ed03bac87931
     Pseudo is Projector augmented-wave + core cor, Zval =  4.0
     Generated using "atomic" code by A. Dal Corso  v.5.0.99 svn rev. 10869
     Shape of augmentation charge: BESSEL
     Using radial grid of 1073 points,  4 beta functions with: 
                l(1) =   0
                l(2) =   0
                l(3) =   1
                l(4) =   1
     Q(r) pseudized with 0 coefficients 


     PseudoPot. # 2 for  N read from file:
     /scratch/ahofstet/pseudo/N.pbe-n-kjpaw_psl.0.1.UPF
     MD5 check sum: f73187c8b701007e77325f868c9291d7
     Pseudo is Projector augmented-wave + core cor, Zval =  5.0
     Generated using "atomic" code by A. Dal Corso  v.5.0.99 svn rev. 10869
     Shape of augmentation charge: PSQ
     Using radial grid of 1085 points,  4 beta functions with: 
                l(1) =   0
                l(2) =   0
                l(3) =   1
                l(4) =   1
     Q(r) pseudized with 0 coefficients 


     PseudoPot. # 3 for  H read from file:
     /scratch/ahofstet/pseudo/H.pbe-kjpaw_psl.0.1.UPF
     MD5 check sum: 94e484f906d9e9773b2f6e52662335b2
     Pseudo is Projector augmented-wave, Zval =  1.0
     Generated using "atomic" code by A. Dal Corso  v.5.0.99 svn rev. 10869
     Shape of augmentation charge: PSQ
     Using radial grid of  929 points,  2 beta functions with: 
                l(1) =   0
                l(2) =   0
     Q(r) pseudized with 0 coefficients 


     PseudoPot. # 4 for  O read from file:
     /scratch/ahofstet/pseudo/O.pbe-n-kjpaw_psl.0.1.UPF
     MD5 check sum: 3f94a2996a3169367d6eb21d9b593f20
     Pseudo is Projector augmented-wave + core cor, Zval =  6.0
     Generated using "atomic" code by A. Dal Corso  v.5.0.99 svn rev. 10869
     Shape of augmentation charge: BESSEL
     Using radial grid of 1095 points,  4 beta functions with: 
                l(1) =   0
                l(2) =   0
                l(3) =   1
                l(4) =   1
     Q(r) pseudized with 0 coefficients 


     atomic species   valence    mass     pseudopotential
        C              4.00    12.01070      C( 1.00)
        N              5.00    14.00670      N( 1.00)
        H              1.00     1.00794      H( 1.00)
        O              6.00    15.99940      O( 1.00)

      2 Sym. Ops., with inversion, found



   Cartesian axes

     site n.     atom                  positions (alat units)
         1           C   tau(   1) = (   0.9513586   0.0380524   0.6714636  )
         2           C   tau(   2) = (   0.0117693   0.6075866   0.3944882  )
         3           C   tau(   3) = (  -0.0250661   1.1010606   1.4605819  )
         4           C   tau(   4) = (   0.9145232   0.5315265   1.7375573  )
         5           C   tau(   5) = (   0.7228172   0.0626308   0.6568107  )
         6           C   tau(   6) = (   0.2402985   0.6321947   0.4092097  )
         7           C   tau(   7) = (   0.2034753   1.0764822   1.4752347  )
         8           C   tau(   8) = (   0.6859939   0.5069183   1.7228358  )
         9           H   tau(   9) = (   0.7076479   0.1949003   0.5548526  )
        10           H   tau(  10) = (   0.2554230   0.7644743   0.5111626  )
        11           H   tau(  11) = (   0.2186446   0.9442128   1.5771929  )
        12           H   tau(  12) = (   0.6708695   0.3746387   1.6208829  )
        13           C   tau(  13) = (   0.6268971   0.1179424   0.8598276  )
        14           C   tau(  14) = (   0.3362600   0.6875040   0.2062108  )
        15           C   tau(  15) = (   0.2993953   1.0211706   1.2722179  )
        16           C   tau(  16) = (   0.5900324   0.4516090   1.9258347  )
        17           H   tau(  17) = (   0.6301754  -0.0142654   0.9616482  )
        18           H   tau(  18) = (   0.3330087   0.5552846   0.1044047  )
        19           H   tau(  19) = (   0.2961170   1.1533784   1.1703972  )
        20           H   tau(  20) = (   0.5932838   0.5838284   2.0276408  )
        21           H   tau(  21) = (   0.4662624   0.1572647   0.8353938  )
        22           H   tau(  22) = (   0.4968844   0.7268401   0.2306756  )
        23           H   tau(  23) = (   0.4600300   0.9818484   1.2966517  )
        24           H   tau(  24) = (   0.4294081   0.4122729   1.9013699  )
        25           C   tau(  25) = (   0.7348668   0.2971205   0.9587952  )
        26           C   tau(  26) = (   0.2282951   0.8666664   0.1071946  )
        27           C   tau(  27) = (   0.1914256   0.8419925   1.1732502  )
        28           C   tau(  28) = (   0.6979974   0.2724466   2.0248509  )
        29           H   tau(  29) = (   0.7290308   0.4272708   0.8528809  )
        30           H   tau(  30) = (   0.2340877   0.9968190   0.2131116  )
        31           H   tau(  31) = (   0.1972617   0.7118422   1.2791646  )
        32           H   tau(  32) = (   0.6922048   0.1422940   1.9189339  )
        33           C   tau(  33) = (   0.9604549   0.2570104   0.9783605  )
        34           C   tau(  34) = (   0.0026805   0.8265603   0.0875508  )
        35           C   tau(  35) = (  -0.0341625   0.8821027   1.1536849  )
        36           C   tau(  36) = (   0.9236119   0.3125527   2.0444946  )
        37           C   tau(  37) = (   0.6216399   1.0187321   0.5580087  )
        38           C   tau(  38) = (   0.3414781   0.4492069   0.5080708  )
        39           C   tau(  39) = (   0.3046526   0.1203810   1.5740368  )
        40           C   tau(  40) = (   0.5848143   0.6899062   1.6239746  )
        41           H   tau(  41) = (   0.6870217   0.9861962   0.4086864  )
        42           H   tau(  42) = (   0.2760819   0.4166849   0.6573897  )
        43           H   tau(  43) = (   0.2392707   0.1529168   1.7233591  )
        44           H   tau(  44) = (   0.6502106   0.7224281   1.4746558  )
        45           H   tau(  45) = (   0.4589422   1.0502553   0.5408093  )
        46           H   tau(  46) = (   0.5041733   0.4807409   0.5252750  )
        47           H   tau(  47) = (   0.4673503   0.0888578   1.5912361  )
        48           H   tau(  48) = (   0.4221191   0.6583721   1.6067704  )
        49           H   tau(  49) = (   0.6397088   0.8834073   0.6533983  )
        50           H   tau(  50) = (   0.3234326   0.3138660   0.4126977  )
        51           H   tau(  51) = (   0.2865837   0.2557058   1.4786472  )
        52           H   tau(  52) = (   0.6028599   0.8252470   1.7193478  )
        53           C   tau(  53) = (   0.6404566   0.3594385   1.1604345  )
        54           C   tau(  54) = (   0.2490209   0.9290044   2.0376222  )
        55           C   tau(  55) = (   0.2858359   0.7796746   0.9716109  )
        56           C   tau(  56) = (   0.6772716   0.2101086   0.0944233  )
        57           H   tau(  57) = (   0.6539338   0.2368041   1.2724420  )
        58           H   tau(  58) = (   0.2355506   0.8063779   1.9256061  )
        59           H   tau(  59) = (   0.2723586   0.9023090   0.8596035  )
        60           H   tau(  60) = (   0.6907419   0.3327352   0.2064394  )
        61           H   tau(  61) = (   0.4786157   0.3915317   1.1378583  )
        62           H   tau(  62) = (   0.4108577   0.9611026   2.0602130  )
        63           H   tau(  63) = (   0.4476768   0.7475813   0.9941872  )
        64           H   tau(  64) = (   0.5154348   0.1780104   0.0718324  )
        65           H   tau(  65) = (   0.7148701   0.4951385   1.2209319  )
        66           H   tau(  66) = (   0.1746024   1.0647044   1.9771302  )
        67           H   tau(  67) = (   0.2114223   0.6439745   0.9111136  )
        68           H   tau(  68) = (   0.7516901   0.0744086   0.1549153  )
        69           O   tau(  69) = (   0.0524131   0.1359616   0.8300240  )
        70           O   tau(  70) = (   0.9107403   0.7054898   0.2359021  )
        71           O   tau(  71) = (   0.8738793   1.0031514   1.3020215  )
        72           O   tau(  72) = (   0.0155521   0.4336232   1.8961433  )
        73           O   tau(  73) = (   0.0572467   1.0844159   0.5544823  )
        74           O   tau(  74) = (   0.9058561   0.5148325   0.5114521  )
        75           O   tau(  75) = (   0.8690457   0.0546971   1.5775632  )
        76           O   tau(  76) = (   0.0204364   0.6242805   1.6205934  )
        77           O   tau(  77) = (   0.0723642   0.3234696   1.1070680  )
        78           O   tau(  78) = (   0.8171328   0.8929991   2.0909418  )
        79           O   tau(  79) = (   0.8539282   0.8156434   1.0249774  )
        80           O   tau(  80) = (   0.1091597   0.2461139   0.0411037  )

     number of k points=    10
                       cart. coord. in units 2pi/alat
        k(    1) = (   0.0000000   0.0000000   0.0000000), wk =   0.1111111
        k(    2) = (   0.0000000   0.0000000  -0.2345166), wk =   0.1111111
        k(    3) = (   0.0000000   0.2926253   0.0000000), wk =   0.2222222
        k(    4) = (   0.0000000   0.2926253  -0.2345166), wk =   0.2222222
        k(    5) = (   0.3333333   0.0000000   0.0115238), wk =   0.2222222
        k(    6) = (   0.3333333   0.0000000  -0.2229928), wk =   0.2222222
        k(    7) = (   0.3333333   0.2926253   0.0115238), wk =   0.2222222
        k(    8) = (   0.3333333   0.2926253  -0.2229928), wk =   0.2222222
        k(    9) = (  -0.3333333   0.2926253  -0.0115238), wk =   0.2222222
        k(   10) = (  -0.3333333   0.2926253   0.2229928), wk =   0.2222222

     Dense  grid:   634593 G-vectors     FFT dimensions: (  80,  96, 180)

     Estimated max dynamical RAM per process >     502.82MB

     Estimated total allocated dynamical RAM >    4022.57MB

     Check: negative/imaginary core charge=   -0.000002    0.000000

     Initial potential from superposition of free atoms

     starting charge  223.99844, renormalised to  224.00000
     Starting wfc are  200 randomized atomic wfcs
     Checking if some PAW data can be deallocated... 

     total cpu time spent up to now is       30.3 secs

     per-process dynamical memory:   404.1 Mb

     Self-consistent Calculation

     iteration #  1     ecut=   100.00 Ry     beta=0.50
     Davidson diagonalization with overlap
     ethr =  1.00E-02,  avg # of iterations =  4.4

     total cpu time spent up to now is      104.0 secs

     total energy              =   -1062.21434424 Ry
     Harris-Foulkes estimate   =   -1067.02289009 Ry
     estimated scf accuracy    <       8.94530638 Ry

     iteration #  2     ecut=   100.00 Ry     beta=0.50
     Davidson diagonalization with overlap
     ethr =  3.99E-03,  avg # of iterations =  2.8

     total cpu time spent up to now is      143.3 secs

     total energy              =   -1062.88166838 Ry
     Harris-Foulkes estimate   =   -1063.54654415 Ry
     estimated scf accuracy    <       1.31408116 Ry

     iteration #  3     ecut=   100.00 Ry     beta=0.50
     Davidson diagonalization with overlap
     ethr =  5.87E-04,  avg # of iterations =  5.0

     total cpu time spent up to now is      218.5 secs

     total energy              =   -1063.94242000 Ry
     Harris-Foulkes estimate   =   -1064.47040403 Ry
     estimated scf accuracy    <       1.45193684 Ry

     iteration #  4     ecut=   100.00 Ry     beta=0.50
     Davidson diagonalization with overlap
     ethr =  5.87E-04,  avg # of iterations =  1.4

     total cpu time spent up to now is      253.6 secs

     total energy              =   -1063.67616653 Ry
     Harris-Foulkes estimate   =   -1064.02117576 Ry
     estimated scf accuracy    <       0.47272981 Ry

     iteration #  5     ecut=   100.00 Ry     beta=0.50
     Davidson diagonalization with overlap
     ethr =  2.11E-04,  avg # of iterations =  4.6

     total cpu time spent up to now is      331.3 secs

     total energy              =   -1064.00064966 Ry
     Harris-Foulkes estimate   =   -1064.60912092 Ry
     estimated scf accuracy    <       1.76515413 Ry

     iteration #  6     ecut=   100.00 Ry     beta=0.50
     Davidson diagonalization with overlap
     ethr =  2.11E-04,  avg # of iterations =  2.8

     total cpu time spent up to now is      369.4 secs

     total energy              =   -1063.74068243 Ry
     Harris-Foulkes estimate   =   -1064.05067941 Ry
     estimated scf accuracy    <       0.68736528 Ry

     iteration #  7     ecut=   100.00 Ry     beta=0.50
     Davidson diagonalization with overlap
     ethr =  2.11E-04,  avg # of iterations =  4.9

     total cpu time spent up to now is      434.1 secs

     total energy              =   -1064.03104225 Ry
     Harris-Foulkes estimate   =   -1064.04610097 Ry
     estimated scf accuracy    <       0.03182921 Ry

     iteration #  8     ecut=   100.00 Ry     beta=0.50
     Davidson diagonalization with overlap
     ethr =  1.42E-05,  avg # of iterations =  5.2

     total cpu time spent up to now is      477.3 secs

     total energy              =   -1064.03182661 Ry
     Harris-Foulkes estimate   =   -1064.03363099 Ry
     estimated scf accuracy    <       0.00597956 Ry

     iteration #  9     ecut=   100.00 Ry     beta=0.50
     Davidson diagonalization with overlap
     ethr =  2.67E-06,  avg # of iterations =  9.1

     total cpu time spent up to now is      561.5 secs

     total energy              =   -1064.03768181 Ry
     Harris-Foulkes estimate   =   -1064.03758427 Ry
     estimated scf accuracy    <       0.00112603 Ry

     iteration # 10     ecut=   100.00 Ry     beta=0.50
     Davidson diagonalization with overlap
     c_bands:  1 eigenvalues not converged
     ethr =  5.03E-07,  avg # of iterations =  4.1

     total cpu time spent up to now is      599.9 secs

     total energy              =   -1064.03707256 Ry
     Harris-Foulkes estimate   =   -1064.03769989 Ry
     estimated scf accuracy    <       0.00134958 Ry

     iteration # 11     ecut=   100.00 Ry     beta=0.50
     Davidson diagonalization with overlap
     ethr =  5.03E-07,  avg # of iterations =  3.3

     total cpu time spent up to now is      639.5 secs

     total energy              =   -1064.03711459 Ry
     Harris-Foulkes estimate   =   -1064.03721029 Ry
     estimated scf accuracy    <       0.00028012 Ry

     iteration # 12     ecut=   100.00 Ry     beta=0.50
     Davidson diagonalization with overlap
     ethr =  1.25E-07,  avg # of iterations =  4.0

     total cpu time spent up to now is      699.8 secs

     total energy              =   -1064.03724954 Ry
     Harris-Foulkes estimate   =   -1064.03727175 Ry
     estimated scf accuracy    <       0.00011969 Ry

     iteration # 13     ecut=   100.00 Ry     beta=0.50
     Davidson diagonalization with overlap
     ethr =  5.34E-08,  avg # of iterations =  1.0

     total cpu time spent up to now is      735.0 secs

     total energy              =   -1064.03718907 Ry
     Harris-Foulkes estimate   =   -1064.03725084 Ry
     estimated scf accuracy    <       0.00008090 Ry

     iteration # 14     ecut=   100.00 Ry     beta=0.50
     Davidson diagonalization with overlap
     ethr =  3.61E-08,  avg # of iterations =  4.0

     total cpu time spent up to now is      799.6 secs

     total energy              =   -1064.03722600 Ry
     Harris-Foulkes estimate   =   -1064.03727010 Ry
     estimated scf accuracy    <       0.00011362 Ry

     iteration # 15     ecut=   100.00 Ry     beta=0.50
     Davidson diagonalization with overlap
     ethr =  3.61E-08,  avg # of iterations =  1.0

     total cpu time spent up to now is      834.6 secs

     total energy              =   -1064.03721090 Ry
     Harris-Foulkes estimate   =   -1064.03722904 Ry
     estimated scf accuracy    <       0.00004234 Ry

     iteration # 16     ecut=   100.00 Ry     beta=0.50
     Davidson diagonalization with overlap
     ethr =  1.89E-08,  avg # of iterations =  3.0

     total cpu time spent up to now is      894.0 secs

     total energy              =   -1064.03723563 Ry
     Harris-Foulkes estimate   =   -1064.03723543 Ry
     estimated scf accuracy    <       0.00000436 Ry

     iteration # 17     ecut=   100.00 Ry     beta=0.50
     Davidson diagonalization with overlap
     ethr =  1.95E-09,  avg # of iterations =  1.0

     total cpu time spent up to now is      929.3 secs

     total energy              =   -1064.03723445 Ry
     Harris-Foulkes estimate   =   -1064.03723571 Ry
     estimated scf accuracy    <       0.00000474 Ry

     iteration # 18     ecut=   100.00 Ry     beta=0.50
     Davidson diagonalization with overlap
     ethr =  1.95E-09,  avg # of iterations =  1.0

     total cpu time spent up to now is      964.4 secs

     total energy              =   -1064.03723377 Ry
     Harris-Foulkes estimate   =   -1064.03723454 Ry
     estimated scf accuracy    <       0.00000256 Ry

     iteration # 19     ecut=   100.00 Ry     beta=0.50
     Davidson diagonalization with overlap
     ethr =  1.14E-09,  avg # of iterations =  3.0

     total cpu time spent up to now is     1002.7 secs

     total energy              =   -1064.03723392 Ry
     Harris-Foulkes estimate   =   -1064.03723395 Ry
     estimated scf accuracy    <       0.00000085 Ry

     iteration # 20     ecut=   100.00 Ry     beta=0.50
     Davidson diagonalization with overlap
     ethr =  3.78E-10,  avg # of iterations =  5.0

     total cpu time spent up to now is     1054.4 secs

     total energy              =   -1064.03723417 Ry
     Harris-Foulkes estimate   =   -1064.03723417 Ry
     estimated scf accuracy    <       0.00000022 Ry

     iteration # 21     ecut=   100.00 Ry     beta=0.50
     Davidson diagonalization with overlap
     ethr =  9.62E-11,  avg # of iterations =  2.7

     total cpu time spent up to now is     1094.5 secs

     total energy              =   -1064.03723420 Ry
     Harris-Foulkes estimate   =   -1064.03723419 Ry
     estimated scf accuracy    <       0.00000019 Ry

     iteration # 22     ecut=   100.00 Ry     beta=0.50
     Davidson diagonalization with overlap
     ethr =  8.50E-11,  avg # of iterations =  1.0

     total cpu time spent up to now is     1129.5 secs

     total energy              =   -1064.03723413 Ry
     Harris-Foulkes estimate   =   -1064.03723420 Ry
     estimated scf accuracy    <       0.00000021 Ry

     iteration # 23     ecut=   100.00 Ry     beta=0.50
     Davidson diagonalization with overlap
     ethr =  8.50E-11,  avg # of iterations =  1.0

     total cpu time spent up to now is     1164.7 secs

     total energy              =   -1064.03723409 Ry
     Harris-Foulkes estimate   =   -1064.03723414 Ry
     estimated scf accuracy    <       0.00000010 Ry

     iteration # 24     ecut=   100.00 Ry     beta=0.50
     Davidson diagonalization with overlap
     ethr =  4.37E-11,  avg # of iterations =  3.7

     total cpu time spent up to now is     1223.4 secs

     End of self-consistent calculation

          k = 0.0000 0.0000 0.0000 ( 79347 PWs)   bands (ev):

   -22.0409 -22.0222 -22.0000 -21.9821 -20.5504 -20.5437 -20.5388 -20.5366
   -19.2614 -19.2588 -19.2487 -19.2460 -14.4848 -14.4609 -14.4581 -14.4509
   -13.0990 -13.0803 -13.0482 -13.0385 -10.8239 -10.8043 -10.7964 -10.7886
   -10.6635 -10.6108 -10.6098 -10.4738  -9.6284  -9.5881  -9.3952  -9.3884
    -8.9794  -8.9317  -8.8954  -8.8677  -7.0373  -7.0223  -6.8778  -6.7933
    -6.1605  -6.1305  -6.1115  -6.0833  -5.5885  -5.5704  -5.5408  -5.4921
    -5.4187  -5.3460  -5.3337  -5.2142  -5.1515  -5.0277  -5.0246  -5.0013
    -4.5885  -4.5016  -4.4536  -4.4404  -4.3586  -4.2904  -4.2218  -4.2044
    -3.7095  -3.7074  -3.6704  -3.5909  -3.5741  -3.4650  -3.4542  -3.4438
    -3.3802  -3.2712  -3.2547  -3.1344  -3.0297  -3.0234  -3.0131  -2.9563
    -2.8441  -2.7786  -2.6740  -2.5986  -2.4661  -2.3492  -2.2656  -2.2239
    -2.0989  -2.0981  -2.0804  -2.0707  -1.9335  -1.8808  -1.7944  -1.7442
    -1.7201  -1.6928  -1.6746  -1.5902  -1.4901  -1.4500  -1.3486  -1.3429
    -0.9360  -0.8702  -0.7277  -0.6646  -0.3012  -0.2459  -0.2247  -0.2109
     4.1165   4.1218   4.3740   4.4447   4.9689   5.0436   5.2064   5.3940
     6.5801   6.8970   6.9963   7.6552   7.7808   7.8518   8.1074   8.1563
     8.2046   8.2373   8.2748   8.4093   8.5823   8.6331

          k = 0.0000 0.0000-0.2345 ( 79308 PWs)   bands (ev):

   -22.0336 -22.0334 -21.9891 -21.9891 -20.5484 -20.5465 -20.5381 -20.5365
   -19.2601 -19.2601 -19.2473 -19.2473 -14.4741 -14.4738 -14.4538 -14.4535
   -13.0741 -13.0740 -13.0591 -13.0591 -10.8153 -10.8147 -10.7946 -10.7941
   -10.6416 -10.6415 -10.5355 -10.5354  -9.6061  -9.6054  -9.3943  -9.3936
    -8.9613  -8.9608  -8.8757  -8.8754  -7.0230  -7.0228  -6.8457  -6.8452
    -6.1463  -6.1461  -6.0923  -6.0922  -5.5740  -5.5739  -5.5160  -5.5158
    -5.3889  -5.3882  -5.2760  -5.2754  -5.1175  -5.1170  -4.9918  -4.9911
    -4.5407  -4.5399  -4.4655  -4.4641  -4.3254  -4.3252  -4.2015  -4.2013
    -3.7021  -3.7010  -3.6028  -3.6024  -3.5377  -3.5375  -3.4455  -3.4445
    -3.3269  -3.3265  -3.1996  -3.1995  -3.0535  -3.0534  -2.9314  -2.9314
    -2.8278  -2.8276  -2.6789  -2.6785  -2.3653  -2.3646  -2.2501  -2.2498
    -2.1592  -2.1590  -2.0720  -2.0714  -1.9101  -1.9099  -1.7557  -1.7555
    -1.6647  -1.6644  -1.5771  -1.5770  -1.5290  -1.5286  -1.3469  -1.3466
    -0.9094  -0.9086  -0.6936  -0.6934  -0.2759  -0.2753  -0.2149  -0.2142
     4.1147   4.1162   4.4111   4.4129   4.9940   4.9945   5.3113   5.3119
     6.6940   6.6943   7.2780   7.2782   7.9269   7.9273   8.0363   8.0365
     8.2415   8.2415   8.4321   8.4323   8.5651   8.5653

          k = 0.0000 0.2926 0.0000 ( 79309 PWs)   bands (ev):

   -22.0339 -22.0244 -21.9978 -21.9889 -20.5562 -20.5503 -20.5348 -20.5291
   -19.2632 -19.2567 -19.2506 -19.2439 -14.4778 -14.4646 -14.4579 -14.4529
   -13.0957 -13.0864 -13.0467 -13.0419 -10.8250 -10.8153 -10.7844 -10.7820
   -10.6557 -10.6282 -10.5741 -10.5066  -9.6168  -9.5996  -9.3980  -9.3961
    -8.9936  -8.9668  -8.8543  -8.8462  -7.0133  -6.9803  -6.9077  -6.8404
    -6.1456  -6.1375  -6.0854  -6.0661  -5.5692  -5.5318  -5.4947  -5.4740
    -5.4037  -5.3213  -5.2801  -5.2456  -5.2332  -5.2192  -5.0096  -4.9477
    -4.5874  -4.5083  -4.4867  -4.4785  -4.3203  -4.2831  -4.2353  -4.2321
    -3.7219  -3.6988  -3.6042  -3.5919  -3.5490  -3.4893  -3.4508  -3.4232
    -3.3480  -3.3329  -3.2378  -3.1913  -3.0101  -2.9736  -2.9189  -2.9147
    -2.8725  -2.7755  -2.7325  -2.7212  -2.3902  -2.3411  -2.3398  -2.2268
    -2.1653  -2.1331  -2.0496  -2.0399  -1.9497  -1.9231  -1.8045  -1.8042
    -1.7169  -1.6976  -1.6004  -1.5892  -1.4192  -1.4084  -1.3614  -1.3492
    -0.9156  -0.8939  -0.7035  -0.6615  -0.2835  -0.2520  -0.2266  -0.2146
     4.1480   4.1572   4.3549   4.4001   4.9629   5.0909   5.2344   5.4054
     6.6620   6.8962   6.9763   7.2015   7.5539   7.5993   7.9648   8.0767
     8.1010   8.3432   8.4322   8.5107   8.5807   8.6180

          k = 0.0000 0.2926-0.2345 ( 79330 PWs)   bands (ev):

   -22.0298 -22.0297 -21.9928 -21.9927 -20.5554 -20.5513 -20.5338 -20.5299
   -19.2614 -19.2597 -19.2476 -19.2457 -14.4687 -14.4684 -14.4584 -14.4580
   -13.0736 -13.0733 -13.0623 -13.0620 -10.8164 -10.8156 -10.7938 -10.7931
   -10.6158 -10.6157 -10.5608 -10.5607  -9.6097  -9.6090  -9.3960  -9.3953
    -8.9795  -8.9791  -8.8511  -8.8507  -6.9976  -6.9974  -6.8727  -6.8723
    -6.1423  -6.1421  -6.0746  -6.0745  -5.5452  -5.5449  -5.4889  -5.4887
    -5.3704  -5.3698  -5.2889  -5.2884  -5.1929  -5.1921  -4.9909  -4.9907
    -4.5375  -4.5363  -4.4941  -4.4928  -4.3010  -4.3010  -4.2276  -4.2275
    -3.6880  -3.6873  -3.6086  -3.6083  -3.5212  -3.5209  -3.4411  -3.4404
    -3.3107  -3.3103  -3.2382  -3.2380  -2.9903  -2.9901  -2.9017  -2.9016
    -2.8565  -2.8560  -2.7368  -2.7366  -2.3509  -2.3503  -2.2952  -2.2950
    -2.1634  -2.1632  -2.0758  -2.0752  -1.8922  -1.8919  -1.7953  -1.7951
    -1.6820  -1.6818  -1.5598  -1.5596  -1.4751  -1.4743  -1.3546  -1.3544
    -0.9066  -0.9058  -0.6789  -0.6787  -0.2641  -0.2635  -0.2244  -0.2235
     4.1511   4.1525   4.3735   4.3754   5.0238   5.0244   5.3243   5.3258
     6.7155   6.7156   7.1841   7.1844   7.5300   7.5303   8.0102   8.0104
     8.2816   8.2820   8.4204   8.4206   8.6076   8.6079

          k = 0.3333 0.0000 0.0115 ( 79340 PWs)   bands (ev):

   -22.0405 -22.0218 -21.9997 -21.9818 -20.5501 -20.5434 -20.5385 -20.5363
   -19.2613 -19.2586 -19.2485 -19.2458 -14.5398 -14.4789 -14.4619 -14.4287
   -13.1169 -13.0826 -13.0650 -13.0459 -10.8215 -10.7837 -10.7799 -10.7679
   -10.6666 -10.6273 -10.6268 -10.4746  -9.4913  -9.4891  -9.3623  -9.3319
    -8.9516  -8.9194  -8.8966  -8.8621  -6.9888  -6.9820  -6.9265  -6.8050
    -6.0980  -6.0890  -6.0441  -6.0371  -5.5453  -5.5405  -5.5160  -5.4593
    -5.4478  -5.3726  -5.3407  -5.2671  -5.1286  -5.0965  -5.0293  -4.9903
    -4.6849  -4.5830  -4.5615  -4.5285  -4.5044  -4.4604  -4.2792  -4.2495
    -3.8323  -3.8271  -3.7577  -3.7033  -3.6220  -3.6105  -3.5207  -3.5069
    -3.3421  -3.3074  -3.1514  -3.1111  -3.0783  -3.0438  -3.0163  -2.9601
    -2.8489  -2.7548  -2.7495  -2.7021  -2.3296  -2.2797  -2.2046  -2.1993
    -2.1533  -2.0887  -2.0730  -2.0350  -1.8919  -1.8845  -1.7866  -1.7623
    -1.6913  -1.6836  -1.6446  -1.5899  -1.5281  -1.4536  -1.4452  -1.4264
    -0.7069  -0.6092  -0.5214  -0.4425  -0.2843  -0.2129  -0.1911  -0.1858
     4.1511   4.1528   4.4035   4.4425   5.0768   5.1303   5.3549   5.4072
     6.6620   7.0906   7.1349   7.4552   7.6964   7.8733   7.9249   8.0265
     8.0861   8.1535   8.3488   8.4010   8.4672   8.6572

          k = 0.3333 0.0000-0.2230 ( 79368 PWs)   bands (ev):

   -22.0332 -22.0330 -21.9888 -21.9887 -20.5481 -20.5462 -20.5379 -20.5362
   -19.2599 -19.2599 -19.2472 -19.2472 -14.5198 -14.5152 -14.4397 -14.4347
   -13.0923 -13.0918 -13.0636 -13.0632 -10.8113 -10.8071 -10.7732 -10.7722
   -10.6495 -10.6476 -10.5453 -10.5434  -9.5105  -9.4586  -9.3778  -9.3271
    -8.9416  -8.9370  -8.8765  -8.8736  -6.9958  -6.9759  -6.8707  -6.8646
    -6.0942  -6.0711  -6.0494  -6.0339  -5.5829  -5.5778  -5.5039  -5.4619
    -5.3735  -5.3495  -5.3081  -5.2936  -5.1492  -5.1360  -5.0400  -5.0122
    -4.6342  -4.6216  -4.5653  -4.5266  -4.5018  -4.4609  -4.2798  -4.2284
    -3.8133  -3.8103  -3.7314  -3.7289  -3.6540  -3.5881  -3.5439  -3.4418
    -3.3467  -3.2775  -3.1836  -3.1773  -3.0578  -3.0399  -3.0051  -2.9847
    -2.8080  -2.7804  -2.7664  -2.7315  -2.3026  -2.2706  -2.2365  -2.1999
    -2.1208  -2.1168  -2.0716  -2.0651  -1.9191  -1.8491  -1.7740  -1.7665
    -1.6607  -1.6576  -1.5842  -1.5430  -1.5426  -1.5291  -1.4702  -1.4395
    -0.6719  -0.6695  -0.4697  -0.4693  -0.2551  -0.2536  -0.1847  -0.1804
     4.1452   4.1520   4.4233   4.4283   5.0457   5.2223   5.2763   5.4260
     6.7703   6.8313   7.4191   7.4241   7.5926   7.8750   7.9446   7.9529
     8.0199   8.1872   8.3066   8.3894   8.4930   8.5432

          k = 0.3333 0.2926 0.0115 ( 79320 PWs)   bands (ev):

   -22.0335 -22.0240 -21.9974 -21.9886 -20.5558 -20.5499 -20.5345 -20.5289
   -19.2630 -19.2565 -19.2504 -19.2437 -14.5196 -14.4868 -14.4578 -14.4434
   -13.1225 -13.1077 -13.0493 -13.0377 -10.8175 -10.8000 -10.7703 -10.7665
   -10.6573 -10.6378 -10.5845 -10.5094  -9.4866  -9.4831  -9.3635  -9.3483
    -8.9592  -8.9411  -8.8667  -8.8519  -6.9862  -6.9573  -6.9393  -6.8551
    -6.0904  -6.0791  -6.0401  -6.0331  -5.5501  -5.5224  -5.4525  -5.4235
    -5.3959  -5.3188  -5.2978  -5.2703  -5.2097  -5.1829  -5.0116  -4.9915
    -4.6935  -4.6068  -4.5656  -4.5461  -4.4790  -4.4000  -4.3532  -4.2939
    -3.8653  -3.8135  -3.7735  -3.7318  -3.6794  -3.6639  -3.5621  -3.4091
    -3.3407  -3.2747  -3.1390  -3.1133  -3.0481  -3.0196  -2.9324  -2.9115
    -2.8470  -2.8050  -2.7918  -2.7215  -2.3112  -2.2717  -2.2453  -2.2096
    -2.1716  -2.1443  -2.0813  -2.0499  -1.9355  -1.9042  -1.7820  -1.7649
    -1.7025  -1.6856  -1.6103  -1.5788  -1.4919  -1.4625  -1.4054  -1.3985
    -0.6821  -0.6396  -0.4950  -0.4469  -0.2629  -0.2189  -0.1928  -0.1801
     4.1571   4.1735   4.3828   4.4098   5.1007   5.1450   5.3817   5.4293
     6.8507   7.0967   7.2266   7.3819   7.4273   7.6763   7.7936   7.8922
     8.0151   8.1323   8.2730   8.3632   8.4323   8.6272

          k = 0.3333 0.2926-0.2230 ( 79291 PWs)   bands (ev):

   -22.0294 -22.0292 -21.9924 -21.9924 -20.5550 -20.5509 -20.5336 -20.5297
   -19.2612 -19.2595 -19.2474 -19.2455 -14.5068 -14.5036 -14.4507 -14.4468
   -13.1082 -13.1059 -13.0533 -13.0503 -10.8128 -10.8019 -10.7806 -10.7717
   -10.6220 -10.6191 -10.5709 -10.5653  -9.4976  -9.4705  -9.3700  -9.3424
    -8.9527  -8.9484  -8.8598  -8.8578  -6.9760  -6.9595  -6.9085  -6.8962
    -6.0875  -6.0756  -6.0418  -6.0304  -5.5335  -5.5118  -5.4705  -5.4438
    -5.3863  -5.3414  -5.2836  -5.2613  -5.1901  -5.1682  -5.0563  -5.0235
    -4.6332  -4.6224  -4.5819  -4.5599  -4.4660  -4.4175  -4.3426  -4.2843
    -3.8610  -3.8229  -3.7956  -3.7569  -3.6677  -3.6236  -3.4629  -3.3870
    -3.3228  -3.2613  -3.2289  -3.1980  -3.0113  -2.9851  -2.9724  -2.9037
    -2.8515  -2.8099  -2.7913  -2.7433  -2.3191  -2.2713  -2.2554  -2.2040
    -2.1874  -2.1514  -2.0956  -2.0696  -1.8846  -1.8656  -1.7924  -1.7742
    -1.6601  -1.6581  -1.5770  -1.5546  -1.4964  -1.4850  -1.4599  -1.4243
    -0.6680  -0.6600  -0.4741  -0.4643  -0.2377  -0.2347  -0.1905  -0.1879
     4.1541   4.1713   4.3934   4.4036   5.0876   5.1770   5.3540   5.4372
     6.8987   6.9825   7.2530   7.3822   7.5245   7.6763   7.8116   7.9046
     7.9561   8.2047   8.2123   8.2999   8.3793   8.5151

          k =-0.3333 0.2926-0.0115 ( 79320 PWs)   bands (ev):

   -22.0335 -22.0240 -21.9974 -21.9886 -20.5559 -20.5499 -20.5345 -20.5289
   -19.2630 -19.2565 -19.2504 -19.2437 -14.5196 -14.4867 -14.4578 -14.4434
   -13.1226 -13.1077 -13.0493 -13.0377 -10.8171 -10.8004 -10.7708 -10.7660
   -10.6573 -10.6378 -10.5845 -10.5094  -9.4859  -9.4837  -9.3639  -9.3479
    -8.9591  -8.9412  -8.8667  -8.8519  -6.9862  -6.9573  -6.9392  -6.8552
    -6.0904  -6.0791  -6.0402  -6.0330  -5.5499  -5.5225  -5.4524  -5.4235
    -5.3961  -5.3186  -5.2974  -5.2709  -5.2095  -5.1830  -5.0117  -4.9914
    -4.6934  -4.6074  -4.5658  -4.5454  -4.4789  -4.4002  -4.3531  -4.2939
    -3.8653  -3.8135  -3.7735  -3.7317  -3.6791  -3.6640  -3.5625  -3.4092
    -3.3415  -3.2737  -3.1389  -3.1133  -3.0482  -3.0196  -2.9324  -2.9114
    -2.8466  -2.8051  -2.7917  -2.7219  -2.3109  -2.2717  -2.2454  -2.2102
    -2.1717  -2.1442  -2.0808  -2.0502  -1.9354  -1.9043  -1.7818  -1.7652
    -1.7025  -1.6855  -1.6100  -1.5791  -1.4917  -1.4626  -1.4054  -1.3984
    -0.6822  -0.6396  -0.4950  -0.4469  -0.2628  -0.2189  -0.1928  -0.1801
     4.1586   4.1720   4.3818   4.4107   5.0999   5.1461   5.3824   5.4286
     6.8506   7.0966   7.2267   7.3821   7.4273   7.6761   7.7934   7.8924
     8.0151   8.1321   8.2731   8.3633   8.4323   8.6271

          k =-0.3333 0.2926 0.2230 ( 79291 PWs)   bands (ev):

   -22.0294 -22.0292 -21.9924 -21.9924 -20.5550 -20.5509 -20.5336 -20.5297
   -19.2612 -19.2595 -19.2474 -19.2455 -14.5070 -14.5034 -14.4505 -14.4471
   -13.1082 -13.1059 -13.0531 -13.0505 -10.8122 -10.8024 -10.7812 -10.7712
   -10.6219 -10.6191 -10.5708 -10.5654  -9.4974  -9.4706  -9.3702  -9.3423
    -8.9524  -8.9486  -8.8596  -8.8580  -6.9762  -6.9594  -6.9082  -6.8964
    -6.0875  -6.0756  -6.0418  -6.0303  -5.5331  -5.5120  -5.4704  -5.4441
    -5.3866  -5.3412  -5.2839  -5.2610  -5.1898  -5.1683  -5.0564  -5.0235
    -4.6322  -4.6234  -4.5832  -4.5586  -4.4661  -4.4175  -4.3425  -4.2843
    -3.8611  -3.8227  -3.7953  -3.7571  -3.6679  -3.6237  -3.4637  -3.3865
    -3.3229  -3.2613  -3.2291  -3.1974  -3.0114  -2.9852  -2.9723  -2.9034
    -2.8513  -2.8098  -2.7914  -2.7437  -2.3191  -2.2711  -2.2553  -2.2042
    -2.1875  -2.1515  -2.0959  -2.0693  -1.8845  -1.8658  -1.7925  -1.7742
    -1.6599  -1.6581  -1.5770  -1.5548  -1.4963  -1.4851  -1.4601  -1.4239
    -0.6684  -0.6597  -0.4740  -0.4643  -0.2374  -0.2349  -0.1900  -0.1885
     4.1556   4.1698   4.3915   4.4054   5.0872   5.1775   5.3544   5.4367
     6.8986   6.9825   7.2531   7.3822   7.5245   7.6763   7.8118   7.9042
     7.9562   8.2048   8.2124   8.2995   8.3794   8.5153

     highest occupied, lowest unoccupied level (ev):    -0.1801    4.1147

!    total energy              =   -1064.03723413 Ry
     Harris-Foulkes estimate   =   -1064.03723413 Ry
     estimated scf accuracy    <          7.2E-09 Ry

     total all-electron energy =     -3987.594610 Ry

     The total energy is the sum of the following terms:

     one-electron contribution =    -577.04616889 Ry
     hartree contribution      =     373.46762462 Ry
     xc contribution           =    -233.59109882 Ry
     ewald contribution        =    -326.04452043 Ry
     Dispersion Correction     =      -0.36611370 Ry
     one-center paw contrib.   =    -300.45695690 Ry

     convergence has been achieved in  24 iterations

     Forces acting on atoms (cartesian axes, Ry/au):

     atom    1 type  1   force =    -0.01294534    0.00255910   -0.00039544
     atom    2 type  1   force =     0.01283336    0.00257995    0.00042186
     atom    3 type  1   force =     0.01294534   -0.00255910    0.00039544
     atom    4 type  1   force =    -0.01283336   -0.00257995   -0.00042186
     atom    5 type  1   force =     0.00943677    0.00347771   -0.00057729
     atom    6 type  1   force =    -0.00941533    0.00347800    0.00059702
     atom    7 type  1   force =    -0.00943677   -0.00347771    0.00057729
     atom    8 type  1   force =     0.00941533   -0.00347800   -0.00059702
     atom    9 type  3   force =    -0.00123944    0.00064557   -0.00030395
     atom   10 type  3   force =     0.00123211    0.00064713    0.00029492
     atom   11 type  3   force =     0.00123944   -0.00064557    0.00030395
     atom   12 type  3   force =    -0.00123211   -0.00064713   -0.00029492
     atom   13 type  1   force =    -0.00506941   -0.00127245    0.00073708
     atom   14 type  1   force =     0.00501552   -0.00126918   -0.00078998
     atom   15 type  1   force =     0.00506941    0.00127245   -0.00073708
     atom   16 type  1   force =    -0.00501552    0.00126918    0.00078998
     atom   17 type  3   force =     0.00057404   -0.00011481    0.00010067
     atom   18 type  3   force =    -0.00055847   -0.00011287   -0.00010763
     atom   19 type  3   force =    -0.00057404    0.00011481   -0.00010067
     atom   20 type  3   force =     0.00055847    0.00011287    0.00010763
     atom   21 type  3   force =     0.00441237   -0.00116747    0.00066041
     atom   22 type  3   force =    -0.00439736   -0.00116429   -0.00066254
     atom   23 type  3   force =    -0.00441237    0.00116747   -0.00066041
     atom   24 type  3   force =     0.00439736    0.00116429    0.00066254
     atom   25 type  1   force =     0.00914454    0.00141246   -0.00261100
     atom   26 type  1   force =    -0.00924652    0.00143218    0.00264216
     atom   27 type  1   force =    -0.00914454   -0.00141246    0.00261100
     atom   28 type  1   force =     0.00924652   -0.00143218   -0.00264216
     atom   29 type  3   force =    -0.00088167   -0.00006251   -0.00040564
     atom   30 type  3   force =     0.00087776   -0.00007685    0.00039241
     atom   31 type  3   force =     0.00088167    0.00006251    0.00040564
     atom   32 type  3   force =    -0.00087776    0.00007685   -0.00039241
     atom   33 type  1   force =    -0.01159777    0.00384364   -0.00124231
     atom   34 type  1   force =     0.01282943    0.00329519    0.00243290
     atom   35 type  1   force =     0.01159777   -0.00384364    0.00124231
     atom   36 type  1   force =    -0.01282943   -0.00329519   -0.00243290
     atom   37 type  1   force =     0.00087841   -0.00302913   -0.00228053
     atom   38 type  1   force =    -0.00088742   -0.00302041    0.00221434
     atom   39 type  1   force =    -0.00087841    0.00302913    0.00228053
     atom   40 type  1   force =     0.00088742    0.00302041   -0.00221434
     atom   41 type  3   force =    -0.00022897    0.00006276    0.00015272
     atom   42 type  3   force =     0.00022824    0.00007842   -0.00016066
     atom   43 type  3   force =     0.00022897   -0.00006276   -0.00015272
     atom   44 type  3   force =    -0.00022824   -0.00007842    0.00016066
     atom   45 type  3   force =    -0.00066074    0.00020340   -0.00055065
     atom   46 type  3   force =     0.00065748    0.00021091    0.00055775
     atom   47 type  3   force =     0.00066074   -0.00020340    0.00055065
     atom   48 type  3   force =    -0.00065748   -0.00021091   -0.00055775
     atom   49 type  3   force =     0.00054851   -0.00050907    0.00089111
     atom   50 type  3   force =    -0.00054805   -0.00051147   -0.00088215
     atom   51 type  3   force =    -0.00054851    0.00050907   -0.00089111
     atom   52 type  3   force =     0.00054805    0.00051147    0.00088215
     atom   53 type  1   force =     0.00079763    0.00014480    0.00348345
     atom   54 type  1   force =    -0.00078218    0.00011511   -0.00348035
     atom   55 type  1   force =    -0.00079763   -0.00014480   -0.00348345
     atom   56 type  1   force =     0.00078218   -0.00011511    0.00348035
     atom   57 type  3   force =     0.00071854   -0.00056890   -0.00031840
     atom   58 type  3   force =    -0.00070685   -0.00056738    0.00030442
     atom   59 type  3   force =    -0.00071854    0.00056890    0.00031840
     atom   60 type  3   force =     0.00070685    0.00056738   -0.00030442
     atom   61 type  3   force =    -0.00036787    0.00027995   -0.00047866
     atom   62 type  3   force =     0.00037279    0.00028490    0.00047190
     atom   63 type  3   force =     0.00036787   -0.00027995    0.00047866
     atom   64 type  3   force =    -0.00037279   -0.00028490   -0.00047190
     atom   65 type  3   force =     0.00004444   -0.00022551    0.00048704
     atom   66 type  3   force =    -0.00003782   -0.00021833   -0.00049518
     atom   67 type  3   force =    -0.00004444    0.00022551   -0.00048704
     atom   68 type  3   force =     0.00003782    0.00021833    0.00049518
     atom   69 type  4   force =     0.00088694   -0.00290165    0.00155961
     atom   70 type  4   force =    -0.00096988   -0.00300591   -0.00145863
     atom   71 type  4   force =    -0.00088694    0.00290165   -0.00155961
     atom   72 type  4   force =     0.00096988    0.00300591    0.00145863
     atom   73 type  4   force =     0.00135019   -0.00514066   -0.00333666
     atom   74 type  4   force =    -0.00129421   -0.00510790    0.00327340
     atom   75 type  4   force =    -0.00135019    0.00514066    0.00333666
     atom   76 type  4   force =     0.00129421    0.00510790   -0.00327340
     atom   77 type  4   force =     0.00099034    0.00060797    0.00519660
     atom   78 type  4   force =    -0.00199001    0.00119010   -0.00633152
     atom   79 type  4   force =    -0.00099034   -0.00060797   -0.00519660
     atom   80 type  4   force =     0.00199001   -0.00119010    0.00633152

     Total force =     0.053113     Total SCF correction =     0.000101


     Computing stress (Cartesian axis) and pressure

          total   stress  (Ry/bohr**3)                   (kbar)     P=   -5.60
  -0.00009674  -0.00000024   0.00000215        -14.23     -0.04      0.32
  -0.00000024  -0.00001361  -0.00000026         -0.04     -2.00     -0.04
   0.00000215  -0.00000026  -0.00000384          0.32     -0.04     -0.57


     Writing output data file scf.save
 
     init_run     :     28.05s CPU     29.60s WALL (       1 calls)
     electrons    :   1126.24s CPU   1193.22s WALL (       1 calls)
     forces       :     13.88s CPU     14.03s WALL (       1 calls)
     stress       :     73.98s CPU     74.28s WALL (       1 calls)

     Called by init_run:
     wfcinit      :     18.89s CPU     20.33s WALL (       1 calls)
     potinit      :      3.21s CPU      3.23s WALL (       1 calls)

     Called by electrons:
     c_bands      :    987.41s CPU   1046.02s WALL (      24 calls)
     sum_band     :    121.76s CPU    128.58s WALL (      24 calls)
     v_of_rho     :      2.44s CPU      2.65s WALL (      25 calls)
     newd         :      5.03s CPU      6.29s WALL (      25 calls)
     PAW_pot      :      8.61s CPU      8.62s WALL (      25 calls)
     mix_rho      :      0.75s CPU      0.82s WALL (      24 calls)

     Called by c_bands:
     init_us_2    :     11.43s CPU     11.47s WALL (     510 calls)
     cegterg      :    951.23s CPU   1009.71s WALL (     240 calls)

     Called by sum_band:
     sum_band:bec :      0.09s CPU      0.09s WALL (     240 calls)
     addusdens    :      5.63s CPU      6.91s WALL (      24 calls)

     Called by *egterg:
     h_psi        :    588.02s CPU    632.53s WALL (    1040 calls)
     s_psi        :     93.62s CPU     93.64s WALL (    1040 calls)
     g_psi        :      4.62s CPU      4.62s WALL (     790 calls)
     cdiaghg      :     50.29s CPU     50.37s WALL (    1030 calls)

     Called by h_psi:
     h_psi:pot    :    581.49s CPU    625.90s WALL (    1040 calls)
     h_psi:calbec :     84.17s CPU     84.49s WALL (    1040 calls)
     vloc_psi     :    403.73s CPU    447.78s WALL (    1040 calls)
     add_vuspsi   :     93.59s CPU     93.63s WALL (    1040 calls)

     General routines
     calbec       :    123.67s CPU    124.13s WALL (    1330 calls)
     fft          :      1.71s CPU      2.05s WALL (     349 calls)
     fftw         :    435.98s CPU    481.49s WALL (  209634 calls)
 
     Parallel routines
     fft_scatter  :     99.46s CPU    131.36s WALL (  209983 calls)
 
     PWSCF        : 20m49.96s CPU    22m44.44s WALL

 
   This run was terminated on:   3:26:57  10Dec2017            

=------------------------------------------------------------------------------=
   JOB DONE.
=------------------------------------------------------------------------------=
