
     Program PWSCF v.6.1 (svn rev. 13369) starts on  7Dec2017 at 10: 0:40 

     This program is part of the open-source Quantum ESPRESSO suite
     for quantum simulation of materials; please cite
         "P. Giannozzi et al., J. Phys.:Condens. Matter 21 395502 (2009);
          URL http://www.quantum-espresso.org", 
     in publications or presentations arising from this work. More details at
     http://www.quantum-espresso.org/quote

     Parallel version (MPI), running on     8 processors
     R & G space division:  proc/nbgrp/npool/nimage =       8
     Waiting for input...
     Reading input from standard input

     Current dimensions of program PWSCF are:
     Max number of different atomic species (ntypx) = 10
     Max number of k-points (npk) =  40000
     Max angular momentum in pseudopotentials (lmaxx) =  3
               file C.pbe-n-kjpaw_psl.0.1.UPF: wavefunction(s)  2P renormalized
               file N.pbe-n-kjpaw_psl.0.1.UPF: wavefunction(s)  2P renormalized
               file H.pbe-kjpaw_psl.0.1.UPF: wavefunction(s)  1S renormalized
               file O.pbe-n-kjpaw_psl.0.1.UPF: wavefunction(s)  2P renormalized

     -------------------------------------
     Parameters for Dispersion Correction:
     -------------------------------------
       atom      VdW radius       C_6     

        C          2.744         60.710
        N          2.640         42.670
        H          1.892          4.857
        O          2.536         24.284

     Subspace diagonalization in iterative solution of the eigenvalue problem:
     a serial algorithm will be used

 
     Parallelization info
     --------------------
     sticks:   dense  smooth     PW     G-vecs:    dense   smooth      PW
     Min        1332    1332    349               121683   121683   16293
     Max        1333    1333    350               121685   121685   16295
     Sum       10657   10657   2797               973469   973469  130349
 


     bravais-lattice index     =            0
     lattice parameter (alat)  =      13.2338  a.u.
     unit-cell volume          =    7207.0927 (a.u.)^3
     number of atoms/cell      =          124
     number of atomic types    =            4
     number of electrons       =       312.00
     number of Kohn-Sham states=          187
     kinetic-energy cutoff     =     100.0000  Ry
     charge density cutoff     =     400.0000  Ry
     convergence threshold     =      1.0E-08
     mixing beta               =       0.5000
     number of iterations used =            8  plain     mixing
     Exchange-correlation      =  SLA  PW   PBX  PBC ( 1  4  3  4 0 0)

     celldm(1)=  13.233752  celldm(2)=   0.000000  celldm(3)=   0.000000
     celldm(4)=   0.000000  celldm(5)=   0.000000  celldm(6)=   0.000000

     crystal axes: (cart. coord. in units of alat)
               a(1) = (   1.000000   0.000000   0.000000 )  
               a(2) = (   0.000000   1.911324   0.000000 )  
               a(3) = (  -0.340186   0.000000   1.626960 )  

     reciprocal axes: (cart. coord. in units 2 pi/alat)
               b(1) = (  1.000000  0.000000  0.209093 )  
               b(2) = (  0.000000  0.523198  0.000000 )  
               b(3) = (  0.000000  0.000000  0.614643 )  


     PseudoPot. # 1 for  C read from file:
     /scratch/ahofstet/pseudo/C.pbe-n-kjpaw_psl.0.1.UPF
     MD5 check sum: 430fe95172b1e11ef3f8ed03bac87931
     Pseudo is Projector augmented-wave + core cor, Zval =  4.0
     Generated using "atomic" code by A. Dal Corso  v.5.0.99 svn rev. 10869
     Shape of augmentation charge: BESSEL
     Using radial grid of 1073 points,  4 beta functions with: 
                l(1) =   0
                l(2) =   0
                l(3) =   1
                l(4) =   1
     Q(r) pseudized with 0 coefficients 


     PseudoPot. # 2 for  N read from file:
     /scratch/ahofstet/pseudo/N.pbe-n-kjpaw_psl.0.1.UPF
     MD5 check sum: f73187c8b701007e77325f868c9291d7
     Pseudo is Projector augmented-wave + core cor, Zval =  5.0
     Generated using "atomic" code by A. Dal Corso  v.5.0.99 svn rev. 10869
     Shape of augmentation charge: PSQ
     Using radial grid of 1085 points,  4 beta functions with: 
                l(1) =   0
                l(2) =   0
                l(3) =   1
                l(4) =   1
     Q(r) pseudized with 0 coefficients 


     PseudoPot. # 3 for  H read from file:
     /scratch/ahofstet/pseudo/H.pbe-kjpaw_psl.0.1.UPF
     MD5 check sum: 94e484f906d9e9773b2f6e52662335b2
     Pseudo is Projector augmented-wave, Zval =  1.0
     Generated using "atomic" code by A. Dal Corso  v.5.0.99 svn rev. 10869
     Shape of augmentation charge: PSQ
     Using radial grid of  929 points,  2 beta functions with: 
                l(1) =   0
                l(2) =   0
     Q(r) pseudized with 0 coefficients 


     PseudoPot. # 4 for  O read from file:
     /scratch/ahofstet/pseudo/O.pbe-n-kjpaw_psl.0.1.UPF
     MD5 check sum: 3f94a2996a3169367d6eb21d9b593f20
     Pseudo is Projector augmented-wave + core cor, Zval =  6.0
     Generated using "atomic" code by A. Dal Corso  v.5.0.99 svn rev. 10869
     Shape of augmentation charge: BESSEL
     Using radial grid of 1095 points,  4 beta functions with: 
                l(1) =   0
                l(2) =   0
                l(3) =   1
                l(4) =   1
     Q(r) pseudized with 0 coefficients 


     atomic species   valence    mass     pseudopotential
        C              4.00    12.01070      C( 1.00)
        N              5.00    14.00670      N( 1.00)
        H              1.00     1.00794      H( 1.00)
        O              6.00    15.99940      O( 1.00)

      2 Sym. Ops., with inversion, found



   Cartesian axes

     site n.     atom                  positions (alat units)
         1           C   tau(   1) = (   0.2470447   0.5811618   0.6764425  )
         2           C   tau(   2) = (   0.5829426   1.5368399   0.1370107  )
         3           C   tau(   3) = (   0.4127693   1.3301619   0.9505175  )
         4           C   tau(   4) = (   0.0768714   0.3744838   1.4899493  )
         5           C   tau(   5) = (   0.2912882   0.7774911   0.7477050  )
         6           C   tau(   6) = (   0.5386622   1.7331632   0.0657573  )
         7           C   tau(   7) = (   0.3685258   1.1338326   0.8792550  )
         8           C   tau(   8) = (   0.1211518   0.1781606   1.5612027  )
         9           C   tau(   9) = (   0.3234877   0.8123815   0.9434260  )
        10           C   tau(  10) = (   0.1662886   1.7680593   1.4969979  )
        11           C   tau(  11) = (   0.3363263   1.0989422   0.6835339  )
        12           C   tau(  12) = (   0.4935254   0.1432644   0.1299621  )
        13           C   tau(  13) = (   0.3215176   0.6522937   1.0849007  )
        14           C   tau(  14) = (   0.1682933   1.6080193   1.3554876  )
        15           C   tau(  15) = (   0.3382964   1.2590301   0.5420593  )
        16           C   tau(  16) = (   0.4915207   0.3033044   0.2714724  )
        17           N   tau(  17) = (   0.2994450   0.9214909   0.6209827  )
        18           N   tau(  18) = (   0.5304486   1.8771340   0.1924954  )
        19           N   tau(  19) = (   0.3603690   0.9898328   1.0059773  )
        20           N   tau(  20) = (   0.1293653   0.0341897   1.4344646  )
        21           H   tau(  21) = (   0.1132616   0.5275280   0.7397978  )
        22           H   tau(  22) = (   0.7167282   1.4832217   0.0736478  )
        23           H   tau(  23) = (   0.5465523   1.3837957   0.8871622  )
        24           H   tau(  24) = (  -0.0569142   0.4281020   1.5533122  )
        25           H   tau(  25) = (   0.2313653   0.5820791   0.5205810  )
        26           H   tau(  26) = (   0.5986279   1.5377719   0.2928737  )
        27           H   tau(  27) = (   0.4284487   1.3292446   1.1063790  )
        28           H   tau(  28) = (   0.0611861   0.3735518   1.3340862  )
        29           H   tau(  29) = (   0.3591118   0.4784860   0.7168033  )
        30           H   tau(  30) = (   0.4708809   1.4341526   0.0966593  )
        31           H   tau(  31) = (   0.3007022   1.4328377   0.9101567  )
        32           H   tau(  32) = (   0.1889331   0.4771711   1.5303007  )
        33           H   tau(  33) = (   0.4416543   0.5545011   1.0571465  )
        34           H   tau(  34) = (   0.0481488   1.5102214   1.3831983  )
        35           H   tau(  35) = (   0.2181597   1.3568226   0.5698135  )
        36           H   tau(  36) = (   0.6116652   0.4011023   0.2437617  )
        37           H   tau(  37) = (   0.3331183   0.7060122   1.2316643  )
        38           H   tau(  38) = (   0.1567126   1.6617726   1.2087343  )
        39           H   tau(  39) = (   0.3266957   1.2053115   0.3952957  )
        40           H   tau(  40) = (   0.5031014   0.2495511   0.4182257  )
        41           H   tau(  41) = (   0.1906572   0.5665261   1.0712216  )
        42           H   tau(  42) = (   0.2991504   1.5222466   1.3691723  )
        43           H   tau(  43) = (   0.4691568   1.3447976   0.5557384  )
        44           H   tau(  44) = (   0.3606636   0.3890772   0.2577877  )
        45           C   tau(  45) = (   0.6249936   1.7899834   1.2396408  )
        46           C   tau(  46) = (  -0.1352203   0.8338505   1.2006635  )
        47           C   tau(  47) = (   0.0348204   0.1213403   0.3873192  )
        48           C   tau(  48) = (   0.7950343   1.0774732   0.4262965  )
        49           C   tau(  49) = (   0.6410153   1.8534551   1.4431050  )
        50           C   tau(  50) = (  -0.1512598   0.8976081   0.9972777  )
        51           C   tau(  51) = (   0.0187987   0.0578686   0.1838550  )
        52           C   tau(  52) = (   0.8110738   1.0137156   0.6296823  )
        53           C   tau(  53) = (   0.6181589   0.1354050   1.4947877  )
        54           C   tau(  54) = (  -0.1284338   1.0909337   0.9457979  )
        55           C   tau(  55) = (   0.0416551   1.7759187   0.1321723  )
        56           C   tau(  56) = (   0.7882477   0.8203900   0.6811621  )
        57           C   tau(  57) = (   0.5716755   0.2846265   1.3494318  )
        58           C   tau(  58) = (  -0.0819631   1.2400829   1.0912393  )
        59           C   tau(  59) = (   0.0881385   1.6266972   0.2775282  )
        60           C   tau(  60) = (   0.7417771   0.6712408   0.5357207  )
        61           N   tau(  61) = (  -0.3188289   1.7215758   1.5762677  )
        62           N   tau(  62) = (   0.8085799   0.7658677   0.8639831  )
        63           N   tau(  63) = (   0.9786429   0.1897480   0.0506922  )
        64           N   tau(  64) = (  -0.1487659   1.1454560   0.7629769  )
        65           H   tau(  65) = (   0.4845022   1.8266026   1.1794759  )
        66           H   tau(  66) = (   0.0052470   0.8704552   1.2608919  )
        67           H   tau(  67) = (   0.1753118   0.0847211   0.4474841  )
        68           H   tau(  68) = (   0.6545670   1.0408685   0.3660680  )
        69           H   tau(  69) = (   0.6471951   1.6352498   1.2287660  )
        70           H   tau(  70) = (  -0.1573618   0.6790935   1.2113145  )
        71           H   tau(  71) = (   0.0126189   0.2760739   0.3981939  )
        72           H   tau(  72) = (   0.8171758   1.2322302   0.4156455  )
        73           H   tau(  73) = (   0.7316464   1.8632890   1.1502900  )
        74           H   tau(  74) = (  -0.2419122   0.9069837   1.2901088  )
        75           H   tau(  75) = (  -0.0718324   0.0480347   0.4766700  )
        76           H   tau(  76) = (   0.9017262   1.0043400   0.3368512  )
        77           H   tau(  77) = (   0.5559876   0.4245465   1.4181941  )
        78           H   tau(  78) = (  -0.0662454   1.3800226   1.0225298  )
        79           H   tau(  79) = (   0.1038264   1.4867772   0.2087659  )
        80           H   tau(  80) = (   0.7260594   0.5313011   0.6044302  )
        81           H   tau(  81) = (   0.6838764   0.2941146   1.2395767  )
        82           H   tau(  82) = (  -0.1941900   1.2495503   1.2010699  )
        83           H   tau(  83) = (  -0.0240624   1.6172092   0.3873833  )
        84           H   tau(  84) = (   0.8540040   0.6617734   0.4258901  )
        85           H   tau(  85) = (   0.4379718   0.2496026   1.2743136  )
        86           H   tau(  86) = (   0.0517197   1.2050246   1.1663784  )
        87           H   tau(  87) = (   0.2218421   1.6617211   0.3526464  )
        88           H   tau(  88) = (   0.6080943   0.7062991   0.4605815  )
        89           O   tau(  89) = (   0.3219831   0.8282319   0.2209502  )
        90           O   tau(  90) = (   0.5079129   1.7838510   0.5925457  )
        91           O   tau(  91) = (   0.3378309   1.0830918   1.4060098  )
        92           O   tau(  92) = (   0.1519011   0.1274728   1.0344143  )
        93           O   tau(  93) = (   0.0165972   0.5913034   0.1361605  )
        94           O   tau(  94) = (   0.8133584   1.5469927   0.6773132  )
        95           O   tau(  95) = (   0.6432168   1.3200203   1.4907995  )
        96           O   tau(  96) = (  -0.1535444   0.3643310   0.9496468  )
        97           O   tau(  97) = (   0.6802734   0.7621802   0.0132237  )
        98           O   tau(  98) = (   0.1496516   1.7178658   0.8002708  )
        99           O   tau(  99) = (  -0.0204595   1.1491435   1.6137363  )
       100           O   tau( 100) = (   0.5101623   0.1934579   0.8266892  )
       101           H   tau( 101) = (   0.2162979   0.7393958   0.1874094  )
       102           H   tau( 102) = (   0.6136261   1.6950502   0.6260923  )
       103           H   tau( 103) = (   0.4435161   1.1719279   1.4395506  )
       104           H   tau( 104) = (   0.0461879   0.2162735   1.0008676  )
       105           H   tau( 105) = (   0.3053351   0.8602600   0.3589601  )
       106           H   tau( 106) = (   0.5245550   1.8158906   0.4545383  )
       107           H   tau( 107) = (   0.3544789   1.0510637   1.2679999  )
       108           H   tau( 108) = (   0.1352590   0.0954332   1.1724217  )
       109           H   tau( 109) = (   0.8978703   0.6558694   0.0936054  )
       110           H   tau( 110) = (  -0.0679248   1.6115708   0.7198827  )
       111           H   tau( 111) = (  -0.2380563   1.2554544   1.5333546  )
       112           H   tau( 112) = (   0.7277387   0.2997529   0.9070773  )
       113           H   tau( 113) = (  -0.0012088   0.4534350   0.1067065  )
       114           H   tau( 114) = (   0.8311126   1.4091530   0.7069357  )
       115           H   tau( 115) = (   0.6610228   1.4578887   1.5202535  )
       116           H   tau( 116) = (  -0.1712986   0.5021707   0.9200243  )
       117           H   tau( 117) = (   0.5655916   0.7789212   0.0924831  )
       118           H   tau( 118) = (   0.2643477   1.7345631   0.7210225  )
       119           H   tau( 119) = (   0.0942224   1.1324025   1.5344769  )
       120           H   tau( 120) = (   0.3954663   0.1767606   0.9059375  )
       121           H   tau( 121) = (   0.3461042   0.8763610   1.5564047  )
       122           H   tau( 122) = (   0.1436501   1.8320568   0.8840365  )
       123           H   tau( 123) = (   0.3137098   1.0349627   0.0705553  )
       124           H   tau( 124) = (   0.5161638   0.0792669   0.7429235  )

     number of k points=     8
                       cart. coord. in units 2pi/alat
        k(    1) = (   0.0000000   0.0000000   0.0000000), wk =   0.1666667
        k(    2) = (   0.0000000   0.0000000  -0.3073216), wk =   0.1666667
        k(    3) = (   0.0000000  -0.2615988   0.0000000), wk =   0.1666667
        k(    4) = (   0.0000000  -0.2615988  -0.3073216), wk =   0.1666667
        k(    5) = (   0.3333333   0.0000000   0.0696977), wk =   0.3333333
        k(    6) = (   0.3333333   0.0000000  -0.2376240), wk =   0.3333333
        k(    7) = (   0.3333333  -0.2615988   0.0696977), wk =   0.3333333
        k(    8) = (   0.3333333  -0.2615988  -0.2376240), wk =   0.3333333

     Dense  grid:   973469 G-vectors     FFT dimensions: (  90, 162, 144)

     Estimated max dynamical RAM per process >     958.94MB

     Estimated total allocated dynamical RAM >    7671.55MB

     Check: negative/imaginary core charge=   -0.000002    0.000000

     Initial potential from superposition of free atoms

     starting charge  311.99791, renormalised to  312.00000
     Starting wfc are  280 randomized atomic wfcs
     Checking if some PAW data can be deallocated... 

     total cpu time spent up to now is       64.8 secs

     per-process dynamical memory:   652.8 Mb

     Self-consistent Calculation

     iteration #  1     ecut=   100.00 Ry     beta=0.50
     Davidson diagonalization with overlap
     ethr =  1.00E-02,  avg # of iterations =  4.1

     total cpu time spent up to now is      237.4 secs

     total energy              =   -1399.50768411 Ry
     Harris-Foulkes estimate   =   -1406.73893565 Ry
     estimated scf accuracy    <      13.30523547 Ry

     iteration #  2     ecut=   100.00 Ry     beta=0.50
     Davidson diagonalization with overlap
     ethr =  4.26E-03,  avg # of iterations =  3.1

     total cpu time spent up to now is      344.6 secs

     total energy              =   -1401.30209137 Ry
     Harris-Foulkes estimate   =   -1401.88253345 Ry
     estimated scf accuracy    <       1.33392257 Ry

     iteration #  3     ecut=   100.00 Ry     beta=0.50
     Davidson diagonalization with overlap
     ethr =  4.28E-04,  avg # of iterations =  6.9

     total cpu time spent up to now is      538.1 secs

     total energy              =   -1402.12796818 Ry
     Harris-Foulkes estimate   =   -1402.45339087 Ry
     estimated scf accuracy    <       0.86068652 Ry

     iteration #  4     ecut=   100.00 Ry     beta=0.50
     Davidson diagonalization with overlap
     ethr =  2.76E-04,  avg # of iterations =  1.0

     total cpu time spent up to now is      622.9 secs

     total energy              =   -1401.99733650 Ry
     Harris-Foulkes estimate   =   -1402.16670436 Ry
     estimated scf accuracy    <       0.26821992 Ry

     iteration #  5     ecut=   100.00 Ry     beta=0.50
     Davidson diagonalization with overlap
     ethr =  8.60E-05,  avg # of iterations =  6.1

     total cpu time spent up to now is      818.9 secs

     total energy              =   -1402.21440936 Ry
     Harris-Foulkes estimate   =   -1402.44524711 Ry
     estimated scf accuracy    <       0.79052914 Ry

     iteration #  6     ecut=   100.00 Ry     beta=0.50
     Davidson diagonalization with overlap
     ethr =  8.60E-05,  avg # of iterations =  2.0

     total cpu time spent up to now is      907.0 secs

     total energy              =   -1402.05114525 Ry
     Harris-Foulkes estimate   =   -1402.22907087 Ry
     estimated scf accuracy    <       0.37215653 Ry

     iteration #  7     ecut=   100.00 Ry     beta=0.50
     Davidson diagonalization with overlap
     ethr =  8.60E-05,  avg # of iterations =  4.0

     total cpu time spent up to now is     1047.7 secs

     total energy              =   -1402.19881011 Ry
     Harris-Foulkes estimate   =   -1402.19869037 Ry
     estimated scf accuracy    <       0.01780087 Ry

     iteration #  8     ecut=   100.00 Ry     beta=0.50
     Davidson diagonalization with overlap
     ethr =  5.71E-06,  avg # of iterations =  4.4

     total cpu time spent up to now is     1144.3 secs

     total energy              =   -1402.19004707 Ry
     Harris-Foulkes estimate   =   -1402.19945458 Ry
     estimated scf accuracy    <       0.01857032 Ry

     iteration #  9     ecut=   100.00 Ry     beta=0.50
     Davidson diagonalization with overlap
     ethr =  5.71E-06,  avg # of iterations =  4.4

     total cpu time spent up to now is     1248.3 secs

     total energy              =   -1402.19234820 Ry
     Harris-Foulkes estimate   =   -1402.19266274 Ry
     estimated scf accuracy    <       0.00100659 Ry

     iteration # 10     ecut=   100.00 Ry     beta=0.50
     Davidson diagonalization with overlap
     ethr =  3.23E-07,  avg # of iterations =  7.5

     total cpu time spent up to now is     1418.4 secs

     total energy              =   -1402.19357727 Ry
     Harris-Foulkes estimate   =   -1402.19367165 Ry
     estimated scf accuracy    <       0.00021721 Ry

     iteration # 11     ecut=   100.00 Ry     beta=0.50
     Davidson diagonalization with overlap
     ethr =  6.96E-08,  avg # of iterations =  1.6

     total cpu time spent up to now is     1504.4 secs

     total energy              =   -1402.19354374 Ry
     Harris-Foulkes estimate   =   -1402.19358767 Ry
     estimated scf accuracy    <       0.00006513 Ry

     iteration # 12     ecut=   100.00 Ry     beta=0.50
     Davidson diagonalization with overlap
     ethr =  2.09E-08,  avg # of iterations =  4.0

     total cpu time spent up to now is     1682.7 secs

     total energy              =   -1402.19357536 Ry
     Harris-Foulkes estimate   =   -1402.19374978 Ry
     estimated scf accuracy    <       0.00046214 Ry

     iteration # 13     ecut=   100.00 Ry     beta=0.50
     Davidson diagonalization with overlap
     ethr =  2.09E-08,  avg # of iterations =  4.1

     total cpu time spent up to now is     1822.2 secs

     total energy              =   -1402.19360196 Ry
     Harris-Foulkes estimate   =   -1402.19361852 Ry
     estimated scf accuracy    <       0.00004389 Ry

     iteration # 14     ecut=   100.00 Ry     beta=0.50
     Davidson diagonalization with overlap
     ethr =  1.41E-08,  avg # of iterations =  1.0

     total cpu time spent up to now is     1906.7 secs

     total energy              =   -1402.19359672 Ry
     Harris-Foulkes estimate   =   -1402.19360339 Ry
     estimated scf accuracy    <       0.00001635 Ry

     iteration # 15     ecut=   100.00 Ry     beta=0.50
     Davidson diagonalization with overlap
     ethr =  5.24E-09,  avg # of iterations =  4.5

     total cpu time spent up to now is     2047.3 secs

     total energy              =   -1402.19360492 Ry
     Harris-Foulkes estimate   =   -1402.19360575 Ry
     estimated scf accuracy    <       0.00000154 Ry

     iteration # 16     ecut=   100.00 Ry     beta=0.50
     Davidson diagonalization with overlap
     ethr =  4.95E-10,  avg # of iterations =  3.9

     total cpu time spent up to now is     2142.6 secs

     total energy              =   -1402.19360500 Ry
     Harris-Foulkes estimate   =   -1402.19360509 Ry
     estimated scf accuracy    <       0.00000017 Ry

     iteration # 17     ecut=   100.00 Ry     beta=0.50
     Davidson diagonalization with overlap
     ethr =  5.47E-11,  avg # of iterations =  4.0

     total cpu time spent up to now is     2314.0 secs

     total energy              =   -1402.19360524 Ry
     Harris-Foulkes estimate   =   -1402.19360537 Ry
     estimated scf accuracy    <       0.00000028 Ry

     iteration # 18     ecut=   100.00 Ry     beta=0.50
     Davidson diagonalization with overlap
     ethr =  5.47E-11,  avg # of iterations =  5.2

     total cpu time spent up to now is     2426.6 secs

     End of self-consistent calculation

          k = 0.0000 0.0000 0.0000 (121639 PWs)   bands (ev):

   -19.3670 -19.3590 -19.1417 -19.1411 -19.0892 -19.0642 -18.9833 -18.9830
   -18.9561 -18.9327 -18.7199 -18.7165 -18.6574 -18.6550 -18.6058 -18.6051
   -17.1532 -17.1516 -17.1165 -17.1159 -14.8692 -14.8557 -14.8348 -14.8297
   -13.0203 -12.9967 -12.9241 -12.8979 -12.8699 -12.8516 -12.7676 -12.7558
   -11.8029 -11.7580 -11.7122 -11.6900 -10.5176 -10.4636 -10.4283 -10.4061
    -9.9654  -9.8862  -9.8565  -9.8260  -9.1488  -9.0472  -8.9859  -8.9827
    -7.7945  -7.7908  -7.7638  -7.7525  -7.1626  -7.1582  -7.1465  -7.1244
    -7.0410  -7.0381  -6.9496  -6.9093  -6.8724  -6.8711  -6.8367  -6.7745
    -6.4207  -6.4099  -6.0949  -6.0151  -5.9346  -5.8510  -5.2058  -5.1957
    -5.1702  -5.1657  -5.1418  -5.1325  -5.1040  -5.0341  -4.9677  -4.8887
    -4.5771  -4.5751  -4.5425  -4.4373  -4.4352  -4.4045  -4.3921  -4.3082
    -4.2737  -4.2565  -4.2488  -4.2317  -4.1671  -4.1468  -4.1444  -4.1396
    -4.0887  -4.0545  -4.0239  -3.9937  -3.9758  -3.9749  -3.8941  -3.8442
    -3.8411  -3.8212  -3.8167  -3.7757  -3.7555  -3.7320  -3.6737  -3.6671
    -3.6306  -3.6145  -3.5595  -3.4914  -3.4083  -3.3042  -3.2693  -3.2457
    -3.2301  -3.1185  -3.0734  -3.0502  -2.7228  -2.7213  -2.4417  -2.4117
    -2.2735  -2.2500  -2.2035  -2.1984  -1.7943  -1.7410  -1.6669  -1.6443
    -1.5876  -1.5229  -1.4955  -1.4945  -1.2673  -1.2430  -1.2195  -1.2176
    -1.1832  -1.1549  -1.1139  -1.0905  -0.5500  -0.4659  -0.4411  -0.4111
    -0.3364  -0.3131  -0.2585  -0.2527   3.1573   3.1803   3.4427   3.4461
     3.8572   3.8844   4.3508   4.3729   4.9975   5.3642   5.9169   6.0343
     6.1454   6.6310   6.6381   6.6957   6.9102   7.1918   7.1922   7.2087
     7.2190   7.2518   7.3227   7.4102   7.5909   7.6662   7.6903   7.7030
     7.7779   7.8559   7.9144

          k = 0.0000 0.0000-0.3073 (121692 PWs)   bands (ev):

   -19.3540 -19.3535 -19.1840 -19.1836 -19.0490 -19.0486 -18.9858 -18.9855
   -18.9231 -18.9227 -18.7356 -18.7352 -18.6565 -18.6564 -18.6021 -18.6019
   -17.1522 -17.1520 -17.1166 -17.1160 -14.8624 -14.8622 -14.8327 -14.8320
   -12.9919 -12.9917 -12.9288 -12.9287 -12.8632 -12.8618 -12.7623 -12.7623
   -11.7468 -11.7468 -11.7307 -11.7305 -10.4701 -10.4699 -10.4454 -10.4453
    -9.9237  -9.9237  -9.8399  -9.8396  -9.0632  -9.0631  -9.0153  -9.0151
    -7.7920  -7.7917  -7.7581  -7.7578  -7.1574  -7.1569  -7.1366  -7.1361
    -7.0477  -7.0472  -6.9409  -6.9409  -6.8647  -6.8646  -6.8024  -6.8022
    -6.4144  -6.4140  -6.0202  -6.0201  -5.9366  -5.9364  -5.2046  -5.2043
    -5.1833  -5.1831  -5.1456  -5.1453  -4.9849  -4.9848  -4.9498  -4.9498
    -4.6616  -4.6611  -4.4451  -4.4450  -4.4010  -4.4007  -4.3229  -4.3225
    -4.2502  -4.2502  -4.2376  -4.2373  -4.2086  -4.2081  -4.1824  -4.1818
    -4.0489  -4.0488  -4.0248  -4.0247  -3.9886  -3.9884  -3.9096  -3.9095
    -3.7690  -3.7688  -3.7318  -3.7313  -3.7128  -3.7127  -3.6941  -3.6939
    -3.5911  -3.5908  -3.5662  -3.5662  -3.3537  -3.3536  -3.2879  -3.2878
    -3.1535  -3.1535  -3.0692  -3.0690  -2.7211  -2.7210  -2.4308  -2.4307
    -2.3127  -2.3126  -2.2043  -2.2042  -1.7275  -1.7274  -1.6560  -1.6554
    -1.5692  -1.5688  -1.4749  -1.4745  -1.2655  -1.2654  -1.2190  -1.2188
    -1.1542  -1.1539  -1.1385  -1.1380  -0.4761  -0.4761  -0.4016  -0.4013
    -0.3513  -0.3512  -0.2593  -0.2593   3.1672   3.1674   3.4433   3.4435
     3.8699   3.8701   4.3609   4.3611   5.1659   5.1660   5.9845   5.9852
     6.1819   6.1823   6.9184   6.9184   7.1775   7.1778   7.2317   7.2318
     7.2867   7.2868   7.3480   7.3485   7.5685   7.5690   7.6264   7.6275
     7.7860   7.7870   7.9217

          k = 0.0000-0.2616 0.0000 (121600 PWs)   bands (ev):

   -19.3617 -19.3612 -19.1503 -19.1499 -19.0764 -19.0762 -18.9870 -18.9869
   -18.9238 -18.9236 -18.7225 -18.7222 -18.6812 -18.6812 -18.5865 -18.5863
   -17.1525 -17.1522 -17.1166 -17.1160 -14.8624 -14.8622 -14.8328 -14.8321
   -12.9919 -12.9917 -12.9286 -12.9284 -12.8632 -12.8618 -12.7622 -12.7621
   -11.7467 -11.7467 -11.7303 -11.7301 -10.4719 -10.4716 -10.4459 -10.4458
    -9.9211  -9.9210  -9.8406  -9.8403  -9.0647  -9.0646  -9.0159  -9.0158
    -7.7929  -7.7927  -7.7580  -7.7577  -7.1597  -7.1592  -7.1335  -7.1332
    -7.0391  -7.0386  -6.9333  -6.9332  -6.8669  -6.8667  -6.8093  -6.8091
    -6.4178  -6.4175  -6.0267  -6.0266  -5.9317  -5.9315  -5.2267  -5.2263
    -5.1742  -5.1740  -5.1426  -5.1421  -4.9818  -4.9818  -4.9479  -4.9477
    -4.5933  -4.5928  -4.4630  -4.4629  -4.4324  -4.4324  -4.3289  -4.3287
    -4.2460  -4.2455  -4.2419  -4.2416  -4.2059  -4.2056  -4.1329  -4.1325
    -4.1070  -4.1067  -4.0300  -4.0298  -3.9711  -3.9711  -3.9286  -3.9282
    -3.8291  -3.8288  -3.7157  -3.7157  -3.7056  -3.7055  -3.6816  -3.6812
    -3.6254  -3.6253  -3.5329  -3.5326  -3.3567  -3.3565  -3.2917  -3.2914
    -3.1410  -3.1409  -3.0756  -3.0754  -2.6835  -2.6834  -2.4179  -2.4178
    -2.2970  -2.2970  -2.2160  -2.2159  -1.7663  -1.7662  -1.6468  -1.6462
    -1.5580  -1.5574  -1.4883  -1.4879  -1.2786  -1.2786  -1.2092  -1.2091
    -1.1442  -1.1441  -1.1187  -1.1187  -0.4846  -0.4845  -0.4033  -0.4030
    -0.3611  -0.3610  -0.2618  -0.2617   3.1693   3.1694   3.4445   3.4447
     3.8719   3.8721   4.3610   4.3613   5.1388   5.1388   6.0317   6.0318
     6.4171   6.4177   6.5203   6.5203   7.1516   7.1518   7.2030   7.2031
     7.2573   7.2574   7.4616   7.4620   7.5092   7.5098   7.6803   7.6805
     7.8438   7.8441   7.9425

          k = 0.0000-0.2616-0.3073 (121656 PWs)   bands (ev):

   -19.3522 -19.3517 -19.1882 -19.1878 -19.0600 -19.0597 -18.9739 -18.9738
   -18.9100 -18.9097 -18.7406 -18.7403 -18.6814 -18.6813 -18.5834 -18.5833
   -17.1523 -17.1520 -17.1166 -17.1160 -14.8635 -14.8634 -14.8315 -14.8308
   -13.0103 -13.0102 -12.9099 -12.9097 -12.8615 -12.8602 -12.7613 -12.7612
   -11.7907 -11.7905 -11.6902 -11.6900 -10.5067 -10.5065 -10.4017 -10.4014
    -9.9298  -9.9298  -9.8406  -9.8403  -9.0753  -9.0751  -9.0043  -9.0042
    -7.7945  -7.7943  -7.7555  -7.7552  -7.1594  -7.1589  -7.1352  -7.1348
    -7.0510  -7.0505  -6.9320  -6.9319  -6.8551  -6.8550  -6.8174  -6.8171
    -6.4142  -6.4138  -6.0334  -6.0333  -5.9086  -5.9086  -5.1840  -5.1833
    -5.1738  -5.1733  -5.1374  -5.1364  -5.1240  -5.1239  -4.8710  -4.8707
    -4.6671  -4.6665  -4.4186  -4.4186  -4.4052  -4.4050  -4.2860  -4.2857
    -4.2706  -4.2706  -4.2557  -4.2555  -4.2075  -4.2070  -4.1213  -4.1211
    -4.1146  -4.1143  -4.0353  -4.0347  -3.9423  -3.9422  -3.9227  -3.9225
    -3.8673  -3.8666  -3.8118  -3.8117  -3.6950  -3.6949  -3.6358  -3.6356
    -3.5452  -3.5448  -3.4907  -3.4905  -3.3675  -3.3669  -3.2905  -3.2902
    -3.1928  -3.1924  -3.0679  -3.0676  -2.6777  -2.6777  -2.4189  -2.4187
    -2.3605  -2.3605  -2.2147  -2.2146  -1.7300  -1.7299  -1.6370  -1.6363
    -1.5791  -1.5786  -1.4714  -1.4710  -1.2803  -1.2802  -1.1956  -1.1954
    -1.1860  -1.1856  -1.1128  -1.1124  -0.4780  -0.4778  -0.4207  -0.4205
    -0.3496  -0.3495  -0.2422  -0.2421   3.1674   3.1676   3.4430   3.4432
     3.8705   3.8707   4.3608   4.3610   5.1896   5.1897   5.7560   5.7563
     6.6643   6.6657   6.8191   6.8202   7.0388   7.0389   7.2105   7.2111
     7.2164   7.2166   7.2811   7.2812   7.4911   7.4916   7.5822   7.5826
     7.8439   7.8443   7.8835

          k = 0.3333 0.0000 0.0697 (121679 PWs)   bands (ev):

   -19.3221 -19.3170 -19.1707 -19.1684 -19.0422 -19.0399 -19.0003 -18.9817
   -18.9776 -18.9538 -18.8440 -18.8405 -18.6286 -18.6266 -18.5335 -18.5321
   -17.1511 -17.1501 -17.1163 -17.1155 -14.8718 -14.8584 -14.8368 -14.8325
   -12.9728 -12.9717 -12.8942 -12.8909 -12.8772 -12.8701 -12.8129 -12.8064
   -11.7931 -11.7486 -11.7116 -11.6961 -10.5258 -10.4645 -10.4406 -10.4189
    -9.9321  -9.8817  -9.8615  -9.8571  -9.1166  -9.0278  -9.0210  -8.9949
    -7.7947  -7.7919  -7.7648  -7.7541  -7.1765  -7.1608  -7.1530  -7.1108
    -7.0344  -7.0234  -6.8989  -6.8947  -6.8837  -6.8509  -6.8343  -6.7930
    -6.1636  -6.1503  -6.0454  -6.0049  -5.9599  -5.8882  -5.5588  -5.5352
    -5.1107  -5.1061  -5.0645  -5.0027  -4.9778  -4.9542  -4.9360  -4.8916
    -4.8519  -4.8484  -4.4606  -4.4267  -4.4253  -4.3893  -4.3449  -4.3234
    -4.3190  -4.3017  -4.2688  -4.2585  -4.2033  -4.1843  -4.1764  -4.1499
    -4.1344  -4.1267  -4.0624  -4.0480  -3.9685  -3.9655  -3.9170  -3.8428
    -3.8386  -3.8187  -3.7866  -3.7791  -3.7636  -3.7263  -3.7067  -3.6488
    -3.5398  -3.4757  -3.4693  -3.3756  -3.3280  -3.3067  -3.2039  -3.1068
    -3.1059  -3.0853  -3.0353  -3.0084  -2.8991  -2.8861  -2.4935  -2.4832
    -2.3389  -2.3274  -2.2416  -2.2340  -1.7850  -1.7394  -1.6501  -1.6458
    -1.5729  -1.5289  -1.4915  -1.4879  -1.2514  -1.2444  -1.2406  -1.2057
    -1.1751  -1.1332  -1.1178  -1.0980  -0.4739  -0.4617  -0.4480  -0.4201
    -0.3847  -0.3554  -0.3300  -0.3076   3.2043   3.2219   3.3540   3.3584
     3.9812   3.9973   4.2279   4.2365   5.5063   5.6943   6.2723   6.4510
     6.5135   6.5544   6.6228   6.7827   6.8611   7.0163   7.0266   7.0510
     7.1498   7.2466   7.2497   7.2889   7.3790   7.4573   7.5108   7.5722
     7.5831   7.7570   7.7861

          k = 0.3333 0.0000-0.2376 (121757 PWs)   bands (ev):

   -19.3098 -19.3082 -19.1965 -19.1906 -19.0547 -19.0087 -19.0016 -18.9824
   -18.9704 -18.9468 -18.8417 -18.8387 -18.6269 -18.6258 -18.5384 -18.5381
   -17.1506 -17.1500 -17.1162 -17.1155 -14.8654 -14.8652 -14.8349 -14.8340
   -12.9690 -12.9680 -12.9039 -12.8945 -12.8780 -12.8693 -12.8182 -12.7950
   -11.7587 -11.7576 -11.7202 -11.7171 -10.4867 -10.4830 -10.4370 -10.4367
    -9.9313  -9.8961  -9.8713  -9.8370  -9.0939  -9.0769  -9.0055  -8.9825
    -7.7924  -7.7921  -7.7596  -7.7593  -7.1628  -7.1586  -7.1543  -7.1325
    -7.0325  -7.0301  -6.9021  -6.8832  -6.8756  -6.8494  -6.8370  -6.8011
    -6.1677  -6.1536  -6.0351  -6.0022  -5.9279  -5.9019  -5.5582  -5.5345
    -5.1045  -5.0887  -5.0526  -5.0192  -4.9937  -4.9761  -4.9477  -4.9438
    -4.9133  -4.8756  -4.4554  -4.4192  -4.3928  -4.3811  -4.3517  -4.3455
    -4.2917  -4.2664  -4.2586  -4.2546  -4.2031  -4.1961  -4.1608  -4.1209
    -4.0849  -4.0491  -4.0394  -3.9805  -3.9488  -3.9458  -3.9418  -3.9098
    -3.8425  -3.8237  -3.8067  -3.7790  -3.7244  -3.7162  -3.6985  -3.6833
    -3.5965  -3.5752  -3.4382  -3.4077  -3.3210  -3.2902  -3.1959  -3.1472
    -3.0875  -3.0700  -3.0286  -3.0115  -2.9100  -2.8875  -2.5304  -2.5029
    -2.3385  -2.3258  -2.2357  -2.2353  -1.7362  -1.7279  -1.6558  -1.6432
    -1.5501  -1.5472  -1.4926  -1.4915  -1.2595  -1.2371  -1.2302  -1.2283
    -1.1480  -1.1477  -1.1353  -1.1153  -0.4758  -0.4499  -0.4188  -0.4178
    -0.3795  -0.3634  -0.3252  -0.3203   3.1998   3.2238   3.3474   3.3621
     3.9870   3.9915   4.2311   4.2343   5.5897   5.6125   6.3113   6.3951
     6.4929   6.5621   6.6042   6.6059   6.8241   6.9227   6.9816   7.1935
     7.2227   7.2512   7.3835   7.3935   7.4728   7.5173   7.5562   7.5777
     7.6609   7.7285   7.7662

          k = 0.3333-0.2616 0.0697 (121732 PWs)   bands (ev):

   -19.3189 -19.3184 -19.1668 -19.1664 -19.0606 -19.0604 -18.9992 -18.9991
   -18.9378 -18.9377 -18.8360 -18.8358 -18.6507 -18.6506 -18.5202 -18.5201
   -17.1508 -17.1505 -17.1162 -17.1156 -14.8661 -14.8659 -14.8341 -14.8334
   -12.9686 -12.9684 -12.8980 -12.8979 -12.8773 -12.8760 -12.8050 -12.8049
   -11.7769 -11.7768 -11.6973 -11.6972 -10.5147 -10.5145 -10.4100 -10.4097
    -9.9080  -9.9079  -9.8607  -9.8603  -9.0663  -9.0660  -9.0139  -9.0137
    -7.7964  -7.7962  -7.7564  -7.7562  -7.1768  -7.1763  -7.1200  -7.1197
    -7.0326  -7.0321  -6.9018  -6.9017  -6.8588  -6.8587  -6.8158  -6.8155
    -6.1571  -6.1568  -6.0251  -6.0250  -5.9258  -5.9257  -5.5488  -5.5484
    -5.1540  -5.1538  -4.9908  -4.9907  -4.9764  -4.9755  -4.8819  -4.8816
    -4.8361  -4.8357  -4.4650  -4.4648  -4.3990  -4.3990  -4.3652  -4.3648
    -4.3358  -4.3356  -4.2601  -4.2598  -4.2256  -4.2254  -4.1361  -4.1358
    -4.1085  -4.1083  -4.0479  -4.0475  -3.9801  -3.9797  -3.9293  -3.9291
    -3.8234  -3.8232  -3.7720  -3.7719  -3.7020  -3.7017  -3.6208  -3.6204
    -3.5207  -3.5205  -3.4413  -3.4412  -3.3278  -3.3274  -3.1785  -3.1782
    -3.1025  -3.1020  -3.0051  -3.0048  -2.8573  -2.8573  -2.5192  -2.5191
    -2.3378  -2.3377  -2.2382  -2.2380  -1.7620  -1.7620  -1.6400  -1.6394
    -1.5541  -1.5536  -1.4879  -1.4875  -1.2676  -1.2675  -1.2045  -1.2043
    -1.1508  -1.1506  -1.1077  -1.1074  -0.4520  -0.4519  -0.4355  -0.4353
    -0.3781  -0.3779  -0.3274  -0.3272   3.2137   3.2139   3.3565   3.3565
     3.9895   3.9896   4.2319   4.2320   5.5889   5.5889   6.3904   6.3908
     6.5634   6.5637   6.6528   6.6537   6.8602   6.8605   7.0331   7.0339
     7.2107   7.2115   7.2813   7.2815   7.4297   7.4303   7.5999   7.6002
     7.7327   7.7329   7.8036

          k = 0.3333-0.2616-0.2376 (121762 PWs)   bands (ev):

   -19.3081 -19.3076 -19.1927 -19.1923 -19.0555 -19.0553 -18.9922 -18.9921
   -18.9311 -18.9311 -18.8364 -18.8360 -18.6493 -18.6492 -18.5252 -18.5251
   -17.1504 -17.1502 -17.1162 -17.1156 -14.8655 -14.8653 -14.8347 -14.8340
   -12.9725 -12.9723 -12.8930 -12.8928 -12.8736 -12.8723 -12.8097 -12.8097
   -11.7642 -11.7641 -11.7118 -11.7117 -10.4896 -10.4894 -10.4347 -10.4345
    -9.9093  -9.9092  -9.8585  -9.8582  -9.0595  -9.0593  -9.0194  -9.0192
    -7.7932  -7.7930  -7.7588  -7.7585  -7.1607  -7.1602  -7.1396  -7.1392
    -7.0316  -7.0311  -6.9002  -6.9000  -6.8608  -6.8607  -6.8170  -6.8167
    -6.1545  -6.1541  -6.0074  -6.0073  -5.9419  -5.9417  -5.5488  -5.5484
    -5.0970  -5.0969  -5.0321  -5.0318  -4.9969  -4.9962  -4.9116  -4.9113
    -4.8732  -4.8727  -4.4435  -4.4434  -4.3811  -4.3809  -4.3352  -4.3352
    -4.2952  -4.2950  -4.2531  -4.2529  -4.2080  -4.2075  -4.1732  -4.1731
    -4.1341  -4.1340  -4.0436  -4.0433  -3.9465  -3.9462  -3.8965  -3.8963
    -3.8129  -3.8127  -3.7654  -3.7652  -3.7117  -3.7115  -3.6869  -3.6866
    -3.5537  -3.5535  -3.4400  -3.4399  -3.3181  -3.3178  -3.1610  -3.1606
    -3.0941  -3.0936  -3.0068  -3.0063  -2.8619  -2.8619  -2.5519  -2.5518
    -2.3387  -2.3387  -2.2366  -2.2364  -1.7335  -1.7334  -1.6375  -1.6369
    -1.5499  -1.5494  -1.4924  -1.4919  -1.2665  -1.2663  -1.2134  -1.2132
    -1.1465  -1.1463  -1.1256  -1.1252  -0.4625  -0.4623  -0.4303  -0.4301
    -0.3713  -0.3712  -0.3140  -0.3138   3.2122   3.2124   3.3546   3.3546
     3.9896   3.9897   4.2322   4.2324   5.6087   5.6089   6.2660   6.2662
     6.5369   6.5371   6.7444   6.7448   6.8888   6.8893   7.0743   7.0746
     7.2258   7.2260   7.3112   7.3115   7.3740   7.3743   7.6084   7.6095
     7.6954   7.6962   7.8047

     highest occupied, lowest unoccupied level (ev):    -0.2421    3.1573

!    total energy              =   -1402.19360528 Ry
     Harris-Foulkes estimate   =   -1402.19360528 Ry
     estimated scf accuracy    <          8.4E-09 Ry

     total all-electron energy =     -5207.197657 Ry

     The total energy is the sum of the following terms:

     one-electron contribution =    -798.27156505 Ry
     hartree contribution      =     510.95544040 Ry
     xc contribution           =    -316.88108419 Ry
     ewald contribution        =    -404.33201069 Ry
     Dispersion Correction     =      -0.51237235 Ry
     one-center paw contrib.   =    -393.15201341 Ry

     convergence has been achieved in  18 iterations

     Forces acting on atoms (cartesian axes, Ry/au):

     atom    1 type  1   force =    -0.00031716    0.00025067   -0.00201661
     atom    2 type  1   force =     0.00031312    0.00023667    0.00202498
     atom    3 type  1   force =     0.00031716   -0.00025067    0.00201661
     atom    4 type  1   force =    -0.00031312   -0.00023667   -0.00202498
     atom    5 type  1   force =     0.00043174   -0.00069141   -0.00030609
     atom    6 type  1   force =    -0.00042663   -0.00080920    0.00026850
     atom    7 type  1   force =    -0.00043174    0.00069141    0.00030609
     atom    8 type  1   force =     0.00042663    0.00080920   -0.00026850
     atom    9 type  1   force =    -0.00082649   -0.00098102   -0.00017440
     atom   10 type  1   force =     0.00080434   -0.00083761    0.00014412
     atom   11 type  1   force =     0.00082649    0.00098102    0.00017440
     atom   12 type  1   force =    -0.00080434    0.00083761   -0.00014412
     atom   13 type  1   force =    -0.00032953   -0.00033648    0.00064600
     atom   14 type  1   force =     0.00033627   -0.00042851   -0.00065411
     atom   15 type  1   force =     0.00032953    0.00033648   -0.00064600
     atom   16 type  1   force =    -0.00033627    0.00042851    0.00065411
     atom   17 type  2   force =    -0.00178274   -0.00188065   -0.00252925
     atom   18 type  2   force =     0.00177011   -0.00177121    0.00254594
     atom   19 type  2   force =     0.00178274    0.00188065    0.00252925
     atom   20 type  2   force =    -0.00177011    0.00177121   -0.00254594
     atom   21 type  3   force =     0.00051559    0.00073266    0.00039933
     atom   22 type  3   force =    -0.00052306    0.00072862   -0.00039565
     atom   23 type  3   force =    -0.00051559   -0.00073266   -0.00039933
     atom   24 type  3   force =     0.00052306   -0.00072862    0.00039565
     atom   25 type  3   force =    -0.00000334   -0.00044362    0.00049473
     atom   26 type  3   force =     0.00000417   -0.00046357   -0.00051253
     atom   27 type  3   force =     0.00000334    0.00044362   -0.00049473
     atom   28 type  3   force =    -0.00000417    0.00046357    0.00051253
     atom   29 type  3   force =     0.00007703    0.00012300   -0.00078248
     atom   30 type  3   force =    -0.00006846    0.00011904    0.00078656
     atom   31 type  3   force =    -0.00007703   -0.00012300    0.00078248
     atom   32 type  3   force =     0.00006846   -0.00011904   -0.00078656
     atom   33 type  3   force =    -0.00023032    0.00049917    0.00019393
     atom   34 type  3   force =     0.00024272    0.00049293   -0.00020170
     atom   35 type  3   force =     0.00023032   -0.00049917   -0.00019393
     atom   36 type  3   force =    -0.00024272   -0.00049293    0.00020170
     atom   37 type  3   force =     0.00002851   -0.00042161   -0.00112159
     atom   38 type  3   force =    -0.00002264   -0.00042391    0.00113125
     atom   39 type  3   force =    -0.00002851    0.00042161    0.00112159
     atom   40 type  3   force =     0.00002264    0.00042391   -0.00113125
     atom   41 type  3   force =    -0.00028752   -0.00006816    0.00028564
     atom   42 type  3   force =     0.00028549   -0.00006968   -0.00029158
     atom   43 type  3   force =     0.00028752    0.00006816   -0.00028564
     atom   44 type  3   force =    -0.00028549    0.00006968    0.00029158
     atom   45 type  1   force =    -0.00026936   -0.00064922   -0.00064329
     atom   46 type  1   force =     0.00027414   -0.00050848    0.00062019
     atom   47 type  1   force =     0.00026936    0.00064922    0.00064329
     atom   48 type  1   force =    -0.00027414    0.00050848   -0.00062019
     atom   49 type  1   force =    -0.00054905    0.00013398   -0.00110253
     atom   50 type  1   force =     0.00054754    0.00004726    0.00120780
     atom   51 type  1   force =     0.00054905   -0.00013398    0.00110253
     atom   52 type  1   force =    -0.00054754   -0.00004726   -0.00120780
     atom   53 type  1   force =     0.00051983    0.00085811   -0.00056016
     atom   54 type  1   force =    -0.00051979    0.00103184    0.00040714
     atom   55 type  1   force =    -0.00051983   -0.00085811    0.00056016
     atom   56 type  1   force =     0.00051979   -0.00103184   -0.00040714
     atom   57 type  1   force =    -0.00008726    0.00132086    0.00099211
     atom   58 type  1   force =     0.00008380    0.00120972   -0.00095142
     atom   59 type  1   force =     0.00008726   -0.00132086   -0.00099211
     atom   60 type  1   force =    -0.00008380   -0.00120972    0.00095142
     atom   61 type  2   force =     0.00126559   -0.00260693    0.00045158
     atom   62 type  2   force =    -0.00127542   -0.00254584   -0.00060950
     atom   63 type  2   force =    -0.00126559    0.00260693   -0.00045158
     atom   64 type  2   force =     0.00127542    0.00254584    0.00060950
     atom   65 type  3   force =     0.00010150    0.00019487   -0.00006614
     atom   66 type  3   force =    -0.00009486    0.00018467    0.00006536
     atom   67 type  3   force =    -0.00010150   -0.00019487    0.00006614
     atom   68 type  3   force =     0.00009486   -0.00018467   -0.00006536
     atom   69 type  3   force =    -0.00062732    0.00083622   -0.00021684
     atom   70 type  3   force =     0.00063539    0.00084202    0.00021726
     atom   71 type  3   force =     0.00062732   -0.00083622    0.00021684
     atom   72 type  3   force =    -0.00063539   -0.00084202   -0.00021726
     atom   73 type  3   force =    -0.00040189    0.00023568    0.00011614
     atom   74 type  3   force =     0.00038754    0.00024244   -0.00011324
     atom   75 type  3   force =     0.00040189   -0.00023568   -0.00011614
     atom   76 type  3   force =    -0.00038754   -0.00024244    0.00011324
     atom   77 type  3   force =    -0.00026226   -0.00051270   -0.00038892
     atom   78 type  3   force =     0.00026228   -0.00049115    0.00037743
     atom   79 type  3   force =     0.00026226    0.00051270    0.00038892
     atom   80 type  3   force =    -0.00026228    0.00049115   -0.00037743
     atom   81 type  3   force =    -0.00029584    0.00013031   -0.00018650
     atom   82 type  3   force =     0.00029439    0.00012433    0.00017526
     atom   83 type  3   force =     0.00029584   -0.00013031    0.00018650
     atom   84 type  3   force =    -0.00029439   -0.00012433   -0.00017526
     atom   85 type  3   force =     0.00061283   -0.00066539    0.00011356
     atom   86 type  3   force =    -0.00061438   -0.00067560   -0.00011896
     atom   87 type  3   force =    -0.00061283    0.00066539   -0.00011356
     atom   88 type  3   force =     0.00061438    0.00067560    0.00011896
     atom   89 type  4   force =    -0.00029536    0.00002678   -0.00011599
     atom   90 type  4   force =     0.00029253    0.00004143    0.00010787
     atom   91 type  4   force =     0.00029536   -0.00002678    0.00011599
     atom   92 type  4   force =    -0.00029253   -0.00004143   -0.00010787
     atom   93 type  4   force =    -0.00000141   -0.00004647   -0.00050125
     atom   94 type  4   force =     0.00000608   -0.00005599    0.00050509
     atom   95 type  4   force =     0.00000141    0.00004647    0.00050125
     atom   96 type  4   force =    -0.00000608    0.00005599   -0.00050509
     atom   97 type  4   force =     0.00010245    0.00005184    0.00045225
     atom   98 type  4   force =    -0.00010239    0.00004250   -0.00044773
     atom   99 type  4   force =    -0.00010245   -0.00005184   -0.00045225
     atom  100 type  4   force =     0.00010239   -0.00004250    0.00044773
     atom  101 type  3   force =    -0.00057955    0.00001212   -0.00012019
     atom  102 type  3   force =     0.00058672    0.00000072    0.00012041
     atom  103 type  3   force =     0.00057955   -0.00001212    0.00012019
     atom  104 type  3   force =    -0.00058672   -0.00000072   -0.00012041
     atom  105 type  3   force =     0.00013914    0.00029545    0.00031125
     atom  106 type  3   force =    -0.00013702    0.00028533   -0.00031227
     atom  107 type  3   force =    -0.00013914   -0.00029545   -0.00031125
     atom  108 type  3   force =     0.00013702   -0.00028533    0.00031227
     atom  109 type  3   force =     0.00006333    0.00060067   -0.00059830
     atom  110 type  3   force =    -0.00006608    0.00060470    0.00059734
     atom  111 type  3   force =    -0.00006333   -0.00060067    0.00059830
     atom  112 type  3   force =     0.00006608   -0.00060470   -0.00059734
     atom  113 type  3   force =     0.00016683   -0.00043389    0.00068063
     atom  114 type  3   force =    -0.00016651   -0.00043299   -0.00068268
     atom  115 type  3   force =    -0.00016683    0.00043389   -0.00068063
     atom  116 type  3   force =     0.00016651    0.00043299    0.00068268
     atom  117 type  3   force =    -0.00001270    0.00040243    0.00037528
     atom  118 type  3   force =     0.00001365    0.00041172   -0.00037925
     atom  119 type  3   force =     0.00001270   -0.00040243   -0.00037528
     atom  120 type  3   force =    -0.00001365   -0.00041172    0.00037925
     atom  121 type  3   force =    -0.00012723    0.00061077    0.00101246
     atom  122 type  3   force =     0.00012291    0.00061003   -0.00101522
     atom  123 type  3   force =     0.00012723   -0.00061077   -0.00101246
     atom  124 type  3   force =    -0.00012291   -0.00061003    0.00101522

     Total force =     0.013612     Total SCF correction =     0.000223


     Computing stress (Cartesian axis) and pressure

          total   stress  (Ry/bohr**3)                   (kbar)     P=  -10.13
  -0.00008026  -0.00000003   0.00000119        -11.81     -0.01      0.18
  -0.00000003  -0.00006839   0.00000017         -0.01    -10.06      0.03
   0.00000119   0.00000017  -0.00005792          0.18      0.03     -8.52


     Writing output data file scf.save
 
     init_run     :     62.03s CPU     64.13s WALL (       1 calls)
     electrons    :   2276.49s CPU   2361.99s WALL (       1 calls)
     forces       :     29.85s CPU     30.10s WALL (       1 calls)
     stress       :    125.99s CPU    126.36s WALL (       1 calls)

     Called by init_run:
     wfcinit      :     49.75s CPU     51.69s WALL (       1 calls)
     potinit      :      4.43s CPU      4.46s WALL (       1 calls)

     Called by electrons:
     c_bands      :   2054.60s CPU   2127.60s WALL (      18 calls)
     sum_band     :    201.97s CPU    212.58s WALL (      18 calls)
     v_of_rho     :      2.72s CPU      2.97s WALL (      19 calls)
     newd         :      7.09s CPU      8.74s WALL (      19 calls)
     PAW_pot      :      9.36s CPU      9.36s WALL (      19 calls)
     mix_rho      :      0.65s CPU      0.69s WALL (      18 calls)

     Called by c_bands:
     init_us_2    :     11.36s CPU     11.41s WALL (     312 calls)
     cegterg      :   2015.13s CPU   2088.07s WALL (     144 calls)

     Called by sum_band:
     sum_band:bec :      0.09s CPU      0.09s WALL (     144 calls)
     addusdens    :      7.02s CPU      8.62s WALL (      18 calls)

     Called by *egterg:
     h_psi        :   1088.63s CPU   1146.75s WALL (     727 calls)
     s_psi        :    249.73s CPU    249.75s WALL (     727 calls)
     g_psi        :      5.09s CPU      5.09s WALL (     575 calls)
     cdiaghg      :    108.68s CPU    108.73s WALL (     719 calls)

     Called by h_psi:
     h_psi:pot    :   1081.05s CPU   1139.04s WALL (     727 calls)
     h_psi:calbec :    241.69s CPU    242.00s WALL (     727 calls)
     vloc_psi     :    588.82s CPU    646.50s WALL (     727 calls)
     add_vuspsi   :    250.53s CPU    250.54s WALL (     727 calls)

     General routines
     calbec       :    343.74s CPU    344.18s WALL (     911 calls)
     fft          :      1.49s CPU      1.91s WALL (     271 calls)
     fftw         :    619.73s CPU    685.33s WALL (  185088 calls)
 
     Parallel routines
     fft_scatter  :    109.33s CPU    169.15s WALL (  185359 calls)
 
     PWSCF        : 41m47.16s CPU    43m58.87s WALL

 
   This run was terminated on:  10:44:38   7Dec2017            

=------------------------------------------------------------------------------=
   JOB DONE.
=------------------------------------------------------------------------------=
