
     Program PWSCF v.6.1 (svn rev. 13369) starts on  5Dec2017 at  5:47:59 

     This program is part of the open-source Quantum ESPRESSO suite
     for quantum simulation of materials; please cite
         "P. Giannozzi et al., J. Phys.:Condens. Matter 21 395502 (2009);
          URL http://www.quantum-espresso.org", 
     in publications or presentations arising from this work. More details at
     http://www.quantum-espresso.org/quote

     Parallel version (MPI), running on     8 processors
     R & G space division:  proc/nbgrp/npool/nimage =       8
     Waiting for input...
     Reading input from standard input

     Current dimensions of program PWSCF are:
     Max number of different atomic species (ntypx) = 10
     Max number of k-points (npk) =  40000
     Max angular momentum in pseudopotentials (lmaxx) =  3
               file C.pbe-n-kjpaw_psl.0.1.UPF: wavefunction(s)  2P renormalized
               file N.pbe-n-kjpaw_psl.0.1.UPF: wavefunction(s)  2P renormalized
               file H.pbe-kjpaw_psl.0.1.UPF: wavefunction(s)  1S renormalized
               file O.pbe-n-kjpaw_psl.0.1.UPF: wavefunction(s)  2P renormalized

     -------------------------------------
     Parameters for Dispersion Correction:
     -------------------------------------
       atom      VdW radius       C_6     

        C          2.744         60.710
        N          2.640         42.670
        H          1.892          4.857
        O          2.536         24.284

     Subspace diagonalization in iterative solution of the eigenvalue problem:
     a serial algorithm will be used

 
     Parallelization info
     --------------------
     sticks:   dense  smooth     PW     G-vecs:    dense   smooth      PW
     Min         647     647    170                44457    44457    6078
     Max         648     648    172                44460    44460    6081
     Sum        5177    5177   1369               355667   355667   48629
 


     bravais-lattice index     =            0
     lattice parameter (alat)  =      12.7386  a.u.
     unit-cell volume          =    2631.8515 (a.u.)^3
     number of atoms/cell      =           44
     number of atomic types    =            4
     number of electrons       =       120.00
     number of Kohn-Sham states=           72
     kinetic-energy cutoff     =     100.0000  Ry
     charge density cutoff     =     400.0000  Ry
     convergence threshold     =      1.0E-08
     mixing beta               =       0.5000
     number of iterations used =            8  plain     mixing
     Exchange-correlation      =  SLA  PW   PBX  PBC ( 1  4  3  4 0 0)

     celldm(1)=  12.738644  celldm(2)=   0.000000  celldm(3)=   0.000000
     celldm(4)=   0.000000  celldm(5)=   0.000000  celldm(6)=   0.000000

     crystal axes: (cart. coord. in units of alat)
               a(1) = (   1.000000   0.000000   0.000000 )  
               a(2) = (   0.000000   1.000297   0.000000 )  
               a(3) = (   0.000000   0.000000   1.272808 )  

     reciprocal axes: (cart. coord. in units 2 pi/alat)
               b(1) = (  1.000000  0.000000  0.000000 )  
               b(2) = (  0.000000  0.999703  0.000000 )  
               b(3) = (  0.000000  0.000000  0.785664 )  


     PseudoPot. # 1 for  C read from file:
     /scratch/ahofstet/pseudo/C.pbe-n-kjpaw_psl.0.1.UPF
     MD5 check sum: 430fe95172b1e11ef3f8ed03bac87931
     Pseudo is Projector augmented-wave + core cor, Zval =  4.0
     Generated using "atomic" code by A. Dal Corso  v.5.0.99 svn rev. 10869
     Shape of augmentation charge: BESSEL
     Using radial grid of 1073 points,  4 beta functions with: 
                l(1) =   0
                l(2) =   0
                l(3) =   1
                l(4) =   1
     Q(r) pseudized with 0 coefficients 


     PseudoPot. # 2 for  N read from file:
     /scratch/ahofstet/pseudo/N.pbe-n-kjpaw_psl.0.1.UPF
     MD5 check sum: f73187c8b701007e77325f868c9291d7
     Pseudo is Projector augmented-wave + core cor, Zval =  5.0
     Generated using "atomic" code by A. Dal Corso  v.5.0.99 svn rev. 10869
     Shape of augmentation charge: PSQ
     Using radial grid of 1085 points,  4 beta functions with: 
                l(1) =   0
                l(2) =   0
                l(3) =   1
                l(4) =   1
     Q(r) pseudized with 0 coefficients 


     PseudoPot. # 3 for  H read from file:
     /scratch/ahofstet/pseudo/H.pbe-kjpaw_psl.0.1.UPF
     MD5 check sum: 94e484f906d9e9773b2f6e52662335b2
     Pseudo is Projector augmented-wave, Zval =  1.0
     Generated using "atomic" code by A. Dal Corso  v.5.0.99 svn rev. 10869
     Shape of augmentation charge: PSQ
     Using radial grid of  929 points,  2 beta functions with: 
                l(1) =   0
                l(2) =   0
     Q(r) pseudized with 0 coefficients 


     PseudoPot. # 4 for  O read from file:
     /scratch/ahofstet/pseudo/O.pbe-n-kjpaw_psl.0.1.UPF
     MD5 check sum: 3f94a2996a3169367d6eb21d9b593f20
     Pseudo is Projector augmented-wave + core cor, Zval =  6.0
     Generated using "atomic" code by A. Dal Corso  v.5.0.99 svn rev. 10869
     Shape of augmentation charge: BESSEL
     Using radial grid of 1095 points,  4 beta functions with: 
                l(1) =   0
                l(2) =   0
                l(3) =   1
                l(4) =   1
     Q(r) pseudized with 0 coefficients 


     atomic species   valence    mass     pseudopotential
        C              4.00    12.01070      C( 1.00)
        N              5.00    14.00670      N( 1.00)
        H              1.00     1.00794      H( 1.00)
        O              6.00    15.99940      O( 1.00)

     No symmetry found
          (note:  3 additional sym.ops. were found but ignored
           their fractional translations are incommensurate with FFT grid)


   Cartesian axes

     site n.     atom                  positions (alat units)
         1           O   tau(   1) = (   0.3818943   0.4499936   0.2503716  )
         2           O   tau(   2) = (   0.1181057   0.5503031   0.8867757  )
         3           O   tau(   3) = (   0.6181057   0.9501420   0.3860325  )
         4           O   tau(   4) = (   0.8818943   0.0501547   1.0224366  )
         5           N   tau(   5) = (   0.2122000   0.3343894   0.5212316  )
         6           N   tau(   6) = (   0.2878000   0.6659072   1.1576357  )
         7           N   tau(   7) = (   0.7878000   0.8345378   0.1151725  )
         8           N   tau(   8) = (   0.7122000   0.1657589   0.7515766  )
         9           N   tau(   9) = (   0.3345888   0.6544100   0.5177258  )
        10           N   tau(  10) = (   0.1654112   0.3458867   1.1541299  )
        11           N   tau(  11) = (   0.6654112   0.1542616   0.1186783  )
        12           N   tau(  12) = (   0.8345888   0.8460351   0.7550823  )
        13           C   tau(  13) = (   0.3125042   0.4783633   0.4225577  )
        14           C   tau(  14) = (   0.1874958   0.5219334   1.0589617  )
        15           C   tau(  15) = (   0.6874958   0.9785117   0.2138464  )
        16           C   tau(  16) = (   0.8125042   0.0217850   0.8502505  )
        17           C   tau(  17) = (   0.1451187   0.1565800   0.4183110  )
        18           C   tau(  18) = (   0.3548813   0.8437167   1.0547151  )
        19           C   tau(  19) = (   0.8548813   0.6567283   0.2180931  )
        20           C   tau(  20) = (   0.6451187   0.3435684   0.8544972  )
        21           H   tau(  21) = (   0.1504440   0.3716022   0.6549669  )
        22           H   tau(  22) = (   0.3495560   0.6286944   0.0185628  )
        23           H   tau(  23) = (   0.8495560   0.8717506   1.2542454  )
        24           H   tau(  24) = (   0.6504440   0.1285461   0.6178413  )
        25           H   tau(  25) = (   0.2803257   0.6682076   0.6584307  )
        26           H   tau(  26) = (   0.2196743   0.3320891   0.0220266  )
        27           H   tau(  27) = (   0.7196743   0.1680593   1.2507816  )
        28           H   tau(  28) = (   0.7803257   0.8322374   0.6143775  )
        29           H   tau(  29) = (   0.4337498   0.7559756   0.4620595  )
        30           H   tau(  30) = (   0.0662502   0.2443211   1.0984636  )
        31           H   tau(  31) = (   0.5662502   0.2558272   0.1743446  )
        32           H   tau(  32) = (   0.9337498   0.7444694   0.8107486  )
        33           H   tau(  33) = (   0.0790043   0.0567266   0.5281875  )
        34           H   tau(  34) = (   0.4209957   0.9435700   1.1645916  )
        35           H   tau(  35) = (   0.9209957   0.5568750   0.1082166  )
        36           H   tau(  36) = (   0.5790043   0.4434217   0.7446207  )
        37           H   tau(  37) = (   0.0320052   0.1905882   0.3049582  )
        38           H   tau(  38) = (   0.4679948   0.8097085   0.9413623  )
        39           H   tau(  39) = (   0.9679948   0.6907365   0.3314459  )
        40           H   tau(  40) = (   0.5320052   0.3095602   0.9678500  )
        41           H   tau(  41) = (   0.2719555   0.0824534   0.3492731  )
        42           H   tau(  42) = (   0.2280445   0.9178433   0.9856772  )
        43           H   tau(  43) = (   0.7280445   0.5826017   0.2871310  )
        44           H   tau(  44) = (   0.7719555   0.4176950   0.9235351  )

     number of k points=    10
                       cart. coord. in units 2pi/alat
        k(    1) = (   0.0000000   0.0000000   0.0000000), wk =   0.1111111
        k(    2) = (   0.0000000   0.0000000  -0.3928322), wk =   0.1111111
        k(    3) = (   0.0000000   0.3332345   0.0000000), wk =   0.2222222
        k(    4) = (   0.0000000   0.3332345  -0.3928322), wk =   0.2222222
        k(    5) = (   0.3333333   0.0000000   0.0000000), wk =   0.2222222
        k(    6) = (   0.3333333   0.0000000  -0.3928322), wk =   0.2222222
        k(    7) = (   0.3333333   0.3332345   0.0000000), wk =   0.2222222
        k(    8) = (   0.3333333   0.3332345  -0.3928322), wk =   0.2222222
        k(    9) = (  -0.3333333   0.3332345   0.0000000), wk =   0.2222222
        k(   10) = (  -0.3333333   0.3332345   0.3928322), wk =   0.2222222

     Dense  grid:   355667 G-vectors     FFT dimensions: (  81,  81, 108)

     Estimated max dynamical RAM per process >     162.50MB

     Estimated total allocated dynamical RAM >    1299.96MB

     Check: negative/imaginary core charge=   -0.000002    0.000000

     Initial potential from superposition of free atoms

     starting charge  119.99937, renormalised to  120.00000
     Starting wfc are  104 randomized atomic wfcs
     Checking if some PAW data can be deallocated... 

     total cpu time spent up to now is        8.7 secs

     per-process dynamical memory:   160.5 Mb

     Self-consistent Calculation

     iteration #  1     ecut=   100.00 Ry     beta=0.50
     Davidson diagonalization with overlap
     ethr =  1.00E-02,  avg # of iterations =  3.8

     total cpu time spent up to now is       27.4 secs

     total energy              =    -567.88951799 Ry
     Harris-Foulkes estimate   =    -570.51316758 Ry
     estimated scf accuracy    <       4.86750737 Ry

     iteration #  2     ecut=   100.00 Ry     beta=0.50
     Davidson diagonalization with overlap
     ethr =  4.06E-03,  avg # of iterations =  2.0

     total cpu time spent up to now is       39.1 secs

     total energy              =    -568.70014588 Ry
     Harris-Foulkes estimate   =    -568.85612347 Ry
     estimated scf accuracy    <       0.39010995 Ry

     iteration #  3     ecut=   100.00 Ry     beta=0.50
     Davidson diagonalization with overlap
     ethr =  3.25E-04,  avg # of iterations =  7.4

     total cpu time spent up to now is       59.2 secs

     total energy              =    -568.89775064 Ry
     Harris-Foulkes estimate   =    -568.97305960 Ry
     estimated scf accuracy    <       0.20215447 Ry

     iteration #  4     ecut=   100.00 Ry     beta=0.50
     Davidson diagonalization with overlap
     ethr =  1.68E-04,  avg # of iterations =  2.0

     total cpu time spent up to now is       69.4 secs

     total energy              =    -568.88435233 Ry
     Harris-Foulkes estimate   =    -568.91026887 Ry
     estimated scf accuracy    <       0.05431662 Ry

     iteration #  5     ecut=   100.00 Ry     beta=0.50
     Davidson diagonalization with overlap
     ethr =  4.53E-05,  avg # of iterations =  5.0

     total cpu time spent up to now is       87.9 secs

     total energy              =    -568.91632989 Ry
     Harris-Foulkes estimate   =    -568.93766875 Ry
     estimated scf accuracy    <       0.06830607 Ry

     iteration #  6     ecut=   100.00 Ry     beta=0.50
     Davidson diagonalization with overlap
     ethr =  4.53E-05,  avg # of iterations =  1.4

     total cpu time spent up to now is       97.8 secs

     total energy              =    -568.90018428 Ry
     Harris-Foulkes estimate   =    -568.91826094 Ry
     estimated scf accuracy    <       0.02978149 Ry

     iteration #  7     ecut=   100.00 Ry     beta=0.50
     Davidson diagonalization with overlap
     ethr =  2.48E-05,  avg # of iterations =  4.5

     total cpu time spent up to now is      113.3 secs

     total energy              =    -568.91539018 Ry
     Harris-Foulkes estimate   =    -568.91954766 Ry
     estimated scf accuracy    <       0.01116011 Ry

     iteration #  8     ecut=   100.00 Ry     beta=0.50
     Davidson diagonalization with overlap
     ethr =  9.30E-06,  avg # of iterations =  2.0

     total cpu time spent up to now is      123.6 secs

     total energy              =    -568.91319176 Ry
     Harris-Foulkes estimate   =    -568.91581350 Ry
     estimated scf accuracy    <       0.00383456 Ry

     iteration #  9     ecut=   100.00 Ry     beta=0.50
     Davidson diagonalization with overlap
     ethr =  3.20E-06,  avg # of iterations =  5.0

     total cpu time spent up to now is      142.2 secs

     total energy              =    -568.91573032 Ry
     Harris-Foulkes estimate   =    -568.91728049 Ry
     estimated scf accuracy    <       0.00388938 Ry

     iteration # 10     ecut=   100.00 Ry     beta=0.50
     Davidson diagonalization with overlap
     ethr =  3.20E-06,  avg # of iterations =  2.0

     total cpu time spent up to now is      152.4 secs

     total energy              =    -568.91542331 Ry
     Harris-Foulkes estimate   =    -568.91588978 Ry
     estimated scf accuracy    <       0.00112123 Ry

     iteration # 11     ecut=   100.00 Ry     beta=0.50
     Davidson diagonalization with overlap
     ethr =  9.34E-07,  avg # of iterations =  3.5

     total cpu time spent up to now is      166.8 secs

     total energy              =    -568.91604061 Ry
     Harris-Foulkes estimate   =    -568.91607056 Ry
     estimated scf accuracy    <       0.00008629 Ry

     iteration # 12     ecut=   100.00 Ry     beta=0.50
     Davidson diagonalization with overlap
     ethr =  7.19E-08,  avg # of iterations =  2.1

     total cpu time spent up to now is      177.0 secs

     total energy              =    -568.91603460 Ry
     Harris-Foulkes estimate   =    -568.91604467 Ry
     estimated scf accuracy    <       0.00003166 Ry

     iteration # 13     ecut=   100.00 Ry     beta=0.50
     Davidson diagonalization with overlap
     ethr =  2.64E-08,  avg # of iterations =  3.8

     total cpu time spent up to now is      190.5 secs

     total energy              =    -568.91604560 Ry
     Harris-Foulkes estimate   =    -568.91604553 Ry
     estimated scf accuracy    <       0.00000030 Ry

     iteration # 14     ecut=   100.00 Ry     beta=0.50
     Davidson diagonalization with overlap
     ethr =  2.50E-10,  avg # of iterations =  3.0

     total cpu time spent up to now is      206.7 secs

     total energy              =    -568.91604573 Ry
     Harris-Foulkes estimate   =    -568.91604576 Ry
     estimated scf accuracy    <       0.00000044 Ry

     iteration # 15     ecut=   100.00 Ry     beta=0.50
     Davidson diagonalization with overlap
     ethr =  2.50E-10,  avg # of iterations =  1.0

     total cpu time spent up to now is      216.4 secs

     total energy              =    -568.91604559 Ry
     Harris-Foulkes estimate   =    -568.91604574 Ry
     estimated scf accuracy    <       0.00000038 Ry

     iteration # 16     ecut=   100.00 Ry     beta=0.50
     Davidson diagonalization with overlap
     ethr =  2.50E-10,  avg # of iterations =  3.3

     total cpu time spent up to now is      228.2 secs

     total energy              =    -568.91604563 Ry
     Harris-Foulkes estimate   =    -568.91604564 Ry
     estimated scf accuracy    <       0.00000003 Ry

     iteration # 17     ecut=   100.00 Ry     beta=0.50
     Davidson diagonalization with overlap
     ethr =  2.23E-11,  avg # of iterations =  4.2

     total cpu time spent up to now is      241.9 secs

     End of self-consistent calculation

          k = 0.0000 0.0000 0.0000 ( 44515 PWs)   bands (ev):

   -20.3653 -20.2605 -20.2339 -20.1475 -17.3762 -17.2473 -17.0630 -17.0355
   -16.1618 -16.0732 -16.0496 -15.9952 -11.5094 -11.4947 -11.4204 -11.3541
    -8.9905  -8.8452  -8.5664  -8.2981  -7.9047  -7.8490  -7.5388  -7.5043
    -7.3982  -7.0568  -7.0053  -6.6173  -5.4939  -5.4794  -5.4790  -5.4088
    -5.0925  -4.9737  -4.9420  -4.8228  -4.7896  -4.7113  -4.3848  -4.2902
    -4.1694  -3.9835  -3.7118  -3.5247  -3.4169  -3.3188  -3.2203  -3.0725
    -1.1503  -1.0212  -0.8905  -0.7906  -0.6980  -0.4491  -0.4133  -0.3635
    -0.1137   0.0587   0.1760   0.2270   5.2990   5.6469   5.6503   5.9929
     6.0444   6.4842   6.9466   7.3142   7.8581   7.9565   8.0327   8.1399

          k = 0.0000 0.0000-0.3928 ( 44476 PWs)   bands (ev):

   -20.3022 -20.3022 -20.2057 -20.2056 -17.2250 -17.2250 -17.1332 -17.1332
   -16.1203 -16.1203 -16.0217 -16.0217 -11.5096 -11.5095 -11.3844 -11.3844
    -8.7691  -8.7691  -8.5464  -8.5464  -7.7063  -7.7062  -7.6716  -7.6716
    -7.3197  -7.3197  -6.8963  -6.8963  -5.5388  -5.5388  -5.2745  -5.2744
    -5.0642  -5.0642  -4.9707  -4.9707  -4.4979  -4.4979  -4.3686  -4.3686
    -4.1470  -4.1470  -3.5896  -3.5896  -3.3979  -3.3979  -3.1497  -3.1497
    -0.9007  -0.9007  -0.8270  -0.8270  -0.6317  -0.6317  -0.5843  -0.5843
    -0.0195  -0.0195   0.2062   0.2062   5.6282   5.6282   5.8920   5.8920
     6.0011   6.0011   7.2436   7.2436   7.6994   7.6994   8.0241   8.0241

          k = 0.0000 0.3332 0.0000 ( 44426 PWs)   bands (ev):

   -20.3392 -20.2867 -20.2122 -20.1690 -17.3419 -17.2773 -17.0495 -17.0354
   -16.1503 -16.0959 -16.0634 -16.0240 -11.4460 -11.4021 -11.3988 -11.3356
    -9.0006  -8.9218  -8.5413  -8.4100  -7.9003  -7.8860  -7.5551  -7.5348
    -7.3950  -7.1898  -6.8969  -6.6566  -5.7223  -5.4925  -5.4261  -5.3060
    -5.2070  -5.2036  -4.9395  -4.8629  -4.6975  -4.6006  -4.2352  -4.1677
    -3.9073  -3.7993  -3.6997  -3.5720  -3.4721  -3.3680  -3.1933  -3.0756
    -1.1010  -1.0167  -0.8419  -0.7672  -0.6579  -0.4918  -0.4434  -0.4196
    -0.0769  -0.0010   0.0231   0.1094   5.4825   5.6978   5.8309   5.8902
     5.8926   6.2630   6.8469   6.9026   7.8624   7.9877   8.0968   8.2229

          k = 0.0000 0.3332-0.3928 ( 44428 PWs)   bands (ev):

   -20.2780 -20.2780 -20.2298 -20.2298 -17.2023 -17.2023 -17.1471 -17.1471
   -16.1137 -16.1137 -16.0551 -16.0551 -11.4340 -11.4340 -11.3616 -11.3616
    -8.7721  -8.7721  -8.6285  -8.6285  -7.7399  -7.7399  -7.7045  -7.7045
    -7.2861  -7.2861  -6.9325  -6.9325  -5.6515  -5.6515  -5.3985  -5.3985
    -5.0088  -5.0088  -4.8711  -4.8711  -4.4974  -4.4974  -4.3511  -4.3511
    -3.8899  -3.8899  -3.6084  -3.6084  -3.3341  -3.3340  -3.2224  -3.2224
    -0.8673  -0.8673  -0.7580  -0.7580  -0.7135  -0.7135  -0.5568  -0.5568
    -0.0551  -0.0551   0.0691   0.0691   5.6348   5.6348   5.8896   5.8896
     6.1304   6.1304   6.7333   6.7333   7.8440   7.8440   8.1075   8.1075

          k = 0.3333 0.0000 0.0000 ( 44418 PWs)   bands (ev):

   -20.3469 -20.3021 -20.1967 -20.1612 -17.3502 -17.2879 -17.0480 -17.0365
   -16.1427 -16.1017 -16.0293 -16.0053 -11.4967 -11.4933 -11.4271 -11.3829
    -8.9594  -8.8957  -8.4720  -8.3495  -7.8831  -7.8599  -7.5226  -7.5056
    -7.3834  -7.2603  -6.7561  -6.6112  -5.6229  -5.6035  -5.3685  -5.3330
    -5.2458  -5.0718  -4.9257  -4.8717  -4.6905  -4.5961  -4.2852  -4.1665
    -4.0884  -3.9168  -3.7633  -3.6544  -3.4227  -3.4212  -3.2313  -3.1307
    -1.1342  -1.1039  -0.8259  -0.8106  -0.6506  -0.4713  -0.4019  -0.3879
    -0.0149   0.0790   0.1466   0.1506   5.6611   5.6720   5.7201   5.8468
     6.0178   6.7639   6.7824   7.3794   7.5381   7.8529   8.0247   8.1212

          k = 0.3333 0.0000-0.3928 ( 44432 PWs)   bands (ev):

   -20.2983 -20.2983 -20.2094 -20.2094 -17.2276 -17.2276 -17.1309 -17.1309
   -16.1127 -16.1127 -16.0289 -16.0289 -11.4975 -11.4975 -11.4075 -11.4075
    -8.7354  -8.7354  -8.5688  -8.5688  -7.7037  -7.7037  -7.6853  -7.6853
    -7.3296  -7.3296  -6.8197  -6.8197  -5.6099  -5.6099  -5.4238  -5.4238
    -4.9816  -4.9816  -4.8857  -4.8857  -4.5011  -4.5011  -4.3748  -4.3748
    -3.9916  -3.9916  -3.6660  -3.6660  -3.3845  -3.3845  -3.2434  -3.2434
    -0.9048  -0.9048  -0.8631  -0.8631  -0.6541  -0.6541  -0.5373  -0.5373
     0.0382   0.0382   0.1592   0.1593   5.6903   5.6903   5.8773   5.8773
     6.2774   6.2774   7.1874   7.1874   7.5484   7.5484   8.0101   8.0101

          k = 0.3333 0.3332 0.0000 ( 44448 PWs)   bands (ev):

   -20.3281 -20.3029 -20.1981 -20.1775 -17.3263 -17.2939 -17.0470 -17.0390
   -16.1381 -16.1119 -16.0508 -16.0325 -11.4262 -11.4131 -11.3927 -11.3560
    -8.9787  -8.9396  -8.5124  -8.4457  -7.9116  -7.8976  -7.5481  -7.5353
    -7.3584  -7.2567  -6.8478  -6.7282  -5.5638  -5.5145  -5.3923  -5.2594
    -5.1908  -5.0738  -5.0383  -4.8837  -4.7456  -4.6471  -4.2048  -4.1437
    -3.9122  -3.7559  -3.6697  -3.6078  -3.5276  -3.4453  -3.1880  -3.1198
    -1.0883  -1.0595  -0.8286  -0.7853  -0.5962  -0.5283  -0.4372  -0.4298
    -0.0548  -0.0029   0.0289   0.0620   5.6389   5.7839   5.8116   5.8308
     6.1631   6.5620   6.9496   7.1327   7.3728   7.7170   7.9493   8.1634

          k = 0.3333 0.3332-0.3928 ( 44442 PWs)   bands (ev):

   -20.2760 -20.2759 -20.2315 -20.2315 -17.2007 -17.2007 -17.1496 -17.1496
   -16.1065 -16.1065 -16.0624 -16.0624 -11.4229 -11.4229 -11.3753 -11.3753
    -8.7512  -8.7512  -8.6527  -8.6527  -7.7347  -7.7347  -7.7158  -7.7157
    -7.2692  -7.2692  -6.9837  -6.9837  -5.5292  -5.5292  -5.2662  -5.2662
    -5.1598  -5.1598  -4.9041  -4.9041  -4.4489  -4.4489  -4.3700  -4.3699
    -3.8620  -3.8619  -3.6852  -3.6852  -3.3281  -3.3281  -3.2332  -3.2332
    -0.8607  -0.8607  -0.8070  -0.8069  -0.6829  -0.6829  -0.5673  -0.5673
    -0.0313  -0.0313   0.0425   0.0425   5.6891   5.6891   5.8293   5.8293
     6.5127   6.5128   7.0411   7.0411   7.4442   7.4442   7.8634   7.8634

          k =-0.3333 0.3332 0.0000 ( 44448 PWs)   bands (ev):

   -20.3281 -20.3029 -20.1981 -20.1775 -17.3263 -17.2939 -17.0470 -17.0390
   -16.1381 -16.1119 -16.0509 -16.0325 -11.4262 -11.4131 -11.3927 -11.3560
    -8.9787  -8.9396  -8.5124  -8.4457  -7.9116  -7.8976  -7.5481  -7.5353
    -7.3584  -7.2567  -6.8479  -6.7282  -5.5638  -5.5145  -5.3923  -5.2594
    -5.1908  -5.0738  -5.0383  -4.8837  -4.7456  -4.6471  -4.2048  -4.1437
    -3.9122  -3.7559  -3.6697  -3.6078  -3.5276  -3.4453  -3.1880  -3.1198
    -1.0883  -1.0595  -0.8286  -0.7853  -0.5962  -0.5283  -0.4372  -0.4298
    -0.0548  -0.0029   0.0289   0.0620   5.6389   5.7839   5.8116   5.8308
     6.1631   6.5620   6.9496   7.1327   7.3728   7.7170   7.9493   8.1634

          k =-0.3333 0.3332 0.3928 ( 44442 PWs)   bands (ev):

   -20.2760 -20.2759 -20.2315 -20.2315 -17.2007 -17.2007 -17.1496 -17.1496
   -16.1065 -16.1065 -16.0624 -16.0624 -11.4229 -11.4229 -11.3753 -11.3753
    -8.7512  -8.7512  -8.6527  -8.6527  -7.7347  -7.7347  -7.7158  -7.7157
    -7.2692  -7.2692  -6.9837  -6.9837  -5.5292  -5.5292  -5.2662  -5.2662
    -5.1598  -5.1598  -4.9041  -4.9041  -4.4489  -4.4489  -4.3700  -4.3699
    -3.8620  -3.8619  -3.6852  -3.6852  -3.3281  -3.3281  -3.2332  -3.2332
    -0.8607  -0.8607  -0.8070  -0.8069  -0.6829  -0.6829  -0.5673  -0.5673
    -0.0313  -0.0313   0.0425   0.0425   5.6891   5.6891   5.8293   5.8293
     6.5127   6.5128   7.0411   7.0411   7.4442   7.4442   7.8634   7.8634

     highest occupied, lowest unoccupied level (ev):     0.2270    5.2990

!    total energy              =    -568.91604564 Ry
     Harris-Foulkes estimate   =    -568.91604564 Ry
     estimated scf accuracy    <          1.7E-09 Ry

     total all-electron energy =     -2116.806732 Ry

     The total energy is the sum of the following terms:

     one-electron contribution =    -320.19950809 Ry
     hartree contribution      =     204.25392211 Ry
     xc contribution           =    -124.05086957 Ry
     ewald contribution        =    -171.32955366 Ry
     Dispersion Correction     =      -0.17575326 Ry
     one-center paw contrib.   =    -157.41428316 Ry

     convergence has been achieved in  17 iterations

     Forces acting on atoms (cartesian axes, Ry/au):

     atom    1 type  4   force =    -0.00058964    0.00081246   -0.00282664
     atom    2 type  4   force =     0.00059268   -0.00081298   -0.00282418
     atom    3 type  4   force =     0.00059108    0.00082152    0.00282243
     atom    4 type  4   force =    -0.00059107   -0.00082152    0.00282857
     atom    5 type  2   force =    -0.00474913   -0.00142546   -0.00609400
     atom    6 type  2   force =     0.00474837    0.00142659   -0.00609376
     atom    7 type  2   force =     0.00474871   -0.00142668    0.00609398
     atom    8 type  2   force =    -0.00474780    0.00142520    0.00609402
     atom    9 type  2   force =     0.00327438    0.00012265   -0.00209066
     atom   10 type  2   force =    -0.00327454   -0.00012354   -0.00209023
     atom   11 type  2   force =    -0.00327435    0.00012416    0.00208911
     atom   12 type  2   force =     0.00327438   -0.00012249    0.00209007
     atom   13 type  1   force =     0.00024732    0.00185596    0.00302749
     atom   14 type  1   force =    -0.00023561   -0.00185595    0.00302637
     atom   15 type  1   force =    -0.00024782    0.00187436   -0.00302558
     atom   16 type  1   force =     0.00023459   -0.00187526   -0.00302718
     atom   17 type  1   force =    -0.00172853    0.00454072    0.00558814
     atom   18 type  1   force =     0.00171753   -0.00454034    0.00558965
     atom   19 type  1   force =     0.00172917    0.00456413   -0.00558936
     atom   20 type  1   force =    -0.00171753   -0.00456418   -0.00558739
     atom   21 type  3   force =     0.00058890    0.00010747    0.00131369
     atom   22 type  3   force =    -0.00058940   -0.00010743    0.00131356
     atom   23 type  3   force =    -0.00058909    0.00010736   -0.00131371
     atom   24 type  3   force =     0.00058911   -0.00010759   -0.00131420
     atom   25 type  3   force =     0.00051238    0.00021736    0.00181070
     atom   26 type  3   force =    -0.00051237   -0.00021741    0.00181059
     atom   27 type  3   force =    -0.00051284    0.00021750   -0.00181042
     atom   28 type  3   force =     0.00051193   -0.00021739   -0.00181114
     atom   29 type  3   force =    -0.00196375   -0.00073951    0.00039588
     atom   30 type  3   force =     0.00196389    0.00073971    0.00039595
     atom   31 type  3   force =     0.00196374   -0.00073958   -0.00039596
     atom   32 type  3   force =    -0.00196372    0.00073938   -0.00039587
     atom   33 type  3   force =     0.00026879   -0.00160789   -0.00069796
     atom   34 type  3   force =    -0.00026936    0.00160759   -0.00069798
     atom   35 type  3   force =    -0.00026936   -0.00160752    0.00069832
     atom   36 type  3   force =     0.00026913    0.00160811    0.00069836
     atom   37 type  3   force =     0.00093067   -0.00037678    0.00037130
     atom   38 type  3   force =    -0.00093049    0.00037677    0.00037147
     atom   39 type  3   force =    -0.00093083   -0.00037647   -0.00037153
     atom   40 type  3   force =     0.00093056    0.00037647   -0.00037160
     atom   41 type  3   force =     0.00146301   -0.00378857   -0.00218950
     atom   42 type  3   force =    -0.00146294    0.00378884   -0.00218952
     atom   43 type  3   force =    -0.00146263   -0.00378883    0.00218911
     atom   44 type  3   force =     0.00146248    0.00378908    0.00218962

     Total force =     0.027514     Total SCF correction =     0.000065


     Computing stress (Cartesian axis) and pressure

          total   stress  (Ry/bohr**3)                   (kbar)     P=   -5.38
  -0.00003935  -0.00000000   0.00000000         -5.79     -0.00      0.00
  -0.00000000  -0.00000756   0.00000000         -0.00     -1.11      0.00
   0.00000000   0.00000000  -0.00006284          0.00      0.00     -9.24


     Writing output data file scf.save
 
     init_run     :      7.80s CPU      8.03s WALL (       1 calls)
     electrons    :    228.92s CPU    233.29s WALL (       1 calls)
     forces       :      3.67s CPU      3.70s WALL (       1 calls)
     stress       :      9.77s CPU      9.79s WALL (       1 calls)

     Called by init_run:
     wfcinit      :      5.29s CPU      5.49s WALL (       1 calls)
     potinit      :      0.96s CPU      0.97s WALL (       1 calls)

     Called by electrons:
     c_bands      :    197.41s CPU    201.32s WALL (      17 calls)
     sum_band     :     25.53s CPU     25.86s WALL (      17 calls)
     v_of_rho     :      0.87s CPU      0.93s WALL (      18 calls)
     newd         :      1.41s CPU      1.44s WALL (      18 calls)
     PAW_pot      :      3.36s CPU      3.36s WALL (      18 calls)
     mix_rho      :      0.20s CPU      0.21s WALL (      17 calls)

     Called by c_bands:
     init_us_2    :      1.99s CPU      2.00s WALL (     370 calls)
     cegterg      :    190.71s CPU    194.56s WALL (     170 calls)

     Called by sum_band:
     sum_band:bec :      0.02s CPU      0.02s WALL (     170 calls)
     addusdens    :      1.41s CPU      1.42s WALL (      17 calls)

     Called by *egterg:
     h_psi        :    126.67s CPU    128.76s WALL (     740 calls)
     s_psi        :     14.71s CPU     14.71s WALL (     740 calls)
     g_psi        :      0.75s CPU      0.74s WALL (     560 calls)
     cdiaghg      :      9.02s CPU      9.03s WALL (     730 calls)

     Called by h_psi:
     h_psi:pot    :    125.97s CPU    128.05s WALL (     740 calls)
     h_psi:calbec :     15.82s CPU     15.87s WALL (     740 calls)
     vloc_psi     :     95.57s CPU     97.59s WALL (     740 calls)
     add_vuspsi   :     14.58s CPU     14.58s WALL (     740 calls)

     General routines
     calbec       :     24.83s CPU     24.91s WALL (     960 calls)
     fft          :      1.11s CPU      1.22s WALL (     258 calls)
     fftw         :    104.59s CPU    106.80s WALL (   81372 calls)
 
     Parallel routines
     fft_scatter  :     29.52s CPU     30.89s WALL (   81630 calls)
 
     PWSCF        :  4m13.03s CPU     4m18.45s WALL

 
   This run was terminated on:   5:52:18   5Dec2017            

=------------------------------------------------------------------------------=
   JOB DONE.
=------------------------------------------------------------------------------=
