
     Program PWSCF v.6.1 (svn rev. 13369) starts on 13Nov2017 at 12:24: 3 

     This program is part of the open-source Quantum ESPRESSO suite
     for quantum simulation of materials; please cite
         "P. Giannozzi et al., J. Phys.:Condens. Matter 21 395502 (2009);
          URL http://www.quantum-espresso.org", 
     in publications or presentations arising from this work. More details at
     http://www.quantum-espresso.org/quote

     Parallel version (MPI), running on     8 processors
     R & G space division:  proc/nbgrp/npool/nimage =       8
     Waiting for input...
     Reading input from standard input

     Current dimensions of program PWSCF are:
     Max number of different atomic species (ntypx) = 10
     Max number of k-points (npk) =  40000
     Max angular momentum in pseudopotentials (lmaxx) =  3
               file C.pbe-n-kjpaw_psl.0.1.UPF: wavefunction(s)  2P renormalized
               file N.pbe-n-kjpaw_psl.0.1.UPF: wavefunction(s)  2P renormalized
               file H.pbe-kjpaw_psl.0.1.UPF: wavefunction(s)  1S renormalized
               file O.pbe-n-kjpaw_psl.0.1.UPF: wavefunction(s)  2P renormalized

     -------------------------------------
     Parameters for Dispersion Correction:
     -------------------------------------
       atom      VdW radius       C_6     

        C          2.744         60.710
        N          2.640         42.670
        H          1.892          4.857
        O          2.536         24.284

     Subspace diagonalization in iterative solution of the eigenvalue problem:
     a serial algorithm will be used

 
     Parallelization info
     --------------------
     sticks:   dense  smooth     PW     G-vecs:    dense   smooth      PW
     Min        1150    1150    301                91875    91875   12372
     Max        1151    1151    302                91879    91879   12374
     Sum        9203    9203   2411               735011   735011   98983
 


     bravais-lattice index     =            0
     lattice parameter (alat)  =      13.9386  a.u.
     unit-cell volume          =    5439.8264 (a.u.)^3
     number of atoms/cell      =           84
     number of atomic types    =            4
     number of electrons       =       280.00
     number of Kohn-Sham states=          168
     kinetic-energy cutoff     =     100.0000  Ry
     charge density cutoff     =     400.0000  Ry
     convergence threshold     =      1.0E-08
     mixing beta               =       0.5000
     number of iterations used =            8  plain     mixing
     Exchange-correlation      =  SLA  PW   PBX  PBC ( 1  4  3  4 0 0)

     celldm(1)=  13.938620  celldm(2)=   0.000000  celldm(3)=   0.000000
     celldm(4)=   0.000000  celldm(5)=   0.000000  celldm(6)=   0.000000

     crystal axes: (cart. coord. in units of alat)
               a(1) = (   1.000000   0.000000   0.000000 )  
               a(2) = (   0.000000   1.486985   0.000000 )  
               a(3) = (  -0.275332   0.000000   1.350887 )  

     reciprocal axes: (cart. coord. in units 2 pi/alat)
               b(1) = (  1.000000  0.000000  0.203816 )  
               b(2) = (  0.000000  0.672502  0.000000 )  
               b(3) = (  0.000000  0.000000  0.740254 )  


     PseudoPot. # 1 for  C read from file:
     /scratch/ahofstet/pseudo/C.pbe-n-kjpaw_psl.0.1.UPF
     MD5 check sum: 430fe95172b1e11ef3f8ed03bac87931
     Pseudo is Projector augmented-wave + core cor, Zval =  4.0
     Generated using "atomic" code by A. Dal Corso  v.5.0.99 svn rev. 10869
     Shape of augmentation charge: BESSEL
     Using radial grid of 1073 points,  4 beta functions with: 
                l(1) =   0
                l(2) =   0
                l(3) =   1
                l(4) =   1
     Q(r) pseudized with 0 coefficients 


     PseudoPot. # 2 for  N read from file:
     /scratch/ahofstet/pseudo/N.pbe-n-kjpaw_psl.0.1.UPF
     MD5 check sum: f73187c8b701007e77325f868c9291d7
     Pseudo is Projector augmented-wave + core cor, Zval =  5.0
     Generated using "atomic" code by A. Dal Corso  v.5.0.99 svn rev. 10869
     Shape of augmentation charge: PSQ
     Using radial grid of 1085 points,  4 beta functions with: 
                l(1) =   0
                l(2) =   0
                l(3) =   1
                l(4) =   1
     Q(r) pseudized with 0 coefficients 


     PseudoPot. # 3 for  H read from file:
     /scratch/ahofstet/pseudo/H.pbe-kjpaw_psl.0.1.UPF
     MD5 check sum: 94e484f906d9e9773b2f6e52662335b2
     Pseudo is Projector augmented-wave, Zval =  1.0
     Generated using "atomic" code by A. Dal Corso  v.5.0.99 svn rev. 10869
     Shape of augmentation charge: PSQ
     Using radial grid of  929 points,  2 beta functions with: 
                l(1) =   0
                l(2) =   0
     Q(r) pseudized with 0 coefficients 


     PseudoPot. # 4 for  O read from file:
     /scratch/ahofstet/pseudo/O.pbe-n-kjpaw_psl.0.1.UPF
     MD5 check sum: 3f94a2996a3169367d6eb21d9b593f20
     Pseudo is Projector augmented-wave + core cor, Zval =  6.0
     Generated using "atomic" code by A. Dal Corso  v.5.0.99 svn rev. 10869
     Shape of augmentation charge: BESSEL
     Using radial grid of 1095 points,  4 beta functions with: 
                l(1) =   0
                l(2) =   0
                l(3) =   1
                l(4) =   1
     Q(r) pseudized with 0 coefficients 


     atomic species   valence    mass     pseudopotential
        C              4.00    12.01070      C( 1.00)
        N              5.00    14.00670      N( 1.00)
        H              1.00     1.00794      H( 1.00)
        O              6.00    15.99940      O( 1.00)

      2 Sym. Ops., with inversion, found
          (note:  2 additional sym.ops. were found but ignored
           their fractional translations are incommensurate with FFT grid)


   Cartesian axes

     site n.     atom                  positions (alat units)
         1           C   tau(   1) = (   0.2420303   0.6367689   0.0182935  )
         2           C   tau(   2) = (   0.6203036   1.3802613   0.6571502  )
         3           C   tau(   3) = (   0.4826374   0.8502159   1.3325939  )
         4           C   tau(   4) = (   0.1043642   0.1067235   0.6937373  )
         5           C   tau(   5) = (   0.3083996   0.7989130   0.0940033  )
         6           C   tau(   6) = (   0.5539343   0.0554206   0.5814405  )
         7           C   tau(   7) = (   0.4162681   0.6880718   1.2568842  )
         8           C   tau(   8) = (   0.1707335   1.4315642   0.7694470  )
         9           C   tau(   9) = (   0.0245811   0.9552221   1.3346207  )
        10           C   tau(  10) = (   0.5624205   0.2117297   0.6917105  )
        11           C   tau(  11) = (   0.7000866   0.5317627   0.0162668  )
        12           C   tau(  12) = (   0.1622473   1.2752551   0.6591770  )
        13           C   tau(  13) = (   0.3761293   1.2849386   0.0416126  )
        14           C   tau(  14) = (   0.4862045   0.5414462   0.6338311  )
        15           C   tau(  15) = (   0.3485384   0.2020462   1.3092749  )
        16           C   tau(  16) = (   0.2384632   0.9455386   0.7170563  )
        17           C   tau(  17) = (   0.4131542   1.0159946   0.2520729  )
        18           C   tau(  18) = (   0.4491796   0.2725022   0.4233708  )
        19           C   tau(  19) = (   0.3115135   0.4709902   1.0988146  )
        20           C   tau(  20) = (   0.2754881   1.2144826   0.9275166  )
        21           C   tau(  21) = (  -0.0932945   0.8129824   1.0947509  )
        22           C   tau(  22) = (   0.6802961   0.0694900   0.9315803  )
        23           C   tau(  23) = (   0.8179623   0.6740024   0.2561366  )
        24           C   tau(  24) = (   0.0443716   1.4174948   0.4193071  )
        25           C   tau(  25) = (  -0.1580338   0.4785088   1.1308963  )
        26           C   tau(  26) = (   0.7450354   1.2220012   0.8954349  )
        27           C   tau(  27) = (   0.8827016   1.0084760   0.2199911  )
        28           C   tau(  28) = (  -0.0203677   0.2649836   0.4554526  )
        29           C   tau(  29) = (  -0.1307009   0.3649840   1.3040639  )
        30           C   tau(  30) = (   0.7177025   1.1084764   0.7222673  )
        31           C   tau(  31) = (   0.8553686   1.1220008   0.0468236  )
        32           C   tau(  32) = (   0.0069653   0.3785084   0.6286202  )
        33           H   tau(  33) = (   0.1977481   1.3058398   1.2819163  )
        34           H   tau(  34) = (   0.3892535   0.5623474   0.7444149  )
        35           H   tau(  35) = (   0.5269196   0.1811450   0.0689712  )
        36           H   tau(  36) = (   0.3354143   0.9246374   0.6064726  )
        37           H   tau(  37) = (  -0.0338422   1.3320371   1.3505054  )
        38           H   tau(  38) = (   0.6208438   0.5885447   0.6758258  )
        39           H   tau(  39) = (   0.7585099   0.1549477   0.0003820  )
        40           H   tau(  40) = (   0.1038240   0.8984401   0.6750617  )
        41           H   tau(  41) = (   0.4198271   1.3607816   0.1618475  )
        42           H   tau(  42) = (   0.4425067   0.6172892   0.5135962  )
        43           H   tau(  43) = (   0.3048406   0.1262032   1.1890399  )
        44           H   tau(  44) = (   0.2821610   0.8696956   0.8372913  )
        45           H   tau(  45) = (   0.4722525   1.0974458   0.3606972  )
        46           H   tau(  46) = (   0.3900814   0.3539534   0.3147466  )
        47           H   tau(  47) = (   0.2524152   0.3895390   0.9901903  )
        48           H   tau(  48) = (   0.3345864   1.1330314   1.0361409  )
        49           H   tau(  49) = (  -0.1439445   0.8080887   0.9554616  )
        50           H   tau(  50) = (   0.7309461   0.0645963   1.0708696  )
        51           H   tau(  51) = (   0.8686123   0.6788961   0.3954259  )
        52           H   tau(  52) = (  -0.0062784   1.4223885   0.2800179  )
        53           H   tau(  53) = (   0.7005406   0.4808831   1.0851404  )
        54           H   tau(  54) = (  -0.1135390   1.2243755   0.9411908  )
        55           H   tau(  55) = (   0.0241271   1.0061017   0.2657471  )
        56           H   tau(  56) = (   0.8382068   0.2626093   0.4096966  )
        57           H   tau(  57) = (  -0.0742235   0.4262597   1.0187718  )
        58           H   tau(  58) = (   0.6612251   1.1697521   1.0075595  )
        59           H   tau(  59) = (   0.7988912   1.0607251   0.3321157  )
        60           H   tau(  60) = (   0.0634427   0.3172327   0.3433280  )
        61           N   tau(  61) = (   0.3803818   0.8395201   0.2609651  )
        62           N   tau(  62) = (   0.4819520   0.0960277   0.4144787  )
        63           N   tau(  63) = (   0.3442859   0.6474647   1.0899224  )
        64           N   tau(  64) = (   0.2427157   1.3909572   0.9364088  )
        65           N   tau(  65) = (   0.3664208   1.0929696   0.0887990  )
        66           N   tau(  66) = (   0.4959131   0.3494772   0.5866447  )
        67           N   tau(  67) = (   0.3582470   0.3940152   1.2620884  )
        68           N   tau(  68) = (   0.2287546   1.1375076   0.7642428  )
        69           N   tau(  69) = (  -0.0352499   0.9678062   1.1620550  )
        70           N   tau(  70) = (   0.6222515   0.2243138   0.8642762  )
        71           N   tau(  71) = (   0.7599176   0.5191786   0.1888325  )
        72           N   tau(  72) = (   0.1024163   1.2626710   0.4866112  )
        73           N   tau(  73) = (  -0.0950216   0.6557583   1.1908721  )
        74           N   tau(  74) = (   0.6820232   1.3992507   0.8354591  )
        75           N   tau(  75) = (   0.8196894   0.8312266   0.1600154  )
        76           N   tau(  76) = (   0.0426445   0.0877341   0.5154283  )
        77           N   tau(  77) = (   0.2246281   0.4702909   0.0860087  )
        78           N   tau(  78) = (   0.6377058   1.2137833   0.5894351  )
        79           N   tau(  79) = (   0.5000396   1.0166939   1.2648788  )
        80           N   tau(  80) = (   0.0869620   0.2732015   0.7614524  )
        81           O   tau(  81) = (  -0.1734684   0.2048064   1.3200234  )
        82           O   tau(  82) = (   0.7604700   0.9482988   0.7063078  )
        83           O   tau(  83) = (   0.8981361   1.2821784   0.0308641  )
        84           O   tau(  84) = (  -0.0358022   0.5386860   0.6445796  )

     number of k points=     8
                       cart. coord. in units 2pi/alat
        k(    1) = (   0.0000000   0.0000000   0.0000000), wk =   0.1666667
        k(    2) = (   0.0000000   0.0000000  -0.3701271), wk =   0.1666667
        k(    3) = (   0.0000000  -0.3362509   0.0000000), wk =   0.1666667
        k(    4) = (   0.0000000  -0.3362509  -0.3701271), wk =   0.1666667
        k(    5) = (   0.3333333   0.0000000   0.0679386), wk =   0.3333333
        k(    6) = (   0.3333333   0.0000000  -0.3021884), wk =   0.3333333
        k(    7) = (   0.3333333  -0.3362509   0.0679386), wk =   0.3333333
        k(    8) = (   0.3333333  -0.3362509  -0.3021884), wk =   0.3333333

     Dense  grid:   735011 G-vectors     FFT dimensions: (  90, 135, 125)

     Estimated max dynamical RAM per process >     658.11MB

     Estimated total allocated dynamical RAM >    5264.85MB

     Check: negative/imaginary core charge=   -0.000002    0.000000

     Initial potential from superposition of free atoms

     starting charge  279.99825, renormalised to  280.00000
     Starting wfc are  252 randomized atomic wfcs
     Checking if some PAW data can be deallocated... 

     total cpu time spent up to now is       40.6 secs

     per-process dynamical memory:   461.4 Mb

     Self-consistent Calculation

     iteration #  1     ecut=   100.00 Ry     beta=0.50
     Davidson diagonalization with overlap
     ethr =  1.00E-02,  avg # of iterations =  3.4

     total cpu time spent up to now is      151.6 secs

     total energy              =   -1353.14912407 Ry
     Harris-Foulkes estimate   =   -1357.21988261 Ry
     estimated scf accuracy    <       7.98812820 Ry

     iteration #  2     ecut=   100.00 Ry     beta=0.50
     Davidson diagonalization with overlap
     ethr =  2.85E-03,  avg # of iterations =  2.6

     total cpu time spent up to now is      211.7 secs

     total energy              =   -1353.73904061 Ry
     Harris-Foulkes estimate   =   -1354.41102766 Ry
     estimated scf accuracy    <       1.39450722 Ry

     iteration #  3     ecut=   100.00 Ry     beta=0.50
     Davidson diagonalization with overlap
     ethr =  4.98E-04,  avg # of iterations =  8.0

     total cpu time spent up to now is      327.7 secs

     total energy              =   -1354.32786804 Ry
     Harris-Foulkes estimate   =   -1354.59163746 Ry
     estimated scf accuracy    <       0.64133997 Ry

     iteration #  4     ecut=   100.00 Ry     beta=0.50
     Davidson diagonalization with overlap
     ethr =  2.29E-04,  avg # of iterations =  4.0

     total cpu time spent up to now is      387.0 secs

     total energy              =   -1354.36702971 Ry
     Harris-Foulkes estimate   =   -1354.41238877 Ry
     estimated scf accuracy    <       0.09665574 Ry

     iteration #  5     ecut=   100.00 Ry     beta=0.50
     Davidson diagonalization with overlap
     ethr =  3.45E-05,  avg # of iterations =  7.4

     total cpu time spent up to now is      504.3 secs

     total energy              =   -1354.42523345 Ry
     Harris-Foulkes estimate   =   -1354.44664472 Ry
     estimated scf accuracy    <       0.06968296 Ry

     iteration #  6     ecut=   100.00 Ry     beta=0.50
     Davidson diagonalization with overlap
     ethr =  2.49E-05,  avg # of iterations =  1.0

     total cpu time spent up to now is      556.8 secs

     total energy              =   -1354.41977210 Ry
     Harris-Foulkes estimate   =   -1354.42995554 Ry
     estimated scf accuracy    <       0.02369444 Ry

     iteration #  7     ecut=   100.00 Ry     beta=0.50
     Davidson diagonalization with overlap
     ethr =  8.46E-06,  avg # of iterations =  6.4

     total cpu time spent up to now is      655.1 secs

     total energy              =   -1354.42814434 Ry
     Harris-Foulkes estimate   =   -1354.42857101 Ry
     estimated scf accuracy    <       0.00163228 Ry

     iteration #  8     ecut=   100.00 Ry     beta=0.50
     Davidson diagonalization with overlap
     ethr =  5.83E-07,  avg # of iterations =  3.0

     total cpu time spent up to now is      719.6 secs

     total energy              =   -1354.42826285 Ry
     Harris-Foulkes estimate   =   -1354.42848266 Ry
     estimated scf accuracy    <       0.00059024 Ry

     iteration #  9     ecut=   100.00 Ry     beta=0.50
     Davidson diagonalization with overlap
     ethr =  2.11E-07,  avg # of iterations =  2.9

     total cpu time spent up to now is      777.5 secs

     total energy              =   -1354.42828409 Ry
     Harris-Foulkes estimate   =   -1354.42834133 Ry
     estimated scf accuracy    <       0.00011941 Ry

     iteration # 10     ecut=   100.00 Ry     beta=0.50
     Davidson diagonalization with overlap
     ethr =  4.26E-08,  avg # of iterations =  4.0

     total cpu time spent up to now is      890.3 secs

     total energy              =   -1354.42837678 Ry
     Harris-Foulkes estimate   =   -1354.42839022 Ry
     estimated scf accuracy    <       0.00003739 Ry

     iteration # 11     ecut=   100.00 Ry     beta=0.50
     Davidson diagonalization with overlap
     ethr =  1.34E-08,  avg # of iterations =  1.0

     total cpu time spent up to now is      942.8 secs

     total energy              =   -1354.42837373 Ry
     Harris-Foulkes estimate   =   -1354.42837887 Ry
     estimated scf accuracy    <       0.00001242 Ry

     iteration # 12     ecut=   100.00 Ry     beta=0.50
     Davidson diagonalization with overlap
     ethr =  4.43E-09,  avg # of iterations =  4.0

     total cpu time spent up to now is     1038.3 secs

     total energy              =   -1354.42837926 Ry
     Harris-Foulkes estimate   =   -1354.42838050 Ry
     estimated scf accuracy    <       0.00000286 Ry

     iteration # 13     ecut=   100.00 Ry     beta=0.50
     Davidson diagonalization with overlap
     ethr =  1.02E-09,  avg # of iterations =  1.0

     total cpu time spent up to now is     1090.8 secs

     total energy              =   -1354.42837917 Ry
     Harris-Foulkes estimate   =   -1354.42837951 Ry
     estimated scf accuracy    <       0.00000059 Ry

     iteration # 14     ecut=   100.00 Ry     beta=0.50
     Davidson diagonalization with overlap
     ethr =  2.10E-10,  avg # of iterations =  4.0

     total cpu time spent up to now is     1208.3 secs

     total energy              =   -1354.42837967 Ry
     Harris-Foulkes estimate   =   -1354.42837993 Ry
     estimated scf accuracy    <       0.00000073 Ry

     iteration # 15     ecut=   100.00 Ry     beta=0.50
     Davidson diagonalization with overlap
     ethr =  2.10E-10,  avg # of iterations =  1.0

     total cpu time spent up to now is     1260.7 secs

     total energy              =   -1354.42837959 Ry
     Harris-Foulkes estimate   =   -1354.42837970 Ry
     estimated scf accuracy    <       0.00000021 Ry

     iteration # 16     ecut=   100.00 Ry     beta=0.50
     Davidson diagonalization with overlap
     ethr =  7.65E-11,  avg # of iterations =  3.9

     total cpu time spent up to now is     1363.3 secs

     total energy              =   -1354.42837973 Ry
     Harris-Foulkes estimate   =   -1354.42837975 Ry
     estimated scf accuracy    <       0.00000010 Ry

     iteration # 17     ecut=   100.00 Ry     beta=0.50
     Davidson diagonalization with overlap
     ethr =  3.57E-11,  avg # of iterations =  1.0

     total cpu time spent up to now is     1416.0 secs

     total energy              =   -1354.42837971 Ry
     Harris-Foulkes estimate   =   -1354.42837973 Ry
     estimated scf accuracy    <       0.00000005 Ry

     iteration # 18     ecut=   100.00 Ry     beta=0.50
     Davidson diagonalization with overlap
     ethr =  1.85E-11,  avg # of iterations =  4.0

     total cpu time spent up to now is     1498.3 secs

     End of self-consistent calculation

          k = 0.0000 0.0000 0.0000 ( 91857 PWs)   bands (ev):

   -19.4093 -19.3820 -19.2777 -19.2731 -18.9074 -18.8898 -18.8352 -18.8292
   -18.3481 -18.3429 -18.3339 -18.3237 -16.7122 -16.6904 -16.6700 -16.6627
   -15.4227 -15.3885 -15.3762 -15.3687 -15.0486 -15.0233 -15.0174 -15.0108
   -12.4845 -12.4402 -12.4260 -12.4072 -11.6030 -11.5944 -11.5880 -11.5789
   -10.6824 -10.6505 -10.6358 -10.5924  -9.6938  -9.6813  -9.5793  -9.5783
    -9.0139  -8.9957  -8.9372  -8.8956  -7.7882  -7.7838  -7.7804  -7.7425
    -7.4448  -7.3853  -7.3813  -7.3759  -6.4056  -6.3938  -6.2311  -6.1940
    -6.0961  -6.0760  -6.0747  -6.0704  -6.0050  -5.8932  -5.4159  -5.4034
    -5.2868  -5.2163  -5.1379  -5.0671  -4.7493  -4.6626  -4.5483  -4.5353
    -4.4951  -4.3710  -4.3581  -4.2827  -4.0487  -3.9960  -3.9956  -3.9654
    -3.6043  -3.5622  -3.5570  -3.5429  -3.3866  -3.3241  -3.2910  -3.2700
    -3.1966  -3.1010  -3.0030  -2.9737  -2.9183  -2.8797  -2.8583  -2.7607
    -2.7286  -2.7138  -2.5964  -2.4326  -2.3631  -2.3059  -2.3043  -2.2722
    -2.2024  -2.0757  -2.0724  -1.9050  -1.5695  -1.5670  -1.5413  -1.4710
    -0.5250  -0.4979  -0.4657  -0.4004  -0.0993  -0.0736  -0.0661  -0.0469
     0.0073   0.1476   0.1746   0.1972   0.2614   0.3499   0.3844   0.4463
     0.6612   0.6793   0.7271   0.7549   1.1726   1.2487   1.3279   1.3644
     1.3822   1.5108   1.6462   1.6932   4.6772   4.7568   4.9609   5.0871
     5.1632   5.2284   5.2295   5.3885   6.5562   6.5938   6.6346   6.7903
     6.9554   7.0638   7.1684   7.2206   7.5137   7.7623   7.9629   8.1600
     8.4561   8.6353   8.8168   8.8219   9.0915   9.2251   9.2770   9.3625

          k = 0.0000 0.0000-0.3701 ( 91850 PWs)   bands (ev):

   -19.3959 -19.3959 -19.2753 -19.2753 -18.8986 -18.8986 -18.8321 -18.8321
   -18.3475 -18.3475 -18.3268 -18.3268 -16.7015 -16.7015 -16.6660 -16.6660
   -15.4073 -15.4073 -15.3707 -15.3707 -15.0300 -15.0300 -15.0201 -15.0201
   -12.4645 -12.4645 -12.4160 -12.4160 -11.6172 -11.6172 -11.5610 -11.5610
   -10.6683 -10.6683 -10.6165 -10.6165  -9.6647  -9.6647  -9.6038  -9.6038
    -8.9999  -8.9999  -8.9151  -8.9151  -7.8190  -7.8190  -7.7311  -7.7311
    -7.4923  -7.4923  -7.2884  -7.2884  -6.3996  -6.3996  -6.2094  -6.2094
    -6.1165  -6.1165  -6.0543  -6.0543  -5.9554  -5.9554  -5.4271  -5.4271
    -5.2655  -5.2655  -5.0959  -5.0959  -4.6924  -4.6924  -4.5271  -4.5271
    -4.4831  -4.4831  -4.2637  -4.2637  -4.0298  -4.0298  -3.9386  -3.9386
    -3.6299  -3.6298  -3.5003  -3.5003  -3.3350  -3.3350  -3.3161  -3.3161
    -3.1733  -3.1733  -2.9549  -2.9549  -2.9409  -2.9409  -2.8376  -2.8376
    -2.7335  -2.7335  -2.5389  -2.5389  -2.2776  -2.2776  -2.2412  -2.2412
    -2.1776  -2.1776  -1.9975  -1.9974  -1.5465  -1.5465  -1.5111  -1.5111
    -0.5311  -0.5311  -0.4935  -0.4935  -0.1015  -0.1015   0.0441   0.0441
     0.0803   0.0803   0.2076   0.2076   0.3037   0.3037   0.4418   0.4418
     0.6464   0.6464   0.7188   0.7188   1.2486   1.2486   1.3100   1.3100
     1.4125   1.4125   1.6779   1.6779   4.6974   4.6975   5.0558   5.0558
     5.1840   5.1840   5.3085   5.3085   6.5511   6.5511   6.7683   6.7683
     6.9807   6.9807   7.2321   7.2321   7.6241   7.6241   8.1693   8.1693
     8.4282   8.4282   9.0004   9.0004   9.1937   9.1937   9.3018   9.3018

          k = 0.0000-0.3363 0.0000 ( 91902 PWs)   bands (ev):

   -19.3949 -19.3949 -19.2760 -19.2760 -18.9015 -18.9015 -18.8307 -18.8307
   -18.3429 -18.3429 -18.3299 -18.3299 -16.7030 -16.7030 -16.6645 -16.6645
   -15.4079 -15.4079 -15.3722 -15.3722 -15.0289 -15.0289 -15.0203 -15.0203
   -12.4621 -12.4621 -12.4175 -12.4175 -11.6084 -11.6084 -11.5639 -11.5639
   -10.6944 -10.6944 -10.5937 -10.5937  -9.6424  -9.6424  -9.6290  -9.6290
    -8.9830  -8.9830  -8.9358  -8.9358  -7.8249  -7.8249  -7.7562  -7.7562
    -7.4144  -7.4144  -7.3716  -7.3716  -6.3266  -6.3266  -6.2154  -6.2154
    -6.0986  -6.0986  -6.0642  -6.0642  -5.9399  -5.9399  -5.3011  -5.3011
    -5.2760  -5.2760  -5.1899  -5.1899  -4.7172  -4.7172  -4.5748  -4.5748
    -4.4496  -4.4496  -4.2850  -4.2850  -4.1774  -4.1774  -4.0055  -4.0055
    -3.5499  -3.5499  -3.4865  -3.4865  -3.3454  -3.3454  -3.2249  -3.2249
    -3.1593  -3.1593  -3.0226  -3.0226  -2.8523  -2.8523  -2.8129  -2.8128
    -2.7306  -2.7306  -2.4920  -2.4920  -2.3490  -2.3490  -2.2348  -2.2348
    -2.2150  -2.2150  -1.9623  -1.9623  -1.5238  -1.5238  -1.5091  -1.5091
    -0.5271  -0.5271  -0.4320  -0.4320  -0.0961  -0.0961  -0.0416  -0.0416
     0.0493   0.0493   0.1482   0.1482   0.2971   0.2971   0.4055   0.4056
     0.7149   0.7149   0.7505   0.7505   1.2027   1.2027   1.3110   1.3110
     1.4742   1.4742   1.6727   1.6727   4.7294   4.7294   5.0436   5.0436
     5.1695   5.1695   5.3094   5.3094   6.5832   6.5832   6.7766   6.7766
     6.9607   6.9607   7.1584   7.1584   7.5338   7.5338   8.0995   8.0995
     8.6608   8.6608   8.8434   8.8434   9.1885   9.1885   9.2868   9.2868

          k = 0.0000-0.3363-0.3701 ( 91844 PWs)   bands (ev):

   -19.3946 -19.3946 -19.2761 -19.2761 -18.9020 -18.9020 -18.8307 -18.8307
   -18.3421 -18.3421 -18.3304 -18.3304 -16.7022 -16.7021 -16.6652 -16.6652
   -15.4036 -15.4036 -15.3766 -15.3766 -15.0287 -15.0287 -15.0208 -15.0208
   -12.4615 -12.4615 -12.4174 -12.4174 -11.5930 -11.5930 -11.5800 -11.5800
   -10.6952 -10.6952 -10.5964 -10.5964  -9.6351  -9.6350  -9.6317  -9.6317
    -8.9702  -8.9702  -8.9455  -8.9455  -7.8309  -7.8309  -7.7630  -7.7630
    -7.4025  -7.4025  -7.3668  -7.3667  -6.3273  -6.3273  -6.2199  -6.2199
    -6.0988  -6.0988  -6.0792  -6.0792  -5.9506  -5.9506  -5.3373  -5.3373
    -5.2297  -5.2297  -5.2078  -5.2078  -4.6963  -4.6963  -4.5271  -4.5271
    -4.4595  -4.4595  -4.2856  -4.2856  -4.1704  -4.1704  -3.9897  -3.9897
    -3.5229  -3.5229  -3.4989  -3.4989  -3.3251  -3.3251  -3.2772  -3.2772
    -3.2100  -3.2100  -3.0576  -3.0576  -2.8723  -2.8723  -2.7830  -2.7829
    -2.6651  -2.6651  -2.5477  -2.5477  -2.3254  -2.3253  -2.2855  -2.2855
    -2.1632  -2.1632  -1.9680  -1.9680  -1.5157  -1.5157  -1.5039  -1.5039
    -0.5365  -0.5365  -0.5142  -0.5142  -0.0236  -0.0236  -0.0059  -0.0059
     0.0641   0.0641   0.2046   0.2046   0.3009   0.3009   0.4236   0.4236
     0.6575   0.6575   0.6939   0.6939   1.2695   1.2695   1.2945   1.2945
     1.4218   1.4218   1.6656   1.6656   4.7483   4.7483   5.0307   5.0307
     5.1799   5.1799   5.3029   5.3029   6.6433   6.6433   6.6979   6.6979
     7.0056   7.0056   7.1532   7.1532   7.6762   7.6762   7.9335   7.9335
     8.6978   8.6978   8.9192   8.9192   9.2372   9.2372   9.2723   9.2723

          k = 0.3333 0.0000 0.0679 ( 91838 PWs)   bands (ev):

   -19.3767 -19.3574 -19.3087 -19.3029 -18.8898 -18.8751 -18.8525 -18.8443
   -18.3678 -18.3430 -18.3223 -18.3139 -16.7051 -16.6905 -16.6703 -16.6699
   -15.4280 -15.3915 -15.3709 -15.3648 -15.0417 -15.0259 -15.0205 -15.0143
   -12.4819 -12.4718 -12.4082 -12.3909 -11.6447 -11.5986 -11.5804 -11.5361
   -10.6785 -10.6540 -10.6331 -10.5983  -9.6777  -9.6679  -9.5958  -9.5958
    -9.0059  -8.9963  -8.9225  -8.9163  -7.8431  -7.7812  -7.7389  -7.7352
    -7.5168  -7.4536  -7.3126  -7.3003  -6.3914  -6.3718  -6.2742  -6.1951
    -6.1262  -6.1071  -6.0631  -6.0444  -5.7727  -5.6640  -5.4502  -5.3939
    -5.2538  -5.2294  -5.1422  -5.0455  -4.9103  -4.7910  -4.6456  -4.6164
    -4.5197  -4.4234  -4.4125  -4.3300  -4.0653  -4.0222  -3.9334  -3.9095
    -3.6267  -3.6167  -3.5718  -3.4999  -3.3775  -3.3658  -3.2169  -3.1972
    -3.1722  -3.1155  -3.0101  -3.0081  -2.9124  -2.9011  -2.8477  -2.7698
    -2.7457  -2.6835  -2.6367  -2.5059  -2.3756  -2.3586  -2.3163  -2.2559
    -2.2266  -2.0780  -1.9372  -1.7351  -1.6560  -1.6097  -1.5494  -1.5004
    -0.5827  -0.5062  -0.4836  -0.4433  -0.1190  -0.1073  -0.0361  -0.0253
     0.0729   0.1399   0.2245   0.2347   0.3091   0.3301   0.4512   0.4665
     0.6531   0.6677   0.7160   0.7191   1.1807   1.2281   1.3270   1.3932
     1.4415   1.5204   1.5927   1.6845   4.7475   4.7836   4.9882   5.0063
     5.1220   5.2746   5.2827   5.3641   6.4574   6.5836   6.6128   6.7163
     7.0336   7.0836   7.1366   7.1979   8.0249   8.1419   8.3929   8.6213
     8.6811   8.8039   8.8060   8.9135   9.0799   9.1706   9.2755   9.3128

          k = 0.3333 0.0000-0.3022 ( 91823 PWs)   bands (ev):

   -19.3735 -19.3601 -19.3134 -19.2986 -18.8848 -18.8802 -18.8504 -18.8464
   -18.3613 -18.3511 -18.3221 -18.3124 -16.7018 -16.6962 -16.6718 -16.6663
   -15.4122 -15.4094 -15.3679 -15.3656 -15.0369 -15.0325 -15.0189 -15.0140
   -12.4833 -12.4703 -12.4060 -12.3919 -11.6346 -11.6066 -11.5732 -11.5461
   -10.6788 -10.6736 -10.6124 -10.6061  -9.6861  -9.6837  -9.5833  -9.5822
    -9.0089  -8.9922  -8.9284  -8.9075  -7.8143  -7.7799  -7.7638  -7.7346
    -7.4664  -7.4370  -7.3567  -7.3278  -6.3852  -6.3497  -6.2756  -6.2207
    -6.1065  -6.1002  -6.0692  -6.0647  -5.7179  -5.7135  -5.4807  -5.4614
    -5.2451  -5.2176  -5.1030  -5.0703  -4.8526  -4.8500  -4.5998  -4.5457
    -4.4655  -4.4536  -4.4144  -4.3550  -4.0797  -4.0410  -3.9539  -3.9369
    -3.6407  -3.6145  -3.5168  -3.4788  -3.3695  -3.3642  -3.2479  -3.2215
    -3.1725  -3.1493  -3.0583  -2.9461  -2.9281  -2.9037  -2.8165  -2.7678
    -2.7533  -2.7170  -2.6399  -2.5313  -2.3711  -2.2968  -2.2504  -2.2449
    -2.1966  -2.1875  -1.8498  -1.8169  -1.6260  -1.6196  -1.5237  -1.5129
    -0.5432  -0.5170  -0.4547  -0.4484  -0.1406  -0.0911  -0.0405  -0.0336
     0.0284   0.0525   0.2178   0.2353   0.3084   0.3433   0.4550   0.4587
     0.6745   0.6976   0.7189   0.7300   1.2455   1.2473   1.3166   1.3179
     1.4540   1.5129   1.6037   1.6653   4.7010   4.8356   4.9145   5.0521
     5.2222   5.2341   5.3014   5.3206   6.4714   6.5813   6.6554   6.7252
     6.9724   7.0835   7.1443   7.2145   8.0720   8.2640   8.3818   8.4073
     8.6822   8.8172   8.8477   8.8696   8.9685   8.9922   9.1815   9.2260

          k = 0.3333-0.3363 0.0679 ( 91900 PWs)   bands (ev):

   -19.3663 -19.3663 -19.3060 -19.3060 -18.8845 -18.8845 -18.8488 -18.8488
   -18.3501 -18.3501 -18.3211 -18.3211 -16.6995 -16.6995 -16.6683 -16.6683
   -15.4115 -15.4115 -15.3682 -15.3682 -15.0284 -15.0284 -15.0222 -15.0222
   -12.4758 -12.4758 -12.4000 -12.4000 -11.6330 -11.6330 -11.5390 -11.5390
   -10.6916 -10.6916 -10.5982 -10.5982  -9.6408  -9.6408  -9.6296  -9.6296
    -8.9798  -8.9798  -8.9389  -8.9389  -7.8186  -7.8186  -7.7735  -7.7735
    -7.4164  -7.4164  -7.3654  -7.3654  -6.3471  -6.3471  -6.2062  -6.2062
    -6.0942  -6.0942  -6.0699  -6.0699  -5.7133  -5.7133  -5.3430  -5.3430
    -5.2559  -5.2559  -5.1541  -5.1541  -4.8577  -4.8577  -4.6214  -4.6214
    -4.4547  -4.4547  -4.3926  -4.3926  -4.1417  -4.1417  -4.0421  -4.0421
    -3.5831  -3.5831  -3.4952  -3.4952  -3.2924  -3.2924  -3.2358  -3.2358
    -3.1984  -3.1984  -3.0162  -3.0162  -2.8121  -2.8121  -2.7667  -2.7667
    -2.7165  -2.7165  -2.5123  -2.5122  -2.3910  -2.3910  -2.3195  -2.3195
    -2.2119  -2.2119  -1.8203  -1.8203  -1.6171  -1.6171  -1.4897  -1.4897
    -0.5455  -0.5455  -0.4752  -0.4751  -0.0687  -0.0687  -0.0017  -0.0017
     0.0454   0.0454   0.1614   0.1614   0.3200   0.3200   0.4395   0.4395
     0.6869   0.6869   0.7429   0.7429   1.2013   1.2013   1.3327   1.3327
     1.4931   1.4931   1.6472   1.6472   4.7691   4.7691   5.0006   5.0006
     5.2203   5.2203   5.3034   5.3034   6.5209   6.5209   6.7773   6.7773
     6.9583   6.9583   7.1223   7.1223   8.0324   8.0325   8.5206   8.5206
     8.7136   8.7136   8.9222   8.9222   9.1658   9.1658   9.2638   9.2638

          k = 0.3333-0.3363-0.3022 ( 91818 PWs)   bands (ev):

   -19.3661 -19.3661 -19.3060 -19.3060 -18.8847 -18.8847 -18.8488 -18.8488
   -18.3500 -18.3500 -18.3212 -18.3212 -16.6987 -16.6987 -16.6692 -16.6692
   -15.4080 -15.4080 -15.3717 -15.3717 -15.0272 -15.0272 -15.0231 -15.0231
   -12.4754 -12.4753 -12.4002 -12.4002 -11.6261 -11.6261 -11.5460 -11.5460
   -10.6931 -10.6931 -10.6006 -10.6006  -9.6353  -9.6353  -9.6325  -9.6325
    -8.9677  -8.9677  -8.9514  -8.9514  -7.8105  -7.8105  -7.7752  -7.7752
    -7.4105  -7.4105  -7.3736  -7.3736  -6.3391  -6.3391  -6.1955  -6.1955
    -6.0975  -6.0975  -6.0779  -6.0779  -5.7201  -5.7201  -5.3493  -5.3493
    -5.2768  -5.2768  -5.1614  -5.1614  -4.8387  -4.8387  -4.5837  -4.5837
    -4.4635  -4.4635  -4.3994  -4.3994  -4.1583  -4.1583  -4.0732  -4.0732
    -3.5162  -3.5162  -3.4916  -3.4916  -3.3220  -3.3220  -3.2155  -3.2155
    -3.1694  -3.1694  -3.0464  -3.0464  -2.8510  -2.8510  -2.7873  -2.7872
    -2.6786  -2.6786  -2.5178  -2.5177  -2.4014  -2.4013  -2.3514  -2.3514
    -2.1623  -2.1623  -1.8267  -1.8267  -1.6034  -1.6034  -1.4877  -1.4877
    -0.5177  -0.5177  -0.4934  -0.4934  -0.1150  -0.1150  -0.0361  -0.0361
     0.0489   0.0489   0.2305   0.2305   0.3126   0.3126   0.4602   0.4602
     0.6849   0.6849   0.7071   0.7072   1.2707   1.2707   1.2910   1.2910
     1.4768   1.4768   1.6354   1.6354   4.7853   4.7853   5.0133   5.0133
     5.2038   5.2038   5.3006   5.3006   6.5992   6.5992   6.6901   6.6901
     7.0094   7.0094   7.0866   7.0866   8.1698   8.1699   8.2964   8.2964
     8.7615   8.7615   8.9402   8.9402   9.0864   9.0864   9.2350   9.2350

     highest occupied, lowest unoccupied level (ev):     1.6932    4.6772

!    total energy              =   -1354.42837973 Ry
     Harris-Foulkes estimate   =   -1354.42837973 Ry
     estimated scf accuracy    <          1.5E-09 Ry

     total all-electron energy =     -5264.243096 Ry

     The total energy is the sum of the following terms:

     one-electron contribution =    -737.32631570 Ry
     hartree contribution      =     479.81374524 Ry
     xc contribution           =    -290.87984434 Ry
     ewald contribution        =    -389.09949498 Ry
     Dispersion Correction     =      -0.42960757 Ry
     one-center paw contrib.   =    -416.50686238 Ry

     convergence has been achieved in  18 iterations

     Forces acting on atoms (cartesian axes, Ry/au):

     atom    1 type  1   force =    -0.00108063    0.00094259    0.00063055
     atom    2 type  1   force =     0.00108066    0.00095310   -0.00064446
     atom    3 type  1   force =     0.00108063   -0.00094259   -0.00063055
     atom    4 type  1   force =    -0.00108066   -0.00095310    0.00064446
     atom    5 type  1   force =    -0.00099307    0.00101083   -0.00176965
     atom    6 type  1   force =     0.00099423    0.00101497    0.00175779
     atom    7 type  1   force =     0.00099307   -0.00101083    0.00176965
     atom    8 type  1   force =    -0.00099423   -0.00101497   -0.00175779
     atom    9 type  1   force =    -0.00012652   -0.00169312   -0.00001164
     atom   10 type  1   force =     0.00012597   -0.00167742    0.00000689
     atom   11 type  1   force =     0.00012652    0.00169312    0.00001164
     atom   12 type  1   force =    -0.00012597    0.00167742   -0.00000689
     atom   13 type  1   force =     0.00133595   -0.00122133    0.00124136
     atom   14 type  1   force =    -0.00133585   -0.00120833   -0.00124825
     atom   15 type  1   force =    -0.00133595    0.00122133   -0.00124136
     atom   16 type  1   force =     0.00133585    0.00120833    0.00124825
     atom   17 type  1   force =    -0.00123458    0.00192999    0.00129637
     atom   18 type  1   force =     0.00123365    0.00191517   -0.00128479
     atom   19 type  1   force =     0.00123458   -0.00192999   -0.00129637
     atom   20 type  1   force =    -0.00123365   -0.00191517    0.00128479
     atom   21 type  1   force =     0.00101243    0.00049670   -0.00052157
     atom   22 type  1   force =    -0.00101282    0.00051942    0.00052898
     atom   23 type  1   force =    -0.00101243   -0.00049670    0.00052157
     atom   24 type  1   force =     0.00101282   -0.00051942   -0.00052898
     atom   25 type  1   force =     0.00150003   -0.00116671   -0.00174456
     atom   26 type  1   force =    -0.00149893   -0.00116652    0.00173701
     atom   27 type  1   force =    -0.00150003    0.00116671    0.00174456
     atom   28 type  1   force =     0.00149893    0.00116652   -0.00173701
     atom   29 type  1   force =     0.00084985    0.00029845   -0.00032524
     atom   30 type  1   force =    -0.00085036    0.00028021    0.00032013
     atom   31 type  1   force =    -0.00084985   -0.00029845    0.00032524
     atom   32 type  1   force =     0.00085036   -0.00028021   -0.00032013
     atom   33 type  3   force =     0.00044125   -0.00075527   -0.00128122
     atom   34 type  3   force =    -0.00044158   -0.00075534    0.00128171
     atom   35 type  3   force =    -0.00044125    0.00075527    0.00128122
     atom   36 type  3   force =     0.00044158    0.00075534   -0.00128171
     atom   37 type  3   force =    -0.00108303    0.00097603   -0.00006098
     atom   38 type  3   force =     0.00108356    0.00097614    0.00006112
     atom   39 type  3   force =     0.00108303   -0.00097603    0.00006098
     atom   40 type  3   force =    -0.00108356   -0.00097614   -0.00006112
     atom   41 type  3   force =    -0.00041592    0.00007121    0.00088477
     atom   42 type  3   force =     0.00041571    0.00007171   -0.00088524
     atom   43 type  3   force =     0.00041592   -0.00007121   -0.00088477
     atom   44 type  3   force =    -0.00041571   -0.00007171    0.00088524
     atom   45 type  3   force =    -0.00010506   -0.00008687   -0.00052982
     atom   46 type  3   force =     0.00010514   -0.00008697    0.00052992
     atom   47 type  3   force =     0.00010506    0.00008687    0.00052982
     atom   48 type  3   force =    -0.00010514    0.00008697   -0.00052992
     atom   49 type  3   force =     0.00007826   -0.00047083   -0.00021151
     atom   50 type  3   force =    -0.00007802   -0.00047087    0.00021181
     atom   51 type  3   force =    -0.00007826    0.00047083    0.00021151
     atom   52 type  3   force =     0.00007802    0.00047087   -0.00021181
     atom   53 type  3   force =    -0.00056815    0.00003715   -0.00008824
     atom   54 type  3   force =     0.00056875    0.00003697    0.00008831
     atom   55 type  3   force =     0.00056815   -0.00003715    0.00008824
     atom   56 type  3   force =    -0.00056875   -0.00003697   -0.00008831
     atom   57 type  3   force =    -0.00073568    0.00037860   -0.00050394
     atom   58 type  3   force =     0.00073524    0.00037814    0.00050443
     atom   59 type  3   force =     0.00073568   -0.00037860    0.00050394
     atom   60 type  3   force =    -0.00073524   -0.00037814   -0.00050443
     atom   61 type  2   force =     0.00009418   -0.00012312    0.00121683
     atom   62 type  2   force =    -0.00009406   -0.00012434   -0.00121741
     atom   63 type  2   force =    -0.00009418    0.00012312   -0.00121683
     atom   64 type  2   force =     0.00009406    0.00012434    0.00121741
     atom   65 type  2   force =    -0.00150396    0.00117193    0.00164043
     atom   66 type  2   force =     0.00150399    0.00117285   -0.00164082
     atom   67 type  2   force =     0.00150396   -0.00117193   -0.00164043
     atom   68 type  2   force =    -0.00150399   -0.00117285    0.00164082
     atom   69 type  2   force =     0.00106400   -0.00020870   -0.00067597
     atom   70 type  2   force =    -0.00106424   -0.00020707    0.00067517
     atom   71 type  2   force =    -0.00106400    0.00020870    0.00067597
     atom   72 type  2   force =     0.00106424    0.00020707   -0.00067517
     atom   73 type  2   force =    -0.00086609    0.00187056   -0.00016888
     atom   74 type  2   force =     0.00086571    0.00187200    0.00016896
     atom   75 type  2   force =     0.00086609   -0.00187056    0.00016888
     atom   76 type  2   force =    -0.00086571   -0.00187200   -0.00016896
     atom   77 type  2   force =    -0.00026190    0.00143181    0.00118676
     atom   78 type  2   force =     0.00026143    0.00143287   -0.00118731
     atom   79 type  2   force =     0.00026190   -0.00143181   -0.00118676
     atom   80 type  2   force =    -0.00026143   -0.00143287    0.00118731
     atom   81 type  4   force =    -0.00003779   -0.00252585    0.00076474
     atom   82 type  4   force =     0.00003850   -0.00252604   -0.00076562
     atom   83 type  4   force =     0.00003779    0.00252585   -0.00076474
     atom   84 type  4   force =    -0.00003850    0.00252604    0.00076562

     Total force =     0.015855     Total SCF correction =     0.000091


     Computing stress (Cartesian axis) and pressure

          total   stress  (Ry/bohr**3)                   (kbar)     P=   -5.34
  -0.00004362  -0.00000000   0.00001132         -6.42     -0.00      1.67
  -0.00000000  -0.00003480  -0.00000000         -0.00     -5.12     -0.00
   0.00001132  -0.00000000  -0.00003054          1.67     -0.00     -4.49


     Writing output data file scf.save
 
     init_run     :     38.59s CPU     39.93s WALL (       1 calls)
     electrons    :   1407.32s CPU   1457.85s WALL (       1 calls)
     forces       :     18.81s CPU     18.94s WALL (       1 calls)
     stress       :     73.56s CPU     73.75s WALL (       1 calls)

     Called by init_run:
     wfcinit      :     29.97s CPU     31.20s WALL (       1 calls)
     potinit      :      3.13s CPU      3.15s WALL (       1 calls)

     Called by electrons:
     c_bands      :   1267.15s CPU   1310.17s WALL (      18 calls)
     sum_band     :    127.15s CPU    133.40s WALL (      18 calls)
     v_of_rho     :      1.87s CPU      2.08s WALL (      19 calls)
     newd         :      4.45s CPU      5.40s WALL (      19 calls)
     PAW_pot      :      6.21s CPU      6.22s WALL (      19 calls)
     mix_rho      :      0.42s CPU      0.46s WALL (      18 calls)

     Called by c_bands:
     init_us_2    :      6.60s CPU      6.63s WALL (     312 calls)
     cegterg      :   1240.18s CPU   1283.12s WALL (     144 calls)

     Called by sum_band:
     sum_band:bec :      0.09s CPU      0.09s WALL (     144 calls)
     addusdens    :      4.44s CPU      5.43s WALL (      18 calls)

     Called by *egterg:
     h_psi        :    687.05s CPU    719.90s WALL (     652 calls)
     s_psi        :    143.42s CPU    143.43s WALL (     652 calls)
     g_psi        :      3.36s CPU      3.36s WALL (     500 calls)
     cdiaghg      :     72.54s CPU     72.54s WALL (     644 calls)

     Called by h_psi:
     h_psi:pot    :    682.44s CPU    715.21s WALL (     652 calls)
     h_psi:calbec :    142.60s CPU    142.89s WALL (     652 calls)
     vloc_psi     :    396.27s CPU    428.71s WALL (     652 calls)
     add_vuspsi   :    143.57s CPU    143.61s WALL (     652 calls)

     General routines
     calbec       :    204.38s CPU    204.82s WALL (     836 calls)
     fft          :      1.40s CPU      1.76s WALL (     271 calls)
     fftw         :    430.86s CPU    465.86s WALL (  166564 calls)
 
     Parallel routines
     fft_scatter  :     92.44s CPU    119.97s WALL (  166835 calls)
 
     PWSCF        : 25m47.10s CPU    27m30.75s WALL

 
   This run was terminated on:  12:51:34  13Nov2017            

=------------------------------------------------------------------------------=
   JOB DONE.
=------------------------------------------------------------------------------=
