
     Program PWSCF v.6.1 (svn rev. 13369) starts on  4Nov2017 at  9:51:40 

     This program is part of the open-source Quantum ESPRESSO suite
     for quantum simulation of materials; please cite
         "P. Giannozzi et al., J. Phys.:Condens. Matter 21 395502 (2009);
          URL http://www.quantum-espresso.org", 
     in publications or presentations arising from this work. More details at
     http://www.quantum-espresso.org/quote

     Parallel version (MPI), running on     8 processors
     R & G space division:  proc/nbgrp/npool/nimage =       8
     Waiting for input...
     Reading input from standard input

     Current dimensions of program PWSCF are:
     Max number of different atomic species (ntypx) = 10
     Max number of k-points (npk) =  40000
     Max angular momentum in pseudopotentials (lmaxx) =  3
               file C.pbe-n-kjpaw_psl.0.1.UPF: wavefunction(s)  2P renormalized
               file N.pbe-n-kjpaw_psl.0.1.UPF: wavefunction(s)  2P renormalized
               file H.pbe-kjpaw_psl.0.1.UPF: wavefunction(s)  1S renormalized
               file O.pbe-n-kjpaw_psl.0.1.UPF: wavefunction(s)  2P renormalized

     -------------------------------------
     Parameters for Dispersion Correction:
     -------------------------------------
       atom      VdW radius       C_6     

        C          2.744         60.710
        N          2.640         42.670
        H          1.892          4.857
        O          2.536         24.284

     Subspace diagonalization in iterative solution of the eigenvalue problem:
     a serial algorithm will be used

 
     Parallelization info
     --------------------
     sticks:   dense  smooth     PW     G-vecs:    dense   smooth      PW
     Min         899     899    238                54868    54868    7459
     Max         900     900    239                54869    54869    7462
     Sum        7197    7197   1907               438949   438949   59685
 


     bravais-lattice index     =            0
     lattice parameter (alat)  =      17.3647  a.u.
     unit-cell volume          =    3248.9396 (a.u.)^3
     number of atoms/cell      =           52
     number of atomic types    =            4
     number of electrons       =       160.00
     number of Kohn-Sham states=           96
     kinetic-energy cutoff     =     100.0000  Ry
     charge density cutoff     =     400.0000  Ry
     convergence threshold     =      1.0E-08
     mixing beta               =       0.5000
     number of iterations used =            8  plain     mixing
     Exchange-correlation      =  SLA  PW   PBX  PBC ( 1  4  3  4 0 0)

     celldm(1)=  17.364693  celldm(2)=   0.000000  celldm(3)=   0.000000
     celldm(4)=   0.000000  celldm(5)=   0.000000  celldm(6)=   0.000000

     crystal axes: (cart. coord. in units of alat)
               a(1) = (   1.000000   0.000000   0.000000 )  
               a(2) = (   0.000000   0.748830   0.000000 )  
               a(3) = (  -0.017936   0.000000   0.828623 )  

     reciprocal axes: (cart. coord. in units 2 pi/alat)
               b(1) = (  1.000000  0.000000  0.021645 )  
               b(2) = (  0.000000  1.335416  0.000000 )  
               b(3) = (  0.000000  0.000000  1.206821 )  


     PseudoPot. # 1 for  C read from file:
     /scratch/ahofstet/pseudo/C.pbe-n-kjpaw_psl.0.1.UPF
     MD5 check sum: 430fe95172b1e11ef3f8ed03bac87931
     Pseudo is Projector augmented-wave + core cor, Zval =  4.0
     Generated using "atomic" code by A. Dal Corso  v.5.0.99 svn rev. 10869
     Shape of augmentation charge: BESSEL
     Using radial grid of 1073 points,  4 beta functions with: 
                l(1) =   0
                l(2) =   0
                l(3) =   1
                l(4) =   1
     Q(r) pseudized with 0 coefficients 


     PseudoPot. # 2 for  N read from file:
     /scratch/ahofstet/pseudo/N.pbe-n-kjpaw_psl.0.1.UPF
     MD5 check sum: f73187c8b701007e77325f868c9291d7
     Pseudo is Projector augmented-wave + core cor, Zval =  5.0
     Generated using "atomic" code by A. Dal Corso  v.5.0.99 svn rev. 10869
     Shape of augmentation charge: PSQ
     Using radial grid of 1085 points,  4 beta functions with: 
                l(1) =   0
                l(2) =   0
                l(3) =   1
                l(4) =   1
     Q(r) pseudized with 0 coefficients 


     PseudoPot. # 3 for  H read from file:
     /scratch/ahofstet/pseudo/H.pbe-kjpaw_psl.0.1.UPF
     MD5 check sum: 94e484f906d9e9773b2f6e52662335b2
     Pseudo is Projector augmented-wave, Zval =  1.0
     Generated using "atomic" code by A. Dal Corso  v.5.0.99 svn rev. 10869
     Shape of augmentation charge: PSQ
     Using radial grid of  929 points,  2 beta functions with: 
                l(1) =   0
                l(2) =   0
     Q(r) pseudized with 0 coefficients 


     PseudoPot. # 4 for  O read from file:
     /scratch/ahofstet/pseudo/O.pbe-n-kjpaw_psl.0.1.UPF
     MD5 check sum: 3f94a2996a3169367d6eb21d9b593f20
     Pseudo is Projector augmented-wave + core cor, Zval =  6.0
     Generated using "atomic" code by A. Dal Corso  v.5.0.99 svn rev. 10869
     Shape of augmentation charge: BESSEL
     Using radial grid of 1095 points,  4 beta functions with: 
                l(1) =   0
                l(2) =   0
                l(3) =   1
                l(4) =   1
     Q(r) pseudized with 0 coefficients 


     atomic species   valence    mass     pseudopotential
        C              4.00    12.01070      C( 1.00)
        N              5.00    14.00670      N( 1.00)
        H              1.00     1.00794      H( 1.00)
        O              6.00    15.99940      O( 1.00)

      4 Sym. Ops., with inversion, found ( 2 have fractional translation)



   Cartesian axes

     site n.     atom                  positions (alat units)
         1           O   tau(   1) = (   0.5087961   0.3909571   0.2275889  )
         2           O   tau(   2) = (   0.4998281   0.7322881   0.6419004  )
         3           O   tau(   3) = (   0.4732680   0.3578730   0.6010341  )
         4           O   tau(   4) = (   0.4822360   0.0165420   0.1867226  )
         5           O   tau(   5) = (   0.9819700   0.1760652   0.0940472  )
         6           O   tau(   6) = (   0.9730020   0.1983499   0.5083587  )
         7           O   tau(   7) = (   0.0000941   0.5727650   0.7345758  )
         8           O   tau(   8) = (   0.0090620   0.5504802   0.3202643  )
         9           N   tau(   9) = (   0.2636118   0.4268373   0.1974628  )
        10           N   tau(  10) = (   0.2546439   0.6964078   0.6117743  )
        11           N   tau(  11) = (   0.7184522   0.3219928   0.6311602  )
        12           N   tau(  12) = (   0.7274202   0.0524223   0.2168487  )
        13           N   tau(  13) = (   0.2314312   0.1805838   0.1080940  )
        14           N   tau(  14) = (   0.2224633   0.1938313   0.5224055  )
        15           N   tau(  15) = (   0.7506328   0.5682464   0.7205290  )
        16           N   tau(  16) = (   0.7596008   0.5549988   0.3062175  )
        17           C   tau(  17) = (   0.3912544   0.4462642   0.2658539  )
        18           C   tau(  18) = (   0.3822865   0.6769810   0.6801654  )
        19           C   tau(  19) = (   0.5908096   0.3025660   0.5627691  )
        20           C   tau(  20) = (   0.5997776   0.0718491   0.1484576  )
        21           C   tau(  21) = (   0.2490895   0.3334400   0.0705437  )
        22           C   tau(  22) = (   0.2401216   0.0409750   0.4848552  )
        23           C   tau(  23) = (   0.7329745   0.4153901   0.7580793  )
        24           C   tau(  24) = (   0.7419425   0.7078551   0.3437678  )
        25           C   tau(  25) = (   0.1011309   0.1154641   0.1167068  )
        26           C   tau(  26) = (   0.0921630   0.2589510   0.5310183  )
        27           C   tau(  27) = (   0.8809331   0.6333660   0.7119162  )
        28           C   tau(  28) = (   0.8899011   0.4898792   0.2976047  )
        29           H   tau(  29) = (   0.1705532   0.4711746   0.2430037  )
        30           H   tau(  30) = (   0.1615852   0.6520706   0.6573152  )
        31           H   tau(  31) = (   0.8115109   0.2776556   0.5856192  )
        32           H   tau(  32) = (   0.8204788   0.0967595   0.1713077  )
        33           H   tau(  33) = (   0.3231714   0.1195528   0.1315578  )
        34           H   tau(  34) = (   0.3142035   0.2548622   0.5458693  )
        35           H   tau(  35) = (   0.6588926   0.6292773   0.6970652  )
        36           H   tau(  36) = (   0.6678606   0.4939679   0.2827537  )
        37           H   tau(  37) = (   0.3836205   0.5179636   0.3622412  )
        38           H   tau(  38) = (   0.3746525   0.6052816   0.7765527  )
        39           H   tau(  39) = (   0.5984436   0.2308665   0.4663818  )
        40           H   tau(  40) = (   0.6074116   0.1435485   0.0520703  )
        41           H   tau(  41) = (   0.1076887  -0.0012076   0.1460561  )
        42           H   tau(  42) = (   0.0987207   0.3756226   0.5603676  )
        43           H   tau(  43) = (   0.8743754   0.7500377   0.6825669  )
        44           H   tau(  44) = (   0.8833433   0.3732075   0.2682554  )
        45           H   tau(  45) = (   0.3470393   0.3445674   0.0028554  )
        46           H   tau(  46) = (   0.3380714   0.0298477   0.4171669  )
        47           H   tau(  47) = (   0.6350248   0.4042628   0.8257676  )
        48           H   tau(  48) = (   0.6439927   0.7189824   0.4114561  )
        49           H   tau(  49) = (   0.1527866   0.3693622   0.0100344  )
        50           H   tau(  50) = (   0.1438186   0.0050529   0.4243459  )
        51           H   tau(  51) = (   0.8292775   0.3794679   0.8185886  )
        52           H   tau(  52) = (   0.8382454   0.7437773   0.4042771  )

     number of k points=     8
                       cart. coord. in units 2pi/alat
        k(    1) = (   0.0000000   0.0000000   0.0000000), wk =   0.1111111
        k(    2) = (   0.0000000   0.0000000   0.4022738), wk =   0.2222222
        k(    3) = (   0.0000000   0.4451388   0.0000000), wk =   0.2222222
        k(    4) = (   0.0000000   0.4451388   0.4022738), wk =   0.4444444
        k(    5) = (  -0.5000000   0.0000000  -0.0108227), wk =   0.1111111
        k(    6) = (  -0.5000000   0.0000000   0.3914511), wk =   0.2222222
        k(    7) = (  -0.5000000   0.4451388  -0.0108227), wk =   0.2222222
        k(    8) = (  -0.5000000   0.4451388   0.3914511), wk =   0.4444444

     Dense  grid:   438949 G-vectors     FFT dimensions: ( 120,  90,  96)

     Estimated max dynamical RAM per process >     237.53MB

     Estimated total allocated dynamical RAM >    1900.24MB

     Check: negative/imaginary core charge=   -0.000002    0.000000

     Initial potential from superposition of free atoms

     starting charge  159.99920, renormalised to  160.00000
     Starting wfc are  136 randomized atomic wfcs
     Checking if some PAW data can be deallocated... 

     total cpu time spent up to now is       13.5 secs

     per-process dynamical memory:   218.1 Mb

     Self-consistent Calculation

     iteration #  1     ecut=   100.00 Ry     beta=0.50
     Davidson diagonalization with overlap
     ethr =  1.00E-02,  avg # of iterations =  4.1

     total cpu time spent up to now is       41.7 secs

     total energy              =    -808.23680064 Ry
     Harris-Foulkes estimate   =    -810.80719935 Ry
     estimated scf accuracy    <       4.92942929 Ry

     iteration #  2     ecut=   100.00 Ry     beta=0.50
     Davidson diagonalization with overlap
     ethr =  3.08E-03,  avg # of iterations =  2.0

     total cpu time spent up to now is       58.4 secs

     total energy              =    -808.98456005 Ry
     Harris-Foulkes estimate   =    -809.31632759 Ry
     estimated scf accuracy    <       0.72222139 Ry

     iteration #  3     ecut=   100.00 Ry     beta=0.50
     Davidson diagonalization with overlap
     ethr =  4.51E-04,  avg # of iterations =  6.8

     total cpu time spent up to now is       82.4 secs

     total energy              =    -809.16517256 Ry
     Harris-Foulkes estimate   =    -809.23345552 Ry
     estimated scf accuracy    <       0.16941877 Ry

     iteration #  4     ecut=   100.00 Ry     beta=0.50
     Davidson diagonalization with overlap
     ethr =  1.06E-04,  avg # of iterations =  2.2

     total cpu time spent up to now is       98.0 secs

     total energy              =    -809.18561270 Ry
     Harris-Foulkes estimate   =    -809.19739741 Ry
     estimated scf accuracy    <       0.03513582 Ry

     iteration #  5     ecut=   100.00 Ry     beta=0.50
     Davidson diagonalization with overlap
     ethr =  2.20E-05,  avg # of iterations =  6.5

     total cpu time spent up to now is      119.2 secs

     total energy              =    -809.19392337 Ry
     Harris-Foulkes estimate   =    -809.19451153 Ry
     estimated scf accuracy    <       0.00240738 Ry

     iteration #  6     ecut=   100.00 Ry     beta=0.50
     Davidson diagonalization with overlap
     ethr =  1.50E-06,  avg # of iterations =  5.8

     total cpu time spent up to now is      141.2 secs

     total energy              =    -809.19442542 Ry
     Harris-Foulkes estimate   =    -809.19451949 Ry
     estimated scf accuracy    <       0.00029757 Ry

     iteration #  7     ecut=   100.00 Ry     beta=0.50
     Davidson diagonalization with overlap
     ethr =  1.86E-07,  avg # of iterations =  3.6

     total cpu time spent up to now is      162.9 secs

     total energy              =    -809.19451791 Ry
     Harris-Foulkes estimate   =    -809.19455033 Ry
     estimated scf accuracy    <       0.00008585 Ry

     iteration #  8     ecut=   100.00 Ry     beta=0.50
     Davidson diagonalization with overlap
     ethr =  5.37E-08,  avg # of iterations =  2.0

     total cpu time spent up to now is      178.1 secs

     total energy              =    -809.19452254 Ry
     Harris-Foulkes estimate   =    -809.19453140 Ry
     estimated scf accuracy    <       0.00001954 Ry

     iteration #  9     ecut=   100.00 Ry     beta=0.50
     Davidson diagonalization with overlap
     ethr =  1.22E-08,  avg # of iterations =  4.0

     total cpu time spent up to now is      203.1 secs

     total energy              =    -809.19453239 Ry
     Harris-Foulkes estimate   =    -809.19453980 Ry
     estimated scf accuracy    <       0.00001937 Ry

     iteration # 10     ecut=   100.00 Ry     beta=0.50
     Davidson diagonalization with overlap
     ethr =  1.21E-08,  avg # of iterations =  2.0

     total cpu time spent up to now is      217.6 secs

     total energy              =    -809.19452957 Ry
     Harris-Foulkes estimate   =    -809.19453317 Ry
     estimated scf accuracy    <       0.00000596 Ry

     iteration # 11     ecut=   100.00 Ry     beta=0.50
     Davidson diagonalization with overlap
     ethr =  3.72E-09,  avg # of iterations =  4.0

     total cpu time spent up to now is      242.8 secs

     total energy              =    -809.19453350 Ry
     Harris-Foulkes estimate   =    -809.19453472 Ry
     estimated scf accuracy    <       0.00000335 Ry

     iteration # 12     ecut=   100.00 Ry     beta=0.50
     Davidson diagonalization with overlap
     ethr =  2.09E-09,  avg # of iterations =  2.0

     total cpu time spent up to now is      257.3 secs

     total energy              =    -809.19453282 Ry
     Harris-Foulkes estimate   =    -809.19453361 Ry
     estimated scf accuracy    <       0.00000118 Ry

     iteration # 13     ecut=   100.00 Ry     beta=0.50
     Davidson diagonalization with overlap
     ethr =  7.40E-10,  avg # of iterations =  4.0

     total cpu time spent up to now is      282.6 secs

     total energy              =    -809.19453357 Ry
     Harris-Foulkes estimate   =    -809.19453392 Ry
     estimated scf accuracy    <       0.00000089 Ry

     iteration # 14     ecut=   100.00 Ry     beta=0.50
     Davidson diagonalization with overlap
     ethr =  5.58E-10,  avg # of iterations =  2.0

     total cpu time spent up to now is      297.1 secs

     total energy              =    -809.19453344 Ry
     Harris-Foulkes estimate   =    -809.19453360 Ry
     estimated scf accuracy    <       0.00000028 Ry

     iteration # 15     ecut=   100.00 Ry     beta=0.50
     Davidson diagonalization with overlap
     ethr =  1.76E-10,  avg # of iterations =  4.0

     total cpu time spent up to now is      321.4 secs

     total energy              =    -809.19453362 Ry
     Harris-Foulkes estimate   =    -809.19453367 Ry
     estimated scf accuracy    <       0.00000012 Ry

     iteration # 16     ecut=   100.00 Ry     beta=0.50
     Davidson diagonalization with overlap
     ethr =  7.35E-11,  avg # of iterations =  2.0

     total cpu time spent up to now is      335.9 secs

     total energy              =    -809.19453361 Ry
     Harris-Foulkes estimate   =    -809.19453363 Ry
     estimated scf accuracy    <       0.00000004 Ry

     iteration # 17     ecut=   100.00 Ry     beta=0.50
     Davidson diagonalization with overlap
     ethr =  2.21E-11,  avg # of iterations =  4.0

     total cpu time spent up to now is      359.9 secs

     End of self-consistent calculation

          k = 0.0000 0.0000 0.0000 ( 54885 PWs)   bands (ev):

   -19.9295 -19.8439 -19.7451 -19.7267 -19.7054 -19.6878 -19.6611 -19.6272
   -17.5488 -17.4800 -17.2960 -17.2713 -16.2808 -16.2773 -16.0420 -16.0359
   -11.8197 -11.6647 -11.6394 -11.5988  -9.3445  -9.1762  -8.9488  -8.8715
    -8.2677  -8.1172  -8.1127  -7.8170  -7.6564  -7.4751  -7.4557  -7.4403
    -6.9631  -6.5971  -6.5708  -6.4712  -5.8865  -5.7339  -5.6941  -5.5323
    -5.4698  -5.2230  -5.1263  -5.0952  -4.7715  -4.5854  -4.5303  -4.3851
    -4.1200  -3.8489  -3.8048  -3.7833  -3.7527  -3.5623  -3.4473  -3.4389
    -3.4274  -3.3206  -3.1977  -3.1020  -3.0281  -2.9995  -2.8125  -2.6181
    -0.9066  -0.7535  -0.6262  -0.5704  -0.3377  -0.3109  -0.2554  -0.2197
    -0.0274  -0.0110   0.0622   0.0855   0.1174   0.1789   0.2335   0.2493
     5.0206   5.1297   5.2383   5.3271   5.4408   5.5303   5.5549   5.6683
     6.4164   7.4189   7.4918   7.8038   7.8830   8.1562   8.2289   8.2900

          k = 0.0000 0.0000 0.4023 ( 54919 PWs)   bands (ev):

   -19.9105 -19.8684 -19.7419 -19.7339 -19.6929 -19.6770 -19.6629 -19.6394
   -17.5323 -17.4979 -17.2894 -17.2770 -16.2799 -16.2781 -16.0405 -16.0374
   -11.7881 -11.7143 -11.6230 -11.5990  -9.3051  -9.2214  -8.9276  -8.8893
    -8.2353  -8.1628  -8.0399  -7.8893  -7.5962  -7.4956  -7.4678  -7.4500
    -6.8930  -6.7111  -6.5551  -6.4830  -5.8404  -5.7433  -5.6247  -5.5383
    -5.3986  -5.2152  -5.1864  -5.1492  -4.7504  -4.6726  -4.4532  -4.3955
    -4.0045  -3.9433  -3.9157  -3.7842  -3.7107  -3.6897  -3.4210  -3.3797
    -3.3774  -3.3682  -3.1242  -3.0974  -3.0406  -3.0296  -2.7709  -2.6711
    -0.8392  -0.7263  -0.7167  -0.5978  -0.3561  -0.3524  -0.2006  -0.2002
    -0.0657  -0.0369   0.0053   0.0894   0.1832   0.2046   0.2699   0.2755
     5.0382   5.0979   5.2627   5.3641   5.4022   5.5023   5.5876   5.6555
     6.6461   7.0873   7.5677   7.9295   7.9703   8.1320   8.3360   8.3483

          k = 0.0000 0.4451 0.0000 ( 54866 PWs)   bands (ev):

   -19.8920 -19.8223 -19.8041 -19.7737 -19.6796 -19.6730 -19.6505 -19.6326
   -17.4916 -17.4335 -17.3647 -17.3318 -16.2249 -16.2045 -16.1045 -16.0870
   -11.7637 -11.6534 -11.6476 -11.6350  -9.2451  -9.0982  -9.0380  -8.9505
    -8.2283  -8.1585  -8.0892  -7.9192  -7.6300  -7.5172  -7.4895  -7.4651
    -6.7266  -6.6372  -6.6063  -6.4725  -5.7697  -5.7116  -5.6737  -5.5215
    -5.4271  -5.2781  -5.2621  -5.1593  -4.6467  -4.5452  -4.5229  -4.4160
    -4.1563  -4.0363  -3.9408  -3.8894  -3.6237  -3.5537  -3.5165  -3.4868
    -3.3281  -3.2467  -3.2001  -3.1147  -2.9480  -2.8397  -2.8351  -2.7032
    -0.8518  -0.8164  -0.7551  -0.7148  -0.2479  -0.1870  -0.1773  -0.1230
    -0.0388  -0.0296   0.0449   0.0953   0.1184   0.1329   0.1990   0.2744
     5.1082   5.1637   5.2628   5.3184   5.4576   5.4596   5.6202   5.6919
     6.5903   7.0701   7.5079   7.6742   7.8555   8.0951   8.1982   8.2645

          k = 0.0000 0.4451 0.4023 ( 54836 PWs)   bands (ev):

   -19.8767 -19.8438 -19.7914 -19.7780 -19.6814 -19.6743 -19.6462 -19.6363
   -17.4780 -17.4492 -17.3552 -17.3391 -16.2202 -16.2100 -16.1002 -16.0914
   -11.7457 -11.7003 -11.6272 -11.6238  -9.2103  -9.1372  -9.0159  -8.9722
    -8.2171  -8.1846  -8.0373  -7.9527  -7.6133  -7.5664  -7.4739  -7.4360
    -6.7365  -6.6854  -6.5483  -6.4751  -5.7475  -5.7272  -5.6193  -5.5513
    -5.4156  -5.3303  -5.2375  -5.1883  -4.6465  -4.6162  -4.4531  -4.4116
    -4.1197  -4.0575  -3.9041  -3.8887  -3.6107  -3.5733  -3.5408  -3.4711
    -3.3571  -3.2659  -3.1994  -3.1425  -2.9639  -2.9011  -2.7571  -2.6996
    -0.8899  -0.8565  -0.7075  -0.6374  -0.2512  -0.2293  -0.1744  -0.1672
    -0.0522  -0.0290   0.0447   0.0793   0.1373   0.1579   0.2404   0.2653
     5.1146   5.1419   5.3181   5.3759   5.4485   5.5168   5.5687   5.6496
     6.7774   7.0692   7.3584   7.6825   7.8970   8.0406   8.2295   8.3508

          k =-0.5000 0.0000-0.0108 ( 54820 PWs)   bands (ev):

   -19.8548 -19.8418 -19.8035 -19.7873 -19.6780 -19.6742 -19.6619 -19.6365
   -17.4233 -17.4198 -17.3793 -17.3697 -16.1648 -16.1643 -16.1603 -16.1507
   -11.7375 -11.7326 -11.6435 -11.6280  -9.1156  -9.0699  -9.0436  -9.0406
    -7.9467  -7.8856  -7.8846  -7.8067  -7.7986  -7.7761  -7.6373  -7.6317
    -6.9660  -6.9433  -6.6039  -6.5196  -5.7750  -5.7676  -5.5360  -5.4882
    -5.4214  -5.4213  -5.3683  -5.3321  -4.2847  -4.2070  -4.1655  -4.1500
    -4.0564  -4.0273  -3.9270  -3.9000  -3.7684  -3.5534  -3.5030  -3.4614
    -3.4423  -3.3971  -3.1256  -3.1052  -3.0738  -2.9428  -2.8153  -2.7552
    -0.8904  -0.7804  -0.7168  -0.3242  -0.3056  -0.2562  -0.1952  -0.1642
    -0.0938  -0.0657  -0.0312   0.0012   0.0695   0.1199   0.1440   0.1748
     4.9984   5.1847   5.2491   5.3551   5.3594   5.4660   5.6666   5.6754
     6.9025   6.9968   7.5240   7.6156   7.7339   8.0046   8.3898   8.5693

          k =-0.5000 0.0000 0.3915 ( 54854 PWs)   bands (ev):

   -19.8497 -19.8257 -19.8187 -19.7879 -19.6868 -19.6825 -19.6478 -19.6395
   -17.4102 -17.4096 -17.3895 -17.3832 -16.1645 -16.1642 -16.1581 -16.1533
   -11.7130 -11.7084 -11.6669 -11.6554  -9.1105  -9.0813  -9.0451  -9.0235
    -7.9305  -7.9009  -7.8537  -7.7987  -7.7966  -7.7423  -7.7170  -7.6551
    -6.8916  -6.8271  -6.7128  -6.6204  -5.7172  -5.6780  -5.6166  -5.5403
    -5.4298  -5.3921  -5.3362  -5.3313  -4.2454  -4.1862  -4.1568  -4.1337
    -4.0987  -3.9735  -3.9400  -3.9231  -3.8222  -3.7173  -3.5546  -3.5226
    -3.3016  -3.2743  -3.1590  -3.1583  -2.9564  -2.9327  -2.8696  -2.8103
    -0.8686  -0.7765  -0.6609  -0.4575  -0.2741  -0.2665  -0.1981  -0.1748
    -0.1242  -0.0990  -0.0402  -0.0132   0.1332   0.1511   0.1843   0.2045
     5.0581   5.1648   5.2697   5.3058   5.3683   5.4422   5.6711   5.6950
     6.9594   7.1890   7.3121   7.8802   7.8926   8.1114   8.1782   8.2823

          k =-0.5000 0.4451-0.0108 ( 54824 PWs)   bands (ev):

   -19.8424 -19.8326 -19.7918 -19.7899 -19.6989 -19.6834 -19.6574 -19.6431
   -17.4173 -17.4148 -17.3790 -17.3734 -16.1776 -16.1721 -16.1557 -16.1522
   -11.7108 -11.6956 -11.6638 -11.6426  -9.0941  -9.0656  -9.0212  -9.0210
    -7.9638  -7.9296  -7.8672  -7.8295  -7.8289  -7.7784  -7.7398  -7.7106
    -6.8404  -6.7752  -6.5855  -6.5541  -5.7574  -5.7254  -5.5809  -5.5132
    -5.4464  -5.3702  -5.3596  -5.3217  -4.3155  -4.3020  -4.2366  -4.1369
    -4.1269  -4.1220  -4.0061  -3.9538  -3.6579  -3.4644  -3.4594  -3.3994
    -3.3476  -3.2796  -3.2174  -3.1788  -2.9917  -2.9450  -2.8734  -2.8223
    -0.8253  -0.7819  -0.7010  -0.5201  -0.3263  -0.3149  -0.2616  -0.1677
    -0.0428   0.0037   0.0374   0.0657   0.0848   0.1473   0.1542   0.1819
     5.0642   5.2049   5.3008   5.3532   5.3656   5.5410   5.5855   5.6664
     6.9972   7.0719   7.2689   7.4575   7.8974   7.9534   8.1845   8.2413

          k =-0.5000 0.4451 0.3915 ( 54879 PWs)   bands (ev):

   -19.8350 -19.8172 -19.8124 -19.7922 -19.6925 -19.6755 -19.6647 -19.6505
   -17.4064 -17.4057 -17.3878 -17.3843 -16.1727 -16.1680 -16.1609 -16.1571
   -11.6936 -11.6870 -11.6710 -11.6590  -9.0836  -9.0608  -9.0344  -9.0180
    -7.9612  -7.9455  -7.8854  -7.8753  -7.7925  -7.7554  -7.7344  -7.7021
    -6.7689  -6.7276  -6.6342  -6.6148  -5.7296  -5.6849  -5.6450  -5.5785
    -5.4202  -5.3885  -5.3384  -5.3188  -4.3150  -4.3032  -4.1970  -4.1829
    -4.0911  -4.0538  -3.9662  -3.9276  -3.6601  -3.6191  -3.5482  -3.4527
    -3.2844  -3.2435  -3.2094  -3.1626  -2.9510  -2.9333  -2.8948  -2.8559
    -0.8177  -0.7770  -0.6775  -0.5786  -0.3158  -0.2980  -0.2483  -0.2004
    -0.0504  -0.0027   0.0099   0.0271   0.1245   0.1574   0.1738   0.2127
     5.1269   5.2338   5.2618   5.3386   5.4175   5.5277   5.5791   5.6640
     7.0964   7.2350   7.2962   7.3961   7.8313   7.9200   8.0776   8.2328

     highest occupied, lowest unoccupied level (ev):     0.2755    4.9984

!    total energy              =    -809.19453363 Ry
     Harris-Foulkes estimate   =    -809.19453364 Ry
     estimated scf accuracy    <          6.6E-09 Ry

     total all-electron energy =     -3023.529195 Ry

     The total energy is the sum of the following terms:

     one-electron contribution =    -394.74075444 Ry
     hartree contribution      =     259.52621973 Ry
     xc contribution           =    -169.81641791 Ry
     ewald contribution        =    -281.81994807 Ry
     Dispersion Correction     =      -0.21782595 Ry
     one-center paw contrib.   =    -222.12580698 Ry

     convergence has been achieved in  17 iterations

     Forces acting on atoms (cartesian axes, Ry/au):

     atom    1 type  4   force =     0.00227581    0.00044707   -0.00203125
     atom    2 type  4   force =     0.00227581   -0.00044707   -0.00203125
     atom    3 type  4   force =    -0.00227581   -0.00044707    0.00203125
     atom    4 type  4   force =    -0.00227581    0.00044707    0.00203125
     atom    5 type  4   force =    -0.00153249    0.00155315    0.00111721
     atom    6 type  4   force =    -0.00153249   -0.00155315    0.00111721
     atom    7 type  4   force =     0.00153249   -0.00155315   -0.00111721
     atom    8 type  4   force =     0.00153249    0.00155315   -0.00111721
     atom    9 type  2   force =     0.00397312   -0.00041827    0.00176945
     atom   10 type  2   force =     0.00397312    0.00041827    0.00176945
     atom   11 type  2   force =    -0.00397312    0.00041827   -0.00176945
     atom   12 type  2   force =    -0.00397312   -0.00041827   -0.00176945
     atom   13 type  2   force =    -0.00186766   -0.00111817   -0.00237475
     atom   14 type  2   force =    -0.00186766    0.00111817   -0.00237475
     atom   15 type  2   force =     0.00186766    0.00111817    0.00237475
     atom   16 type  2   force =     0.00186766   -0.00111817    0.00237475
     atom   17 type  1   force =    -0.00320441    0.00176906   -0.00042984
     atom   18 type  1   force =    -0.00320441   -0.00176906   -0.00042984
     atom   19 type  1   force =     0.00320441   -0.00176906    0.00042984
     atom   20 type  1   force =     0.00320441    0.00176906    0.00042984
     atom   21 type  1   force =     0.00045270    0.00057290   -0.00056822
     atom   22 type  1   force =     0.00045270   -0.00057290   -0.00056822
     atom   23 type  1   force =    -0.00045270   -0.00057290    0.00056822
     atom   24 type  1   force =    -0.00045270    0.00057290    0.00056822
     atom   25 type  1   force =     0.00108357   -0.00068658    0.00074738
     atom   26 type  1   force =     0.00108357    0.00068658    0.00074738
     atom   27 type  1   force =    -0.00108357    0.00068658   -0.00074738
     atom   28 type  1   force =    -0.00108357   -0.00068658   -0.00074738
     atom   29 type  3   force =    -0.00179048   -0.00012250    0.00174928
     atom   30 type  3   force =    -0.00179048    0.00012250    0.00174928
     atom   31 type  3   force =     0.00179048    0.00012250   -0.00174928
     atom   32 type  3   force =     0.00179048   -0.00012250   -0.00174928
     atom   33 type  3   force =     0.00211072   -0.00166338    0.00097635
     atom   34 type  3   force =     0.00211072    0.00166338    0.00097635
     atom   35 type  3   force =    -0.00211072    0.00166338   -0.00097635
     atom   36 type  3   force =    -0.00211072   -0.00166338   -0.00097635
     atom   37 type  3   force =    -0.00068178   -0.00057211   -0.00057905
     atom   38 type  3   force =    -0.00068178    0.00057211   -0.00057905
     atom   39 type  3   force =     0.00068178    0.00057211    0.00057905
     atom   40 type  3   force =     0.00068178   -0.00057211    0.00057905
     atom   41 type  3   force =    -0.00017523    0.00070693    0.00036913
     atom   42 type  3   force =    -0.00017523   -0.00070693    0.00036913
     atom   43 type  3   force =     0.00017523   -0.00070693   -0.00036913
     atom   44 type  3   force =     0.00017523    0.00070693   -0.00036913
     atom   45 type  3   force =    -0.00127277   -0.00060511    0.00047376
     atom   46 type  3   force =    -0.00127277    0.00060511    0.00047376
     atom   47 type  3   force =     0.00127277    0.00060511   -0.00047376
     atom   48 type  3   force =     0.00127277   -0.00060511   -0.00047376
     atom   49 type  3   force =     0.00035313    0.00034987   -0.00031174
     atom   50 type  3   force =     0.00035313   -0.00034987   -0.00031174
     atom   51 type  3   force =    -0.00035313   -0.00034987    0.00031174
     atom   52 type  3   force =    -0.00035313    0.00034987    0.00031174

     Total force =     0.017937     Total SCF correction =     0.000149


     Computing stress (Cartesian axis) and pressure

          total   stress  (Ry/bohr**3)                   (kbar)     P=   -6.93
  -0.00005525   0.00000000  -0.00000177         -8.13      0.00     -0.26
   0.00000000  -0.00003653   0.00000000          0.00     -5.37      0.00
  -0.00000177   0.00000000  -0.00004953         -0.26      0.00     -7.29


     Writing output data file scf.save
 
     init_run     :     12.41s CPU     12.78s WALL (       1 calls)
     electrons    :    335.18s CPU    346.62s WALL (       1 calls)
     forces       :      6.65s CPU      6.70s WALL (       1 calls)
     stress       :     18.21s CPU     18.23s WALL (       1 calls)

     Called by init_run:
     wfcinit      :      7.27s CPU      7.49s WALL (       1 calls)
     potinit      :      1.86s CPU      1.91s WALL (       1 calls)

     Called by electrons:
     c_bands      :    292.74s CPU    302.70s WALL (      17 calls)
     sum_band     :     34.98s CPU     36.15s WALL (      17 calls)
     v_of_rho     :      1.09s CPU      1.21s WALL (      18 calls)
     newd         :      2.19s CPU      2.24s WALL (      18 calls)
     PAW_pot      :      3.85s CPU      3.85s WALL (      18 calls)
     mix_rho      :      0.23s CPU      0.24s WALL (      17 calls)

     Called by c_bands:
     init_us_2    :      2.34s CPU      2.35s WALL (     296 calls)
     cegterg      :    284.56s CPU    294.48s WALL (     136 calls)

     Called by sum_band:
     sum_band:bec :      0.03s CPU      0.03s WALL (     136 calls)
     addusdens    :      2.08s CPU      2.10s WALL (      17 calls)

     Called by *egterg:
     h_psi        :    177.83s CPU    184.25s WALL (     632 calls)
     s_psi        :     26.62s CPU     26.63s WALL (     632 calls)
     g_psi        :      1.07s CPU      1.07s WALL (     488 calls)
     cdiaghg      :     16.01s CPU     16.00s WALL (     624 calls)

     Called by h_psi:
     h_psi:pot    :    176.65s CPU    183.05s WALL (     632 calls)
     h_psi:calbec :     26.09s CPU     26.18s WALL (     632 calls)
     vloc_psi     :    124.01s CPU    130.32s WALL (     632 calls)
     add_vuspsi   :     26.55s CPU     26.55s WALL (     632 calls)

     General routines
     calbec       :     37.95s CPU     38.07s WALL (     808 calls)
     fft          :      0.71s CPU      0.91s WALL (     258 calls)
     fftw         :    133.17s CPU    140.24s WALL (   88522 calls)
 
     Parallel routines
     fft_scatter  :     30.58s CPU     34.65s WALL (   88780 calls)
 
     PWSCF        :  6m16.08s CPU     6m29.14s WALL

 
   This run was terminated on:   9:58: 9   4Nov2017            

=------------------------------------------------------------------------------=
   JOB DONE.
=------------------------------------------------------------------------------=
