
     Program PWSCF v.6.1 (svn rev. 13369) starts on  8Dec2017 at  2: 8:56 

     This program is part of the open-source Quantum ESPRESSO suite
     for quantum simulation of materials; please cite
         "P. Giannozzi et al., J. Phys.:Condens. Matter 21 395502 (2009);
          URL http://www.quantum-espresso.org", 
     in publications or presentations arising from this work. More details at
     http://www.quantum-espresso.org/quote

     Parallel version (MPI), running on     8 processors
     R & G space division:  proc/nbgrp/npool/nimage =       8
     Waiting for input...
     Reading input from standard input

     Current dimensions of program PWSCF are:
     Max number of different atomic species (ntypx) = 10
     Max number of k-points (npk) =  40000
     Max angular momentum in pseudopotentials (lmaxx) =  3
               file C.pbe-n-kjpaw_psl.0.1.UPF: wavefunction(s)  2P renormalized
               file N.pbe-n-kjpaw_psl.0.1.UPF: wavefunction(s)  2P renormalized
               file H.pbe-kjpaw_psl.0.1.UPF: wavefunction(s)  1S renormalized
               file O.pbe-n-kjpaw_psl.0.1.UPF: wavefunction(s)  2P renormalized

     -------------------------------------
     Parameters for Dispersion Correction:
     -------------------------------------
       atom      VdW radius       C_6     

        C          2.744         60.710
        N          2.640         42.670
        H          1.892          4.857
        O          2.536         24.284

     Subspace diagonalization in iterative solution of the eigenvalue problem:
     a serial algorithm will be used

 
     Parallelization info
     --------------------
     sticks:   dense  smooth     PW     G-vecs:    dense   smooth      PW
     Min        2254    2254    589               135114   135114   18076
     Max        2256    2256    590               135115   135115   18077
     Sum       18037   18037   4719              1080913  1080913  144609
 


     bravais-lattice index     =            0
     lattice parameter (alat)  =      48.3789  a.u.
     unit-cell volume          =    8001.2738 (a.u.)^3
     number of atoms/cell      =          124
     number of atomic types    =            4
     number of electrons       =       416.00
     number of Kohn-Sham states=          249
     kinetic-energy cutoff     =     100.0000  Ry
     charge density cutoff     =     400.0000  Ry
     convergence threshold     =      1.0E-08
     mixing beta               =       0.5000
     number of iterations used =            8  plain     mixing
     Exchange-correlation      =  SLA  PW   PBX  PBC ( 1  4  3  4 0 0)

     celldm(1)=  48.378879  celldm(2)=   0.000000  celldm(3)=   0.000000
     celldm(4)=   0.000000  celldm(5)=   0.000000  celldm(6)=   0.000000

     crystal axes: (cart. coord. in units of alat)
               a(1) = (   1.000000   0.000000   0.000000 )  
               a(2) = (   0.000000   0.241948   0.000000 )  
               a(3) = (   0.000000   0.000000   0.292059 )  

     reciprocal axes: (cart. coord. in units 2 pi/alat)
               b(1) = (  1.000000  0.000000  0.000000 )  
               b(2) = (  0.000000  4.133127  0.000000 )  
               b(3) = (  0.000000  0.000000  3.423967 )  


     PseudoPot. # 1 for  C read from file:
     /scratch/ahofstet/pseudo/C.pbe-n-kjpaw_psl.0.1.UPF
     MD5 check sum: 430fe95172b1e11ef3f8ed03bac87931
     Pseudo is Projector augmented-wave + core cor, Zval =  4.0
     Generated using "atomic" code by A. Dal Corso  v.5.0.99 svn rev. 10869
     Shape of augmentation charge: BESSEL
     Using radial grid of 1073 points,  4 beta functions with: 
                l(1) =   0
                l(2) =   0
                l(3) =   1
                l(4) =   1
     Q(r) pseudized with 0 coefficients 


     PseudoPot. # 2 for  N read from file:
     /scratch/ahofstet/pseudo/N.pbe-n-kjpaw_psl.0.1.UPF
     MD5 check sum: f73187c8b701007e77325f868c9291d7
     Pseudo is Projector augmented-wave + core cor, Zval =  5.0
     Generated using "atomic" code by A. Dal Corso  v.5.0.99 svn rev. 10869
     Shape of augmentation charge: PSQ
     Using radial grid of 1085 points,  4 beta functions with: 
                l(1) =   0
                l(2) =   0
                l(3) =   1
                l(4) =   1
     Q(r) pseudized with 0 coefficients 


     PseudoPot. # 3 for  H read from file:
     /scratch/ahofstet/pseudo/H.pbe-kjpaw_psl.0.1.UPF
     MD5 check sum: 94e484f906d9e9773b2f6e52662335b2
     Pseudo is Projector augmented-wave, Zval =  1.0
     Generated using "atomic" code by A. Dal Corso  v.5.0.99 svn rev. 10869
     Shape of augmentation charge: PSQ
     Using radial grid of  929 points,  2 beta functions with: 
                l(1) =   0
                l(2) =   0
     Q(r) pseudized with 0 coefficients 


     PseudoPot. # 4 for  O read from file:
     /scratch/ahofstet/pseudo/O.pbe-n-kjpaw_psl.0.1.UPF
     MD5 check sum: 3f94a2996a3169367d6eb21d9b593f20
     Pseudo is Projector augmented-wave + core cor, Zval =  6.0
     Generated using "atomic" code by A. Dal Corso  v.5.0.99 svn rev. 10869
     Shape of augmentation charge: BESSEL
     Using radial grid of 1095 points,  4 beta functions with: 
                l(1) =   0
                l(2) =   0
                l(3) =   1
                l(4) =   1
     Q(r) pseudized with 0 coefficients 


     atomic species   valence    mass     pseudopotential
        C              4.00    12.01070      C( 1.00)
        N              5.00    14.00670      N( 1.00)
        H              1.00     1.00794      H( 1.00)
        O              6.00    15.99940      O( 1.00)

      4 Sym. Ops. (no inversion) found ( 3 have fractional translation)



   Cartesian axes

     site n.     atom                  positions (alat units)
         1           N   tau(   1) = (   0.3744523   0.1516680   0.1609614  )
         2           N   tau(   2) = (   0.6255477   0.0902796   0.0149319  )
         3           N   tau(   3) = (   0.8744523   0.0902796   0.1609614  )
         4           N   tau(   4) = (   0.1255477   0.1516680   0.0149319  )
         5           N   tau(   5) = (   0.3571038   0.1772695   0.0714223  )
         6           N   tau(   6) = (   0.6428962   0.0646781   0.2174518  )
         7           N   tau(   7) = (   0.8571038   0.0646781   0.0714223  )
         8           N   tau(   8) = (   0.1428962   0.1772695   0.2174518  )
         9           C   tau(   9) = (   0.3826287   0.1390667   0.1059645  )
        10           C   tau(  10) = (   0.6173713   0.1028809   0.2519939  )
        11           C   tau(  11) = (   0.8826287   0.1028809   0.1059645  )
        12           C   tau(  12) = (   0.1173713   0.1390667   0.2519939  )
        13           H   tau(  13) = (   0.3675723   0.1004651   0.0951849  )
        14           H   tau(  14) = (   0.6324277   0.1414825   0.2412143  )
        15           H   tau(  15) = (   0.8675723   0.1414825   0.0951849  )
        16           H   tau(  16) = (   0.1324277   0.1004651   0.2412143  )
        17           H   tau(  17) = (   0.4244929   0.1404993   0.0972511  )
        18           H   tau(  18) = (   0.5755071   0.1014483   0.2432805  )
        19           H   tau(  19) = (   0.9244929   0.1014483   0.0972511  )
        20           H   tau(  20) = (   0.0755071   0.1404993   0.2432805  )
        21           O   tau(  21) = (   0.4232254   0.2374153   0.0809177  )
        22           O   tau(  22) = (   0.5767746   0.0045323   0.2269472  )
        23           O   tau(  23) = (   0.9232254   0.0045323   0.0809177  )
        24           O   tau(  24) = (   0.0767746   0.2374153   0.2269472  )
        25           N   tau(  25) = (   0.3206420   0.0766923   0.1919538  )
        26           N   tau(  26) = (   0.6793580   0.1652553   0.0459243  )
        27           N   tau(  27) = (   0.8206420   0.1652553   0.1919538  )
        28           N   tau(  28) = (   0.1793580   0.0766923   0.0459243  )
        29           O   tau(  29) = (   0.2869889   0.1934218   0.0163907  )
        30           O   tau(  30) = (   0.7130111   0.0485258   0.1624201  )
        31           O   tau(  31) = (   0.7869889   0.0485258   0.0163907  )
        32           O   tau(  32) = (   0.2130111   0.1934218   0.1624201  )
        33           C   tau(  33) = (   0.3257668   0.1337546   0.1824142  )
        34           C   tau(  34) = (   0.6742332   0.1081930   0.0363847  )
        35           C   tau(  35) = (   0.8257668   0.1081930   0.1824142  )
        36           C   tau(  36) = (   0.1742332   0.1337546   0.0363847  )
        37           H   tau(  37) = (   0.2936349   0.1447402   0.1562375  )
        38           H   tau(  38) = (   0.7063651   0.0972074   0.0102081  )
        39           H   tau(  39) = (   0.7936349   0.0972074   0.1562375  )
        40           H   tau(  40) = (   0.2063651   0.1447402   0.0102081  )
        41           H   tau(  41) = (   0.3198231   0.1522836   0.2205473  )
        42           H   tau(  42) = (   0.6801769   0.0896640   0.0745179  )
        43           H   tau(  43) = (   0.8198231   0.0896640   0.2205473  )
        44           H   tau(  44) = (   0.1801769   0.1522836   0.0745179  )
        45           N   tau(  45) = (   0.4634215   0.1743202   0.1817140  )
        46           N   tau(  46) = (   0.5365785   0.0676274   0.0356845  )
        47           N   tau(  47) = (   0.9634215   0.0676274   0.1817140  )
        48           N   tau(  48) = (   0.0365785   0.1743202   0.0356845  )
        49           O   tau(  49) = (   0.2827202   0.0568813   0.1125647  )
        50           O   tau(  50) = (   0.7172798   0.1850663   0.2585942  )
        51           O   tau(  51) = (   0.7827202   0.1850663   0.1125647  )
        52           O   tau(  52) = (   0.2172798   0.0568813   0.2585942  )
        53           C   tau(  53) = (   0.4193047   0.1411043   0.1950993  )
        54           C   tau(  54) = (   0.5806953   0.1008433   0.0490698  )
        55           C   tau(  55) = (   0.9193047   0.1008433   0.1950993  )
        56           C   tau(  56) = (   0.0806953   0.1411043   0.0490698  )
        57           H   tau(  57) = (   0.4074985   0.1494228   0.2353642  )
        58           H   tau(  58) = (   0.5925015   0.0925248   0.0893347  )
        59           H   tau(  59) = (   0.9074985   0.0925248   0.2353642  )
        60           H   tau(  60) = (   0.0925015   0.1494228   0.0893347  )
        61           H   tau(  61) = (   0.4327280   0.1004044   0.1928663  )
        62           H   tau(  62) = (   0.5672720   0.1415432   0.0468368  )
        63           H   tau(  63) = (   0.9327280   0.1415432   0.1928663  )
        64           H   tau(  64) = (   0.0672720   0.1004044   0.0468368  )
        65           O   tau(  65) = (   0.3499497   0.0820962   0.2770055  )
        66           O   tau(  66) = (   0.6500503   0.1598514   0.1309761  )
        67           O   tau(  67) = (   0.8499497   0.1598514   0.2770055  )
        68           O   tau(  68) = (   0.1500503   0.0820962   0.1309761  )
        69           C   tau(  69) = (   0.3811756   0.2252572   0.0620185  )
        70           C   tau(  70) = (   0.6188244   0.0166904   0.2080480  )
        71           C   tau(  71) = (   0.8811756   0.0166904   0.0620185  )
        72           C   tau(  72) = (   0.1188244   0.2252572   0.2080480  )
        73           H   tau(  73) = (   0.3584103   0.0089969   0.0361476  )
        74           H   tau(  74) = (   0.6415897   0.2329506   0.1821771  )
        75           H   tau(  75) = (   0.8584103   0.2329506   0.0361476  )
        76           H   tau(  76) = (   0.1415897   0.0089969   0.1821771  )
        77           C   tau(  77) = (   0.3097423   0.1651660   0.0475784  )
        78           C   tau(  78) = (   0.6902577   0.0767816   0.1936078  )
        79           C   tau(  79) = (   0.8097423   0.0767816   0.0475784  )
        80           C   tau(  80) = (   0.1902577   0.1651660   0.1936078  )
        81           H   tau(  81) = (   0.2947583   0.1267782   0.0604045  )
        82           H   tau(  82) = (   0.7052417   0.1151693   0.2064340  )
        83           H   tau(  83) = (   0.7947583   0.1151693   0.0604045  )
        84           H   tau(  84) = (   0.2052417   0.1267782   0.2064340  )
        85           O   tau(  85) = (   0.4282450   0.0076052   0.2170215  )
        86           O   tau(  86) = (   0.5717550   0.2343424   0.0709921  )
        87           O   tau(  87) = (   0.9282450   0.2343424   0.2170215  )
        88           O   tau(  88) = (   0.0717550   0.0076052   0.0709921  )
        89           O   tau(  89) = (   0.5140079   0.1066093   0.1501041  )
        90           O   tau(  90) = (   0.4859921   0.1353383   0.0040746  )
        91           O   tau(  91) = (   0.0140079   0.1353383   0.1501041  )
        92           O   tau(  92) = (   0.9859921   0.1066093   0.0040746  )
        93           C   tau(  93) = (   0.2953774   0.0440900   0.1568451  )
        94           C   tau(  94) = (   0.7046226   0.1978576   0.0108156  )
        95           C   tau(  95) = (   0.7953774   0.1978576   0.1568451  )
        96           C   tau(  96) = (   0.2046226   0.0440900   0.0108156  )
        97           H   tau(  97) = (   0.2867938   0.0050908   0.1728373  )
        98           H   tau(  98) = (   0.7132062   0.2368568   0.0268079  )
        99           H   tau(  99) = (   0.7867938   0.2368568   0.1728373  )
       100           H   tau( 100) = (   0.2132062   0.0050908   0.0268079  )
       101           C   tau( 101) = (   0.3317931   0.0563408   0.2412832  )
       102           C   tau( 102) = (   0.6682069   0.1856068   0.0952538  )
       103           C   tau( 103) = (   0.8317931   0.1856068   0.2412832  )
       104           C   tau( 104) = (   0.1682069   0.0563408   0.0952538  )
       105           H   tau( 105) = (   0.3220288   0.0144777   0.2449348  )
       106           H   tau( 106) = (   0.6779712   0.2274699   0.0989054  )
       107           H   tau( 107) = (   0.8220288   0.2274699   0.2449348  )
       108           H   tau( 108) = (   0.1779712   0.0144777   0.0989054  )
       109           C   tau( 109) = (   0.4627175   0.2278160   0.1925370  )
       110           C   tau( 110) = (   0.5372825   0.0141316   0.0465076  )
       111           C   tau( 111) = (   0.9627175   0.0141316   0.1925370  )
       112           C   tau( 112) = (   0.0372825   0.2278160   0.0465076  )
       113           H   tau( 113) = (   0.4971138   0.0064177   0.1769211  )
       114           H   tau( 114) = (   0.5028862   0.2355298   0.0308916  )
       115           H   tau( 115) = (   0.9971138   0.2355298   0.1769211  )
       116           H   tau( 116) = (   0.0028862   0.0064177   0.0308916  )
       117           C   tau( 117) = (   0.5083363   0.1530701   0.1595401  )
       118           C   tau( 118) = (   0.4916637   0.0888775   0.0135106  )
       119           C   tau( 119) = (   0.0083363   0.0888775   0.1595401  )
       120           C   tau( 120) = (   0.9916637   0.1530701   0.0135106  )
       121           H   tau( 121) = (   0.5388128   0.1825380   0.1513186  )
       122           H   tau( 122) = (   0.4611872   0.0594095   0.0052891  )
       123           H   tau( 123) = (   0.0388128   0.0594095   0.1513186  )
       124           H   tau( 124) = (   0.9611872   0.1825380   0.0052891  )

     number of k points=     4
                       cart. coord. in units 2pi/alat
        k(    1) = (   0.0000000   0.0000000   0.0000000), wk =   0.2222222
        k(    2) = (   0.0000000   0.0000000   1.1413223), wk =   0.4444444
        k(    3) = (   0.0000000   1.3777089   0.0000000), wk =   0.4444444
        k(    4) = (   0.0000000   1.3777089   1.1413223), wk =   0.8888889

     Dense  grid:  1080913 G-vectors     FFT dimensions: ( 320,  75,  90)

     Estimated max dynamical RAM per process >    1128.65MB

     Estimated total allocated dynamical RAM >    9029.17MB

     Check: negative/imaginary core charge=   -0.000002    0.000000

     Initial potential from superposition of free atoms

     starting charge  415.99789, renormalised to  416.00000
     Starting wfc are  352 randomized atomic wfcs
     Checking if some PAW data can be deallocated... 

     total cpu time spent up to now is       39.5 secs

     per-process dynamical memory:   664.6 Mb

     Self-consistent Calculation

     iteration #  1     ecut=   100.00 Ry     beta=0.50
     Davidson diagonalization with overlap
     ethr =  1.00E-02,  avg # of iterations =  4.0

     total cpu time spent up to now is      155.4 secs

     total energy              =   -2170.13471775 Ry
     Harris-Foulkes estimate   =   -2175.90397921 Ry
     estimated scf accuracy    <      11.25594308 Ry

     iteration #  2     ecut=   100.00 Ry     beta=0.50
     Davidson diagonalization with overlap
     ethr =  2.71E-03,  avg # of iterations =  2.2

     total cpu time spent up to now is      221.3 secs

     total energy              =   -2171.49801175 Ry
     Harris-Foulkes estimate   =   -2172.80171320 Ry
     estimated scf accuracy    <       2.74600451 Ry

     iteration #  3     ecut=   100.00 Ry     beta=0.50
     Davidson diagonalization with overlap
     ethr =  6.60E-04,  avg # of iterations =  7.2

     total cpu time spent up to now is      306.6 secs

     total energy              =   -2172.17239127 Ry
     Harris-Foulkes estimate   =   -2172.39189822 Ry
     estimated scf accuracy    <       0.55177208 Ry

     iteration #  4     ecut=   100.00 Ry     beta=0.50
     Davidson diagonalization with overlap
     ethr =  1.33E-04,  avg # of iterations =  7.8

     total cpu time spent up to now is      376.1 secs

     total energy              =   -2172.25285562 Ry
     Harris-Foulkes estimate   =   -2172.26777549 Ry
     estimated scf accuracy    <       0.05647500 Ry

     iteration #  5     ecut=   100.00 Ry     beta=0.50
     Davidson diagonalization with overlap
     ethr =  1.36E-05,  avg # of iterations = 10.2

     total cpu time spent up to now is      512.1 secs

     total energy              =   -2172.27595867 Ry
     Harris-Foulkes estimate   =   -2172.27830707 Ry
     estimated scf accuracy    <       0.00557805 Ry

     iteration #  6     ecut=   100.00 Ry     beta=0.50
     Davidson diagonalization with overlap
     ethr =  1.34E-06,  avg # of iterations =  7.8

     total cpu time spent up to now is      592.0 secs

     total energy              =   -2172.27669712 Ry
     Harris-Foulkes estimate   =   -2172.27763980 Ry
     estimated scf accuracy    <       0.00244203 Ry

     iteration #  7     ecut=   100.00 Ry     beta=0.50
     Davidson diagonalization with overlap
     ethr =  5.87E-07,  avg # of iterations =  3.0

     total cpu time spent up to now is      655.5 secs

     total energy              =   -2172.27719868 Ry
     Harris-Foulkes estimate   =   -2172.27724587 Ry
     estimated scf accuracy    <       0.00025610 Ry

     iteration #  8     ecut=   100.00 Ry     beta=0.50
     Davidson diagonalization with overlap
     ethr =  6.16E-08,  avg # of iterations =  3.2

     total cpu time spent up to now is      752.6 secs

     total energy              =   -2172.27728550 Ry
     Harris-Foulkes estimate   =   -2172.27730253 Ry
     estimated scf accuracy    <       0.00005341 Ry

     iteration #  9     ecut=   100.00 Ry     beta=0.50
     Davidson diagonalization with overlap
     ethr =  1.28E-08,  avg # of iterations =  2.0

     total cpu time spent up to now is      811.9 secs

     total energy              =   -2172.27729073 Ry
     Harris-Foulkes estimate   =   -2172.27729285 Ry
     estimated scf accuracy    <       0.00000786 Ry

     iteration # 10     ecut=   100.00 Ry     beta=0.50
     Davidson diagonalization with overlap
     ethr =  1.89E-09,  avg # of iterations =  4.0

     total cpu time spent up to now is      913.1 secs

     total energy              =   -2172.27729386 Ry
     Harris-Foulkes estimate   =   -2172.27729492 Ry
     estimated scf accuracy    <       0.00000324 Ry

     iteration # 11     ecut=   100.00 Ry     beta=0.50
     Davidson diagonalization with overlap
     ethr =  7.80E-10,  avg # of iterations =  3.0

     total cpu time spent up to now is      973.2 secs

     total energy              =   -2172.27729424 Ry
     Harris-Foulkes estimate   =   -2172.27729430 Ry
     estimated scf accuracy    <       0.00000020 Ry

     iteration # 12     ecut=   100.00 Ry     beta=0.50
     Davidson diagonalization with overlap
     ethr =  4.70E-11,  avg # of iterations =  4.0

     total cpu time spent up to now is     1088.8 secs

     total energy              =   -2172.27729443 Ry
     Harris-Foulkes estimate   =   -2172.27729447 Ry
     estimated scf accuracy    <       0.00000014 Ry

     iteration # 13     ecut=   100.00 Ry     beta=0.50
     Davidson diagonalization with overlap
     ethr =  3.46E-11,  avg # of iterations =  2.0

     total cpu time spent up to now is     1146.0 secs

     total energy              =   -2172.27729443 Ry
     Harris-Foulkes estimate   =   -2172.27729444 Ry
     estimated scf accuracy    <       0.00000003 Ry

     iteration # 14     ecut=   100.00 Ry     beta=0.50
     Davidson diagonalization with overlap
     ethr =  6.59E-12,  avg # of iterations =  4.0

     total cpu time spent up to now is     1247.8 secs

     total energy              =   -2172.27729444 Ry
     Harris-Foulkes estimate   =   -2172.27729445 Ry
     estimated scf accuracy    <       0.00000001 Ry

     iteration # 15     ecut=   100.00 Ry     beta=0.50
     Davidson diagonalization with overlap
     ethr =  2.79E-12,  avg # of iterations =  2.0

     total cpu time spent up to now is     1304.3 secs

     End of self-consistent calculation

          k = 0.0000 0.0000 0.0000 (135137 PWs)   bands (ev):

   -20.3069 -20.3039 -20.2422 -20.2369 -20.1318 -20.1315 -20.1288 -20.1276
   -19.9959 -19.9935 -19.9429 -19.9418 -19.8083 -19.8082 -19.7713 -19.7707
   -19.6385 -19.6353 -19.6345 -19.6313 -19.5060 -19.5059 -19.5041 -19.5041
   -17.8921 -17.8809 -17.8804 -17.8685 -17.1969 -17.1904 -17.1764 -17.1719
   -17.0702 -17.0668 -17.0430 -17.0378 -16.0048 -15.9976 -15.9898 -15.9829
   -11.9036 -11.8985 -11.8928 -11.8888 -11.7371 -11.7369 -11.7199 -11.7190
   -10.4396 -10.4216 -10.4049 -10.3911  -9.8723  -9.8614  -9.8308  -9.8232
    -9.7349  -9.7339  -9.6991  -9.6963  -9.5307  -9.5280  -9.4661  -9.4623
    -8.1777  -8.1683  -8.1007  -8.0869  -7.7514  -7.7464  -7.7064  -7.7009
    -6.9901  -6.9870  -6.9635  -6.9520  -6.6533  -6.6488  -6.5254  -6.5001
    -6.4945  -6.4448  -6.4421  -6.4388  -6.3863  -6.3701  -6.3652  -6.2461
    -6.1729  -6.0995  -6.0763  -6.0380  -5.7835  -5.7831  -5.6991  -5.6834
    -5.3516  -5.3516  -5.3196  -5.3141  -5.1484  -5.1409  -5.1275  -5.1218
    -4.7642  -4.7487  -4.7105  -4.7064  -4.6958  -4.6666  -4.5894  -4.5765
    -4.5758  -4.5402  -4.3012  -4.2969  -4.2648  -4.2018  -4.1634  -4.1516
    -4.1094  -4.0864  -4.0705  -4.0209  -3.9838  -3.9784  -3.9776  -3.9527
    -3.9105  -3.8793  -3.8745  -3.8637  -3.7624  -3.7506  -3.7372  -3.6952
    -3.6812  -3.6416  -3.5757  -3.5754  -3.5189  -3.4841  -3.4009  -3.3925
    -3.3580  -3.2926  -3.2323  -3.2122  -3.0410  -2.9878  -2.9781  -2.9535
    -2.9201  -2.9139  -2.8708  -2.8590  -2.8512  -2.8376  -2.8080  -2.7855
    -2.7073  -2.6959  -2.6530  -2.6181  -2.6013  -2.6004  -2.5968  -2.5690
    -0.7836  -0.7614  -0.6449  -0.6425  -0.6386  -0.5665  -0.5109  -0.5040
    -0.4900  -0.4676  -0.4176  -0.4172  -0.3936  -0.3813  -0.2971  -0.2495
    -0.2348  -0.1857  -0.1423  -0.0931  -0.0889  -0.0888  -0.0751  -0.0462
     0.3296   0.3297   0.3640   0.3666   0.5179   0.5258   0.6275   0.6319
     0.6698   0.6803   0.6904   0.6933   1.0027   1.0157   1.0248   1.0339
     4.0597   4.0971   4.2157   4.2815   4.5279   4.5459   4.7534   4.7725
     4.8330   4.8390   4.8607   4.8690   5.9042   5.9158   5.9623   5.9710
     6.0244   6.0266   6.1704   6.1714   6.2507   6.2568   6.3543   6.3547
     7.1424   7.2345   7.2787   7.4898   7.5857   7.7486   7.8796   7.9038
     8.0004   8.0132   8.3258   8.5468   8.5634   8.6484   8.6777   8.7634
     8.7741

          k = 0.0000 0.0000 1.1413 (135095 PWs)   bands (ev):

   -20.2742 -20.2720 -20.2321 -20.2299 -20.1582 -20.1562 -20.1474 -20.1465
   -19.9841 -19.9821 -19.9570 -19.9567 -19.7980 -19.7976 -19.7799 -19.7795
   -19.6364 -19.6348 -19.6345 -19.6327 -19.5056 -19.5056 -19.5048 -19.5047
   -17.8900 -17.8845 -17.8842 -17.8784 -17.1763 -17.1724 -17.1663 -17.1625
   -17.0659 -17.0637 -17.0529 -17.0507 -16.0038 -16.0003 -15.9962 -15.9929
   -11.9033 -11.9004 -11.8973 -11.8960 -11.7319 -11.7311 -11.7234 -11.7223
   -10.4178 -10.4086 -10.3994 -10.3941  -9.8655  -9.8579  -9.8502  -9.8483
    -9.7281  -9.7272  -9.7167  -9.7163  -9.5127  -9.5110  -9.4803  -9.4781
    -8.1659  -8.1603  -8.1232  -8.1200  -7.7149  -7.7118  -7.6846  -7.6842
    -6.9339  -6.9311  -6.9299  -6.9233  -6.6336  -6.6333  -6.5824  -6.5570
    -6.4908  -6.4631  -6.4450  -6.4305  -6.3859  -6.3341  -6.3299  -6.3289
    -6.1868  -6.1121  -6.0671  -6.0554  -5.7746  -5.7495  -5.7363  -5.7094
    -5.3976  -5.3858  -5.3715  -5.3463  -5.1088  -5.0829  -5.0796  -5.0730
    -4.8117  -4.8100  -4.8023  -4.7802  -4.7469  -4.6514  -4.6280  -4.6223
    -4.4481  -4.4432  -4.4173  -4.3511  -4.3350  -4.2543  -4.2543  -4.2184
    -4.1316  -4.1230  -4.0902  -4.0870  -3.9588  -3.9460  -3.9389  -3.8935
    -3.8570  -3.8531  -3.8287  -3.8081  -3.7734  -3.7468  -3.7078  -3.6727
    -3.6477  -3.6465  -3.5954  -3.5885  -3.4894  -3.4719  -3.4382  -3.4222
    -3.1834  -3.1824  -3.1341  -3.1286  -2.9922  -2.9871  -2.9866  -2.9768
    -2.9270  -2.9186  -2.8721  -2.8374  -2.8235  -2.8119  -2.8095  -2.7558
    -2.7135  -2.7078  -2.6968  -2.6781  -2.6145  -2.5959  -2.5935  -2.5857
    -0.7369  -0.7180  -0.6632  -0.6602  -0.5898  -0.5846  -0.5697  -0.5306
    -0.4809  -0.4705  -0.4610  -0.4410  -0.3479  -0.3405  -0.2902  -0.2598
    -0.2454  -0.1908  -0.1860  -0.1611  -0.0943  -0.0826  -0.0791  -0.0513
     0.2619   0.2631   0.2875   0.2878   0.5587   0.5666   0.6292   0.6336
     0.6835   0.6897   0.6925   0.7035   1.0171   1.0255   1.0283   1.0325
     4.2034   4.2352   4.2840   4.3219   4.5513   4.5628   4.6630   4.6693
     4.8352   4.8478   4.8613   4.8663   5.8585   5.8617   5.8941   5.9032
     6.0725   6.0803   6.1354   6.1389   6.3181   6.3198   6.3698   6.3744
     7.3034   7.3610   7.5212   7.6396   7.6932   7.7514   7.9723   7.9818
     8.1005   8.1566   8.2737   8.3146   8.3780   8.4812   8.6403   8.6483
     8.6917

          k = 0.0000 1.3777 0.0000 (135143 PWs)   bands (ev):

   -20.2834 -20.2823 -20.2233 -20.2214 -20.1517 -20.1484 -20.1439 -20.1408
   -19.9782 -19.9774 -19.9416 -19.9412 -19.8090 -19.8079 -19.7732 -19.7717
   -19.6370 -19.6353 -19.6347 -19.6330 -19.5236 -19.5234 -19.5074 -19.5074
   -17.8955 -17.8857 -17.8820 -17.8718 -17.1914 -17.1884 -17.1710 -17.1692
   -17.0795 -17.0749 -17.0427 -17.0375 -16.0073 -16.0030 -15.9998 -15.9957
   -11.9290 -11.9261 -11.9064 -11.9036 -11.7427 -11.7416 -11.7300 -11.7276
   -10.4220 -10.4206 -10.3943 -10.3935  -9.8968  -9.8806  -9.8608  -9.8463
    -9.7291  -9.7282  -9.7025  -9.7003  -9.4823  -9.4803  -9.4473  -9.4454
    -8.0416  -8.0334  -8.0190  -8.0142  -7.7370  -7.7160  -7.7072  -7.6830
    -6.8834  -6.8801  -6.8650  -6.8493  -6.6806  -6.6453  -6.6265  -6.5908
    -6.4759  -6.4490  -6.4208  -6.3695  -6.3535  -6.2992  -6.2875  -6.1911
    -6.1211  -6.1041  -6.0738  -6.0452  -5.7739  -5.7612  -5.7299  -5.7197
    -5.5448  -5.5184  -5.4255  -5.4043  -5.1959  -5.1683  -5.1357  -5.1199
    -4.8802  -4.8739  -4.8151  -4.7781  -4.6379  -4.5762  -4.5463  -4.4970
    -4.3906  -4.3525  -4.3300  -4.3181  -4.2591  -4.2551  -4.1539  -4.1349
    -4.1323  -4.0781  -4.0774  -4.0316  -4.0168  -3.9622  -3.9313  -3.9289
    -3.9094  -3.8953  -3.8752  -3.8612  -3.8395  -3.8120  -3.7612  -3.7306
    -3.7071  -3.6760  -3.6647  -3.6380  -3.5934  -3.5409  -3.5299  -3.5236
    -3.3729  -3.3402  -3.1983  -3.1698  -3.0423  -2.9995  -2.9638  -2.9475
    -2.9351  -2.9083  -2.8938  -2.8749  -2.8714  -2.8467  -2.8254  -2.7765
    -2.6876  -2.6725  -2.6587  -2.6495  -2.6246  -2.5972  -2.5476  -2.5375
    -0.8073  -0.7742  -0.7573  -0.7024  -0.6504  -0.6452  -0.5727  -0.5577
    -0.4929  -0.4670  -0.4426  -0.4357  -0.3994  -0.3273  -0.2936  -0.2620
    -0.2276  -0.2249  -0.2076  -0.1333  -0.1080  -0.0513  -0.0127   0.0117
     0.2348   0.2622   0.2846   0.3216   0.5496   0.5644   0.6889   0.7000
     0.7074   0.7215   0.7291   0.7471   1.0836   1.0989   1.1263   1.1355
     4.1601   4.1877   4.2633   4.3074   4.4337   4.4650   4.6857   4.7367
     4.7882   4.8623   4.9466   4.9927   5.6663   5.7239   5.7451   5.8243
     6.0039   6.0461   6.1900   6.2392   6.2546   6.3284   6.3306   6.3851
     7.3539   7.4157   7.5112   7.6133   7.7692   7.9033   7.9195   8.1339
     8.1839   8.3556   8.3731   8.5364   8.5593   8.5819   8.7120   8.7849
     8.8647

          k = 0.0000 1.3777 1.1413 (135122 PWs)   bands (ev):

   -20.2614 -20.2576 -20.2266 -20.2248 -20.1561 -20.1549 -20.1525 -20.1522
   -19.9694 -19.9689 -19.9510 -19.9508 -19.8040 -19.8022 -19.7856 -19.7845
   -19.6355 -19.6346 -19.6341 -19.6328 -19.5199 -19.5198 -19.5118 -19.5118
   -17.8956 -17.8908 -17.8892 -17.8837 -17.1723 -17.1705 -17.1624 -17.1603
   -17.0722 -17.0699 -17.0538 -17.0512 -16.0063 -16.0048 -16.0025 -16.0000
   -11.9282 -11.9233 -11.9171 -11.9123 -11.7336 -11.7336 -11.7271 -11.7258
   -10.4260 -10.4214 -10.4084 -10.4021  -9.8919  -9.8760  -9.8573  -9.8542
    -9.7284  -9.7264  -9.7185  -9.7111  -9.4706  -9.4690  -9.4527  -9.4519
    -8.0248  -8.0210  -8.0105  -7.9829  -7.7253  -7.7247  -7.7129  -7.6897
    -6.9395  -6.9378  -6.8784  -6.8729  -6.6384  -6.6259  -6.6062  -6.5670
    -6.4567  -6.4041  -6.3876  -6.3678  -6.3114  -6.2875  -6.2717  -6.2199
    -6.1271  -6.1039  -6.0788  -6.0398  -5.7957  -5.7829  -5.7425  -5.7250
    -5.5108  -5.4376  -5.3942  -5.3898  -5.1881  -5.1854  -5.1614  -5.1455
    -4.9095  -4.9056  -4.8578  -4.8364  -4.6025  -4.5637  -4.5510  -4.5228
    -4.4354  -4.3693  -4.3686  -4.3403  -4.3256  -4.2794  -4.2100  -4.1970
    -4.1425  -4.1385  -4.1186  -4.0638  -4.0009  -3.9772  -3.9736  -3.9529
    -3.8976  -3.8789  -3.8434  -3.8429  -3.7814  -3.7638  -3.7441  -3.7211
    -3.6739  -3.6737  -3.6529  -3.6240  -3.5718  -3.5411  -3.5209  -3.5146
    -3.2809  -3.2225  -3.1360  -3.1235  -3.0284  -3.0100  -2.9940  -2.9725
    -2.9186  -2.9019  -2.8991  -2.8619  -2.8612  -2.8398  -2.8354  -2.7811
    -2.6797  -2.6682  -2.6609  -2.6533  -2.6237  -2.6007  -2.5761  -2.5656
    -0.8103  -0.7465  -0.6859  -0.6843  -0.6542  -0.6011  -0.5806  -0.5636
    -0.5279  -0.5002  -0.4908  -0.4588  -0.4272  -0.3792  -0.3457  -0.3320
    -0.2363  -0.2170  -0.1979  -0.1638  -0.0619  -0.0461  -0.0281  -0.0113
     0.2700   0.2927   0.3689   0.4036   0.5851   0.5935   0.6543   0.6543
     0.6796   0.6859   0.7200   0.7248   1.0833   1.0948   1.1103   1.1163
     4.2206   4.2761   4.2770   4.3053   4.4907   4.5709   4.6764   4.7017
     4.8230   4.8395   4.9042   4.9239   5.6724   5.7111   5.7161   5.7549
     6.0592   6.0776   6.1828   6.1836   6.2903   6.3167   6.3366   6.3605
     7.4257   7.5185   7.6447   7.7813   7.8360   7.9456   7.9869   8.1479
     8.1643   8.3534   8.3864   8.4856   8.5766   8.5983   8.6446   8.6909
     8.6974

     highest occupied, lowest unoccupied level (ev):     1.1355    4.0597

!    total energy              =   -2172.27729444 Ry
     Harris-Foulkes estimate   =   -2172.27729444 Ry
     estimated scf accuracy    <          2.6E-09 Ry

     total all-electron energy =     -8164.890973 Ry

     The total energy is the sum of the following terms:

     one-electron contribution =   -1079.06169098 Ry
     hartree contribution      =     705.79157721 Ry
     xc contribution           =    -447.75704575 Ry
     ewald contribution        =    -750.33951175 Ry
     Dispersion Correction     =      -0.59629845 Ry
     one-center paw contrib.   =    -600.31432473 Ry

     convergence has been achieved in  15 iterations

     Forces acting on atoms (cartesian axes, Ry/au):

     atom    1 type  2   force =     0.00406136   -0.00415362   -0.00391679
     atom    2 type  2   force =    -0.00406136    0.00415362   -0.00391679
     atom    3 type  2   force =     0.00406136    0.00415362   -0.00391679
     atom    4 type  2   force =    -0.00406136   -0.00415362   -0.00391679
     atom    5 type  2   force =    -0.00066407    0.00226547    0.00004096
     atom    6 type  2   force =     0.00066407   -0.00226547    0.00004096
     atom    7 type  2   force =    -0.00066407   -0.00226547    0.00004096
     atom    8 type  2   force =     0.00066407    0.00226547    0.00004096
     atom    9 type  1   force =     0.00154639    0.00326748    0.00248229
     atom   10 type  1   force =    -0.00154639   -0.00326748    0.00248229
     atom   11 type  1   force =     0.00154639   -0.00326748    0.00248229
     atom   12 type  1   force =    -0.00154639    0.00326748    0.00248229
     atom   13 type  3   force =    -0.00087907   -0.00442645   -0.00298076
     atom   14 type  3   force =     0.00087907    0.00442645   -0.00298076
     atom   15 type  3   force =    -0.00087907    0.00442645   -0.00298076
     atom   16 type  3   force =     0.00087907   -0.00442645   -0.00298076
     atom   17 type  3   force =    -0.00025639   -0.00043701    0.00040396
     atom   18 type  3   force =     0.00025639    0.00043701    0.00040396
     atom   19 type  3   force =    -0.00025639    0.00043701    0.00040396
     atom   20 type  3   force =     0.00025639   -0.00043701    0.00040396
     atom   21 type  4   force =    -0.00028886    0.00013991    0.00130412
     atom   22 type  4   force =     0.00028886   -0.00013991    0.00130412
     atom   23 type  4   force =    -0.00028886   -0.00013991    0.00130412
     atom   24 type  4   force =     0.00028886    0.00013991    0.00130412
     atom   25 type  2   force =    -0.00603506   -0.00932763    0.00517661
     atom   26 type  2   force =     0.00603506    0.00932763    0.00517661
     atom   27 type  2   force =    -0.00603506    0.00932763    0.00517661
     atom   28 type  2   force =     0.00603506   -0.00932763    0.00517661
     atom   29 type  4   force =     0.00162538   -0.00127566   -0.00122988
     atom   30 type  4   force =    -0.00162538    0.00127566   -0.00122988
     atom   31 type  4   force =     0.00162538    0.00127566   -0.00122988
     atom   32 type  4   force =    -0.00162538   -0.00127566   -0.00122988
     atom   33 type  1   force =     0.00099490    0.01145868   -0.00386078
     atom   34 type  1   force =    -0.00099490   -0.01145868   -0.00386078
     atom   35 type  1   force =     0.00099490   -0.01145868   -0.00386078
     atom   36 type  1   force =    -0.00099490    0.01145868   -0.00386078
     atom   37 type  3   force =     0.00041827   -0.00071727    0.00017366
     atom   38 type  3   force =    -0.00041827    0.00071727    0.00017366
     atom   39 type  3   force =     0.00041827    0.00071727    0.00017366
     atom   40 type  3   force =    -0.00041827   -0.00071727    0.00017366
     atom   41 type  3   force =    -0.00076406    0.00102555    0.00213972
     atom   42 type  3   force =     0.00076406   -0.00102555    0.00213972
     atom   43 type  3   force =    -0.00076406   -0.00102555    0.00213972
     atom   44 type  3   force =     0.00076406    0.00102555    0.00213972
     atom   45 type  2   force =     0.00604720    0.00582543   -0.00313381
     atom   46 type  2   force =    -0.00604720   -0.00582543   -0.00313381
     atom   47 type  2   force =     0.00604720   -0.00582543   -0.00313381
     atom   48 type  2   force =    -0.00604720    0.00582543   -0.00313381
     atom   49 type  4   force =    -0.00081625    0.00142099    0.00187868
     atom   50 type  4   force =     0.00081625   -0.00142099    0.00187868
     atom   51 type  4   force =    -0.00081625   -0.00142099    0.00187868
     atom   52 type  4   force =     0.00081625    0.00142099    0.00187868
     atom   53 type  1   force =    -0.00705634    0.00424010    0.00138562
     atom   54 type  1   force =     0.00705634   -0.00424010    0.00138562
     atom   55 type  1   force =    -0.00705634   -0.00424010    0.00138562
     atom   56 type  1   force =     0.00705634    0.00424010    0.00138562
     atom   57 type  3   force =     0.00025505    0.00065391   -0.00012421
     atom   58 type  3   force =    -0.00025505   -0.00065391   -0.00012421
     atom   59 type  3   force =     0.00025505   -0.00065391   -0.00012421
     atom   60 type  3   force =    -0.00025505    0.00065391   -0.00012421
     atom   61 type  3   force =     0.00205908   -0.00171312    0.00133134
     atom   62 type  3   force =    -0.00205908    0.00171312    0.00133134
     atom   63 type  3   force =     0.00205908    0.00171312    0.00133134
     atom   64 type  3   force =    -0.00205908   -0.00171312    0.00133134
     atom   65 type  4   force =    -0.00094787   -0.00048385   -0.00014817
     atom   66 type  4   force =     0.00094787    0.00048385   -0.00014817
     atom   67 type  4   force =    -0.00094787    0.00048385   -0.00014817
     atom   68 type  4   force =     0.00094787   -0.00048385   -0.00014817
     atom   69 type  1   force =     0.00066246   -0.00191465    0.00231055
     atom   70 type  1   force =    -0.00066246    0.00191465    0.00231055
     atom   71 type  1   force =     0.00066246    0.00191465    0.00231055
     atom   72 type  1   force =    -0.00066246   -0.00191465    0.00231055
     atom   73 type  3   force =    -0.00112406    0.00211991   -0.00031907
     atom   74 type  3   force =     0.00112406   -0.00211991   -0.00031907
     atom   75 type  3   force =    -0.00112406   -0.00211991   -0.00031907
     atom   76 type  3   force =     0.00112406    0.00211991   -0.00031907
     atom   77 type  1   force =     0.00020200   -0.00073554    0.00112757
     atom   78 type  1   force =    -0.00020200    0.00073554    0.00112757
     atom   79 type  1   force =     0.00020200    0.00073554    0.00112757
     atom   80 type  1   force =    -0.00020200   -0.00073554    0.00112757
     atom   81 type  3   force =     0.00033576    0.00011808   -0.00004852
     atom   82 type  3   force =    -0.00033576   -0.00011808   -0.00004852
     atom   83 type  3   force =     0.00033576   -0.00011808   -0.00004852
     atom   84 type  3   force =    -0.00033576    0.00011808   -0.00004852
     atom   85 type  4   force =    -0.00687926   -0.00168599    0.00369560
     atom   86 type  4   force =     0.00687926    0.00168599    0.00369560
     atom   87 type  4   force =    -0.00687926    0.00168599    0.00369560
     atom   88 type  4   force =     0.00687926   -0.00168599    0.00369560
     atom   89 type  4   force =    -0.00115566    0.00010491    0.00109885
     atom   90 type  4   force =     0.00115566   -0.00010491    0.00109885
     atom   91 type  4   force =    -0.00115566   -0.00010491    0.00109885
     atom   92 type  4   force =     0.00115566    0.00010491    0.00109885
     atom   93 type  1   force =     0.00273879    0.00448969   -0.00294227
     atom   94 type  1   force =    -0.00273879   -0.00448969   -0.00294227
     atom   95 type  1   force =     0.00273879   -0.00448969   -0.00294227
     atom   96 type  1   force =    -0.00273879    0.00448969   -0.00294227
     atom   97 type  3   force =     0.00151872   -0.00490134    0.00122118
     atom   98 type  3   force =    -0.00151872    0.00490134    0.00122118
     atom   99 type  3   force =     0.00151872    0.00490134    0.00122118
     atom  100 type  3   force =    -0.00151872   -0.00490134    0.00122118
     atom  101 type  1   force =    -0.00116546    0.00128464   -0.00132994
     atom  102 type  1   force =     0.00116546   -0.00128464   -0.00132994
     atom  103 type  1   force =    -0.00116546   -0.00128464   -0.00132994
     atom  104 type  1   force =     0.00116546    0.00128464   -0.00132994
     atom  105 type  3   force =     0.00113791   -0.00052841    0.00066841
     atom  106 type  3   force =    -0.00113791    0.00052841    0.00066841
     atom  107 type  3   force =     0.00113791    0.00052841    0.00066841
     atom  108 type  3   force =    -0.00113791   -0.00052841    0.00066841
     atom  109 type  1   force =     0.00287064   -0.00970642   -0.00484012
     atom  110 type  1   force =    -0.00287064    0.00970642   -0.00484012
     atom  111 type  1   force =     0.00287064    0.00970642   -0.00484012
     atom  112 type  1   force =    -0.00287064   -0.00970642   -0.00484012
     atom  113 type  3   force =     0.00261032    0.00291536   -0.00105478
     atom  114 type  3   force =    -0.00261032   -0.00291536   -0.00105478
     atom  115 type  3   force =     0.00261032   -0.00291536   -0.00105478
     atom  116 type  3   force =    -0.00261032    0.00291536   -0.00105478
     atom  117 type  1   force =    -0.00066229   -0.00032074   -0.00095427
     atom  118 type  1   force =     0.00066229    0.00032074   -0.00095427
     atom  119 type  1   force =    -0.00066229    0.00032074   -0.00095427
     atom  120 type  1   force =     0.00066229   -0.00032074   -0.00095427
     atom  121 type  3   force =    -0.00027289    0.00161981    0.00044426
     atom  122 type  3   force =     0.00027289   -0.00161981    0.00044426
     atom  123 type  3   force =    -0.00027289   -0.00161981    0.00044426
     atom  124 type  3   force =     0.00027289    0.00161981    0.00044426

     Total force =     0.059451     Total SCF correction =     0.000128


     Computing stress (Cartesian axis) and pressure

          total   stress  (Ry/bohr**3)                   (kbar)     P=   -3.10
  -0.00001474   0.00000000   0.00000000         -2.17      0.00      0.00
   0.00000000  -0.00001532   0.00000000          0.00     -2.25      0.00
   0.00000000   0.00000000  -0.00003310          0.00      0.00     -4.87


     Writing output data file scf.save
 
     init_run     :     36.89s CPU     38.89s WALL (       1 calls)
     electrons    :   1201.15s CPU   1264.89s WALL (       1 calls)
     forces       :     19.68s CPU     19.98s WALL (       1 calls)
     stress       :    135.09s CPU    135.46s WALL (       1 calls)

     Called by init_run:
     wfcinit      :     28.42s CPU     30.21s WALL (       1 calls)
     potinit      :      2.80s CPU      2.84s WALL (       1 calls)

     Called by electrons:
     c_bands      :   1079.01s CPU   1131.80s WALL (      15 calls)
     sum_band     :    107.32s CPU    116.36s WALL (      15 calls)
     v_of_rho     :      2.36s CPU      2.63s WALL (      16 calls)
     newd         :      5.49s CPU      7.15s WALL (      16 calls)
     PAW_pot      :      6.10s CPU      6.11s WALL (      16 calls)
     mix_rho      :      0.62s CPU      0.67s WALL (      15 calls)

     Called by c_bands:
     init_us_2    :      6.10s CPU      6.14s WALL (     132 calls)
     cegterg      :   1049.59s CPU   1102.33s WALL (      60 calls)

     Called by sum_band:
     sum_band:bec :      0.06s CPU      0.06s WALL (      60 calls)
     addusdens    :      5.80s CPU      7.39s WALL (      15 calls)

     Called by *egterg:
     h_psi        :    552.57s CPU    596.21s WALL (     330 calls)
     s_psi        :    102.72s CPU    102.73s WALL (     330 calls)
     g_psi        :      3.05s CPU      3.05s WALL (     266 calls)
     cdiaghg      :     69.55s CPU     69.61s WALL (     326 calls)

     Called by h_psi:
     h_psi:pot    :    548.29s CPU    591.84s WALL (     330 calls)
     h_psi:calbec :    117.12s CPU    117.41s WALL (     330 calls)
     vloc_psi     :    328.61s CPU    371.84s WALL (     330 calls)
     add_vuspsi   :    102.56s CPU    102.58s WALL (     330 calls)

     General routines
     calbec       :    174.30s CPU    174.72s WALL (     410 calls)
     fft          :      4.77s CPU      5.23s WALL (     232 calls)
     fftw         :    352.10s CPU    402.40s WALL (  102220 calls)
 
     Parallel routines
     fft_scatter  :     90.20s CPU    140.63s WALL (  102452 calls)
 
     PWSCF        : 23m20.98s CPU    24m57.47s WALL

 
   This run was terminated on:   2:33:53   8Dec2017            

=------------------------------------------------------------------------------=
   JOB DONE.
=------------------------------------------------------------------------------=
