
     Program PWSCF v.6.1 (svn rev. 13369) starts on 13Nov2017 at 12:24: 4 

     This program is part of the open-source Quantum ESPRESSO suite
     for quantum simulation of materials; please cite
         "P. Giannozzi et al., J. Phys.:Condens. Matter 21 395502 (2009);
          URL http://www.quantum-espresso.org", 
     in publications or presentations arising from this work. More details at
     http://www.quantum-espresso.org/quote

     Parallel version (MPI), running on     8 processors
     R & G space division:  proc/nbgrp/npool/nimage =       8
     Waiting for input...
     Reading input from standard input

     Current dimensions of program PWSCF are:
     Max number of different atomic species (ntypx) = 10
     Max number of k-points (npk) =  40000
     Max angular momentum in pseudopotentials (lmaxx) =  3
               file C.pbe-n-kjpaw_psl.0.1.UPF: wavefunction(s)  2P renormalized
               file N.pbe-n-kjpaw_psl.0.1.UPF: wavefunction(s)  2P renormalized
               file H.pbe-kjpaw_psl.0.1.UPF: wavefunction(s)  1S renormalized
               file O.pbe-n-kjpaw_psl.0.1.UPF: wavefunction(s)  2P renormalized

     -------------------------------------
     Parameters for Dispersion Correction:
     -------------------------------------
       atom      VdW radius       C_6     

        C          2.744         60.710
        N          2.640         42.670
        H          1.892          4.857
        O          2.536         24.284

     Subspace diagonalization in iterative solution of the eigenvalue problem:
     a serial algorithm will be used

 
     Parallelization info
     --------------------
     sticks:   dense  smooth     PW     G-vecs:    dense   smooth      PW
     Min        1049    1049    282                50038    50038    6954
     Max        1050    1050    283                50041    50041    6956
     Sum        8397    8397   2257               400319   400319   55639
 


     bravais-lattice index     =            0
     lattice parameter (alat)  =       9.8445  a.u.
     unit-cell volume          =    2962.6116 (a.u.)^3
     number of atoms/cell      =           44
     number of atomic types    =            4
     number of electrons       =       144.00
     number of Kohn-Sham states=           86
     kinetic-energy cutoff     =     100.0000  Ry
     charge density cutoff     =     400.0000  Ry
     convergence threshold     =      1.0E-08
     mixing beta               =       0.5000
     number of iterations used =            8  plain     mixing
     Exchange-correlation      =  SLA  PW   PBX  PBC ( 1  4  3  4 0 0)

     celldm(1)=   9.844528  celldm(2)=   0.000000  celldm(3)=   0.000000
     celldm(4)=   0.000000  celldm(5)=   0.000000  celldm(6)=   0.000000

     crystal axes: (cart. coord. in units of alat)
               a(1) = (   1.000000   0.000000   0.000000 )  
               a(2) = (   0.000000   2.722814   0.000000 )  
               a(3) = (  -0.232958   0.000000   1.140439 )  

     reciprocal axes: (cart. coord. in units 2 pi/alat)
               b(1) = (  1.000000  0.000000  0.204270 )  
               b(2) = (  0.000000  0.367267  0.000000 )  
               b(3) = (  0.000000  0.000000  0.876855 )  


     PseudoPot. # 1 for  C read from file:
     /scratch/ahofstet/pseudo/C.pbe-n-kjpaw_psl.0.1.UPF
     MD5 check sum: 430fe95172b1e11ef3f8ed03bac87931
     Pseudo is Projector augmented-wave + core cor, Zval =  4.0
     Generated using "atomic" code by A. Dal Corso  v.5.0.99 svn rev. 10869
     Shape of augmentation charge: BESSEL
     Using radial grid of 1073 points,  4 beta functions with: 
                l(1) =   0
                l(2) =   0
                l(3) =   1
                l(4) =   1
     Q(r) pseudized with 0 coefficients 


     PseudoPot. # 2 for  N read from file:
     /scratch/ahofstet/pseudo/N.pbe-n-kjpaw_psl.0.1.UPF
     MD5 check sum: f73187c8b701007e77325f868c9291d7
     Pseudo is Projector augmented-wave + core cor, Zval =  5.0
     Generated using "atomic" code by A. Dal Corso  v.5.0.99 svn rev. 10869
     Shape of augmentation charge: PSQ
     Using radial grid of 1085 points,  4 beta functions with: 
                l(1) =   0
                l(2) =   0
                l(3) =   1
                l(4) =   1
     Q(r) pseudized with 0 coefficients 


     PseudoPot. # 3 for  H read from file:
     /scratch/ahofstet/pseudo/H.pbe-kjpaw_psl.0.1.UPF
     MD5 check sum: 94e484f906d9e9773b2f6e52662335b2
     Pseudo is Projector augmented-wave, Zval =  1.0
     Generated using "atomic" code by A. Dal Corso  v.5.0.99 svn rev. 10869
     Shape of augmentation charge: PSQ
     Using radial grid of  929 points,  2 beta functions with: 
                l(1) =   0
                l(2) =   0
     Q(r) pseudized with 0 coefficients 


     PseudoPot. # 4 for  O read from file:
     /scratch/ahofstet/pseudo/O.pbe-n-kjpaw_psl.0.1.UPF
     MD5 check sum: 3f94a2996a3169367d6eb21d9b593f20
     Pseudo is Projector augmented-wave + core cor, Zval =  6.0
     Generated using "atomic" code by A. Dal Corso  v.5.0.99 svn rev. 10869
     Shape of augmentation charge: BESSEL
     Using radial grid of 1095 points,  4 beta functions with: 
                l(1) =   0
                l(2) =   0
                l(3) =   1
                l(4) =   1
     Q(r) pseudized with 0 coefficients 


     atomic species   valence    mass     pseudopotential
        C              4.00    12.01070      C( 1.00)
        N              5.00    14.00670      N( 1.00)
        H              1.00     1.00794      H( 1.00)
        O              6.00    15.99940      O( 1.00)

      2 Sym. Ops., with inversion, found



   Cartesian axes

     site n.     atom                  positions (alat units)
         1           N   tau(   1) = (   0.0638063   1.5572995   0.7900488  )
         2           N   tau(   2) = (   0.6802330   2.5268660   0.2198211  )
         3           N   tau(   3) = (   0.7032359   1.1655146   0.3503900  )
         4           N   tau(   4) = (   0.0868092   0.1959481   0.9206178  )
         5           N   tau(   5) = (   0.1724548   1.6039794   1.0152588  )
         6           N   tau(   6) = (   0.7888617   2.4801256   0.4450582  )
         7           N   tau(   7) = (   0.5945874   1.1188346   0.1251800  )
         8           N   tau(   8) = (  -0.0218195   0.2426885   0.6953807  )
         9           N   tau(   9) = (   0.4106570   1.7853804   0.5759621  )
        10           N   tau(  10) = (  -0.2057688   2.2989378   1.1461723  )
        11           N   tau(  11) = (   0.3563851   0.9374337   0.5644768  )
        12           N   tau(  12) = (   0.9728109   0.4238763  -0.0057334  )
        13           N   tau(  13) = (   0.1119163   1.5534039   0.3455680  )
        14           N   tau(  14) = (   0.4953967   2.5307825   0.9157995  )
        15           N   tau(  15) = (   0.6551259   1.1694102   0.7948708  )
        16           N   tau(  16) = (   0.2716455   0.1920316   0.2246393  )
        17           H   tau(  17) = (  -0.0334416   1.4164346   0.3438089  )
        18           H   tau(  18) = (   0.3500391   2.6677538   0.9140403  )
        19           H   tau(  19) = (   0.8004837   1.3063794   0.7966300  )
        20           H   tau(  20) = (   0.4170031   0.0550603   0.2263985  )
        21           H   tau(  21) = (   0.2234664   1.5814794   0.1788879  )
        22           H   tau(  22) = (   0.6069556   2.5027213   0.7490990  )
        23           H   tau(  23) = (   0.5435758   1.1413347   0.9615510  )
        24           H   tau(  24) = (   0.1600866   0.2200928   0.3913398  )
        25           C   tau(  25) = (   0.2003870   1.6314839   0.5709610  )
        26           C   tau(  26) = (   0.5839039   2.4527193   1.1411751  )
        27           C   tau(  27) = (   0.5666551   1.0913302   0.5694778  )
        28           C   tau(  28) = (   0.1831383   0.2700948  -0.0007363  )
        29           C   tau(  29) = (   0.4068995   1.7082115   1.0266025  )
        30           C   tau(  30) = (   0.0233148   2.3759260   0.4564275  )
        31           C   tau(  31) = (   0.3601427   1.0146026   0.1138363  )
        32           C   tau(  32) = (   0.7437274   0.3468881   0.6840114  )
        33           H   tau(  33) = (   0.7289817   1.7182363   0.0742861  )
        34           H   tau(  34) = (   0.1123715   2.3658523   0.6445437  )
        35           H   tau(  35) = (   0.0380605   1.0045778   1.0661527  )
        36           H   tau(  36) = (   0.6546706   0.3569618   0.4958952  )
        37           C   tau(  37) = (   0.5181591   1.8146947   0.8050150  )
        38           C   tau(  38) = (   0.1346515   2.2695920   0.2347907  )
        39           C   tau(  39) = (   0.2488830   0.9081193   0.3354239  )
        40           C   tau(  40) = (   0.6323907   0.4532221   0.9056482  )
        41           H   tau(  41) = (   0.6881525   1.9364173   0.8199110  )
        42           H   tau(  42) = (   0.3047544   2.1480007   0.2496822  )
        43           H   tau(  43) = (   0.0788897   0.7863968   0.3205278  )
        44           H   tau(  44) = (   0.4622878   0.5748134   0.8907566  )

     number of k points=    14
                       cart. coord. in units 2pi/alat
        k(    1) = (   0.0000000   0.0000000   0.0000000), wk =   0.0833333
        k(    2) = (   0.0000000   0.0000000   0.2922851), wk =   0.1666667
        k(    3) = (   0.0000000  -0.1836335   0.0000000), wk =   0.0833333
        k(    4) = (   0.0000000  -0.1836335   0.2922851), wk =   0.1666667
        k(    5) = (   0.2500000   0.0000000   0.0510676), wk =   0.1666667
        k(    6) = (   0.2500000   0.0000000   0.3433527), wk =   0.1666667
        k(    7) = (   0.2500000   0.0000000  -0.2412176), wk =   0.1666667
        k(    8) = (   0.2500000  -0.1836335   0.0510676), wk =   0.1666667
        k(    9) = (   0.2500000  -0.1836335   0.3433527), wk =   0.1666667
        k(   10) = (   0.2500000  -0.1836335  -0.2412176), wk =   0.1666667
        k(   11) = (  -0.5000000   0.0000000  -0.1021352), wk =   0.0833333
        k(   12) = (  -0.5000000   0.0000000   0.1901500), wk =   0.1666667
        k(   13) = (  -0.5000000  -0.1836335  -0.1021352), wk =   0.0833333
        k(   14) = (  -0.5000000  -0.1836335   0.1901500), wk =   0.1666667

     Dense  grid:   400319 G-vectors     FFT dimensions: (  64, 180,  75)

     Estimated max dynamical RAM per process >     247.34MB

     Estimated total allocated dynamical RAM >    1978.76MB

     Check: negative/imaginary core charge=   -0.000002    0.000000

     Initial potential from superposition of free atoms

     starting charge  143.99923, renormalised to  144.00000
     Starting wfc are  128 randomized atomic wfcs
     Checking if some PAW data can be deallocated... 

     total cpu time spent up to now is       16.0 secs

     per-process dynamical memory:   235.2 Mb

     Self-consistent Calculation

     iteration #  1     ecut=   100.00 Ry     beta=0.50
     Davidson diagonalization with overlap
     ethr =  1.00E-02,  avg # of iterations =  3.6

     total cpu time spent up to now is       51.6 secs

     total energy              =    -690.87635994 Ry
     Harris-Foulkes estimate   =    -693.03193500 Ry
     estimated scf accuracy    <       4.20596712 Ry

     iteration #  2     ecut=   100.00 Ry     beta=0.50
     Davidson diagonalization with overlap
     ethr =  2.92E-03,  avg # of iterations =  2.8

     total cpu time spent up to now is       73.0 secs

     total energy              =    -691.31561705 Ry
     Harris-Foulkes estimate   =    -691.53086646 Ry
     estimated scf accuracy    <       0.48514656 Ry

     iteration #  3     ecut=   100.00 Ry     beta=0.50
     Davidson diagonalization with overlap
     ethr =  3.37E-04,  avg # of iterations =  6.5

     total cpu time spent up to now is      112.3 secs

     total energy              =    -691.53942074 Ry
     Harris-Foulkes estimate   =    -691.62202884 Ry
     estimated scf accuracy    <       0.20092363 Ry

     iteration #  4     ecut=   100.00 Ry     beta=0.50
     Davidson diagonalization with overlap
     ethr =  1.40E-04,  avg # of iterations =  2.7

     total cpu time spent up to now is      132.6 secs

     total energy              =    -691.55390716 Ry
     Harris-Foulkes estimate   =    -691.56897427 Ry
     estimated scf accuracy    <       0.03561822 Ry

     iteration #  5     ecut=   100.00 Ry     beta=0.50
     Davidson diagonalization with overlap
     ethr =  2.47E-05,  avg # of iterations =  5.4

     total cpu time spent up to now is      169.6 secs

     total energy              =    -691.56881847 Ry
     Harris-Foulkes estimate   =    -691.57651481 Ry
     estimated scf accuracy    <       0.02146876 Ry

     iteration #  6     ecut=   100.00 Ry     beta=0.50
     Davidson diagonalization with overlap
     ethr =  1.49E-05,  avg # of iterations =  1.0

     total cpu time spent up to now is      187.9 secs

     total energy              =    -691.56882335 Ry
     Harris-Foulkes estimate   =    -691.57089591 Ry
     estimated scf accuracy    <       0.00472710 Ry

     iteration #  7     ecut=   100.00 Ry     beta=0.50
     Davidson diagonalization with overlap
     ethr =  3.28E-06,  avg # of iterations =  4.6

     total cpu time spent up to now is      222.4 secs

     total energy              =    -691.57093057 Ry
     Harris-Foulkes estimate   =    -691.57112412 Ry
     estimated scf accuracy    <       0.00061984 Ry

     iteration #  8     ecut=   100.00 Ry     beta=0.50
     Davidson diagonalization with overlap
     ethr =  4.30E-07,  avg # of iterations =  2.0

     total cpu time spent up to now is      241.6 secs

     total energy              =    -691.57094846 Ry
     Harris-Foulkes estimate   =    -691.57099892 Ry
     estimated scf accuracy    <       0.00013798 Ry

     iteration #  9     ecut=   100.00 Ry     beta=0.50
     Davidson diagonalization with overlap
     ethr =  9.58E-08,  avg # of iterations =  3.9

     total cpu time spent up to now is      273.7 secs

     total energy              =    -691.57100648 Ry
     Harris-Foulkes estimate   =    -691.57102526 Ry
     estimated scf accuracy    <       0.00004649 Ry

     iteration # 10     ecut=   100.00 Ry     beta=0.50
     Davidson diagonalization with overlap
     ethr =  3.23E-08,  avg # of iterations =  1.6

     total cpu time spent up to now is      292.4 secs

     total energy              =    -691.57101009 Ry
     Harris-Foulkes estimate   =    -691.57101210 Ry
     estimated scf accuracy    <       0.00000492 Ry

     iteration # 11     ecut=   100.00 Ry     beta=0.50
     Davidson diagonalization with overlap
     ethr =  3.42E-09,  avg # of iterations =  4.0

     total cpu time spent up to now is      330.6 secs

     total energy              =    -691.57101429 Ry
     Harris-Foulkes estimate   =    -691.57101660 Ry
     estimated scf accuracy    <       0.00000625 Ry

     iteration # 12     ecut=   100.00 Ry     beta=0.50
     Davidson diagonalization with overlap
     ethr =  3.42E-09,  avg # of iterations =  1.0

     total cpu time spent up to now is      349.0 secs

     total energy              =    -691.57101401 Ry
     Harris-Foulkes estimate   =    -691.57101470 Ry
     estimated scf accuracy    <       0.00000126 Ry

     iteration # 13     ecut=   100.00 Ry     beta=0.50
     Davidson diagonalization with overlap
     ethr =  8.72E-10,  avg # of iterations =  4.0

     total cpu time spent up to now is      384.8 secs

     total energy              =    -691.57101486 Ry
     Harris-Foulkes estimate   =    -691.57101517 Ry
     estimated scf accuracy    <       0.00000094 Ry

     iteration # 14     ecut=   100.00 Ry     beta=0.50
     Davidson diagonalization with overlap
     ethr =  6.55E-10,  avg # of iterations =  1.0

     total cpu time spent up to now is      403.2 secs

     total energy              =    -691.57101480 Ry
     Harris-Foulkes estimate   =    -691.57101491 Ry
     estimated scf accuracy    <       0.00000028 Ry

     iteration # 15     ecut=   100.00 Ry     beta=0.50
     Davidson diagonalization with overlap
     ethr =  1.93E-10,  avg # of iterations =  4.0

     total cpu time spent up to now is      433.7 secs

     total energy              =    -691.57101491 Ry
     Harris-Foulkes estimate   =    -691.57101491 Ry
     estimated scf accuracy    <       0.00000001 Ry

     iteration # 16     ecut=   100.00 Ry     beta=0.50
     Davidson diagonalization with overlap
     ethr =  1.02E-11,  avg # of iterations =  2.4

     total cpu time spent up to now is      453.9 secs

     End of self-consistent calculation

          k = 0.0000 0.0000 0.0000 ( 50087 PWs)   bands (ev):

   -19.5002 -19.4908 -19.3926 -19.3829 -17.0307 -17.0275 -17.0218 -17.0197
   -15.8436 -15.8365 -15.7985 -15.7929 -13.3767 -13.3764 -13.3444 -13.3437
   -10.5720 -10.4728 -10.4477 -10.3536  -9.7243  -9.7170  -9.6472  -9.6466
    -7.2537  -7.2126  -7.1289  -7.1010  -6.3877  -6.3803  -6.3545  -6.3486
    -5.7876  -5.6644  -5.6587  -5.5606  -5.1489  -5.0558  -4.7719  -4.7688
    -4.7459  -4.6933  -4.5116  -4.2980  -3.7175  -3.5924  -3.5509  -3.4980
    -2.4049  -2.4040  -2.2344  -2.2217  -1.9230  -1.9048  -1.8969  -1.8377
    -1.4978  -1.4571  -1.4541  -1.4096  -1.0082  -0.8564  -0.7619  -0.6309
     0.6691   0.7565   0.8294   0.8835   1.0095   1.0588   1.0665   1.1576
     3.8627   3.8920   3.9939   4.0430   5.1575   5.2314   5.3926   5.5244
     6.7389   7.2164   7.8835   8.0402   8.1709   8.1827

          k = 0.0000 0.0000 0.2923 ( 50070 PWs)   bands (ev):

   -19.4515 -19.4463 -19.3870 -19.3822 -17.1415 -17.1380 -17.0914 -17.0889
   -15.8446 -15.8394 -15.7955 -15.7910 -13.2624 -13.2617 -13.1871 -13.1856
   -10.4852 -10.4326 -10.3840 -10.3314  -9.7296  -9.7244  -9.6180  -9.6086
    -7.3232  -7.3007  -7.1953  -7.1856  -6.8411  -6.8354  -6.6885  -6.6529
    -5.5461  -5.5283  -5.2162  -5.1533  -5.1295  -5.0608  -4.8788  -4.8577
    -4.7517  -4.6996  -4.6001  -4.4859  -3.7221  -3.6680  -3.6316  -3.5793
    -2.4584  -2.4432  -2.2480  -2.2330  -1.9560  -1.9285  -1.6541  -1.6504
    -1.4671  -1.4395  -1.2924  -1.2624  -0.9481  -0.8685  -0.7988  -0.7495
     0.6098   0.6645   0.9921   1.0574   1.0773   1.1366   1.1932   1.2710
     3.8077   3.8915   4.1699   4.2546   5.2866   5.3353   5.4260   5.5367
     7.2183   7.7416   7.8459   7.9855   8.0786   8.1142

          k = 0.0000-0.1836 0.0000 ( 50034 PWs)   bands (ev):

   -19.4964 -19.4951 -19.3882 -19.3870 -17.0293 -17.0293 -17.0206 -17.0205
   -15.8403 -15.8403 -15.7955 -15.7955 -13.3766 -13.3765 -13.3442 -13.3438
   -10.5394 -10.5394 -10.3836 -10.3836  -9.7211  -9.7205  -9.6472  -9.6465
    -7.2363  -7.2360  -7.1121  -7.1119  -6.3853  -6.3853  -6.3497  -6.3495
    -5.7480  -5.7476  -5.5883  -5.5882  -5.1067  -5.1057  -4.7813  -4.7812
    -4.7216  -4.7215  -4.3888  -4.3886  -3.6674  -3.6669  -3.5120  -3.5120
    -2.4052  -2.4052  -2.2258  -2.2255  -1.9139  -1.9133  -1.8751  -1.8750
    -1.4577  -1.4574  -1.4446  -1.4446  -0.9542  -0.9540  -0.6757  -0.6752
     0.7087   0.7094   0.8535   0.8536   1.0312   1.0312   1.1209   1.1212
     3.8776   3.8780   4.0172   4.0175   5.1835   5.1841   5.4704   5.4707
     6.9321   6.9321   7.9601   7.9606   8.2242   8.2247

          k = 0.0000-0.1836 0.2923 ( 50004 PWs)   bands (ev):

   -19.4496 -19.4484 -19.3851 -19.3839 -17.1399 -17.1398 -17.0901 -17.0901
   -15.8421 -15.8421 -15.7931 -15.7931 -13.2621 -13.2620 -13.1865 -13.1862
   -10.4654 -10.4653 -10.3512 -10.3512  -9.7275  -9.7267  -9.6135  -9.6128
    -7.3125  -7.3122  -7.1902  -7.1901  -6.8390  -6.8385  -6.6704  -6.6697
    -5.5385  -5.5382  -5.1777  -5.1773  -5.1050  -5.1042  -4.8705  -4.8701
    -4.7290  -4.7283  -4.5351  -4.5346  -3.7030  -3.7024  -3.5976  -3.5976
    -2.4553  -2.4552  -2.2343  -2.2342  -1.9388  -1.9384  -1.6603  -1.6597
    -1.4567  -1.4561  -1.2728  -1.2725  -0.9114  -0.9112  -0.7709  -0.7703
     0.6350   0.6354   1.0262   1.0263   1.0969   1.0969   1.2423   1.2425
     3.8465   3.8466   4.2148   4.2152   5.3023   5.3034   5.4892   5.4896
     7.4184   7.4185   7.9027   7.9033   8.1337   8.1344

          k = 0.2500 0.0000 0.0511 ( 50054 PWs)   bands (ev):

   -19.4757 -19.4688 -19.3954 -19.3886 -17.0565 -17.0504 -17.0035 -16.9977
   -15.9072 -15.9029 -15.7793 -15.7749 -13.4192 -13.4184 -13.2851 -13.2844
   -10.5162 -10.4496 -10.4316 -10.3687  -9.8075  -9.8047  -9.6404  -9.6399
    -7.2413  -7.2005  -7.1168  -7.0980  -6.4304  -6.3949  -6.3293  -6.2973
    -5.6395  -5.5761  -5.5599  -5.4975  -5.1469  -5.0645  -4.9223  -4.8284
    -4.7101  -4.7055  -4.3916  -4.2873  -3.9238  -3.8784  -3.6438  -3.5778
    -2.3739  -2.3599  -2.3024  -2.2827  -1.9932  -1.9375  -1.6421  -1.6158
    -1.4975  -1.4843  -1.2687  -1.2592  -0.9227  -0.8427  -0.7528  -0.6653
     0.6935   0.7829   0.8791   0.9113   1.0048   1.0441   1.0683   1.1216
     3.7555   3.8323   3.9126   3.9404   5.1070   5.2035   5.3035   5.4363
     7.0495   7.4599   7.8848   8.0755   8.2615   8.3979

          k = 0.2500 0.0000 0.3434 ( 50017 PWs)   bands (ev):

   -19.4204 -19.4190 -19.3962 -19.3948 -17.1505 -17.1436 -17.0872 -17.0805
   -15.9006 -15.9004 -15.7752 -15.7743 -13.3096 -13.3051 -13.1586 -13.1537
   -10.4294 -10.4095 -10.3579 -10.3389  -9.7721  -9.7677  -9.6122  -9.6091
    -7.2550  -7.2497  -7.1978  -7.1925  -6.8448  -6.8296  -6.6414  -6.6292
    -5.5278  -5.5045  -5.1684  -5.1639  -5.1178  -5.1093  -4.8694  -4.8626
    -4.8067  -4.7904  -4.4875  -4.4585  -4.0017  -3.8932  -3.7209  -3.5864
    -2.4977  -2.4667  -2.2137  -2.2098  -1.8141  -1.7512  -1.5831  -1.5158
    -1.3901  -1.3713  -1.2565  -1.2065  -0.9099  -0.8950  -0.8141  -0.7876
     0.7455   0.7587   1.0200   1.0563   1.0580   1.1242   1.1903   1.2519
     3.7448   3.7566   4.0391   4.0745   5.2979   5.3172   5.3670   5.3715
     7.4855   7.9091   7.9550   8.0708   8.1218   8.2487

          k = 0.2500 0.0000-0.2412 ( 50037 PWs)   bands (ev):

   -19.4460 -19.4395 -19.3786 -19.3723 -17.1244 -17.1128 -17.1095 -17.0987
   -15.8926 -15.8861 -15.7684 -15.7627 -13.3387 -13.3308 -13.2196 -13.2135
   -10.4844 -10.3912 -10.3767 -10.2829  -9.6610  -9.6420  -9.5913  -9.5739
    -7.2787  -7.2651  -7.1792  -7.1613  -6.7971  -6.7929  -6.6303  -6.6043
    -5.7433  -5.7059  -5.3817  -5.2693  -5.1576  -5.0688  -4.9380  -4.8260
    -4.7806  -4.7253  -4.4870  -4.3667  -3.9364  -3.8838  -3.5999  -3.5815
    -2.4642  -2.4334  -2.2152  -2.1797  -1.7278  -1.6954  -1.5402  -1.5285
    -1.3934  -1.3350  -1.2876  -1.2700  -1.0585  -0.9593  -0.8592  -0.7121
     0.7189   0.8359   0.9399   1.0807   1.0827   1.1857   1.1930   1.3682
     3.6880   3.8504   3.9782   4.1497   5.0873   5.2266   5.2505   5.4177
     7.3758   7.7370   7.8415   8.0536   8.1733   8.3964

          k = 0.2500-0.1836 0.0511 ( 50016 PWs)   bands (ev):

   -19.4730 -19.4717 -19.3925 -19.3913 -17.0537 -17.0536 -17.0005 -17.0004
   -15.9051 -15.9051 -15.7771 -15.7770 -13.4189 -13.4187 -13.2849 -13.2847
   -10.4942 -10.4942 -10.3889 -10.3887  -9.8064  -9.8058  -9.6404  -9.6399
    -7.2230  -7.2227  -7.1057  -7.1054  -6.4165  -6.4162  -6.3096  -6.3092
    -5.6097  -5.6093  -5.5329  -5.5327  -5.0998  -5.0986  -4.8713  -4.8706
    -4.7160  -4.7154  -4.3430  -4.3426  -3.8966  -3.8963  -3.6091  -3.6089
    -2.3660  -2.3658  -2.2953  -2.2948  -1.9644  -1.9642  -1.6320  -1.6317
    -1.4864  -1.4859  -1.2660  -1.2657  -0.8916  -0.8913  -0.7007  -0.7002
     0.7347   0.7351   0.8944   0.8944   1.0249   1.0251   1.0987   1.0988
     3.7882   3.7884   3.9317   3.9320   5.1380   5.1385   5.3871   5.3875
     7.2231   7.2231   7.9670   7.9676   8.3139   8.3143

          k = 0.2500-0.1836 0.3434 ( 50006 PWs)   bands (ev):

   -19.4203 -19.4191 -19.3961 -19.3948 -17.1473 -17.1472 -17.0837 -17.0836
   -15.9005 -15.9004 -15.7748 -15.7747 -13.3075 -13.3073 -13.1561 -13.1560
   -10.4208 -10.4207 -10.3471 -10.3470  -9.7703  -9.7695  -9.6109  -9.6103
    -7.2525  -7.2521  -7.1953  -7.1951  -6.8376  -6.8371  -6.6355  -6.6348
    -5.5159  -5.5158  -5.1704  -5.1700  -5.1127  -5.1119  -4.8451  -4.8447
    -4.8168  -4.8167  -4.4749  -4.4743  -3.9573  -3.9569  -3.6436  -3.6435
    -2.4814  -2.4813  -2.2110  -2.2109  -1.7849  -1.7847  -1.5512  -1.5505
    -1.3800  -1.3796  -1.2300  -1.2295  -0.9035  -0.9032  -0.8005  -0.7999
     0.7517   0.7521   1.0439   1.0440   1.0762   1.0763   1.2303   1.2305
     3.7507   3.7509   4.0563   4.0569   5.3079   5.3089   5.3680   5.3685
     7.6606   7.6608   8.0239   8.0245   8.1901   8.1906

          k = 0.2500-0.1836-0.2412 ( 50042 PWs)   bands (ev):

   -19.4435 -19.4423 -19.3759 -19.3747 -17.1205 -17.1205 -17.1022 -17.1021
   -15.8895 -15.8894 -15.7655 -15.7654 -13.3349 -13.3348 -13.2166 -13.2164
   -10.4553 -10.4552 -10.3124 -10.3123  -9.6533  -9.6525  -9.5816  -9.5809
    -7.2725  -7.2723  -7.1698  -7.1697  -6.7959  -6.7954  -6.6169  -6.6162
    -5.7259  -5.7257  -5.3371  -5.3368  -5.0996  -5.0986  -4.8816  -4.8809
    -4.7686  -4.7683  -4.4136  -4.4131  -3.9099  -3.9094  -3.5915  -3.5913
    -2.4510  -2.4509  -2.1951  -2.1951  -1.7139  -1.7139  -1.5329  -1.5324
    -1.3644  -1.3641  -1.2803  -1.2799  -1.0236  -1.0234  -0.7698  -0.7693
     0.7726   0.7730   0.9886   0.9889   1.1351   1.1352   1.3056   1.3057
     3.7475   3.7476   4.0854   4.0858   5.1277   5.1281   5.3630   5.3636
     7.5309   7.5310   7.9085   7.9091   8.3592   8.3596

          k =-0.5000 0.0000-0.1021 ( 49968 PWs)   bands (ev):

   -19.4400 -19.4387 -19.4063 -19.4051 -17.0665 -17.0664 -16.9919 -16.9918
   -15.9529 -15.9528 -15.7761 -15.7760 -13.4362 -13.4360 -13.2482 -13.2481
   -10.4528 -10.4527 -10.3944 -10.3942  -9.8758  -9.8751  -9.6501  -9.6496
    -7.1713  -7.1709  -7.1246  -7.1243  -6.4323  -6.4319  -6.2708  -6.2703
    -5.5267  -5.5264  -5.4187  -5.4180  -5.0631  -5.0620  -5.0244  -5.0238
    -4.6490  -4.6486  -4.4120  -4.4118  -4.0015  -4.0013  -3.7551  -3.7549
    -2.3904  -2.3904  -2.2410  -2.2406  -1.9083  -1.9081  -1.6007  -1.6000
    -1.3840  -1.3838  -1.1698  -1.1695  -0.8075  -0.8074  -0.7881  -0.7877
     0.7412   0.7414   0.9448   0.9453   1.0541   1.0546   1.0899   1.0904
     3.6681   3.6682   3.8036   3.8042   5.1747   5.1752   5.3234   5.3239
     7.7624   7.7626   7.9514   7.9520   8.1031   8.1032

          k =-0.5000 0.0000 0.1901 ( 50041 PWs)   bands (ev):

   -19.4172 -19.4130 -19.3867 -19.3825 -17.1406 -17.1273 -17.0963 -17.0837
   -15.9345 -15.9303 -15.7638 -15.7605 -13.3758 -13.3662 -13.1991 -13.1908
   -10.4425 -10.3644 -10.3579 -10.2800  -9.7035  -9.6920  -9.5808  -9.5631
    -7.2311  -7.2245  -7.1784  -7.1579  -6.7875  -6.7800  -6.6012  -6.5836
    -5.7182  -5.6919  -5.3560  -5.2369  -5.1301  -5.1028  -4.8819  -4.8337
    -4.8260  -4.8012  -4.5285  -4.4035  -4.0662  -3.9347  -3.7465  -3.6540
    -2.4788  -2.4478  -2.2374  -2.2048  -1.6474  -1.6160  -1.4525  -1.4101
    -1.2931  -1.2787  -1.1562  -1.1497  -1.0373  -0.9762  -0.8622  -0.7324
     0.7366   0.9252   0.9897   1.1121   1.1310   1.1647   1.1805   1.3586
     3.5790   3.7288   3.8067   3.9509   5.0788   5.2070   5.2255   5.3365
     7.7248   7.8292   7.9345   8.1627   8.1945   8.4452

          k =-0.5000-0.1836-0.1021 ( 50028 PWs)   bands (ev):

   -19.4400 -19.4387 -19.4063 -19.4051 -17.0664 -17.0664 -16.9919 -16.9918
   -15.9529 -15.9528 -15.7761 -15.7760 -13.4362 -13.4360 -13.2482 -13.2481
   -10.4528 -10.4527 -10.3944 -10.3942  -9.8758  -9.8751  -9.6501  -9.6497
    -7.1706  -7.1702  -7.1254  -7.1250  -6.4325  -6.4320  -6.2708  -6.2703
    -5.5274  -5.5271  -5.4118  -5.4111  -5.0627  -5.0616  -5.0406  -5.0401
    -4.6394  -4.6390  -4.4035  -4.4032  -4.0141  -4.0137  -3.7514  -3.7511
    -2.3916  -2.3915  -2.2397  -2.2393  -1.9081  -1.9078  -1.6009  -1.6003
    -1.3758  -1.3755  -1.1788  -1.1785  -0.8043  -0.8039  -0.7909  -0.7903
     0.7426   0.7428   0.9401   0.9406   1.0664   1.0670   1.0813   1.0818
     3.6663   3.6664   3.8054   3.8060   5.1750   5.1755   5.3230   5.3236
     7.7739   7.7744   7.9588   7.9589   8.0933   8.0938

          k =-0.5000-0.1836 0.1901 ( 50052 PWs)   bands (ev):

   -19.4159 -19.4146 -19.3851 -19.3839 -17.1349 -17.1349 -17.0891 -17.0890
   -15.9325 -15.9324 -15.7622 -15.7621 -13.3712 -13.3710 -13.1949 -13.1948
   -10.4188 -10.4187 -10.3037 -10.3036  -9.6986  -9.6978  -9.5719  -9.5712
    -7.2284  -7.2281  -7.1678  -7.1675  -6.7845  -6.7838  -6.5924  -6.5917
    -5.7064  -5.7063  -5.2999  -5.2998  -5.1141  -5.1133  -4.8793  -4.8788
    -4.7914  -4.7913  -4.4668  -4.4664  -4.0094  -4.0090  -3.6901  -3.6899
    -2.4637  -2.4636  -2.2209  -2.2207  -1.6327  -1.6326  -1.4313  -1.4311
    -1.2865  -1.2859  -1.1516  -1.1512  -1.0161  -1.0160  -0.7891  -0.7885
     0.8112   0.8114   1.0557   1.0560   1.1392   1.1395   1.2931   1.2933
     3.6306   3.6307   3.9019   3.9024   5.1179   5.1180   5.3058   5.3064
     7.8241   7.8242   7.9500   7.9507   8.3775   8.3779

     highest occupied, lowest unoccupied level (ev):     1.3682    3.5790

!    total energy              =    -691.57101491 Ry
     Harris-Foulkes estimate   =    -691.57101491 Ry
     estimated scf accuracy    <          7.0E-09 Ry

     total all-electron energy =     -2685.520980 Ry

     The total energy is the sum of the following terms:

     one-electron contribution =    -355.05902713 Ry
     hartree contribution      =     232.71270866 Ry
     xc contribution           =    -147.52863796 Ry
     ewald contribution        =    -209.17929130 Ry
     Dispersion Correction     =      -0.20309624 Ry
     one-center paw contrib.   =    -212.31367092 Ry

     convergence has been achieved in  16 iterations

     Forces acting on atoms (cartesian axes, Ry/au):

     atom    1 type  2   force =     0.02209732    0.01762355   -0.01678981
     atom    2 type  2   force =     0.02227377   -0.01770849   -0.01661949
     atom    3 type  2   force =    -0.02209732   -0.01762355    0.01678981
     atom    4 type  2   force =    -0.02227377    0.01770849    0.01661949
     atom    5 type  2   force =     0.01046133   -0.00454901   -0.00876910
     atom    6 type  2   force =     0.01033796    0.00464274   -0.00888790
     atom    7 type  2   force =    -0.01046133    0.00454901    0.00876910
     atom    8 type  2   force =    -0.01033796   -0.00464274    0.00888790
     atom    9 type  2   force =     0.00976086    0.00157146    0.00640962
     atom   10 type  2   force =     0.00986841   -0.00167842    0.00640058
     atom   11 type  2   force =    -0.00976086   -0.00157146   -0.00640962
     atom   12 type  2   force =    -0.00986841    0.00167842   -0.00640058
     atom   13 type  2   force =    -0.00266938   -0.00939178   -0.02609597
     atom   14 type  2   force =    -0.00261229    0.00939153   -0.02629816
     atom   15 type  2   force =     0.00266938    0.00939178    0.02609597
     atom   16 type  2   force =     0.00261229   -0.00939153    0.02629816
     atom   17 type  3   force =     0.00366663    0.00305612    0.00058138
     atom   18 type  3   force =     0.00366998   -0.00307163    0.00059403
     atom   19 type  3   force =    -0.00366663   -0.00305612   -0.00058138
     atom   20 type  3   force =    -0.00366998    0.00307163   -0.00059403
     atom   21 type  3   force =    -0.01141721   -0.00399807    0.01509467
     atom   22 type  3   force =    -0.01147873    0.00400844    0.01516729
     atom   23 type  3   force =     0.01141721    0.00399807   -0.01509467
     atom   24 type  3   force =     0.01147873   -0.00400844   -0.01516729
     atom   25 type  1   force =    -0.01265568   -0.00792363    0.02805517
     atom   26 type  1   force =    -0.01286270    0.00807987    0.02817472
     atom   27 type  1   force =     0.01265568    0.00792363   -0.02805517
     atom   28 type  1   force =     0.01286270   -0.00807987   -0.02817472
     atom   29 type  1   force =    -0.00831761    0.00512103   -0.00172597
     atom   30 type  1   force =    -0.00844513   -0.00509882   -0.00208616
     atom   31 type  1   force =     0.00831761   -0.00512103    0.00172597
     atom   32 type  1   force =     0.00844513    0.00509882    0.00208616
     atom   33 type  3   force =    -0.00097881    0.00621669    0.00567804
     atom   34 type  3   force =    -0.00086151   -0.00623864    0.00586378
     atom   35 type  3   force =     0.00097881   -0.00621669   -0.00567804
     atom   36 type  3   force =     0.00086151    0.00623864   -0.00586378
     atom   37 type  1   force =    -0.00705520   -0.00018281   -0.00112762
     atom   38 type  1   force =    -0.00688308    0.00012854   -0.00096275
     atom   39 type  1   force =     0.00705520    0.00018281    0.00112762
     atom   40 type  1   force =     0.00688308   -0.00012854    0.00096275
     atom   41 type  3   force =     0.00096989   -0.00027532   -0.00024845
     atom   42 type  3   force =     0.00087111    0.00029234   -0.00027414
     atom   43 type  3   force =    -0.00096989    0.00027532    0.00024845
     atom   44 type  3   force =    -0.00087111   -0.00029234    0.00027414

     Total force =     0.124133     Total SCF correction =     0.000201


     Computing stress (Cartesian axis) and pressure

          total   stress  (Ry/bohr**3)                   (kbar)     P=  -10.25
  -0.00008310  -0.00000009   0.00011267        -12.22     -0.01     16.57
  -0.00000009  -0.00003556  -0.00000005         -0.01     -5.23     -0.01
   0.00011267  -0.00000005  -0.00009047         16.57     -0.01    -13.31


     Writing output data file scf.save
 
     init_run     :     14.84s CPU     15.31s WALL (       1 calls)
     electrons    :    426.39s CPU    438.07s WALL (       1 calls)
     forces       :      7.06s CPU      7.11s WALL (       1 calls)
     stress       :     19.71s CPU     19.73s WALL (       1 calls)

     Called by init_run:
     wfcinit      :     10.14s CPU     10.53s WALL (       1 calls)
     potinit      :      1.68s CPU      1.73s WALL (       1 calls)

     Called by electrons:
     c_bands      :    376.66s CPU    387.30s WALL (      16 calls)
     sum_band     :     43.68s CPU     44.49s WALL (      16 calls)
     v_of_rho     :      0.93s CPU      1.01s WALL (      17 calls)
     newd         :      1.78s CPU      1.82s WALL (      17 calls)
     PAW_pot      :      3.08s CPU      3.08s WALL (      17 calls)
     mix_rho      :      0.20s CPU      0.21s WALL (      16 calls)

     Called by c_bands:
     init_us_2    :      3.30s CPU      3.31s WALL (     490 calls)
     cegterg      :    364.77s CPU    375.33s WALL (     224 calls)

     Called by sum_band:
     sum_band:bec :      0.05s CPU      0.05s WALL (     224 calls)
     addusdens    :      1.78s CPU      1.80s WALL (      16 calls)

     Called by *egterg:
     h_psi        :    229.07s CPU    236.52s WALL (     944 calls)
     s_psi        :     34.88s CPU     34.88s WALL (     944 calls)
     g_psi        :      1.47s CPU      1.48s WALL (     706 calls)
     cdiaghg      :     19.47s CPU     19.46s WALL (     930 calls)

     Called by h_psi:
     h_psi:pot    :    227.48s CPU    234.91s WALL (     944 calls)
     h_psi:calbec :     34.24s CPU     34.35s WALL (     944 calls)
     vloc_psi     :    158.33s CPU    165.65s WALL (     944 calls)
     add_vuspsi   :     34.90s CPU     34.90s WALL (     944 calls)

     General routines
     calbec       :     49.11s CPU     49.27s WALL (    1238 calls)
     fft          :      0.59s CPU      0.75s WALL (     245 calls)
     fftw         :    168.47s CPU    176.20s WALL (  132964 calls)
 
     Parallel routines
     fft_scatter  :     43.63s CPU     48.10s WALL (  133209 calls)
 
     PWSCF        :  7m52.92s CPU     8m 6.48s WALL

 
   This run was terminated on:  12:32:10  13Nov2017            

=------------------------------------------------------------------------------=
   JOB DONE.
=------------------------------------------------------------------------------=
