
     Program PWSCF v.6.1 (svn rev. 13369) starts on  7Dec2017 at  8:51:35 

     This program is part of the open-source Quantum ESPRESSO suite
     for quantum simulation of materials; please cite
         "P. Giannozzi et al., J. Phys.:Condens. Matter 21 395502 (2009);
          URL http://www.quantum-espresso.org", 
     in publications or presentations arising from this work. More details at
     http://www.quantum-espresso.org/quote

     Parallel version (MPI), running on     8 processors
     R & G space division:  proc/nbgrp/npool/nimage =       8
     Waiting for input...
     Reading input from standard input

     Current dimensions of program PWSCF are:
     Max number of different atomic species (ntypx) = 10
     Max number of k-points (npk) =  40000
     Max angular momentum in pseudopotentials (lmaxx) =  3
               file C.pbe-n-kjpaw_psl.0.1.UPF: wavefunction(s)  2P renormalized
               file N.pbe-n-kjpaw_psl.0.1.UPF: wavefunction(s)  2P renormalized
               file H.pbe-kjpaw_psl.0.1.UPF: wavefunction(s)  1S renormalized
               file O.pbe-n-kjpaw_psl.0.1.UPF: wavefunction(s)  2P renormalized

     -------------------------------------
     Parameters for Dispersion Correction:
     -------------------------------------
       atom      VdW radius       C_6     

        C          2.744         60.710
        N          2.640         42.670
        H          1.892          4.857
        O          2.536         24.284

     Subspace diagonalization in iterative solution of the eigenvalue problem:
     a serial algorithm will be used

 
     Parallelization info
     --------------------
     sticks:   dense  smooth     PW     G-vecs:    dense   smooth      PW
     Min         985     985    257                78672    78672   10587
     Max         986     986    258                78674    78674   10593
     Sum        7885    7885   2059               629385   629385   84713
 


     bravais-lattice index     =            0
     lattice parameter (alat)  =      12.7179  a.u.
     unit-cell volume          =    4658.9833 (a.u.)^3
     number of atoms/cell      =           80
     number of atomic types    =            4
     number of electrons       =       240.00
     number of Kohn-Sham states=          144
     kinetic-energy cutoff     =     100.0000  Ry
     charge density cutoff     =     400.0000  Ry
     convergence threshold     =      1.0E-08
     mixing beta               =       0.5000
     number of iterations used =            8  plain     mixing
     Exchange-correlation      =  SLA  PW   PBX  PBC ( 1  4  3  4 0 0)

     celldm(1)=  12.717857  celldm(2)=   0.000000  celldm(3)=   0.000000
     celldm(4)=   0.000000  celldm(5)=   0.000000  celldm(6)=   0.000000

     crystal axes: (cart. coord. in units of alat)
               a(1) = (   1.000000   0.000000   0.000000 )  
               a(2) = (   0.000000   1.531947   0.000000 )  
               a(3) = (  -0.920252   0.000000   1.478447 )  

     reciprocal axes: (cart. coord. in units 2 pi/alat)
               b(1) = (  1.000000  0.000000  0.622445 )  
               b(2) = (  0.000000  0.652764  0.000000 )  
               b(3) = (  0.000000  0.000000  0.676385 )  


     PseudoPot. # 1 for  C read from file:
     /scratch/ahofstet/pseudo/C.pbe-n-kjpaw_psl.0.1.UPF
     MD5 check sum: 430fe95172b1e11ef3f8ed03bac87931
     Pseudo is Projector augmented-wave + core cor, Zval =  4.0
     Generated using "atomic" code by A. Dal Corso  v.5.0.99 svn rev. 10869
     Shape of augmentation charge: BESSEL
     Using radial grid of 1073 points,  4 beta functions with: 
                l(1) =   0
                l(2) =   0
                l(3) =   1
                l(4) =   1
     Q(r) pseudized with 0 coefficients 


     PseudoPot. # 2 for  N read from file:
     /scratch/ahofstet/pseudo/N.pbe-n-kjpaw_psl.0.1.UPF
     MD5 check sum: f73187c8b701007e77325f868c9291d7
     Pseudo is Projector augmented-wave + core cor, Zval =  5.0
     Generated using "atomic" code by A. Dal Corso  v.5.0.99 svn rev. 10869
     Shape of augmentation charge: PSQ
     Using radial grid of 1085 points,  4 beta functions with: 
                l(1) =   0
                l(2) =   0
                l(3) =   1
                l(4) =   1
     Q(r) pseudized with 0 coefficients 


     PseudoPot. # 3 for  H read from file:
     /scratch/ahofstet/pseudo/H.pbe-kjpaw_psl.0.1.UPF
     MD5 check sum: 94e484f906d9e9773b2f6e52662335b2
     Pseudo is Projector augmented-wave, Zval =  1.0
     Generated using "atomic" code by A. Dal Corso  v.5.0.99 svn rev. 10869
     Shape of augmentation charge: PSQ
     Using radial grid of  929 points,  2 beta functions with: 
                l(1) =   0
                l(2) =   0
     Q(r) pseudized with 0 coefficients 


     PseudoPot. # 4 for  O read from file:
     /scratch/ahofstet/pseudo/O.pbe-n-kjpaw_psl.0.1.UPF
     MD5 check sum: 3f94a2996a3169367d6eb21d9b593f20
     Pseudo is Projector augmented-wave + core cor, Zval =  6.0
     Generated using "atomic" code by A. Dal Corso  v.5.0.99 svn rev. 10869
     Shape of augmentation charge: BESSEL
     Using radial grid of 1095 points,  4 beta functions with: 
                l(1) =   0
                l(2) =   0
                l(3) =   1
                l(4) =   1
     Q(r) pseudized with 0 coefficients 


     atomic species   valence    mass     pseudopotential
        C              4.00    12.01070      C( 1.00)
        N              5.00    14.00670      N( 1.00)
        H              1.00     1.00794      H( 1.00)
        O              6.00    15.99940      O( 1.00)

      2 Sym. Ops., with inversion, found
          (note:  2 additional sym.ops. were found but ignored
           their fractional translations are incommensurate with FFT grid)


   Cartesian axes

     site n.     atom                  positions (alat units)
         1           N   tau(   1) = (   0.3831574   0.4476692   0.8454320  )
         2           N   tau(   2) = (  -0.7635357   1.2136425   1.3722384  )
         3           N   tau(   3) = (  -0.3034096   1.0842773   0.6330149  )
         4           N   tau(   4) = (   0.8432835   0.3183041   0.1062085  )
         5           C   tau(   5) = (   0.3977362   0.3098643   0.6710644  )
         6           C   tau(   6) = (   0.1421377   1.0758376   0.0681591  )
         7           C   tau(   7) = (  -0.3179884   1.2220822   0.8073826  )
         8           C   tau(   8) = (  -0.0623899   0.4561089   1.4102879  )
         9           C   tau(   9) = (   0.2563268   0.1356082   0.6970821  )
        10           C   tau(  10) = (   0.2835471   0.9015814   0.0421414  )
        11           C   tau(  11) = (  -0.1765790   1.3963383   0.7813649  )
        12           C   tau(  12) = (  -0.2037993   0.6303651   1.4363056  )
        13           O   tau(  13) = (   0.2920629   0.0340966   0.8812072  )
        14           O   tau(  14) = (  -0.6724412   0.8000698   1.3364632  )
        15           O   tau(  15) = (  -0.2123151   1.4978499   0.5972397  )
        16           O   tau(  16) = (   0.7521890   0.7318767   0.1419838  )
        17           C   tau(  17) = (   0.2601620   0.1668039   1.0442440  )
        18           C   tau(  18) = (  -0.6405403   0.9327772   1.1734265  )
        19           C   tau(  19) = (  -0.1804142   1.3651426   0.4342030  )
        20           C   tau(  20) = (   0.7202881   0.5991693   0.3050205  )
        21           C   tau(  21) = (  -0.5936757   0.3387997   1.0381567  )
        22           C   tau(  22) = (   0.2132974   1.1047730   1.1795138  )
        23           C   tau(  23) = (   0.6734235   1.1931468   0.4402903  )
        24           C   tau(  24) = (  -0.1335496   0.4271735   0.2989332  )
        25           N   tau(  25) = (  -0.1363796   0.5971768   0.8782070  )
        26           N   tau(  26) = (  -0.2439987   1.3631501   1.3394635  )
        27           N   tau(  27) = (   0.2161274   0.9347697   0.6002400  )
        28           N   tau(  28) = (   0.3237465   0.1687964   0.1389835  )
        29           O   tau(  29) = (  -0.1523726   0.4224845   0.8138762  )
        30           O   tau(  30) = (  -0.2280057   1.1884577   1.4037943  )
        31           O   tau(  31) = (   0.2321204   1.1094620   0.6645708  )
        32           O   tau(  32) = (   0.3077535   0.3434888   0.0746527  )
        33           O   tau(  33) = (  -0.2877463   0.7111589   0.8806925  )
        34           O   tau(  34) = (  -0.0926320   1.4771322   1.3369779  )
        35           O   tau(  35) = (   0.3674941   0.8207876   0.5977545  )
        36           O   tau(  36) = (   0.1723798   0.0548143   0.1414690  )
        37           O   tau(  37) = (   0.0282976   0.6614128   0.9427579  )
        38           O   tau(  38) = (  -0.4086759   1.4273861   1.2749126  )
        39           O   tau(  39) = (   0.0514502   0.8705337   0.5356891  )
        40           O   tau(  40) = (   0.4884237   0.1045604   0.2035344  )
        41           H   tau(  41) = (   0.2458793   0.5211319   0.8487112  )
        42           H   tau(  42) = (  -0.6262576   1.2871052   1.3689593  )
        43           H   tau(  43) = (  -0.1661315   1.0108146   0.6297358  )
        44           H   tau(  44) = (   0.7060054   0.2448413   0.1094877  )
        45           H   tau(  45) = (  -0.5037846   0.5549694   0.8360046  )
        46           H   tau(  46) = (   0.1234063   1.3209427   1.3816659  )
        47           H   tau(  47) = (   0.5835324   0.9769771   0.6424424  )
        48           H   tau(  48) = (  -0.0436585   0.2110039   0.0967811  )
        49           H   tau(  49) = (   0.5522903   0.2589460   0.6635183  )
        50           H   tau(  50) = (  -0.0124164   1.0249193   0.0757052  )
        51           H   tau(  51) = (  -0.4725425   1.2730005   0.8149286  )
        52           H   tau(  52) = (   0.0921643   0.5070272   1.4027418  )
        53           H   tau(  53) = (   0.3615436   0.3960269   0.5376296  )
        54           H   tau(  54) = (   0.1783303   1.1620001   0.2015939  )
        55           H   tau(  55) = (  -0.2817958   1.1359196   0.9408174  )
        56           H   tau(  56) = (  -0.0985825   0.3699464   1.2768531  )
        57           H   tau(  57) = (   0.1004165   0.1862459   0.6920197  )
        58           H   tau(  58) = (   0.4394574   0.9522191   0.0472037  )
        59           H   tau(  59) = (  -0.0206687   1.3457006   0.7864272  )
        60           H   tau(  60) = (  -0.3597096   0.5797274   1.4312432  )
        61           H   tau(  61) = (   0.2818516   0.0280716   0.5771102  )
        62           H   tau(  62) = (   0.2580223   0.7940448   0.1621133  )
        63           H   tau(  63) = (  -0.2021038   1.5038749   0.9013368  )
        64           H   tau(  64) = (  -0.1782745   0.7379017   1.3163337  )
        65           H   tau(  65) = (   0.1056033   0.2229123   1.0397649  )
        66           H   tau(  66) = (  -0.4859816   0.9888856   1.1779056  )
        67           H   tau(  67) = (  -0.0258555   1.3090342   0.4386821  )
        68           H   tau(  68) = (   0.5657294   0.5430609   0.3005414  )
        69           H   tau(  69) = (  -0.7173408   0.0819894   1.1812942  )
        70           H   tau(  70) = (   0.3369626   0.8479626   1.0363762  )
        71           H   tau(  71) = (   0.7970887   1.4499571   0.2971527  )
        72           H   tau(  72) = (  -0.2572148   0.6839839   0.4420707  )
        73           H   tau(  73) = (  -0.4402916   0.2835871   1.0442109  )
        74           H   tau(  74) = (   0.0599133   1.0495604   1.1734595  )
        75           H   tau(  75) = (   0.5200394   1.2483594   0.4342361  )
        76           H   tau(  76) = (   0.0198345   0.4823861   0.3049874  )
        77           H   tau(  77) = (  -0.6197715   0.4446116   1.1594902  )
        78           H   tau(  78) = (   0.2393932   1.2105848   1.0581803  )
        79           H   tau(  79) = (   0.6995193   1.0873349   0.3189568  )
        80           H   tau(  80) = (  -0.1596454   0.3213617   0.4202667  )

     number of k points=     8
                       cart. coord. in units 2pi/alat
        k(    1) = (   0.0000000   0.0000000   0.0000000), wk =   0.1666667
        k(    2) = (   0.0000000   0.0000000  -0.3381927), wk =   0.1666667
        k(    3) = (   0.0000000  -0.3263822   0.0000000), wk =   0.1666667
        k(    4) = (   0.0000000  -0.3263822  -0.3381927), wk =   0.1666667
        k(    5) = (   0.3333333   0.0000000   0.2074817), wk =   0.3333333
        k(    6) = (   0.3333333   0.0000000  -0.1307110), wk =   0.3333333
        k(    7) = (   0.3333333  -0.3263822   0.2074817), wk =   0.3333333
        k(    8) = (   0.3333333  -0.3263822  -0.1307110), wk =   0.3333333

     Dense  grid:   629385 G-vectors     FFT dimensions: (  81, 125, 144)

     Estimated max dynamical RAM per process >     485.99MB

     Estimated total allocated dynamical RAM >    3887.91MB

     Check: negative/imaginary core charge=   -0.000002    0.000000

     Initial potential from superposition of free atoms

     starting charge  239.99887, renormalised to  240.00000
     Starting wfc are  200 randomized atomic wfcs
     Checking if some PAW data can be deallocated... 

     total cpu time spent up to now is       29.6 secs

     per-process dynamical memory:   341.8 Mb

     Self-consistent Calculation

     iteration #  1     ecut=   100.00 Ry     beta=0.50
     Davidson diagonalization with overlap
     ethr =  1.00E-02,  avg # of iterations =  4.2

     total cpu time spent up to now is      103.3 secs

     total energy              =   -1232.70311484 Ry
     Harris-Foulkes estimate   =   -1236.52692610 Ry
     estimated scf accuracy    <       7.39970241 Ry

     iteration #  2     ecut=   100.00 Ry     beta=0.50
     Davidson diagonalization with overlap
     ethr =  3.08E-03,  avg # of iterations =  3.0

     total cpu time spent up to now is      152.3 secs

     total energy              =   -1233.72807309 Ry
     Harris-Foulkes estimate   =   -1234.43856510 Ry
     estimated scf accuracy    <       1.55393333 Ry

     iteration #  3     ecut=   100.00 Ry     beta=0.50
     Davidson diagonalization with overlap
     ethr =  6.47E-04,  avg # of iterations =  7.5

     total cpu time spent up to now is      226.4 secs

     total energy              =   -1234.16517507 Ry
     Harris-Foulkes estimate   =   -1234.29974407 Ry
     estimated scf accuracy    <       0.35417683 Ry

     iteration #  4     ecut=   100.00 Ry     beta=0.50
     Davidson diagonalization with overlap
     ethr =  1.48E-04,  avg # of iterations =  3.5

     total cpu time spent up to now is      269.2 secs

     total energy              =   -1234.18385469 Ry
     Harris-Foulkes estimate   =   -1234.20210581 Ry
     estimated scf accuracy    <       0.05038385 Ry

     iteration #  5     ecut=   100.00 Ry     beta=0.50
     Davidson diagonalization with overlap
     ethr =  2.10E-05,  avg # of iterations =  7.8

     total cpu time spent up to now is      349.8 secs

     total energy              =   -1234.20656495 Ry
     Harris-Foulkes estimate   =   -1234.22587309 Ry
     estimated scf accuracy    <       0.06044083 Ry

     iteration #  6     ecut=   100.00 Ry     beta=0.50
     Davidson diagonalization with overlap
     ethr =  2.10E-05,  avg # of iterations =  1.5

     total cpu time spent up to now is      388.2 secs

     total energy              =   -1234.20013570 Ry
     Harris-Foulkes estimate   =   -1234.20988713 Ry
     estimated scf accuracy    <       0.02091423 Ry

     iteration #  7     ecut=   100.00 Ry     beta=0.50
     Davidson diagonalization with overlap
     ethr =  8.71E-06,  avg # of iterations =  5.0

     total cpu time spent up to now is      451.9 secs

     total energy              =   -1234.20861113 Ry
     Harris-Foulkes estimate   =   -1234.20871997 Ry
     estimated scf accuracy    <       0.00160732 Ry

     iteration #  8     ecut=   100.00 Ry     beta=0.50
     Davidson diagonalization with overlap
     ethr =  6.70E-07,  avg # of iterations =  2.0

     total cpu time spent up to now is      494.0 secs

     total energy              =   -1234.20811203 Ry
     Harris-Foulkes estimate   =   -1234.20879364 Ry
     estimated scf accuracy    <       0.00130148 Ry

     iteration #  9     ecut=   100.00 Ry     beta=0.50
     Davidson diagonalization with overlap
     ethr =  5.42E-07,  avg # of iterations =  3.2

     total cpu time spent up to now is      542.5 secs

     total energy              =   -1234.20840654 Ry
     Harris-Foulkes estimate   =   -1234.20840813 Ry
     estimated scf accuracy    <       0.00001879 Ry

     iteration # 10     ecut=   100.00 Ry     beta=0.50
     Davidson diagonalization with overlap
     ethr =  7.83E-09,  avg # of iterations =  4.1

     total cpu time spent up to now is      619.2 secs

     total energy              =   -1234.20842798 Ry
     Harris-Foulkes estimate   =   -1234.20843606 Ry
     estimated scf accuracy    <       0.00003202 Ry

     iteration # 11     ecut=   100.00 Ry     beta=0.50
     Davidson diagonalization with overlap
     ethr =  7.83E-09,  avg # of iterations =  1.4

     total cpu time spent up to now is      657.4 secs

     total energy              =   -1234.20842296 Ry
     Harris-Foulkes estimate   =   -1234.20842904 Ry
     estimated scf accuracy    <       0.00001583 Ry

     iteration # 12     ecut=   100.00 Ry     beta=0.50
     Davidson diagonalization with overlap
     ethr =  6.60E-09,  avg # of iterations =  3.4

     total cpu time spent up to now is      708.8 secs

     total energy              =   -1234.20842691 Ry
     Harris-Foulkes estimate   =   -1234.20842699 Ry
     estimated scf accuracy    <       0.00000027 Ry

     iteration # 13     ecut=   100.00 Ry     beta=0.50
     Davidson diagonalization with overlap
     ethr =  1.11E-10,  avg # of iterations =  4.0

     total cpu time spent up to now is      781.1 secs

     total energy              =   -1234.20842704 Ry
     Harris-Foulkes estimate   =   -1234.20842709 Ry
     estimated scf accuracy    <       0.00000014 Ry

     iteration # 14     ecut=   100.00 Ry     beta=0.50
     Davidson diagonalization with overlap
     ethr =  5.91E-11,  avg # of iterations =  2.0

     total cpu time spent up to now is      820.2 secs

     total energy              =   -1234.20842703 Ry
     Harris-Foulkes estimate   =   -1234.20842705 Ry
     estimated scf accuracy    <       0.00000005 Ry

     iteration # 15     ecut=   100.00 Ry     beta=0.50
     Davidson diagonalization with overlap
     ethr =  2.00E-11,  avg # of iterations =  3.8

     total cpu time spent up to now is      875.4 secs

     End of self-consistent calculation

          k = 0.0000 0.0000 0.0000 ( 78583 PWs)   bands (ev):

   -24.5910 -24.5906 -24.5642 -24.5642 -19.7437 -19.7349 -19.7010 -19.6952
   -19.1447 -19.1445 -19.1156 -19.1154 -19.0410 -19.0399 -19.0178 -19.0172
   -18.0067 -17.9969 -17.9923 -17.9903 -13.1487 -13.1386 -13.0845 -13.0461
   -11.3976 -11.3227 -11.3151 -11.2868 -10.1428 -10.1270 -10.0934 -10.0295
    -8.9093  -8.7953  -8.7456  -8.6067  -8.5056  -8.4845  -8.3980  -8.3963
    -7.3464  -7.3177  -7.3166  -7.3071  -6.8984  -6.8593  -6.7220  -6.6129
    -6.5926  -6.5700  -6.5270  -6.5046  -6.2545  -6.2327  -6.1450  -6.1137
    -6.0786  -6.0365  -6.0005  -5.9143  -5.5707  -5.5584  -5.5320  -5.5188
    -5.3444  -5.3403  -5.3111  -5.2366  -5.0930  -5.0638  -5.0521  -4.8832
    -4.3369  -4.3226  -4.3214  -4.3065  -3.6197  -3.5319  -3.4948  -3.3701
    -3.1440  -3.1331  -3.0628  -2.9244  -2.8869  -2.8392  -2.6717  -2.6061
    -2.4570  -2.3976  -2.3550  -2.2488  -1.5007  -1.3652  -1.3641  -1.3420
    -1.1250  -1.1085  -1.0761  -1.0403  -0.9962  -0.9530  -0.9462  -0.8925
    -0.8761  -0.8532  -0.7544  -0.7493  -0.7475  -0.7456  -0.6149  -0.5784
     0.1336   0.3011   0.4137   0.5035   0.6997   0.7206   0.7447   0.7495
     4.3164   4.3210   4.3436   4.4061   6.1162   6.7385   6.7815   7.0553
     7.3588   7.3838   7.5141   7.6576   7.7457   8.0538   8.1019   8.1901
     8.1911   8.2817   8.4216   8.5744   8.5778   8.7021   8.7661   8.8210

          k = 0.0000 0.0000-0.3382 ( 78710 PWs)   bands (ev):

   -24.5908 -24.5908 -24.5642 -24.5642 -19.7398 -19.7397 -19.6977 -19.6977
   -19.1447 -19.1447 -19.1153 -19.1153 -19.0404 -19.0404 -19.0175 -19.0175
   -18.0027 -18.0027 -17.9904 -17.9904 -13.1180 -13.1180 -13.0918 -13.0918
   -11.3602 -11.3602 -11.3012 -11.3012 -10.1344 -10.1344 -10.0610 -10.0610
    -8.8629  -8.8629  -8.6581  -8.6581  -8.5017  -8.5017  -8.4020  -8.4020
    -7.3520  -7.3520  -7.3303  -7.3303  -6.8634  -6.8634  -6.6336  -6.6336
    -6.5972  -6.5972  -6.4735  -6.4735  -6.2595  -6.2595  -6.1263  -6.1262
    -6.0631  -6.0631  -5.9470  -5.9470  -5.5520  -5.5520  -5.5350  -5.5350
    -5.3486  -5.3486  -5.2906  -5.2906  -5.0905  -5.0905  -4.9635  -4.9635
    -4.3476  -4.3476  -4.2881  -4.2880  -3.5413  -3.5413  -3.4709  -3.4709
    -3.1330  -3.1330  -3.0374  -3.0374  -2.7459  -2.7459  -2.6899  -2.6899
    -2.4566  -2.4566  -2.3325  -2.3325  -1.4275  -1.4275  -1.3529  -1.3529
    -1.1135  -1.1135  -1.0585  -1.0585  -0.9509  -0.9509  -0.9079  -0.9079
    -0.8621  -0.8621  -0.7760  -0.7760  -0.7524  -0.7524  -0.5971  -0.5971
     0.2184   0.2184   0.4637   0.4638   0.7098   0.7098   0.7482   0.7482
     4.3026   4.3027   4.3698   4.3698   6.3843   6.3843   7.2027   7.2027
     7.4824   7.4824   7.6557   7.6557   7.7061   7.7061   8.1257   8.1257
     8.2266   8.2266   8.4569   8.4569   8.6426   8.6426   8.7779   8.7779

          k = 0.0000-0.3264 0.0000 ( 78706 PWs)   bands (ev):

   -24.5908 -24.5908 -24.5642 -24.5642 -19.7396 -19.7396 -19.6981 -19.6980
   -19.1447 -19.1446 -19.1153 -19.1153 -19.0401 -19.0401 -19.0173 -19.0173
   -17.9987 -17.9987 -17.9948 -17.9948 -13.1436 -13.1436 -13.0651 -13.0651
   -11.3675 -11.3675 -11.2942 -11.2942 -10.1264 -10.1264 -10.0732 -10.0732
    -8.7959  -8.7959  -8.7539  -8.7539  -8.4405  -8.4405  -8.4244  -8.4244
    -7.3576  -7.3576  -7.2951  -7.2951  -6.8916  -6.8916  -6.6593  -6.6593
    -6.6131  -6.6131  -6.4813  -6.4813  -6.2234  -6.2234  -6.1575  -6.1575
    -6.0434  -6.0434  -5.9470  -5.9470  -5.5603  -5.5603  -5.5296  -5.5296
    -5.3485  -5.3485  -5.2860  -5.2860  -5.0720  -5.0720  -4.9456  -4.9456
    -4.3989  -4.3989  -4.2673  -4.2672  -3.5854  -3.5854  -3.4261  -3.4261
    -3.1310  -3.1310  -2.9933  -2.9933  -2.8694  -2.8694  -2.6290  -2.6290
    -2.4472  -2.4472  -2.2873  -2.2873  -1.4351  -1.4351  -1.3658  -1.3658
    -1.1386  -1.1386  -1.0399  -1.0399  -0.9913  -0.9913  -0.9091  -0.9091
    -0.8513  -0.8513  -0.7571  -0.7571  -0.7244  -0.7244  -0.5943  -0.5943
     0.1886   0.1886   0.4827   0.4827   0.7123   0.7123   0.7431   0.7432
     4.3167   4.3167   4.3700   4.3700   6.4952   6.4952   6.8514   6.8514
     7.3256   7.3256   7.4977   7.4977   7.9687   7.9687   8.1238   8.1238
     8.1995   8.1995   8.4397   8.4397   8.7899   8.7899   8.9556   8.9557

          k = 0.0000-0.3264-0.3382 ( 78732 PWs)   bands (ev):

   -24.5908 -24.5908 -24.5642 -24.5642 -19.7397 -19.7397 -19.6980 -19.6980
   -19.1448 -19.1447 -19.1152 -19.1151 -19.0401 -19.0401 -19.0173 -19.0173
   -17.9969 -17.9969 -17.9967 -17.9967 -13.1112 -13.1112 -13.0983 -13.0983
   -11.3547 -11.3547 -11.3073 -11.3073 -10.1148 -10.1148 -10.0845 -10.0845
    -8.7999  -8.7999  -8.7366  -8.7366  -8.4498  -8.4498  -8.4294  -8.4294
    -7.3790  -7.3790  -7.3181  -7.3181  -6.8476  -6.8476  -6.7304  -6.7304
    -6.5142  -6.5142  -6.4769  -6.4769  -6.2279  -6.2279  -6.1620  -6.1620
    -6.0181  -6.0181  -5.9650  -5.9650  -5.5481  -5.5481  -5.5445  -5.5445
    -5.3458  -5.3458  -5.2969  -5.2968  -5.0705  -5.0705  -4.9635  -4.9635
    -4.4196  -4.4196  -4.2486  -4.2486  -3.5055  -3.5055  -3.4985  -3.4985
    -3.1251  -3.1251  -3.0442  -3.0442  -2.7336  -2.7336  -2.6940  -2.6940
    -2.4473  -2.4473  -2.3470  -2.3470  -1.4286  -1.4286  -1.3660  -1.3660
    -1.1360  -1.1360  -1.0488  -1.0488  -0.9719  -0.9719  -0.8992  -0.8992
    -0.8489  -0.8489  -0.7600  -0.7600  -0.7377  -0.7377  -0.5997  -0.5997
     0.2152   0.2152   0.4645   0.4645   0.7123   0.7123   0.7436   0.7436
     4.3048   4.3048   4.3609   4.3609   6.6333   6.6334   6.9624   6.9624
     7.2070   7.2070   7.5348   7.5348   8.0548   8.0548   8.1573   8.1573
     8.3067   8.3067   8.5139   8.5139   8.6373   8.6373   8.6676   8.6676

          k = 0.3333 0.0000 0.2075 ( 78693 PWs)   bands (ev):

   -24.5880 -24.5878 -24.5661 -24.5659 -19.7351 -19.7304 -19.7098 -19.7091
   -19.1530 -19.1513 -19.1225 -19.1208 -19.0607 -19.0591 -19.0176 -19.0171
   -17.9881 -17.9784 -17.9645 -17.9568 -13.1368 -13.1137 -13.0942 -13.0707
   -11.3694 -11.3242 -11.3087 -11.2841 -10.1510 -10.1150 -10.0724 -10.0572
    -9.0111  -8.9908  -8.9463  -8.9328  -8.3394  -8.2822  -8.2612  -8.1594
    -7.4417  -7.4024  -7.2832  -7.1961  -6.8926  -6.8659  -6.7634  -6.7133
    -6.6073  -6.5841  -6.5774  -6.4565  -6.2843  -6.1837  -6.1415  -6.1259
    -6.0056  -5.9362  -5.9210  -5.8838  -5.5677  -5.5400  -5.5325  -5.5031
    -5.3371  -5.3277  -5.3150  -5.2771  -5.0888  -5.0727  -5.0077  -4.8941
    -4.4430  -4.4347  -4.2210  -4.1947  -3.5782  -3.5124  -3.4859  -3.4130
    -3.1388  -3.0907  -3.0415  -2.9335  -2.8224  -2.7244  -2.6855  -2.6587
    -2.4667  -2.4113  -2.3405  -2.3117  -1.5963  -1.4709  -1.4442  -1.4080
    -1.1455  -1.0997  -1.0815  -1.0739  -0.9046  -0.9025  -0.8748  -0.8634
    -0.8504  -0.8255  -0.8017  -0.7950  -0.7249  -0.7102  -0.6225  -0.6220
     0.1327   0.1485   0.4140   0.4649   0.7239   0.7313   0.7661   0.8197
     4.2958   4.3252   4.3624   4.3722   6.3331   6.6951   6.9071   6.9247
     7.1738   7.3328   7.4426   7.6175   7.6313   7.9919   8.1234   8.1281
     8.1921   8.2728   8.3906   8.5290   8.5617   8.6125   8.6555   8.7961

          k = 0.3333 0.0000-0.1307 ( 78659 PWs)   bands (ev):

   -24.5880 -24.5879 -24.5660 -24.5660 -19.7362 -19.7274 -19.7152 -19.7056
   -19.1526 -19.1517 -19.1223 -19.1211 -19.0604 -19.0594 -19.0177 -19.0170
   -17.9847 -17.9832 -17.9624 -17.9576 -13.1222 -13.1098 -13.1068 -13.0781
   -11.3557 -11.3349 -11.3001 -11.2933 -10.1408 -10.1292 -10.0764 -10.0481
    -9.0364  -8.9826  -8.9361  -8.9287  -8.3511  -8.3028  -8.1995  -8.1881
    -7.4346  -7.3511  -7.2891  -7.2196  -6.9144  -6.8715  -6.7384  -6.6731
    -6.6458  -6.6389  -6.5233  -6.4923  -6.2653  -6.2321  -6.1180  -6.1114
    -5.9979  -5.9530  -5.9339  -5.8871  -5.5516  -5.5482  -5.5191  -5.5150
    -5.3480  -5.2945  -5.2906  -5.2775  -5.1247  -5.1091  -4.9785  -4.9318
    -4.4351  -4.4113  -4.2265  -4.2105  -3.5525  -3.5045  -3.4570  -3.4046
    -3.1507  -3.0853  -2.9962  -2.9873  -2.7876  -2.7303  -2.7195  -2.6583
    -2.4310  -2.4188  -2.3841  -2.2924  -1.5465  -1.5074  -1.4383  -1.4334
    -1.1351  -1.1055  -1.0884  -1.0658  -0.9105  -0.9021  -0.8951  -0.8670
    -0.8504  -0.8301  -0.8023  -0.7883  -0.7148  -0.7098  -0.6326  -0.6027
     0.1027   0.1803   0.4214   0.4625   0.7192   0.7353   0.7744   0.8076
     4.3166   4.3343   4.3466   4.3784   6.2853   6.6700   6.7565   6.9583
     7.1390   7.2311   7.4382   7.6112   7.7035   7.9479   8.1089   8.1908
     8.2034   8.2478   8.3652   8.4936   8.6759   8.7216   8.8263   8.8539

          k = 0.3333-0.3264 0.2075 ( 78716 PWs)   bands (ev):

   -24.5879 -24.5879 -24.5660 -24.5660 -19.7326 -19.7326 -19.7100 -19.7099
   -19.1510 -19.1509 -19.1229 -19.1229 -19.0587 -19.0587 -19.0180 -19.0180
   -17.9773 -17.9773 -17.9669 -17.9669 -13.1255 -13.1255 -13.0819 -13.0819
   -11.3433 -11.3433 -11.3004 -11.3004 -10.1211 -10.1211 -10.0805 -10.0805
    -8.9893  -8.9893  -8.9339  -8.9339  -8.3666  -8.3666  -8.1702  -8.1702
    -7.3821  -7.3821  -7.2914  -7.2914  -6.8586  -6.8586  -6.7448  -6.7448
    -6.6076  -6.6076  -6.5310  -6.5310  -6.2179  -6.2179  -6.1222  -6.1222
    -5.9740  -5.9740  -5.8946  -5.8946  -5.5543  -5.5542  -5.5171  -5.5171
    -5.3390  -5.3390  -5.3003  -5.3003  -5.0697  -5.0697  -4.9512  -4.9512
    -4.4191  -4.4191  -4.2481  -4.2481  -3.5319  -3.5319  -3.4458  -3.4458
    -3.1278  -3.1278  -2.9644  -2.9644  -2.7917  -2.7917  -2.6686  -2.6686
    -2.4413  -2.4413  -2.3335  -2.3334  -1.5238  -1.5237  -1.4289  -1.4289
    -1.1180  -1.1180  -1.0747  -1.0747  -0.9237  -0.9237  -0.8704  -0.8704
    -0.8402  -0.8402  -0.7752  -0.7752  -0.7170  -0.7170  -0.6196  -0.6196
     0.1456   0.1457   0.4164   0.4164   0.7419   0.7419   0.7896   0.7896
     4.3208   4.3208   4.3523   4.3523   6.6664   6.6664   6.9523   6.9523
     7.1051   7.1051   7.3028   7.3028   7.8668   7.8668   8.0625   8.0625
     8.3416   8.3416   8.4051   8.4051   8.6881   8.6881   8.7970   8.7970

          k = 0.3333-0.3264-0.1307 ( 78650 PWs)   bands (ev):

   -24.5879 -24.5879 -24.5660 -24.5660 -19.7325 -19.7324 -19.7101 -19.7101
   -19.1509 -19.1509 -19.1230 -19.1230 -19.0587 -19.0587 -19.0180 -19.0180
   -17.9774 -17.9774 -17.9669 -17.9669 -13.1149 -13.1149 -13.0933 -13.0933
   -11.3355 -11.3355 -11.3071 -11.3071 -10.1160 -10.1160 -10.0848 -10.0848
    -8.9895  -8.9895  -8.9377  -8.9377  -8.3661  -8.3661  -8.1682  -8.1682
    -7.3650  -7.3650  -7.2892  -7.2892  -6.8741  -6.8741  -6.7145  -6.7145
    -6.6110  -6.6110  -6.5708  -6.5708  -6.2054  -6.2054  -6.1309  -6.1309
    -5.9767  -5.9767  -5.9006  -5.9006  -5.5486  -5.5486  -5.5189  -5.5189
    -5.3371  -5.3371  -5.2767  -5.2767  -5.0766  -5.0766  -4.9848  -4.9847
    -4.4048  -4.4048  -4.2549  -4.2549  -3.4978  -3.4978  -3.4530  -3.4530
    -3.1168  -3.1168  -2.9813  -2.9813  -2.7749  -2.7749  -2.6824  -2.6824
    -2.4366  -2.4365  -2.3343  -2.3342  -1.5193  -1.5193  -1.4396  -1.4396
    -1.1147  -1.1147  -1.0690  -1.0690  -0.9224  -0.9224  -0.8812  -0.8812
    -0.8460  -0.8460  -0.7821  -0.7821  -0.7110  -0.7110  -0.6124  -0.6124
     0.1442   0.1442   0.4188   0.4188   0.7451   0.7451   0.7861   0.7861
     4.3310   4.3311   4.3528   4.3529   6.5885   6.5885   6.9291   6.9291
     7.0688   7.0688   7.2768   7.2768   7.8607   7.8607   8.1049   8.1049
     8.2609   8.2609   8.5292   8.5292   8.6766   8.6766   8.9045   8.9046

     highest occupied, lowest unoccupied level (ev):     0.8197    4.2958

!    total energy              =   -1234.20842705 Ry
     Harris-Foulkes estimate   =   -1234.20842705 Ry
     estimated scf accuracy    <          3.3E-09 Ry

     total all-electron energy =     -4550.374564 Ry

     The total energy is the sum of the following terms:

     one-electron contribution =    -667.44310647 Ry
     hartree contribution      =     428.14602003 Ry
     xc contribution           =    -256.75874639 Ry
     ewald contribution        =    -412.88118386 Ry
     Dispersion Correction     =      -0.34732381 Ry
     one-center paw contrib.   =    -324.92408655 Ry

     convergence has been achieved in  15 iterations

     Forces acting on atoms (cartesian axes, Ry/au):

     atom    1 type  2   force =     0.00014743    0.00082129    0.00007519
     atom    2 type  2   force =    -0.00014704    0.00082022   -0.00007509
     atom    3 type  2   force =    -0.00014743   -0.00082129   -0.00007519
     atom    4 type  2   force =     0.00014704   -0.00082022    0.00007509
     atom    5 type  1   force =     0.00062495   -0.00042168   -0.00004050
     atom    6 type  1   force =    -0.00062560   -0.00043948    0.00003989
     atom    7 type  1   force =    -0.00062495    0.00042168    0.00004050
     atom    8 type  1   force =     0.00062560    0.00043948   -0.00003989
     atom    9 type  1   force =    -0.00141120   -0.00088295    0.00005933
     atom   10 type  1   force =     0.00141175   -0.00088587   -0.00005947
     atom   11 type  1   force =     0.00141120    0.00088295   -0.00005933
     atom   12 type  1   force =    -0.00141175    0.00088587    0.00005947
     atom   13 type  4   force =     0.00147441   -0.00108777   -0.00003823
     atom   14 type  4   force =    -0.00147497   -0.00108940    0.00003749
     atom   15 type  4   force =    -0.00147441    0.00108777    0.00003823
     atom   16 type  4   force =     0.00147497    0.00108940   -0.00003749
     atom   17 type  1   force =    -0.00243383    0.00045901    0.00045322
     atom   18 type  1   force =     0.00243331    0.00046783   -0.00045399
     atom   19 type  1   force =     0.00243383   -0.00045901   -0.00045322
     atom   20 type  1   force =    -0.00243331   -0.00046783    0.00045399
     atom   21 type  1   force =     0.00132593   -0.00164268    0.00024041
     atom   22 type  1   force =    -0.00132641   -0.00162904   -0.00023942
     atom   23 type  1   force =    -0.00132593    0.00164268   -0.00024041
     atom   24 type  1   force =     0.00132641    0.00162904    0.00023942
     atom   25 type  2   force =     0.00121333    0.00238166    0.00191881
     atom   26 type  2   force =    -0.00121550    0.00238108   -0.00191914
     atom   27 type  2   force =    -0.00121333   -0.00238166   -0.00191881
     atom   28 type  2   force =     0.00121550   -0.00238108    0.00191914
     atom   29 type  4   force =     0.00072515   -0.00126629    0.00006634
     atom   30 type  4   force =    -0.00072613   -0.00125999   -0.00006758
     atom   31 type  4   force =    -0.00072515    0.00126629   -0.00006634
     atom   32 type  4   force =     0.00072613    0.00125999    0.00006758
     atom   33 type  4   force =     0.00216615   -0.00064704    0.00127466
     atom   34 type  4   force =    -0.00216246   -0.00064633   -0.00127445
     atom   35 type  4   force =    -0.00216615    0.00064704   -0.00127466
     atom   36 type  4   force =     0.00216246    0.00064633    0.00127445
     atom   37 type  4   force =    -0.00211214    0.00057202   -0.00161685
     atom   38 type  4   force =     0.00211172    0.00057034    0.00161650
     atom   39 type  4   force =     0.00211214   -0.00057202    0.00161685
     atom   40 type  4   force =    -0.00211172   -0.00057034   -0.00161650
     atom   41 type  3   force =    -0.00060092    0.00038598    0.00022836
     atom   42 type  3   force =     0.00060109    0.00038603   -0.00022837
     atom   43 type  3   force =     0.00060092   -0.00038598   -0.00022836
     atom   44 type  3   force =    -0.00060109   -0.00038603    0.00022837
     atom   45 type  3   force =     0.00012445    0.00073027   -0.00001792
     atom   46 type  3   force =    -0.00012460    0.00073035    0.00001788
     atom   47 type  3   force =    -0.00012445   -0.00073027    0.00001792
     atom   48 type  3   force =     0.00012460   -0.00073035   -0.00001788
     atom   49 type  3   force =    -0.00008347   -0.00045115    0.00020865
     atom   50 type  3   force =     0.00008320   -0.00045102   -0.00020882
     atom   51 type  3   force =     0.00008347    0.00045115   -0.00020865
     atom   52 type  3   force =    -0.00008320    0.00045102    0.00020882
     atom   53 type  3   force =    -0.00012088    0.00114854   -0.00096421
     atom   54 type  3   force =     0.00012091    0.00114910    0.00096440
     atom   55 type  3   force =     0.00012088   -0.00114854    0.00096421
     atom   56 type  3   force =    -0.00012091   -0.00114910   -0.00096440
     atom   57 type  3   force =     0.00074440   -0.00044023   -0.00041223
     atom   58 type  3   force =    -0.00074414   -0.00044023    0.00041210
     atom   59 type  3   force =    -0.00074440    0.00044023    0.00041223
     atom   60 type  3   force =     0.00074414    0.00044023   -0.00041210
     atom   61 type  3   force =     0.00009214   -0.00015840    0.00040681
     atom   62 type  3   force =    -0.00009223   -0.00015878   -0.00040661
     atom   63 type  3   force =    -0.00009214    0.00015840   -0.00040681
     atom   64 type  3   force =     0.00009223    0.00015878    0.00040661
     atom   65 type  3   force =     0.00233780   -0.00031873    0.00039571
     atom   66 type  3   force =    -0.00233765   -0.00031896   -0.00039554
     atom   67 type  3   force =    -0.00233780    0.00031873   -0.00039571
     atom   68 type  3   force =     0.00233765    0.00031896    0.00039554
     atom   69 type  3   force =    -0.00019747    0.00058463   -0.00007357
     atom   70 type  3   force =     0.00019743    0.00058431    0.00007400
     atom   71 type  3   force =     0.00019747   -0.00058463    0.00007357
     atom   72 type  3   force =    -0.00019743   -0.00058431   -0.00007400
     atom   73 type  3   force =    -0.00050535    0.00015335    0.00008165
     atom   74 type  3   force =     0.00050534    0.00015347   -0.00008143
     atom   75 type  3   force =     0.00050535   -0.00015335   -0.00008165
     atom   76 type  3   force =    -0.00050534   -0.00015347    0.00008143
     atom   77 type  3   force =    -0.00028125    0.00007816    0.00067018
     atom   78 type  3   force =     0.00028129    0.00007855   -0.00067069
     atom   79 type  3   force =     0.00028125   -0.00007816   -0.00067018
     atom   80 type  3   force =    -0.00028129   -0.00007855    0.00067069

     Total force =     0.015101     Total SCF correction =     0.000090


     Computing stress (Cartesian axis) and pressure

          total   stress  (Ry/bohr**3)                   (kbar)     P=   -8.71
  -0.00006580  -0.00000000   0.00000862         -9.68     -0.00      1.27
  -0.00000000  -0.00005435  -0.00000000         -0.00     -7.99     -0.00
   0.00000862  -0.00000000  -0.00005740          1.27     -0.00     -8.44


     Writing output data file scf.save
 
     init_run     :     27.86s CPU     28.89s WALL (       1 calls)
     electrons    :    810.26s CPU    845.96s WALL (       1 calls)
     forces       :     13.74s CPU     13.87s WALL (       1 calls)
     stress       :     47.22s CPU     47.44s WALL (       1 calls)

     Called by init_run:
     wfcinit      :     19.83s CPU     20.75s WALL (       1 calls)
     potinit      :      2.91s CPU      2.94s WALL (       1 calls)

     Called by electrons:
     c_bands      :    720.34s CPU    750.70s WALL (      15 calls)
     sum_band     :     79.63s CPU     84.18s WALL (      15 calls)
     v_of_rho     :      1.57s CPU      1.73s WALL (      16 calls)
     newd         :      3.23s CPU      3.86s WALL (      16 calls)
     PAW_pot      :      5.03s CPU      5.03s WALL (      16 calls)
     mix_rho      :      0.33s CPU      0.35s WALL (      15 calls)

     Called by c_bands:
     init_us_2    :      4.35s CPU      4.37s WALL (     264 calls)
     cegterg      :    704.74s CPU    735.05s WALL (     120 calls)

     Called by sum_band:
     sum_band:bec :      0.05s CPU      0.05s WALL (     120 calls)
     addusdens    :      3.17s CPU      3.77s WALL (      15 calls)

     Called by *egterg:
     h_psi        :    416.15s CPU    440.03s WALL (     579 calls)
     s_psi        :     72.27s CPU     72.28s WALL (     579 calls)
     g_psi        :      2.05s CPU      2.05s WALL (     451 calls)
     cdiaghg      :     43.25s CPU     43.25s WALL (     571 calls)

     Called by h_psi:
     h_psi:pot    :    413.01s CPU    436.84s WALL (     579 calls)
     h_psi:calbec :     71.99s CPU     72.17s WALL (     579 calls)
     vloc_psi     :    268.52s CPU    292.16s WALL (     579 calls)
     add_vuspsi   :     72.50s CPU     72.51s WALL (     579 calls)

     General routines
     calbec       :    105.05s CPU    105.29s WALL (     739 calls)
     fft          :      1.35s CPU      1.61s WALL (     232 calls)
     fftw         :    291.91s CPU    317.35s WALL (  117072 calls)
 
     Parallel routines
     fft_scatter  :     59.16s CPU     77.95s WALL (  117304 calls)
 
     PWSCF        : 15m 5.59s CPU    16m15.69s WALL

 
   This run was terminated on:   9: 7:51   7Dec2017            

=------------------------------------------------------------------------------=
   JOB DONE.
=------------------------------------------------------------------------------=
